                         Program Version 4.2.0 -  RELEASE  -
|  1> # ORCA input file
|  2> # SCF done       -142.138334651327          0.000907289196
|  3> ! CAM-B3LYP def2-SVP def2/J RIJCOSX Grid4 TightSCF
|  4> %maxcore 5000
|  5> %tddft
|  6>     Mode sTDDFT
|  7>     Ethresh 5.0
|  8>     maxcore 5000
|  9> end
| 10>
| 11> %pal
| 12>   nprocs 6
| 13>   end
| 14> * xyz 0 1
| 15>    C        1.65188        -0.00249        -6.81774
| 16>    N        1.65101         1.31146        -6.96950
| 17>    C        1.21005         2.01929        -5.93816
| 18>    C        0.77681         1.42655        -4.76678
| 19>    C        0.82267         0.02642        -4.70812
| 20>    N        1.26625        -0.67720        -5.75825
| 21>    C        0.39354        -0.68821        -3.52819
| 22>    C        0.46256        -2.02895        -3.44571
| 23>    C        0.14858        -2.87059        -2.32328
| 24>    C       -0.71154        -2.62725        -1.28671
| 25>    O       -0.75612        -3.43451        -0.15909
| 26>    C        0.02054        -4.55329        -0.19281
| 27>    C        0.83677        -4.86016        -1.31881
| 28>    C        1.51321        -6.02608        -1.17642
| 29>    S        1.16377        -6.76866         0.34111
| 30>    C        0.09316        -5.49013         0.78347
| 31>    O        0.91449        -4.02635        -2.39117
| 32>    C       -1.70932        -1.60201        -1.17022
| 33>    C       -2.36539        -0.98389        -2.17802
| 34>    C       -3.41078        -0.04160        -1.99781
| 35>    S       -4.20957         0.60500        -3.42532
| 36>    C       -5.25564         1.53292        -2.44834
| 37>    C       -4.99513         1.36275        -1.08324
| 38>    C       -3.95589         0.47603        -0.83074
| 39>    C       -5.95035         2.18824        -0.29267
| 40>    O       -6.02378         2.30522         0.90495
| 41>    C       -6.79076         2.83205        -1.33787
| 42>    C       -6.34881         2.42773        -2.60159
| 43>    S       -7.27665         3.10079        -3.86397
| 44>    C       -8.31347         3.90600        -2.69325
| 45>    C       -7.88995         3.68252        -1.39415
| 46>    C       -9.36614         4.77659        -3.09497
| 47>    S       -9.59711         6.24723        -2.19867
| 48>    C      -10.83124         6.82556        -3.27229
| 49>    C      -11.06245         5.89318        -4.29523
| 50>    C      -10.25493         4.71096        -4.16885
| 51>    C      -10.50464         3.61235        -5.03826
| 52>    C       -9.97686         2.32249        -4.81890
| 53>    N       -9.65086         1.23317        -4.66486
| 54>    C      -11.40575         3.74859        -6.07699
| 55>    C      -12.10671         4.93879        -6.26798
| 56>    C      -11.97299         5.99121        -5.38001
| 57>    C      -12.78158         7.12322        -5.62074
| 58>    N      -13.46553         8.00404        -5.89305
| 59>    C      -11.47020         8.06711        -3.06308
| 60>    C      -11.19935         8.91321        -2.03589
| 61>    C      -11.85458        10.15233        -1.83281
| 62>    S      -11.41061        11.14948        -0.47235
| 63>    C      -12.57710        12.35741        -0.92610
| 64>    C      -13.25892        11.98584        -2.06882
| 65>    C      -12.85575        10.75494        -2.57586
| 66>    C      -12.74377        13.51908        -0.18662
| 67>    C      -12.88291        14.52929         0.46902
| 68>    C      -13.05454        15.70074         1.21861
| 69>    C      -13.95195        16.63863         0.91929
| 70>    H        2.00919        -0.58546        -7.65783
| 71>    H        1.20976         3.09437        -6.06779
| 72>    H        0.41944         2.00891        -3.93239
| 73>    H        0.02343        -0.08724        -2.71042
| 74>    H        0.91775        -2.55640        -4.27462
| 75>    H        2.18875        -6.48604        -1.86645
| 76>    H       -0.41420        -5.50416         1.72508
| 77>    H       -2.02604        -1.43957        -0.14918
| 78>    H       -2.11156        -1.21614        -3.20260
| 79>    H       -3.61305         0.21386         0.15262
| 80>    H       -8.39033         4.09778        -0.53801
| 81>    H      -11.58542         2.91096        -6.73389
| 82>    H      -12.79426         5.02813        -7.09541
| 83>    H      -12.22667         8.34000        -3.78084
| 84>    H      -10.43988         8.64236        -1.31292
| 85>    H      -14.02292        12.60244        -2.50769
| 86>    H      -13.27883        10.31260        -3.45960
| 87>    H      -12.39689        15.80661         2.07299
| 88>    H      -14.60511        16.54210         0.06814
| 89>    H      -14.05483        17.52850         1.51538
| 90> *
| 91>
| 92>                          ****END OF INPUT****

CARTESIAN COORDINATES (ANGSTROEM)
---------------------------------
  C      1.651880   -0.002490   -6.817740
  N      1.651010    1.311460   -6.969500
  C      1.210050    2.019290   -5.938160
  C      0.776810    1.426550   -4.766780
  C      0.822670    0.026420   -4.708120
  N      1.266250   -0.677200   -5.758250
  C      0.393540   -0.688210   -3.528190
  C      0.462560   -2.028950   -3.445710
  C      0.148580   -2.870590   -2.323280
  C     -0.711540   -2.627250   -1.286710
  O     -0.756120   -3.434510   -0.159090
  C      0.020540   -4.553290   -0.192810
  C      0.836770   -4.860160   -1.318810
  C      1.513210   -6.026080   -1.176420
  S      1.163770   -6.768660    0.341110
  C      0.093160   -5.490130    0.783470
  O      0.914490   -4.026350   -2.391170
  C     -1.709320   -1.602010   -1.170220
  C     -2.365390   -0.983890   -2.178020
  C     -3.410780   -0.041600   -1.997810
  S     -4.209570    0.605000   -3.425320
  C     -5.255640    1.532920   -2.448340
  C     -4.995130    1.362750   -1.083240
  C     -3.955890    0.476030   -0.830740
  C     -5.950350    2.188240   -0.292670
  O     -6.023780    2.305220    0.904950
  C     -6.790760    2.832050   -1.337870
  C     -6.348810    2.427730   -2.601590
  S     -7.276650    3.100790   -3.863970
  C     -8.313470    3.906000   -2.693250
  C     -7.889950    3.682520   -1.394150
  C     -9.366140    4.776590   -3.094970
  S     -9.597110    6.247230   -2.198670
  C    -10.831240    6.825560   -3.272290
  C    -11.062450    5.893180   -4.295230
  C    -10.254930    4.710960   -4.168850
  C    -10.504640    3.612350   -5.038260
  C     -9.976860    2.322490   -4.818900
  N     -9.650860    1.233170   -4.664860
  C    -11.405750    3.748590   -6.076990
  C    -12.106710    4.938790   -6.267980
  C    -11.972990    5.991210   -5.380010
  C    -12.781580    7.123220   -5.620740
  N    -13.465530    8.004040   -5.893050
  C    -11.470200    8.067110   -3.063080
  C    -11.199350    8.913210   -2.035890
  C    -11.854580   10.152330   -1.832810
  S    -11.410610   11.149480   -0.472350
  C    -12.577100   12.357410   -0.926100
  C    -13.258920   11.985840   -2.068820
  C    -12.855750   10.754940   -2.575860
  C    -12.743770   13.519080   -0.186620
  C    -12.882910   14.529290    0.469020
  C    -13.054540   15.700740    1.218610
  C    -13.951950   16.638630    0.919290
  H      2.009190   -0.585460   -7.657830
  H      1.209760    3.094370   -6.067790
  H      0.419440    2.008910   -3.932390
  H      0.023430   -0.087240   -2.710420
  H      0.917750   -2.556400   -4.274620
  H      2.188750   -6.486040   -1.866450
  H     -0.414200   -5.504160    1.725080
  H     -2.026040   -1.439570   -0.149180
  H     -2.111560   -1.216140   -3.202600
  H     -3.613050    0.213860    0.152620
  H     -8.390330    4.097780   -0.538010
  H    -11.585420    2.910960   -6.733890
  H    -12.794260    5.028130   -7.095410
  H    -12.226670    8.340000   -3.780840
  H    -10.439880    8.642360   -1.312920
  H    -14.022920   12.602440   -2.507690
  H    -13.278830   10.312600   -3.459600
  H    -12.396890   15.806610    2.072990
  H    -14.605110   16.542100    0.068140
  H    -14.054830   17.528500    1.515380

 Total Charge           Charge          ....    0
 Multiplicity           Mult            ....    1
 Number of Electrons    NEL             ....  410
 Basis Dimension        Dim             ....  890

ORBITAL ENERGIES
----------------

  NO   OCC          E(Eh)            E(eV)
   0   2.0000     -88.985515     -2421.4190
   1   2.0000     -88.983874     -2421.3743
   2   2.0000     -88.981758     -2421.3167
   3   2.0000     -88.959985     -2420.7243
   4   2.0000     -88.952934     -2420.5324
   5   2.0000     -19.270379      -524.3737
   6   2.0000     -19.267091      -524.2842
   7   2.0000     -19.222159      -523.0615
   8   2.0000     -14.424349      -392.5065
   9   2.0000     -14.417097      -392.3092
  10   2.0000     -14.403588      -391.9416
  11   2.0000     -14.400625      -391.8609
  12   2.0000     -10.372762      -282.2572
  13   2.0000     -10.347260      -281.5633
  14   2.0000     -10.341993      -281.4199
  15   2.0000     -10.339158      -281.3428
  16   2.0000     -10.337620      -281.3009
  17   2.0000     -10.335796      -281.2513
  18   2.0000     -10.335201      -281.2351
  19   2.0000     -10.331336      -281.1299
  20   2.0000     -10.328353      -281.0488
  21   2.0000     -10.327415      -281.0232
  22   2.0000     -10.325589      -280.9736
  23   2.0000     -10.324934      -280.9558
  24   2.0000     -10.324171      -280.9350
  25   2.0000     -10.323595      -280.9193
  26   2.0000     -10.323562      -280.9184
  27   2.0000     -10.317390      -280.7505
  28   2.0000     -10.316603      -280.7291
  29   2.0000     -10.316578      -280.7284
  30   2.0000     -10.316009      -280.7129
  31   2.0000     -10.315756      -280.7060
  32   2.0000     -10.315023      -280.6860
  33   2.0000     -10.314608      -280.6748
  34   2.0000     -10.314236      -280.6646
  35   2.0000     -10.306514      -280.4545
  36   2.0000     -10.297050      -280.1970
  37   2.0000     -10.296031      -280.1693
  38   2.0000     -10.294792      -280.1355
  39   2.0000     -10.292350      -280.0691
  40   2.0000     -10.290986      -280.0320
  41   2.0000     -10.290621      -280.0220
  42   2.0000     -10.290186      -280.0102
  43   2.0000     -10.289466      -279.9906
  44   2.0000     -10.288047      -279.9520
  45   2.0000     -10.287134      -279.9271
  46   2.0000     -10.284012      -279.8422
  47   2.0000     -10.282836      -279.8102
  48   2.0000     -10.282182      -279.7924
  49   2.0000     -10.279452      -279.7181
  50   2.0000     -10.277616      -279.6682
  51   2.0000     -10.276848      -279.6472
  52   2.0000     -10.274638      -279.5871
  53   2.0000     -10.274059      -279.5714
  54   2.0000     -10.271773      -279.5092
  55   2.0000      -8.080484      -219.8812
  56   2.0000      -8.078231      -219.8198
  57   2.0000      -8.076465      -219.7718
  58   2.0000      -8.055738      -219.2078
  59   2.0000      -8.048754      -219.0177
  60   2.0000      -6.049465      -164.6143
  61   2.0000      -6.047506      -164.5610
  62   2.0000      -6.045594      -164.5090
  63   2.0000      -6.045342      -164.5021
  64   2.0000      -6.043267      -164.4457
  65   2.0000      -6.043243      -164.4450
  66   2.0000      -6.041516      -164.3980
  67   2.0000      -6.040581      -164.3726
  68   2.0000      -6.039027      -164.3303
  69   2.0000      -6.024962      -163.9476
  70   2.0000      -6.020895      -163.8369
  71   2.0000      -6.018285      -163.7659
  72   2.0000      -6.017874      -163.7547
  73   2.0000      -6.014100      -163.6520
  74   2.0000      -6.010395      -163.5512
  75   2.0000      -1.195121       -32.5209
  76   2.0000      -1.157471       -31.4964
  77   2.0000      -1.134460       -30.8702
  78   2.0000      -1.074868       -29.2486
  79   2.0000      -1.032754       -28.1027
  80   2.0000      -1.022136       -27.8137
  81   2.0000      -1.009040       -27.4574
  82   2.0000      -1.001442       -27.2506
  83   2.0000      -0.989660       -26.9300
  84   2.0000      -0.987514       -26.8716
  85   2.0000      -0.982236       -26.7280
  86   2.0000      -0.975126       -26.5345
  87   2.0000      -0.965056       -26.2605
  88   2.0000      -0.934677       -25.4339
  89   2.0000      -0.923785       -25.1375
  90   2.0000      -0.910875       -24.7862
  91   2.0000      -0.904249       -24.6059
  92   2.0000      -0.893886       -24.3239
  93   2.0000      -0.891376       -24.2556
  94   2.0000      -0.875134       -23.8136
  95   2.0000      -0.868720       -23.6391
  96   2.0000      -0.861241       -23.4356
  97   2.0000      -0.854743       -23.2587
  98   2.0000      -0.844646       -22.9840
  99   2.0000      -0.842609       -22.9286
 100   2.0000      -0.836303       -22.7569
 101   2.0000      -0.828833       -22.5537
 102   2.0000      -0.823392       -22.4056
 103   2.0000      -0.803708       -21.8700
 104   2.0000      -0.795558       -21.6482
 105   2.0000      -0.783875       -21.3303
 106   2.0000      -0.778912       -21.1953
 107   2.0000      -0.762618       -20.7519
 108   2.0000      -0.746224       -20.3058
 109   2.0000      -0.738138       -20.0857
 110   2.0000      -0.730992       -19.8913
 111   2.0000      -0.729919       -19.8621
 112   2.0000      -0.714766       -19.4498
 113   2.0000      -0.705174       -19.1888
 114   2.0000      -0.699979       -19.0474
 115   2.0000      -0.692759       -18.8509
 116   2.0000      -0.679838       -18.4993
 117   2.0000      -0.670420       -18.2431
 118   2.0000      -0.667716       -18.1695
 119   2.0000      -0.663282       -18.0488
 120   2.0000      -0.653284       -17.7768
 121   2.0000      -0.644469       -17.5369
 122   2.0000      -0.639646       -17.4057
 123   2.0000      -0.636667       -17.3246
 124   2.0000      -0.626389       -17.0449
 125   2.0000      -0.617809       -16.8114
 126   2.0000      -0.614530       -16.7222
 127   2.0000      -0.610497       -16.6125
 128   2.0000      -0.601771       -16.3750
 129   2.0000      -0.598444       -16.2845
 130   2.0000      -0.589429       -16.0392
 131   2.0000      -0.587031       -15.9739
 132   2.0000      -0.578702       -15.7473
 133   2.0000      -0.573603       -15.6085
 134   2.0000      -0.569940       -15.5089
 135   2.0000      -0.562662       -15.3108
 136   2.0000      -0.555596       -15.1185
 137   2.0000      -0.553030       -15.0487
 138   2.0000      -0.547406       -14.8957
 139   2.0000      -0.542304       -14.7568
 140   2.0000      -0.539099       -14.6696
 141   2.0000      -0.536592       -14.6014
 142   2.0000      -0.534853       -14.5541
 143   2.0000      -0.532737       -14.4965
 144   2.0000      -0.528218       -14.3736
 145   2.0000      -0.526870       -14.3369
 146   2.0000      -0.518395       -14.1063
 147   2.0000      -0.514140       -13.9905
 148   2.0000      -0.513847       -13.9825
 149   2.0000      -0.506927       -13.7942
 150   2.0000      -0.503934       -13.7128
 151   2.0000      -0.496783       -13.5182
 152   2.0000      -0.495837       -13.4924
 153   2.0000      -0.493754       -13.4357
 154   2.0000      -0.491344       -13.3702
 155   2.0000      -0.489191       -13.3116
 156   2.0000      -0.488782       -13.3004
 157   2.0000      -0.485994       -13.2246
 158   2.0000      -0.483445       -13.1552
 159   2.0000      -0.482647       -13.1335
 160   2.0000      -0.478257       -13.0140
 161   2.0000      -0.476074       -12.9546
 162   2.0000      -0.475186       -12.9305
 163   2.0000      -0.473876       -12.8948
 164   2.0000      -0.467648       -12.7253
 165   2.0000      -0.464811       -12.6481
 166   2.0000      -0.462219       -12.5776
 167   2.0000      -0.460136       -12.5209
 168   2.0000      -0.456885       -12.4325
 169   2.0000      -0.453373       -12.3369
 170   2.0000      -0.453182       -12.3317
 171   2.0000      -0.452732       -12.3195
 172   2.0000      -0.448978       -12.2173
 173   2.0000      -0.443915       -12.0795
 174   2.0000      -0.439724       -11.9655
 175   2.0000      -0.438429       -11.9303
 176   2.0000      -0.428796       -11.6681
 177   2.0000      -0.428246       -11.6532
 178   2.0000      -0.423748       -11.5308
 179   2.0000      -0.421570       -11.4715
 180   2.0000      -0.416501       -11.3336
 181   2.0000      -0.416055       -11.3214
 182   2.0000      -0.412958       -11.2371
 183   2.0000      -0.411694       -11.2028
 184   2.0000      -0.408704       -11.1214
 185   2.0000      -0.396902       -10.8003
 186   2.0000      -0.373302       -10.1581
 187   2.0000      -0.368581       -10.0296
 188   2.0000      -0.363886        -9.9019
 189   2.0000      -0.357576        -9.7301
 190   2.0000      -0.345942        -9.4136
 191   2.0000      -0.343883        -9.3575
 192   2.0000      -0.342618        -9.3231
 193   2.0000      -0.342402        -9.3172
 194   2.0000      -0.338707        -9.2167
 195   2.0000      -0.335043        -9.1170
 196   2.0000      -0.333225        -9.0675
 197   2.0000      -0.327685        -8.9168
 198   2.0000      -0.320608        -8.7242
 199   2.0000      -0.309838        -8.4311
 200   2.0000      -0.298019        -8.1095
 201   2.0000      -0.291349        -7.9280
 202   2.0000      -0.269732        -7.3398
 203   2.0000      -0.244206        -6.6452
 204   2.0000      -0.227914        -6.2018
 205   0.0000      -0.096419        -2.6237
 206   0.0000      -0.074439        -2.0256
 207   0.0000      -0.053284        -1.4499
 208   0.0000      -0.047392        -1.2896
 209   0.0000      -0.015085        -0.4105

MULLIKEN ATOMIC CHARGES
-----------------------
   0 C :    0.069941
   1 N :   -0.110183
   2 C :    0.066147
   3 C :   -0.035690
   4 C :    0.017307
   5 N :   -0.090675
   6 C :   -0.017689
   7 C :    0.020844
   8 C :    0.143586
   9 C :    0.146881
  10 O :   -0.256229
  11 C :    0.213896
  12 C :    0.217803
  13 C :   -0.175559
  14 S :    0.105377
  15 C :   -0.172088
  16 O :   -0.254021
  17 C :   -0.028210
  18 C :    0.059800
  19 C :   -0.109783
  20 S :    0.187755
  21 C :   -0.081729
  22 C :   -0.051792
  23 C :   -0.005167
  24 C :    0.198616
  25 O :   -0.105882
  26 C :   -0.038404
  27 C :   -0.085942
  28 S :    0.215719
  29 C :   -0.110899
  30 C :   -0.015653
  31 C :   -0.154417
  32 S :    0.181426
  33 C :   -0.119107
  34 C :    0.144998
  35 C :    0.168274
  36 C :   -0.084539
  37 C :   -0.216251
  38 N :    0.129385
  39 C :    0.020056
  40 C :    0.014412
  41 C :   -0.086470
  42 C :   -0.175126
  43 N :    0.104686
  44 C :   -0.020341
  45 C :    0.065076
  46 C :   -0.089785
  47 S :    0.158693
  48 C :   -0.148547
  49 C :    0.060231
  50 C :    0.000961
  51 C :    0.082917
  52 C :   -0.068613
  53 C :   -0.089766
  54 C :    0.001469
  55 H :    0.013762
  56 H :    0.009980
  57 H :   -0.007149
  58 H :   -0.001545
  59 H :    0.026815
  60 H :    0.025484
  61 H :    0.023945
  62 H :    0.005305
  63 H :    0.009133
  64 H :   -0.002560
  65 H :   -0.001777
  66 H :    0.008028
  67 H :    0.007958
  68 H :    0.003632
  69 H :   -0.011549
  70 H :   -0.007801
  71 H :    0.005677
  72 H :    0.032231
  73 H :    0.031546
  74 H :    0.031184
Sum of atomic charges:   -0.0000000

LOEWDIN ATOMIC CHARGES
----------------------
   0 C :    0.045431
   1 N :   -0.099120
   2 C :    0.047777
   3 C :   -0.065960
   4 C :    0.031799
   5 N :   -0.090889
   6 C :   -0.039198
   7 C :    0.011202
   8 C :    0.011825
   9 C :    0.029286
  10 O :   -0.059805
  11 C :   -0.009106
  12 C :   -0.008403
  13 C :   -0.210148
  14 S :    0.431521
  15 C :   -0.210047
  16 O :   -0.059055
  17 C :   -0.035512
  18 C :   -0.026665
  19 C :   -0.170040
  20 S :    0.474685
  21 C :   -0.185936
  22 C :   -0.092165
  23 C :   -0.018916
  24 C :    0.091925
  25 O :   -0.111334
  26 C :   -0.099485
  27 C :   -0.176339
  28 S :    0.506873
  29 C :   -0.198610
  30 C :   -0.023556
  31 C :   -0.189497
  32 S :    0.502384
  33 C :   -0.162491
  34 C :   -0.035449
  35 C :   -0.039660
  36 C :   -0.050432
  37 C :   -0.047230
  38 N :   -0.048334
  39 C :    0.013695
  40 C :    0.010018
  41 C :   -0.044520
  42 C :   -0.021321
  43 N :   -0.053345
  44 C :   -0.047673
  45 C :   -0.032541
  46 C :   -0.171767
  47 S :    0.450084
  48 C :   -0.185598
  49 C :   -0.030995
  50 C :   -0.046003
  51 C :   -0.060959
  52 C :   -0.023137
  53 C :   -0.043357
  54 C :   -0.013447
  55 H :    0.018046
  56 H :    0.025884
  57 H :    0.032498
  58 H :    0.029647
  59 H :    0.043364
  60 H :    0.029252
  61 H :    0.028826
  62 H :    0.035501
  63 H :    0.033410
  64 H :    0.039238
  65 H :    0.036894
  66 H :    0.046278
  67 H :    0.045704
  68 H :    0.039410
  69 H :    0.021291
  70 H :    0.036678
  71 H :    0.036077
  72 H :    0.044558
  73 H :    0.029364
  74 H :    0.027615

  Mayer bond orders larger than 0.100000
B(  0-C ,  1-N ) :   1.5005 B(  0-C ,  5-N ) :   1.5315 B(  0-C , 55-H ) :   0.9750
B(  1-N ,  2-C ) :   1.5395 B(  2-C ,  3-C ) :   1.3868 B(  2-C , 56-H ) :   0.9815
B(  3-C ,  4-C ) :   1.3378 B(  3-C , 57-H ) :   0.9760 B(  4-C ,  5-N ) :   1.5158
B(  4-C ,  6-C ) :   1.0923 B(  6-C ,  7-C ) :   1.7346 B(  6-C , 58-H ) :   0.9693
B(  7-C ,  8-C ) :   1.0774 B(  7-C , 59-H ) :   0.9438 B(  8-C ,  9-C ) :   1.5399
B(  8-C , 16-O ) :   1.0375 B(  9-C , 10-O ) :   1.0517 B(  9-C , 17-C ) :   1.1094
B( 10-O , 11-C ) :   1.0535 B( 11-C , 12-C ) :   1.1998 B( 11-C , 15-C ) :   1.5778
B( 12-C , 13-C ) :   1.5754 B( 12-C , 16-O ) :   1.0642 B( 13-C , 14-S ) :   1.1388
B( 13-C , 60-H ) :   0.9718 B( 14-S , 15-C ) :   1.1385 B( 15-C , 61-H ) :   0.9715
B( 17-C , 18-C ) :   1.7233 B( 17-C , 62-H ) :   0.9454 B( 18-C , 19-C ) :   1.1378
B( 18-C , 63-H ) :   0.9505 B( 19-C , 20-S ) :   1.1061 B( 19-C , 23-C ) :   1.4507
B( 20-S , 21-C ) :   1.1347 B( 21-C , 22-C ) :   1.4635 B( 21-C , 27-C ) :   1.1333
B( 22-C , 23-C ) :   1.3243 B( 22-C , 24-C ) :   0.9054 B( 23-C , 64-H ) :   1.0002
B( 24-C , 25-O ) :   2.3312 B( 24-C , 26-C ) :   0.9057 B( 26-C , 27-C ) :   1.4579
B( 26-C , 30-C ) :   1.3134 B( 27-C , 28-S ) :   1.1608 B( 28-S , 29-C ) :   1.1154
B( 29-C , 30-C ) :   1.4461 B( 29-C , 31-C ) :   1.1114 B( 30-C , 65-H ) :   1.0025
B( 31-C , 32-S ) :   1.1639 B( 31-C , 33-C ) :   0.1077 B( 31-C , 35-C ) :   1.3825
B( 32-S , 33-C ) :   1.1341 B( 33-C , 34-C ) :   1.3493 B( 33-C , 44-C ) :   1.1906
B( 34-C , 35-C ) :   1.1645 B( 34-C , 41-C ) :   1.2078 B( 35-C , 36-C ) :   1.1943
B( 36-C , 37-C ) :   1.0821 B( 36-C , 39-C ) :   1.5411 B( 37-C , 38-N ) :   3.0265
B( 39-C , 40-C ) :   1.1979 B( 39-C , 66-H ) :   0.9935 B( 40-C , 41-C ) :   1.5327
B( 40-C , 67-H ) :   0.9931 B( 41-C , 42-C ) :   1.0854 B( 42-C , 43-N ) :   2.9856
B( 44-C , 45-C ) :   1.6521 B( 44-C , 68-H ) :   0.9570 B( 45-C , 46-C ) :   1.1323
B( 45-C , 69-H ) :   0.9620 B( 46-C , 47-S ) :   1.1168 B( 46-C , 48-C ) :   0.1021
B( 46-C , 50-C ) :   1.4771 B( 47-S , 48-C ) :   1.1195 B( 48-C , 49-C ) :   1.4856
B( 48-C , 51-C ) :   0.9692 B( 49-C , 50-C ) :   1.2895 B( 49-C , 70-H ) :   1.0016
B( 50-C , 71-H ) :   0.9894 B( 51-C , 52-C ) :   2.3496 B( 52-C , 53-C ) :   1.0207
B( 53-C , 54-C ) :   1.9332 B( 53-C , 72-H ) :   0.9580 B( 54-C , 73-H ) :   0.9639
B( 54-C , 74-H ) :   0.9548

-----------------------------------------------------------------------------
         ABSORPTION SPECTRUM VIA TRANSITION ELECTRIC DIPOLE MOMENTS
-----------------------------------------------------------------------------
State   Energy  Wavelength   fosc         T2         TX        TY        TZ
        (cm-1)    (nm)                  (au**2)     (au)      (au)      (au)
-----------------------------------------------------------------------------
   0   13776.9    725.9   1.052524241  25.15104  -3.18462   3.85430   0.39198
   1   17100.2    584.8   0.128476397   2.47342  -1.56877   0.08322  -0.07385
   2   19881.6    503.0   0.065338107   1.08191   0.62725   0.82690  -0.06866
   3   21231.2    471.0   0.211567329   3.28057   1.17897  -0.50426  -1.27918
   4   23158.3    431.8   0.191810436   2.72673  -1.19879   1.12531  -0.15273
   5   24571.4    407.0   0.634754449   8.50455   0.45276  -2.67035  -1.08110
   6   25716.8    388.9   0.168194634   2.15314  -0.67426   1.24658   0.38018
   7   27501.3    363.6   0.028073542   0.33606  -0.44791   0.35413  -0.10012
   8   28505.3    350.8   0.109576360   1.26551  -0.61530   0.45972  -0.82194
   9   28584.9    349.8   0.076221441   0.87784   0.46853  -0.35897   0.72764
  10   29927.2    334.1   0.027887125   0.30677   0.16849   0.43196   0.30297
  11   31165.7    320.9   0.181498006   1.91721   0.91196  -0.24623   1.01238
  12   32052.8    312.0   0.088335650   0.90729   0.14690   0.84923  -0.40561
  13   32209.2    310.5   0.130390955   1.33273   0.47997  -0.73726  -0.74754
  14   32527.4    307.4   0.022273207   0.22543  -0.32331   0.34769   0.00327
  15   32669.7    306.1   0.085675383   0.86335  -0.70389   0.35051  -0.49500
  16   33265.9    300.6   0.377386306   3.73476   0.44561  -1.77611   0.61776
  17   33956.2    294.5   0.003835845   0.03719  -0.03240  -0.02470   0.18849
  18   34292.2    291.6   0.038208307   0.36681   0.04732   0.13214   0.58916
  19   35230.3    283.8   0.003108146   0.02904  -0.15079   0.04061  -0.06825
  20   35717.5    280.0   0.074522480   0.68688  -0.41622   0.32190  -0.64033
  21   36007.1    277.7   0.200380482   1.83207   0.29887   1.00134   0.86027
  22   36640.7    272.9   0.004454083   0.04002   0.16215   0.10446  -0.05305
  23   37178.6    269.0   0.043995410   0.38957   0.00556   0.40269  -0.47685
  24   37426.4    267.2   0.019949741   0.17548  -0.30866  -0.28248   0.02037
  25   37769.6    264.8   0.019416560   0.16924  -0.21582   0.20397  -0.28471
  26   37863.1    264.1   0.112654910   0.97951   0.15317  -0.94311   0.25806
  27   38080.8    262.6   0.127469997   1.10199   0.86561  -0.17678   0.56698
  28   38154.7    262.1   0.099811619   0.86121  -0.57407   0.61297  -0.39488
  29   38598.6    259.1   0.000664598   0.00567  -0.01286  -0.07225   0.01683
  30   38760.3    258.0   0.163270777   1.38675   0.35601  -1.01259   0.48442
  31   39145.4    255.5   0.231236572   1.94470  -0.61306   1.22803  -0.24657
  32   39825.4    251.1   0.023194656   0.19174  -0.17319  -0.29380   0.27463
  33   39908.5    250.6   0.042985607   0.35460   0.32597   0.43182  -0.24874
  34   40139.8    249.1   0.024020970   0.19701   0.30806   0.31187  -0.06964
  35   40270.6    248.3   0.162164892   1.32570   0.48408  -0.32779   0.99193

FINAL SINGLE POINT ENERGY     -4082.775105605765

DIPOLE MOMENT
-------------
                                X             Y             Z
Electronic contribution:      1.11294     -22.73469      -0.98531
Nuclear contribution   :     -1.47404      23.59890       1.09772
                        -----------------------------------------
Total Dipole Moment    :     -0.36110       0.86421       0.11241
                        -----------------------------------------
Magnitude (a.u.)       :      0.94334
Magnitude (Debye)      :      2.39778

Rotational constants in cm-1:     0.002461     0.000342     0.000336
Rotational constants in MHz :    73.776448    10.266598    10.072949

                             ****ORCA TERMINATED NORMALLY****
TOTAL RUN TIME: 0 days 0 hours 5 minutes 4 seconds 475 msec
