                         Program Version 4.2.0 -  RELEASE  -
|  1> # ORCA input file
|  2> # SCF done       -217.193190022926          0.000885621533
|  3> ! CAM-B3LYP def2-SVP def2/J RIJCOSX Grid4 TightSCF
|  4> %maxcore 5000
|  5> %tddft
|  6>     Mode sTDDFT
|  7>     Ethresh 5.0
|  8>     maxcore 5000
|  9> end
| 10>
| 11> %pal
| 12>   nprocs 6
| 13>   end
| 14> * xyz 0 1
| 15>    C       -1.55346         2.39945         0.78492
| 16>    O       -1.20797         1.74964        -0.16596
| 17>    C       -0.72393         2.82233         1.93900
| 18>    C       -1.52227         3.47592         2.89607
| 19>    C       -0.96275         3.94513         4.07539
| 20>    C        0.39512         3.75220         4.27756
| 21>    C        1.20044         3.10725         3.33819
| 22>    C        0.63171         2.63453         2.15413
| 23>    F        1.39836         2.02175         1.26080
| 24>    F        2.50294         2.94386         3.57144
| 25>    F        0.95303         4.19542         5.40400
| 26>    C       -2.89970         3.53516         2.41257
| 27>    C       -3.95328         4.10510         3.06419
| 28>    C       -3.86895         4.71788         4.33614
| 29>    N       -3.86166         5.22483         5.36435
| 30>    C       -5.27606         4.16864         2.56663
| 31>    N       -6.36930         4.26799         2.23539
| 32>    C       -2.93024         2.89366         1.10025
| 33>    C       -3.97654         2.69302         0.28288
| 34>    C       -3.81405         2.07291        -1.04276
| 35>    N       -4.35454         0.87116        -1.20859
| 36>    C       -4.15538         0.29640        -2.38576
| 37>    C       -3.43595         0.90556        -3.39542
| 38>    C       -2.95423         2.19775        -3.14080
| 39>    N       -3.16192         2.77235        -1.95298
| 40>    C       -2.21797         2.93809        -4.13846
| 41>    C       -1.84253         4.21733        -3.95693
| 42>    C       -1.09787         4.99470        -4.89537
| 43>    C       -0.44101         4.59028        -6.02298
| 44>    C        0.20328         5.63955        -6.72047
| 45>    C        1.00093         5.54726        -7.87869
| 46>    C        1.21949         4.29995        -8.58238
| 47>    C        2.37027         3.86485        -9.17472
| 48>    C        2.21334         2.62571        -9.83226
| 49>    C        0.95287         2.10705        -9.76969
| 50>    S       -0.07352         3.16302        -8.85984
| 51>    C        0.43595         0.84084       -10.34700
| 52>   Cl        3.51536         1.84734       -10.64545
| 53>    C        1.56790         6.73284        -8.34082
| 54>    C        1.35001         7.98746        -7.71583
| 55>    C        0.57463         8.07802        -6.54094
| 56>    C        0.01505         6.89162        -6.07835
| 57>    S       -0.94286         6.72001        -4.63712
| 58>    C        0.39590         9.34310        -5.85837
| 59>    C        1.31318        10.34284        -5.68676
| 60>    C        0.79105        11.43893        -4.97001
| 61>    C       -0.50998        11.29854        -4.58231
| 62>    S       -1.12061         9.77435        -5.12022
| 63>    C       -1.37497        12.23768        -3.82555
| 64>   Cl        1.74668        12.83847        -4.62329
| 65>    C        1.95805         9.03878        -8.44179
| 66>    C        2.63777         8.61304        -9.54307
| 67>    S        2.55592         6.89336        -9.76902
| 68>    C        3.38066         9.44298       -10.45946
| 69>    N        3.95413         8.85870       -11.51359
| 70>    C        4.63134         9.63835       -12.33260
| 71>    C        4.74718        11.00777       -12.13473
| 72>    C        4.10616        11.53164       -11.00665
| 73>    N        3.43704        10.73667       -10.17330
| 74>    C        4.11538        12.94717       -10.69209
| 75>    C        3.44518        13.41320        -9.62026
| 76>    C        3.34821        14.78065        -9.24738
| 77>    C        2.43375        15.29975        -8.38698
| 78>    C        2.64957        16.64109        -7.77483
| 79>    O        3.43178        17.48201        -8.13457
| 80>    C        1.72940        16.66967        -6.61012
| 81>    C        0.93019        15.51064        -6.60607
| 82>    C        1.26565        14.69933        -7.77551
| 83>    C        0.50042        13.68627        -8.28584
| 84>    C       -0.62307        13.14009        -7.62976
| 85>    N       -1.52414        12.63708        -7.12840
| 86>    C        0.65269        13.13837        -9.58093
| 87>    N        0.66031        12.71132       -10.64543
| 88>    C       -0.00994        15.30236        -5.61188
| 89>    C       -0.12393        16.25624        -4.61237
| 90>    C        0.66005        17.40883        -4.59675
| 91>    C        1.59535        17.62081        -5.61262
| 92>    F        2.33468        18.72336        -5.59853
| 93>    F        0.51556        18.30527        -3.61958
| 94>    F       -1.01046        16.06427        -3.63289
| 95>    H       -1.53342         4.44880         4.83796
| 96>    H       -4.98599         2.96095         0.56130
| 97>    H       -4.59111        -0.68739        -2.50327
| 98>    H       -3.26144         0.41981        -4.34144
| 99>    H       -1.98500         2.40912        -5.05098
|100>    H       -2.13482         4.70816        -3.03875
|101>    H       -0.39358         3.56283        -6.32960
|102>    H        3.30856         4.38405        -9.12154
|103>    H        1.20314         0.38213       -10.96562
|104>    H       -0.44760         1.02891       -10.95533
|105>    H        0.15763         0.14263        -9.55755
|106>    H        2.33729        10.28582        -6.00602
|107>    H       -0.77815        13.03772        -3.39381
|108>    H       -1.89417        11.71311        -3.02564
|109>    H       -2.13005        12.66754        -4.48430
|110>    H        1.87829        10.07909        -8.19277
|111>    H        5.09202         9.14526       -13.17897
|112>    H        5.29728        11.63624       -12.81538
|113>    H        4.62579        13.60920       -11.37700
|114>    H        2.94926        12.67768        -9.00100
|115>    H        4.09729        15.46911        -9.62343
|116>    H       -0.63903        14.42958        -5.57744
|117> *
|118>
|119>                          ****END OF INPUT****

CARTESIAN COORDINATES (ANGSTROEM)
---------------------------------
  C     -1.553460    2.399450    0.784920
  O     -1.207970    1.749640   -0.165960
  C     -0.723930    2.822330    1.939000
  C     -1.522270    3.475920    2.896070
  C     -0.962750    3.945130    4.075390
  C      0.395120    3.752200    4.277560
  C      1.200440    3.107250    3.338190
  C      0.631710    2.634530    2.154130
  F      1.398360    2.021750    1.260800
  F      2.502940    2.943860    3.571440
  F      0.953030    4.195420    5.404000
  C     -2.899700    3.535160    2.412570
  C     -3.953280    4.105100    3.064190
  C     -3.868950    4.717880    4.336140
  N     -3.861660    5.224830    5.364350
  C     -5.276060    4.168640    2.566630
  N     -6.369300    4.267990    2.235390
  C     -2.930240    2.893660    1.100250
  C     -3.976540    2.693020    0.282880
  C     -3.814050    2.072910   -1.042760
  N     -4.354540    0.871160   -1.208590
  C     -4.155380    0.296400   -2.385760
  C     -3.435950    0.905560   -3.395420
  C     -2.954230    2.197750   -3.140800
  N     -3.161920    2.772350   -1.952980
  C     -2.217970    2.938090   -4.138460
  C     -1.842530    4.217330   -3.956930
  C     -1.097870    4.994700   -4.895370
  C     -0.441010    4.590280   -6.022980
  C      0.203280    5.639550   -6.720470
  C      1.000930    5.547260   -7.878690
  C      1.219490    4.299950   -8.582380
  C      2.370270    3.864850   -9.174720
  C      2.213340    2.625710   -9.832260
  C      0.952870    2.107050   -9.769690
  S     -0.073520    3.163020   -8.859840
  C      0.435950    0.840840  -10.347000
  Cl     3.515360    1.847340  -10.645450
  C      1.567900    6.732840   -8.340820
  C      1.350010    7.987460   -7.715830
  C      0.574630    8.078020   -6.540940
  C      0.015050    6.891620   -6.078350
  S     -0.942860    6.720010   -4.637120
  C      0.395900    9.343100   -5.858370
  C      1.313180   10.342840   -5.686760
  C      0.791050   11.438930   -4.970010
  C     -0.509980   11.298540   -4.582310
  S     -1.120610    9.774350   -5.120220
  C     -1.374970   12.237680   -3.825550
  Cl     1.746680   12.838470   -4.623290
  C      1.958050    9.038780   -8.441790
  C      2.637770    8.613040   -9.543070
  S      2.555920    6.893360   -9.769020
  C      3.380660    9.442980  -10.459460
  N      3.954130    8.858700  -11.513590
  C      4.631340    9.638350  -12.332600
  C      4.747180   11.007770  -12.134730
  C      4.106160   11.531640  -11.006650
  N      3.437040   10.736670  -10.173300
  C      4.115380   12.947170  -10.692090
  C      3.445180   13.413200   -9.620260
  C      3.348210   14.780650   -9.247380
  C      2.433750   15.299750   -8.386980
  C      2.649570   16.641090   -7.774830
  O      3.431780   17.482010   -8.134570
  C      1.729400   16.669670   -6.610120
  C      0.930190   15.510640   -6.606070
  C      1.265650   14.699330   -7.775510
  C      0.500420   13.686270   -8.285840
  C     -0.623070   13.140090   -7.629760
  N     -1.524140   12.637080   -7.128400
  C      0.652690   13.138370   -9.580930
  N      0.660310   12.711320  -10.645430
  C     -0.009940   15.302360   -5.611880
  C     -0.123930   16.256240   -4.612370
  C      0.660050   17.408830   -4.596750
  C      1.595350   17.620810   -5.612620
  F      2.334680   18.723360   -5.598530
  F      0.515560   18.305270   -3.619580
  F     -1.010460   16.064270   -3.632890
  H     -1.533420    4.448800    4.837960
  H     -4.985990    2.960950    0.561300
  H     -4.591110   -0.687390   -2.503270
  H     -3.261440    0.419810   -4.341440
  H     -1.985000    2.409120   -5.050980
  H     -2.134820    4.708160   -3.038750
  H     -0.393580    3.562830   -6.329600
  H      3.308560    4.384050   -9.121540
  H      1.203140    0.382130  -10.965620
  H     -0.447600    1.028910  -10.955330
  H      0.157630    0.142630   -9.557550
  H      2.337290   10.285820   -6.006020
  H     -0.778150   13.037720   -3.393810
  H     -1.894170   11.713110   -3.025640
  H     -2.130050   12.667540   -4.484300
  H      1.878290   10.079090   -8.192770
  H      5.092020    9.145260  -13.178970
  H      5.297280   11.636240  -12.815380
  H      4.625790   13.609200  -11.377000
  H      2.949260   12.677680   -9.001000
  H      4.097290   15.469110   -9.623430
  H     -0.639030   14.429580   -5.577440

 Total Charge           Charge          ....    0
 Multiplicity           Mult            ....    1
 Number of Electrons    NEL             ....  594
 Basis Dimension        Dim             .... 1254

ORBITAL ENERGIES
----------------

  NO   OCC          E(Eh)            E(eV)
   0   2.0000    -101.595781     -2764.5618
   1   2.0000    -101.582825     -2764.2092
   2   2.0000     -88.958609     -2420.6868
   3   2.0000     -88.957907     -2420.6677
   4   2.0000     -88.952552     -2420.5220
   5   2.0000     -88.949917     -2420.4503
   6   2.0000     -24.818669      -675.3503
   7   2.0000     -24.816697      -675.2966
   8   2.0000     -24.816102      -675.2805
   9   2.0000     -24.815598      -675.2667
  10   2.0000     -24.815450      -675.2627
  11   2.0000     -24.814714      -675.2427
  12   2.0000     -19.231266      -523.3094
  13   2.0000     -19.230202      -523.2804
  14   2.0000     -14.431648      -392.7051
  15   2.0000     -14.431487      -392.7007
  16   2.0000     -14.431173      -392.6922
  17   2.0000     -14.424538      -392.5116
  18   2.0000     -14.420470      -392.4009
  19   2.0000     -14.419724      -392.3806
  20   2.0000     -14.413675      -392.2160
  21   2.0000     -14.413274      -392.2051
  22   2.0000     -10.406637      -283.1790
  23   2.0000     -10.404298      -283.1153
  24   2.0000     -10.404001      -283.1073
  25   2.0000     -10.402442      -283.0648
  26   2.0000     -10.401140      -283.0294
  27   2.0000     -10.399459      -282.9837
  28   2.0000     -10.386275      -282.6249
  29   2.0000     -10.385490      -282.6035
  30   2.0000     -10.364275      -282.0263
  31   2.0000     -10.362013      -281.9647
  32   2.0000     -10.359617      -281.8995
  33   2.0000     -10.357109      -281.8313
  34   2.0000     -10.356959      -281.8272
  35   2.0000     -10.353624      -281.7364
  36   2.0000     -10.341451      -281.4052
  37   2.0000     -10.336448      -281.2691
  38   2.0000     -10.333047      -281.1765
  39   2.0000     -10.332851      -281.1712
  40   2.0000     -10.332669      -281.1662
  41   2.0000     -10.332468      -281.1608
  42   2.0000     -10.332183      -281.1530
  43   2.0000     -10.332028      -281.1488
  44   2.0000     -10.327432      -281.0237
  45   2.0000     -10.326194      -280.9900
  46   2.0000     -10.324743      -280.9505
  47   2.0000     -10.324453      -280.9426
  48   2.0000     -10.321296      -280.8567
  49   2.0000     -10.319867      -280.8179
  50   2.0000     -10.318514      -280.7810
  51   2.0000     -10.318125      -280.7705
  52   2.0000     -10.316650      -280.7303
  53   2.0000     -10.316589      -280.7287
  54   2.0000     -10.315541      -280.7001
  55   2.0000     -10.313251      -280.6378
  56   2.0000     -10.308138      -280.4987
  57   2.0000     -10.307599      -280.4840
  58   2.0000     -10.307502      -280.4814
  59   2.0000     -10.307327      -280.4766
  60   2.0000     -10.306620      -280.4574
  61   2.0000     -10.305912      -280.4381
  62   2.0000     -10.305036      -280.4143
  63   2.0000     -10.304016      -280.3865
  64   2.0000     -10.302520      -280.3458
  65   2.0000     -10.300464      -280.2899
  66   2.0000     -10.299287      -280.2579
  67   2.0000     -10.298978      -280.2494
  68   2.0000     -10.297297      -280.2037
  69   2.0000     -10.293244      -280.0934
  70   2.0000     -10.291159      -280.0367
  71   2.0000     -10.289028      -279.9787
  72   2.0000     -10.288482      -279.9638
  73   2.0000     -10.282449      -279.7997
  74   2.0000     -10.281219      -279.7662
  75   2.0000     -10.278549      -279.6935
  76   2.0000     -10.278293      -279.6866
  77   2.0000     -10.277380      -279.6617
  78   2.0000     -10.277235      -279.6578
  79   2.0000     -10.276169      -279.6288
  80   2.0000      -9.549874      -259.8653
  81   2.0000      -9.537627      -259.5320
  82   2.0000      -8.054114      -219.1636
  83   2.0000      -8.053533      -219.1478
  84   2.0000      -8.048192      -219.0024
  85   2.0000      -8.044748      -218.9087
  86   2.0000      -7.319952      -199.1860
  87   2.0000      -7.310109      -198.9182
  88   2.0000      -7.310001      -198.9153
  89   2.0000      -7.307872      -198.8573
  90   2.0000      -7.297710      -198.5808
  91   2.0000      -7.297596      -198.5777
  92   2.0000      -6.023440      -163.9061
  93   2.0000      -6.022813      -163.8891
  94   2.0000      -6.019277      -163.7929
  95   2.0000      -6.018590      -163.7742
  96   2.0000      -6.017769      -163.7518
  97   2.0000      -6.016204      -163.7092
  98   2.0000      -6.015672      -163.6948
  99   2.0000      -6.014368      -163.6593
 100   2.0000      -6.013619      -163.6389
 101   2.0000      -6.010149      -163.5445
 102   2.0000      -6.009610      -163.5298
 103   2.0000      -6.006228      -163.4378
 104   2.0000      -1.345594       -36.6155
 105   2.0000      -1.343275       -36.5524
 106   2.0000      -1.334390       -36.3106
 107   2.0000      -1.332636       -36.2629
 108   2.0000      -1.323881       -36.0246
 109   2.0000      -1.321730       -35.9661
 110   2.0000      -1.150331       -31.3021
 111   2.0000      -1.148078       -31.2408
 112   2.0000      -1.095771       -29.8174
 113   2.0000      -1.088907       -29.6307
 114   2.0000      -1.036650       -28.2087
 115   2.0000      -1.035074       -28.1658
 116   2.0000      -1.018332       -27.7102
 117   2.0000      -1.016151       -27.6509
 118   2.0000      -1.013482       -27.5782
 119   2.0000      -1.009559       -27.4715
 120   2.0000      -1.006146       -27.3786
 121   2.0000      -1.003124       -27.2964
 122   2.0000      -0.996272       -27.1099
 123   2.0000      -0.995141       -27.0792
 124   2.0000      -0.986823       -26.8528
 125   2.0000      -0.979205       -26.6455
 126   2.0000      -0.973109       -26.4797
 127   2.0000      -0.972312       -26.4580
 128   2.0000      -0.949185       -25.8286
 129   2.0000      -0.942788       -25.6546
 130   2.0000      -0.933127       -25.3917
 131   2.0000      -0.927950       -25.2508
 132   2.0000      -0.921946       -25.0874
 133   2.0000      -0.915888       -24.9226
 134   2.0000      -0.913264       -24.8512
 135   2.0000      -0.901803       -24.5393
 136   2.0000      -0.898509       -24.4497
 137   2.0000      -0.886388       -24.1198
 138   2.0000      -0.883114       -24.0307
 139   2.0000      -0.882019       -24.0010
 140   2.0000      -0.866909       -23.5898
 141   2.0000      -0.863170       -23.4881
 142   2.0000      -0.857419       -23.3316
 143   2.0000      -0.850724       -23.1494
 144   2.0000      -0.837213       -22.7817
 145   2.0000      -0.819203       -22.2916
 146   2.0000      -0.814144       -22.1540
 147   2.0000      -0.812196       -22.1010
 148   2.0000      -0.808590       -22.0029
 149   2.0000      -0.806690       -21.9511
 150   2.0000      -0.795747       -21.6534
 151   2.0000      -0.790590       -21.5130
 152   2.0000      -0.789033       -21.4707
 153   2.0000      -0.787079       -21.4175
 154   2.0000      -0.770063       -20.9545
 155   2.0000      -0.762360       -20.7449
 156   2.0000      -0.758047       -20.6275
 157   2.0000      -0.747640       -20.3443
 158   2.0000      -0.744592       -20.2614
 159   2.0000      -0.734966       -19.9994
 160   2.0000      -0.732422       -19.9302
 161   2.0000      -0.726358       -19.7652
 162   2.0000      -0.722011       -19.6469
 163   2.0000      -0.707398       -19.2493
 164   2.0000      -0.700163       -19.0524
 165   2.0000      -0.697902       -18.9909
 166   2.0000      -0.691632       -18.8203
 167   2.0000      -0.688415       -18.7327
 168   2.0000      -0.674841       -18.3633
 169   2.0000      -0.669166       -18.2089
 170   2.0000      -0.665215       -18.1014
 171   2.0000      -0.664134       -18.0720
 172   2.0000      -0.663245       -18.0478
 173   2.0000      -0.660510       -17.9734
 174   2.0000      -0.657268       -17.8852
 175   2.0000      -0.652036       -17.7428
 176   2.0000      -0.649957       -17.6862
 177   2.0000      -0.640991       -17.4422
 178   2.0000      -0.638119       -17.3641
 179   2.0000      -0.633631       -17.2420
 180   2.0000      -0.630142       -17.1470
 181   2.0000      -0.624866       -17.0035
 182   2.0000      -0.620813       -16.8932
 183   2.0000      -0.619523       -16.8581
 184   2.0000      -0.615377       -16.7453
 185   2.0000      -0.613349       -16.6901
 186   2.0000      -0.610937       -16.6244
 187   2.0000      -0.608929       -16.5698
 188   2.0000      -0.606647       -16.5077
 189   2.0000      -0.600506       -16.3406
 190   2.0000      -0.598334       -16.2815
 191   2.0000      -0.595716       -16.2103
 192   2.0000      -0.591750       -16.1023
 193   2.0000      -0.587271       -15.9804
 194   2.0000      -0.580865       -15.8061
 195   2.0000      -0.579337       -15.7645
 196   2.0000      -0.578191       -15.7334
 197   2.0000      -0.577304       -15.7092
 198   2.0000      -0.573076       -15.5942
 199   2.0000      -0.569433       -15.4950
 200   2.0000      -0.561489       -15.2789
 201   2.0000      -0.559650       -15.2289
 202   2.0000      -0.554493       -15.0885
 203   2.0000      -0.553993       -15.0749
 204   2.0000      -0.551208       -14.9991
 205   2.0000      -0.550767       -14.9871
 206   2.0000      -0.545572       -14.8458
 207   2.0000      -0.544754       -14.8235
 208   2.0000      -0.543908       -14.8005
 209   2.0000      -0.540940       -14.7197
 210   2.0000      -0.539613       -14.6836
 211   2.0000      -0.538972       -14.6662
 212   2.0000      -0.536246       -14.5920
 213   2.0000      -0.534561       -14.5461
 214   2.0000      -0.528927       -14.3928
 215   2.0000      -0.525476       -14.2989
 216   2.0000      -0.522767       -14.2252
 217   2.0000      -0.521787       -14.1986
 218   2.0000      -0.520496       -14.1634
 219   2.0000      -0.518304       -14.1038
 220   2.0000      -0.513546       -13.9743
 221   2.0000      -0.512582       -13.9481
 222   2.0000      -0.511534       -13.9196
 223   2.0000      -0.510492       -13.8912
 224   2.0000      -0.510164       -13.8823
 225   2.0000      -0.508421       -13.8349
 226   2.0000      -0.507598       -13.8125
 227   2.0000      -0.504781       -13.7358
 228   2.0000      -0.500977       -13.6323
 229   2.0000      -0.498580       -13.5671
 230   2.0000      -0.496833       -13.5195
 231   2.0000      -0.495017       -13.4701
 232   2.0000      -0.489555       -13.3215
 233   2.0000      -0.485455       -13.2099
 234   2.0000      -0.481028       -13.0894
 235   2.0000      -0.479236       -13.0407
 236   2.0000      -0.478219       -13.0130
 237   2.0000      -0.475631       -12.9426
 238   2.0000      -0.474275       -12.9057
 239   2.0000      -0.470756       -12.8099
 240   2.0000      -0.470007       -12.7895
 241   2.0000      -0.466772       -12.7015
 242   2.0000      -0.465903       -12.6779
 243   2.0000      -0.464906       -12.6507
 244   2.0000      -0.462604       -12.5881
 245   2.0000      -0.462224       -12.5778
 246   2.0000      -0.461453       -12.5568
 247   2.0000      -0.459757       -12.5106
 248   2.0000      -0.458576       -12.4785
 249   2.0000      -0.457551       -12.4506
 250   2.0000      -0.456113       -12.4115
 251   2.0000      -0.453537       -12.3414
 252   2.0000      -0.451950       -12.2982
 253   2.0000      -0.447009       -12.1637
 254   2.0000      -0.442311       -12.0359
 255   2.0000      -0.441894       -12.0245
 256   2.0000      -0.441687       -12.0189
 257   2.0000      -0.438093       -11.9211
 258   2.0000      -0.433457       -11.7950
 259   2.0000      -0.430478       -11.7139
 260   2.0000      -0.427977       -11.6458
 261   2.0000      -0.424905       -11.5623
 262   2.0000      -0.422372       -11.4933
 263   2.0000      -0.421843       -11.4789
 264   2.0000      -0.419956       -11.4276
 265   2.0000      -0.418542       -11.3891
 266   2.0000      -0.415618       -11.3095
 267   2.0000      -0.413694       -11.2572
 268   2.0000      -0.410977       -11.1832
 269   2.0000      -0.402647       -10.9566
 270   2.0000      -0.398862       -10.8536
 271   2.0000      -0.390677       -10.6309
 272   2.0000      -0.388374       -10.5682
 273   2.0000      -0.384412       -10.4604
 274   2.0000      -0.382771       -10.4157
 275   2.0000      -0.381434       -10.3794
 276   2.0000      -0.377968       -10.2850
 277   2.0000      -0.376145       -10.2354
 278   2.0000      -0.366570        -9.9749
 279   2.0000      -0.359570        -9.7844
 280   2.0000      -0.353400        -9.6165
 281   2.0000      -0.352545        -9.5932
 282   2.0000      -0.349986        -9.5236
 283   2.0000      -0.343315        -9.3421
 284   2.0000      -0.336309        -9.1514
 285   2.0000      -0.335948        -9.1416
 286   2.0000      -0.330864        -9.0033
 287   2.0000      -0.330082        -8.9820
 288   2.0000      -0.324313        -8.8250
 289   2.0000      -0.319913        -8.7053
 290   2.0000      -0.314922        -8.5695
 291   2.0000      -0.312678        -8.5084
 292   2.0000      -0.307578        -8.3696
 293   2.0000      -0.301181        -8.1955
 294   2.0000      -0.292825        -7.9682
 295   2.0000      -0.276961        -7.5365
 296   2.0000      -0.243966        -6.6387
 297   0.0000      -0.105157        -2.8615
 298   0.0000      -0.097209        -2.6452
 299   0.0000      -0.075468        -2.0536
 300   0.0000      -0.067939        -1.8487
 301   0.0000      -0.066437        -1.8078

MULLIKEN ATOMIC CHARGES
-----------------------
   0 C :    0.155790
   1 O :   -0.102610
   2 C :   -0.090183
   3 C :    0.060458
   4 C :   -0.098029
   5 C :    0.238067
   6 C :    0.152548
   7 C :    0.159590
   8 F :   -0.134940
   9 F :   -0.148702
  10 F :   -0.155432
  11 C :    0.310448
  12 C :   -0.331357
  13 C :   -0.191683
  14 N :    0.171513
  15 C :   -0.190103
  16 N :    0.173660
  17 C :   -0.066354
  18 C :    0.021310
  19 C :   -0.040624
  20 N :   -0.086760
  21 C :    0.088216
  22 C :   -0.035879
  23 C :    0.060122
  24 N :   -0.062231
  25 C :   -0.007244
  26 C :    0.090903
  27 C :   -0.041051
  28 C :   -0.056060
  29 C :    0.079443
  30 C :    0.138610
  31 C :   -0.209345
  32 C :    0.034169
  33 C :    0.087525
  34 C :   -0.268787
  35 S :    0.129774
  36 C :    0.124534
  37 Cl:   -0.088350
  38 C :   -0.140595
  39 C :    0.087436
  40 C :    0.156180
  41 C :   -0.156257
  42 S :    0.127225
  43 C :   -0.200841
  44 C :    0.019593
  45 C :    0.070840
  46 C :   -0.251848
  47 S :    0.162117
  48 C :    0.122442
  49 Cl:   -0.099294
  50 C :   -0.068538
  51 C :    0.001151
  52 S :    0.163911
  53 C :   -0.068996
  54 N :   -0.065315
  55 C :    0.089018
  56 C :   -0.039329
  57 C :    0.064148
  58 N :   -0.053982
  59 C :    0.013084
  60 C :    0.036616
  61 C :    0.052292
  62 C :   -0.105610
  63 C :    0.140113
  64 O :   -0.109472
  65 C :   -0.079286
  66 C :    0.066291
  67 C :    0.270179
  68 C :   -0.322846
  69 C :   -0.163640
  70 N :    0.159582
  71 C :   -0.218404
  72 N :    0.184898
  73 C :   -0.083760
  74 C :    0.235834
  75 C :    0.156837
  76 C :    0.149449
  77 F :   -0.136659
  78 F :   -0.151540
  79 F :   -0.160192
  80 H :    0.017738
  81 H :    0.055130
  82 H :    0.008834
  83 H :   -0.005090
  84 H :   -0.018062
  85 H :    0.004135
  86 H :   -0.011876
  87 H :   -0.005619
  88 H :    0.025528
  89 H :    0.033232
  90 H :    0.033668
  91 H :   -0.010826
  92 H :    0.016991
  93 H :    0.030145
  94 H :    0.056637
  95 H :   -0.018254
  96 H :    0.013517
  97 H :   -0.000792
  98 H :   -0.004327
  99 H :    0.044424
 100 H :    0.023530
 101 H :   -0.012452
Sum of atomic charges:   -0.0000000

LOEWDIN ATOMIC CHARGES
----------------------
   0 C :    0.087551
   1 O :   -0.106017
   2 C :   -0.079200
   3 C :   -0.005247
   4 C :   -0.028660
   5 C :    0.081138
   6 C :    0.042933
   7 C :    0.087642
   8 F :   -0.018240
   9 F :   -0.029726
  10 F :   -0.033346
  11 C :    0.073157
  12 C :   -0.115936
  13 C :   -0.019223
  14 N :   -0.034382
  15 C :   -0.019729
  16 N :   -0.030094
  17 C :   -0.070162
  18 C :    0.090734
  19 C :    0.020450
  20 N :   -0.091024
  21 C :    0.056734
  22 C :   -0.056339
  23 C :    0.044735
  24 N :   -0.078885
  25 C :   -0.034830
  26 C :    0.007925
  27 C :   -0.158544
  28 C :   -0.051797
  29 C :   -0.039069
  30 C :   -0.054211
  31 C :   -0.171298
  32 C :   -0.073279
  33 C :   -0.176652
  34 C :   -0.199407
  35 S :    0.442495
  36 C :   -0.061342
  37 Cl:    0.129285
  38 C :   -0.141436
  39 C :   -0.037749
  40 C :   -0.050454
  41 C :   -0.152411
  42 S :    0.405482
  43 C :   -0.171783
  44 C :   -0.072291
  45 C :   -0.185306
  46 C :   -0.188609
  47 S :    0.457980
  48 C :   -0.065251
  49 Cl:    0.133303
  50 C :   -0.026894
  51 C :   -0.178232
  52 S :    0.447910
  53 C :    0.022616
  54 N :   -0.091266
  55 C :    0.059375
  56 C :   -0.058989
  57 C :    0.035225
  58 N :   -0.073231
  59 C :    0.013571
  60 C :    0.000611
  61 C :    0.071464
  62 C :   -0.077640
  63 C :    0.084164
  64 O :   -0.118949
  65 C :   -0.082068
  66 C :   -0.003649
  67 C :    0.067981
  68 C :   -0.120684
  69 C :   -0.011765
  70 N :   -0.037953
  71 C :   -0.025040
  72 N :   -0.032177
  73 C :   -0.033304
  74 C :    0.079004
  75 C :    0.040999
  76 C :    0.085248
  77 F :   -0.020258
  78 F :   -0.031955
  79 F :   -0.036692
  80 H :    0.053001
  81 H :    0.052932
  82 H :    0.028230
  83 H :    0.034437
  84 H :    0.028603
  85 H :    0.034244
  86 H :    0.016572
  87 H :    0.027696
  88 H :    0.034532
  89 H :    0.038463
  90 H :    0.038431
  91 H :    0.033200
  92 H :    0.030253
  93 H :    0.039717
  94 H :    0.040194
  95 H :    0.030742
  96 H :    0.030014
  97 H :    0.035560
  98 H :    0.034511
  99 H :    0.037768
 100 H :    0.048091
 101 H :    0.045770

  Mayer bond orders larger than 0.100000
B(  0-C ,  1-O ) :   2.2827 B(  0-C ,  2-C ) :   0.9311 B(  0-C , 17-C ) :   0.9181
B(  2-C ,  3-C ) :   1.3548 B(  2-C ,  7-C ) :   1.2668 B(  3-C ,  4-C ) :   1.3141
B(  3-C , 11-C ) :   1.0207 B(  4-C ,  5-C ) :   1.3366 B(  4-C , 80-H ) :   0.9959
B(  5-C ,  6-C ) :   1.2871 B(  5-C , 10-F ) :   1.1544 B(  6-C ,  7-C ) :   1.2641
B(  6-C ,  9-F ) :   1.1777 B(  7-C ,  8-F ) :   1.2474 B( 11-C , 12-C ) :   1.6849
B( 11-C , 17-C ) :   1.0213 B( 12-C , 13-C ) :   1.1297 B( 12-C , 15-C ) :   1.1442
B( 13-C , 14-N ) :   2.9834 B( 15-C , 16-N ) :   2.9799 B( 17-C , 18-C ) :   1.8554
B( 18-C , 19-C ) :   0.9276 B( 18-C , 81-H ) :   0.9308 B( 19-C , 20-N ) :   1.5124
B( 19-C , 24-N ) :   1.5238 B( 20-N , 21-C ) :   1.5205 B( 21-C , 22-C ) :   1.3910
B( 21-C , 82-H ) :   0.9796 B( 22-C , 23-C ) :   1.3267 B( 22-C , 83-H ) :   0.9745
B( 23-C , 24-N ) :   1.5006 B( 23-C , 25-C ) :   1.0831 B( 25-C , 26-C ) :   1.7371
B( 25-C , 84-H ) :   0.9721 B( 26-C , 27-C ) :   1.0655 B( 26-C , 85-H ) :   0.9586
B( 27-C , 28-C ) :   1.5840 B( 27-C , 42-S ) :   1.0623 B( 28-C , 29-C ) :   1.1877
B( 28-C , 86-H ) :   0.9741 B( 29-C , 30-C ) :   1.3018 B( 29-C , 41-C ) :   1.2716
B( 30-C , 31-C ) :   0.9838 B( 30-C , 38-C ) :   1.4154 B( 31-C , 32-C ) :   1.5557
B( 31-C , 35-S ) :   1.1264 B( 32-C , 33-C ) :   1.2207 B( 32-C , 87-H ) :   0.9954
B( 33-C , 34-C ) :   1.6041 B( 33-C , 37-Cl) :   1.0071 B( 34-C , 35-S ) :   1.1277
B( 34-C , 36-C ) :   1.0834 B( 36-C , 88-H ) :   0.9437 B( 36-C , 89-H ) :   0.9483
B( 36-C , 90-H ) :   0.9484 B( 38-C , 39-C ) :   1.2755 B( 38-C , 52-S ) :   1.0589
B( 39-C , 40-C ) :   1.3126 B( 39-C , 50-C ) :   1.1498 B( 40-C , 41-C ) :   1.3906
B( 40-C , 43-C ) :   0.9966 B( 41-C , 42-S ) :   1.0678 B( 43-C , 44-C ) :   1.5359
B( 43-C , 47-S ) :   1.1436 B( 44-C , 45-C ) :   1.2208 B( 44-C , 91-H ) :   1.0079
B( 45-C , 46-C ) :   1.5959 B( 45-C , 49-Cl) :   0.9879 B( 46-C , 47-S ) :   1.1369
B( 46-C , 48-C ) :   1.0949 B( 48-C , 92-H ) :   0.9426 B( 48-C , 93-H ) :   0.9396
B( 48-C , 94-H ) :   0.9331 B( 50-C , 51-C ) :   1.5948 B( 50-C , 95-H ) :   1.0029
B( 51-C , 52-S ) :   1.0660 B( 51-C , 53-C ) :   1.0008 B( 51-C , 58-N ) :  -0.1003
B( 53-C , 54-N ) :   1.5890 B( 53-C , 58-N ) :   1.6053 B( 54-N , 55-C ) :   1.5508
B( 55-C , 56-C ) :   1.3648 B( 55-C , 96-H ) :   0.9791 B( 56-C , 57-C ) :   1.3387
B( 56-C , 97-H ) :   0.9769 B( 57-C , 58-N ) :   1.4999 B( 57-C , 59-C ) :   1.0463
B( 59-C , 60-C ) :   1.7292 B( 59-C , 98-H ) :   0.9865 B( 60-C , 61-C ) :   1.0737
B( 60-C , 99-H ) :   0.9378 B( 61-C , 62-C ) :   1.6698 B( 61-C ,100-H ) :   0.9594
B( 62-C , 63-C ) :   0.9332 B( 62-C , 67-C ) :   1.0396 B( 63-C , 64-O ) :   2.3206
B( 63-C , 65-C ) :   0.9071 B( 65-C , 66-C ) :   1.3535 B( 65-C , 76-C ) :   1.2725
B( 66-C , 67-C ) :   1.0276 B( 66-C , 73-C ) :   1.3296 B( 67-C , 68-C ) :   1.6617
B( 68-C , 69-C ) :   1.1379 B( 68-C , 71-C ) :   1.1487 B( 69-C , 70-N ) :   2.9570
B( 71-C , 72-N ) :   3.0138 B( 73-C , 74-C ) :   1.3251 B( 73-C ,101-H ) :   0.9968
B( 74-C , 75-C ) :   1.2949 B( 74-C , 79-F ) :   1.1401 B( 75-C , 76-C ) :   1.2653
B( 75-C , 78-F ) :   1.1745 B( 76-C , 77-F ) :   1.2475

-----------------------------------------------------------------------------
         ABSORPTION SPECTRUM VIA TRANSITION ELECTRIC DIPOLE MOMENTS
-----------------------------------------------------------------------------
State   Energy  Wavelength   fosc         T2         TX        TY        TZ
        (cm-1)    (nm)                  (au**2)     (au)      (au)      (au)
-----------------------------------------------------------------------------
   0   16429.6    608.7   0.003964169   0.07943   0.13102  -0.12182  -0.21778
   1   21647.4    462.0   0.003070783   0.04670  -0.15587  -0.09383   0.11662
   2   22547.5    443.5   0.399179410   5.82836  -1.15872  -0.01983   2.11786
   3   23538.2    424.8   0.060942965   0.85236   0.59330  -0.07058  -0.70383
   4   24528.0    407.7   0.071183215   0.95541   0.56663  -0.43910  -0.66448
   5   26181.5    381.9   0.071050305   0.89340  -0.58161   0.57839   0.46968
   6   26696.8    374.6   0.148290469   1.82864   0.85691  -1.02131  -0.22642
   7   26717.3    374.3   0.080340788   0.98996   0.40903  -0.78253  -0.45860
   8   27312.5    366.1   0.004722440   0.05692   0.04352   0.15000  -0.18035
   9   28345.1    352.8   1.159840355  13.47086   1.89894   2.40556  -2.01945
  10   28665.1    348.9   0.070912473   0.81441   0.34377  -0.15138  -0.82056
  11   28902.6    346.0   0.018338841   0.20889  -0.37124  -0.06350   0.25891
  12   29393.0    340.2   0.004766415   0.05339   0.06221  -0.21569  -0.05469
  13   29512.6    338.8   0.111512800   1.24392  -0.24552   1.06503   0.22213
  14   29612.9    337.7   0.031551834   0.35077  -0.04056  -0.58532  -0.08079
  15   30020.3    333.1   0.001561623   0.01713  -0.00762  -0.00145  -0.13063
  16   30404.7    328.9   0.070019742   0.75815   0.04423  -0.68574  -0.53474
  17   30718.6    325.5   0.006852659   0.07344  -0.20420   0.05853   0.16828
  18   31110.3    321.4   0.057266159   0.60600  -0.16842   0.75142  -0.11404
  19   31579.8    316.7   0.802269708   8.36348  -0.78007  -2.78332  -0.08988
  20   31698.6    315.5   0.253174288   2.62939   0.75620   1.14008  -0.87050
  21   32215.0    310.4   0.007644965   0.07813   0.05392   0.21049  -0.17582
  22   32311.9    309.5   0.013379608   0.13632  -0.11752  -0.24254  -0.25235
  23   32788.4    305.0   0.093015864   0.93393  -0.27223  -0.90072  -0.22027
  24   33164.7    301.5   0.198632458   1.97174   1.30094  -0.48917  -0.20006
  25   33322.9    300.1   0.011218074   0.11083  -0.12369  -0.02651   0.30794
  26   33579.6    297.8   0.128911615   1.26384   0.14189  -0.81579  -0.76039
  27   33696.2    296.8   0.004904383   0.04792  -0.10082   0.17711  -0.07989
  28   33873.2    295.2   0.045979671   0.44687  -0.28134   0.24198   0.55603
  29   33921.9    294.8   0.031646781   0.30713  -0.42934   0.31879   0.14551
  30   34030.7    293.9   0.260009926   2.51533  -1.40235   0.62724   0.39409
  31   34373.9    290.9   0.011803808   0.11305   0.15869   0.22645  -0.19128
  32   34487.8    290.0   0.690920960   6.59537  -0.77328   1.44044   1.98054
  33   35004.8    285.7   0.001450032   0.01364   0.11325   0.01959   0.02069
  34   35099.7    284.9   0.016173520   0.15170  -0.34840  -0.05798   0.16417
  35   35420.3    282.3   0.040187363   0.37352  -0.57126  -0.00903  -0.21702
  36   35738.3    279.8   0.003889569   0.03583   0.03393   0.10408   0.15442
  37   36263.3    275.8   0.257749272   2.33995  -0.28124  -1.25622  -0.82630
  38   36301.6    275.5   0.100118713   0.90796  -0.61855  -0.44385  -0.57302
  39   36670.2    272.7   0.002029017   0.01822   0.08305  -0.03584  -0.10017
  40   36914.7    270.9   0.010573148   0.09429  -0.01904  -0.30059   0.05981
  41   37010.0    270.2   0.001250403   0.01112   0.08861   0.01477  -0.05525
  42   37322.2    267.9   0.137120023   1.20951  -0.00045  -0.69073  -0.85580
  43   37435.4    267.1   0.055966896   0.49218   0.51450   0.44386   0.17453
  44   37855.3    264.2   0.014662491   0.12751   0.29841  -0.19505  -0.02047
  45   37878.9    264.0   0.066236059   0.57567   0.73574  -0.06330  -0.17420
  46   37999.6    263.2   0.041867050   0.36272   0.46219  -0.15042  -0.35563
  47   38310.8    261.0   0.067296715   0.57829   0.70342   0.03770   0.28649
  48   38355.1    260.7   0.194155865   1.66649   1.21892  -0.38274  -0.18500
  49   38675.7    258.6   0.006597481   0.05616  -0.00824  -0.23193  -0.04796
  50   38974.1    256.6   0.000073930   0.00062   0.02479   0.00192   0.00252
  51   39089.9    255.8   0.013295089   0.11197   0.08029  -0.01863  -0.32431
  52   39328.1    254.3   0.012044446   0.10082  -0.19216   0.24803  -0.04877
  53   39785.8    251.3   0.000986315   0.00816  -0.01973  -0.04446  -0.07613
  54   39982.1    250.1   0.026344694   0.21692  -0.25184  -0.17375   0.35115
  55   39993.0    250.0   0.001874065   0.01543   0.02331   0.11298  -0.04604
  56   40148.1    249.1   0.125503414   1.02912   0.50437   0.42243  -0.77220
  57   40314.0    248.1   0.006611044   0.05399  -0.11991  -0.12797   0.15242

FINAL SINGLE POINT ENERGY     -5919.060906925579

DIPOLE MOMENT
-------------
                                X             Y             Z
Electronic contribution:     12.67838      26.80121      48.86706
Nuclear contribution   :    -11.14739     -27.37304     -50.66891
                        -----------------------------------------
Total Dipole Moment    :      1.53100      -0.57184      -1.80185
                        -----------------------------------------
Magnitude (a.u.)       :      2.43261
Magnitude (Debye)      :      6.18321

Rotational constants in cm-1:     0.000740     0.000350     0.000263
Rotational constants in MHz :    22.173428    10.485659     7.898736

                             ****ORCA TERMINATED NORMALLY****
TOTAL RUN TIME: 0 days 0 hours 12 minutes 6 seconds 492 msec
