                         Program Version 4.2.0 -  RELEASE  -
|  1> # ORCA input file
|  2> # SCF done       -104.574557200915          0.000751160233
|  3> ! CAM-B3LYP def2-SVP def2/J RIJCOSX Grid4 TightSCF
|  4> %maxcore 5000
|  5> %tddft
|  6>     Mode sTDDFT
|  7>     Ethresh 5.0
|  8>     maxcore 5000
|  9> end
| 10>
| 11> %pal
| 12>   nprocs 6
| 13>   end
| 14> * xyz 0 1
| 15>    C       -6.97845        -3.56795         6.13996
| 16>    N       -6.17037        -3.67375         7.18204
| 17>    C       -4.88981        -3.88306         6.91149
| 18>    C       -4.41692        -3.98701         5.61513
| 19>    C       -5.35637        -3.85558         4.58470
| 20>    N       -6.64591        -3.64482         4.87079
| 21>    C       -4.95971        -3.93627         3.19256
| 22>    C       -5.81446        -3.77441         2.17441
| 23>    C       -5.40426        -3.83168         0.78257
| 24>    N       -4.12449        -4.10598         0.50925
| 25>    C       -3.77755        -4.13794        -0.76346
| 26>    C       -4.67815        -3.89264        -1.78725
| 27>    C       -5.99888        -3.61446        -1.40998
| 28>    N       -6.34438        -3.59398        -0.12344
| 29>    C       -7.01506        -3.33566        -2.40667
| 30>    C       -8.30270        -3.11693        -2.11196
| 31>    C       -9.30095        -2.83182        -3.12793
| 32>    N      -10.56704        -2.73322        -2.71543
| 33>    C      -11.48102        -2.48417        -3.63510
| 34>    C      -11.16438        -2.32227        -4.97427
| 35>    C       -9.80931        -2.42738        -5.31587
| 36>    N       -8.89481        -2.68595        -4.38408
| 37>    C       -9.36081        -2.25186        -6.68559
| 38>    C       -8.06763        -2.24197        -7.03188
| 39>    C       -7.60364        -2.05191        -8.39405
| 40>    N       -6.28018        -1.98493        -8.56393
| 41>    C       -5.84090        -1.79849        -9.79484
| 42>    C       -6.69560        -1.68303       -10.87863
| 43>    C       -8.06809        -1.78024       -10.61071
| 44>    N       -8.50408        -1.95884        -9.36561
| 45>    C       -9.04647        -1.69864       -11.67953
| 46>    C      -10.36220        -1.84675       -11.48376
| 47>    C      -11.34097        -1.78467       -12.55435
| 48>    N      -12.61708        -1.95207       -12.19954
| 49>    C      -13.51925        -1.90504       -13.16245
| 50>    C      -13.17938        -1.69187       -14.48801
| 51>    C      -11.81766        -1.52452       -14.76908
| 52>    N      -10.91392        -1.57355       -13.79466
| 53>    C      -11.35380        -1.29444       -16.13263
| 54>    C      -10.07355        -1.14218       -16.44827
| 55>    H       -8.02628        -3.39885         6.35643
| 56>    H       -4.23254        -3.96785         7.76806
| 57>    H       -3.37416        -4.15871         5.40260
| 58>    H       -3.91540        -4.12823         2.98981
| 59>    H       -6.85988        -3.57714         2.35716
| 60>    H       -2.73721        -4.36567        -0.96305
| 61>    H       -4.38252        -3.91457        -2.82347
| 62>    H       -6.69180        -3.30775        -3.43780
| 63>    H       -8.65279        -3.15311        -1.09164
| 64>    H      -12.50137        -2.41196        -3.27872
| 65>    H      -11.91722        -2.11832        -5.71803
| 66>    H      -10.12214        -2.11209        -7.43969
| 67>    H       -7.29865        -2.36577        -6.28448
| 68>    H       -4.76514        -1.74230        -9.90909
| 69>    H       -6.32809        -1.53200       -11.88052
| 70>    H       -8.66927        -1.51933       -12.67631
| 71>    H      -10.75406        -2.02930       -10.49491
| 72>    H      -14.54821        -2.04414       -12.85354
| 73>    H      -13.92354        -1.65652       -15.26728
| 74>    H      -12.12799        -1.25434       -16.88751
| 75>    H       -9.31674        -1.18425       -15.68379
| 76>    H       -9.75033        -0.97291       -17.46083
| 77> *
| 78>
| 79>                          ****END OF INPUT****

CARTESIAN COORDINATES (ANGSTROEM)
---------------------------------
  C     -6.978450   -3.567950    6.139960
  N     -6.170370   -3.673750    7.182040
  C     -4.889810   -3.883060    6.911490
  C     -4.416920   -3.987010    5.615130
  C     -5.356370   -3.855580    4.584700
  N     -6.645910   -3.644820    4.870790
  C     -4.959710   -3.936270    3.192560
  C     -5.814460   -3.774410    2.174410
  C     -5.404260   -3.831680    0.782570
  N     -4.124490   -4.105980    0.509250
  C     -3.777550   -4.137940   -0.763460
  C     -4.678150   -3.892640   -1.787250
  C     -5.998880   -3.614460   -1.409980
  N     -6.344380   -3.593980   -0.123440
  C     -7.015060   -3.335660   -2.406670
  C     -8.302700   -3.116930   -2.111960
  C     -9.300950   -2.831820   -3.127930
  N    -10.567040   -2.733220   -2.715430
  C    -11.481020   -2.484170   -3.635100
  C    -11.164380   -2.322270   -4.974270
  C     -9.809310   -2.427380   -5.315870
  N     -8.894810   -2.685950   -4.384080
  C     -9.360810   -2.251860   -6.685590
  C     -8.067630   -2.241970   -7.031880
  C     -7.603640   -2.051910   -8.394050
  N     -6.280180   -1.984930   -8.563930
  C     -5.840900   -1.798490   -9.794840
  C     -6.695600   -1.683030  -10.878630
  C     -8.068090   -1.780240  -10.610710
  N     -8.504080   -1.958840   -9.365610
  C     -9.046470   -1.698640  -11.679530
  C    -10.362200   -1.846750  -11.483760
  C    -11.340970   -1.784670  -12.554350
  N    -12.617080   -1.952070  -12.199540
  C    -13.519250   -1.905040  -13.162450
  C    -13.179380   -1.691870  -14.488010
  C    -11.817660   -1.524520  -14.769080
  N    -10.913920   -1.573550  -13.794660
  C    -11.353800   -1.294440  -16.132630
  C    -10.073550   -1.142180  -16.448270
  H     -8.026280   -3.398850    6.356430
  H     -4.232540   -3.967850    7.768060
  H     -3.374160   -4.158710    5.402600
  H     -3.915400   -4.128230    2.989810
  H     -6.859880   -3.577140    2.357160
  H     -2.737210   -4.365670   -0.963050
  H     -4.382520   -3.914570   -2.823470
  H     -6.691800   -3.307750   -3.437800
  H     -8.652790   -3.153110   -1.091640
  H    -12.501370   -2.411960   -3.278720
  H    -11.917220   -2.118320   -5.718030
  H    -10.122140   -2.112090   -7.439690
  H     -7.298650   -2.365770   -6.284480
  H     -4.765140   -1.742300   -9.909090
  H     -6.328090   -1.532000  -11.880520
  H     -8.669270   -1.519330  -12.676310
  H    -10.754060   -2.029300  -10.494910
  H    -14.548210   -2.044140  -12.853540
  H    -13.923540   -1.656520  -15.267280
  H    -12.127990   -1.254340  -16.887510
  H     -9.316740   -1.184250  -15.683790
  H     -9.750330   -0.972910  -17.460830

 Total Charge           Charge          ....    0
 Multiplicity           Mult            ....    1
 Number of Electrons    NEL             ....  272
 Basis Dimension        Dim             ....  670

ORBITAL ENERGIES
----------------

  NO   OCC          E(Eh)            E(eV)
   0   2.0000     -14.408990      -392.0885
   1   2.0000     -14.406598      -392.0235
   2   2.0000     -14.405956      -392.0060
   3   2.0000     -14.404083      -391.9550
   4   2.0000     -14.401280      -391.8787
   5   2.0000     -14.399942      -391.8423
   6   2.0000     -14.399288      -391.8245
   7   2.0000     -14.398485      -391.8027
   8   2.0000     -14.396391      -391.7457
   9   2.0000     -14.395230      -391.7141
  10   2.0000     -10.341396      -281.4037
  11   2.0000     -10.338309      -281.3197
  12   2.0000     -10.333758      -281.1959
  13   2.0000     -10.332385      -281.1585
  14   2.0000     -10.328820      -281.0615
  15   2.0000     -10.326152      -280.9889
  16   2.0000     -10.321663      -280.8667
  17   2.0000     -10.321295      -280.8567
  18   2.0000     -10.320529      -280.8359
  19   2.0000     -10.318528      -280.7814
  20   2.0000     -10.317972      -280.7663
  21   2.0000     -10.316271      -280.7200
  22   2.0000     -10.313337      -280.6402
  23   2.0000     -10.313260      -280.6381
  24   2.0000     -10.309537      -280.5368
  25   2.0000     -10.285513      -279.8830
  26   2.0000     -10.283267      -279.8219
  27   2.0000     -10.279109      -279.7088
  28   2.0000     -10.278737      -279.6987
  29   2.0000     -10.276727      -279.6440
  30   2.0000     -10.276703      -279.6433
  31   2.0000     -10.276230      -279.6304
  32   2.0000     -10.275419      -279.6084
  33   2.0000     -10.273367      -279.5525
  34   2.0000     -10.272490      -279.5287
  35   2.0000     -10.269386      -279.4442
  36   2.0000     -10.267812      -279.4014
  37   2.0000     -10.266290      -279.3599
  38   2.0000     -10.265420      -279.3363
  39   2.0000     -10.263663      -279.2885
  40   2.0000      -1.082159       -29.4470
  41   2.0000      -1.079042       -29.3622
  42   2.0000      -1.074665       -29.2431
  43   2.0000      -1.072852       -29.1938
  44   2.0000      -1.068181       -29.0667
  45   2.0000      -0.980403       -26.6781
  46   2.0000      -0.977750       -26.6059
  47   2.0000      -0.973272       -26.4841
  48   2.0000      -0.971762       -26.4430
  49   2.0000      -0.967792       -26.3349
  50   2.0000      -0.918677       -24.9985
  51   2.0000      -0.911242       -24.7962
  52   2.0000      -0.904191       -24.6043
  53   2.0000      -0.895843       -24.3771
  54   2.0000      -0.880144       -23.9499
  55   2.0000      -0.863786       -23.5048
  56   2.0000      -0.853235       -23.2177
  57   2.0000      -0.845536       -23.0082
  58   2.0000      -0.838634       -22.8204
  59   2.0000      -0.830004       -22.5856
  60   2.0000      -0.773257       -21.0414
  61   2.0000      -0.767728       -20.8910
  62   2.0000      -0.763784       -20.7836
  63   2.0000      -0.760413       -20.6919
  64   2.0000      -0.749390       -20.3919
  65   2.0000      -0.731626       -19.9085
  66   2.0000      -0.729037       -19.8381
  67   2.0000      -0.719922       -19.5901
  68   2.0000      -0.708792       -19.2872
  69   2.0000      -0.699998       -19.0479
  70   2.0000      -0.672742       -18.3063
  71   2.0000      -0.663671       -18.0594
  72   2.0000      -0.659801       -17.9541
  73   2.0000      -0.655136       -17.8271
  74   2.0000      -0.639653       -17.4059
  75   2.0000      -0.619041       -16.8450
  76   2.0000      -0.615359       -16.7448
  77   2.0000      -0.611045       -16.6274
  78   2.0000      -0.601324       -16.3629
  79   2.0000      -0.589752       -16.0480
  80   2.0000      -0.585817       -15.9409
  81   2.0000      -0.580500       -15.7962
  82   2.0000      -0.574340       -15.6286
  83   2.0000      -0.569121       -15.4866
  84   2.0000      -0.561958       -15.2917
  85   2.0000      -0.550416       -14.9776
  86   2.0000      -0.544271       -14.8104
  87   2.0000      -0.537486       -14.6257
  88   2.0000      -0.536135       -14.5890
  89   2.0000      -0.534432       -14.5426
  90   2.0000      -0.532499       -14.4900
  91   2.0000      -0.525946       -14.3117
  92   2.0000      -0.521213       -14.1829
  93   2.0000      -0.517781       -14.0895
  94   2.0000      -0.514261       -13.9937
  95   2.0000      -0.513679       -13.9779
  96   2.0000      -0.508385       -13.8339
  97   2.0000      -0.506217       -13.7749
  98   2.0000      -0.505242       -13.7483
  99   2.0000      -0.496365       -13.5068
 100   2.0000      -0.492448       -13.4002
 101   2.0000      -0.484761       -13.1910
 102   2.0000      -0.482784       -13.1372
 103   2.0000      -0.478557       -13.0222
 104   2.0000      -0.474556       -12.9133
 105   2.0000      -0.472869       -12.8674
 106   2.0000      -0.457498       -12.4492
 107   2.0000      -0.446214       -12.1421
 108   2.0000      -0.438159       -11.9229
 109   2.0000      -0.434793       -11.8313
 110   2.0000      -0.430027       -11.7016
 111   2.0000      -0.429010       -11.6740
 112   2.0000      -0.421341       -11.4653
 113   2.0000      -0.414327       -11.2744
 114   2.0000      -0.408427       -11.1139
 115   2.0000      -0.401468       -10.9245
 116   2.0000      -0.382191       -10.4000
 117   2.0000      -0.378282       -10.2936
 118   2.0000      -0.377075       -10.2607
 119   2.0000      -0.375097       -10.2069
 120   2.0000      -0.373394       -10.1606
 121   2.0000      -0.370486       -10.0814
 122   2.0000      -0.369047       -10.0423
 123   2.0000      -0.367668       -10.0048
 124   2.0000      -0.357050        -9.7158
 125   2.0000      -0.351436        -9.5631
 126   2.0000      -0.331212        -9.0127
 127   2.0000      -0.324565        -8.8319
 128   2.0000      -0.320879        -8.7315
 129   2.0000      -0.317089        -8.6284
 130   2.0000      -0.314672        -8.5626
 131   2.0000      -0.312445        -8.5021
 132   2.0000      -0.311019        -8.4633
 133   2.0000      -0.301568        -8.2061
 134   2.0000      -0.293105        -7.9758
 135   2.0000      -0.284874        -7.7518
 136   0.0000      -0.048558        -1.3213
 137   0.0000      -0.045282        -1.2322
 138   0.0000      -0.042429        -1.1545
 139   0.0000      -0.034034        -0.9261
 140   0.0000      -0.025831        -0.7029

MULLIKEN ATOMIC CHARGES
-----------------------
   0 C :    0.068182
   1 N :   -0.108466
   2 C :    0.064742
   3 C :   -0.028569
   4 C :    0.028543
   5 N :   -0.083680
   6 C :    0.026775
   7 C :    0.069815
   8 C :   -0.060737
   9 N :   -0.077346
  10 C :    0.080234
  11 C :   -0.045898
  12 C :    0.053922
  13 N :   -0.042911
  14 C :    0.018494
  15 C :    0.072198
  16 C :   -0.060635
  17 N :   -0.069736
  18 C :    0.082250
  19 C :   -0.043559
  20 C :    0.053538
  21 N :   -0.058912
  22 C :    0.022194
  23 C :    0.074381
  24 C :   -0.069429
  25 N :   -0.067995
  26 C :    0.079137
  27 C :   -0.041599
  28 C :    0.053820
  29 N :   -0.050809
  30 C :    0.022449
  31 C :    0.073345
  32 C :   -0.070173
  33 N :   -0.067500
  34 C :    0.078969
  35 C :   -0.040576
  36 C :    0.030382
  37 N :   -0.053418
  38 C :   -0.016141
  39 C :    0.033158
  40 H :    0.013608
  41 H :    0.008031
  42 H :   -0.006270
  43 H :   -0.004424
  44 H :    0.005926
  45 H :    0.003279
  46 H :   -0.003630
  47 H :   -0.002060
  48 H :    0.006718
  49 H :    0.005764
  50 H :   -0.003417
  51 H :   -0.002210
  52 H :    0.001757
  53 H :    0.006561
  54 H :   -0.006211
  55 H :   -0.006266
  56 H :    0.002462
  57 H :    0.007143
  58 H :   -0.004403
  59 H :   -0.014198
  60 H :    0.036312
  61 H :    0.027091
Sum of atomic charges:   -0.0000000

LOEWDIN ATOMIC CHARGES
----------------------
   0 C :    0.044101
   1 N :   -0.096629
   2 C :    0.046306
   3 C :   -0.060356
   4 C :    0.032470
   5 N :   -0.084787
   6 C :   -0.012514
   7 C :    0.006491
   8 C :    0.026956
   9 N :   -0.090667
  10 C :    0.048350
  11 C :   -0.062706
  12 C :    0.034593
  13 N :   -0.080026
  14 C :   -0.012579
  15 C :    0.007479
  16 C :    0.027004
  17 N :   -0.088855
  18 C :    0.049736
  19 C :   -0.061756
  20 C :    0.034451
  21 N :   -0.079678
  22 C :   -0.010034
  23 C :    0.003398
  24 C :    0.026385
  25 N :   -0.090506
  26 C :    0.048795
  27 C :   -0.062302
  28 C :    0.034703
  29 N :   -0.079307
  30 C :   -0.012079
  31 C :    0.005104
  32 C :    0.026433
  33 N :   -0.090530
  34 C :    0.050043
  35 C :   -0.065248
  36 C :    0.036226
  37 N :   -0.081341
  38 C :   -0.044739
  39 C :    0.006109
  40 H :    0.017719
  41 H :    0.025085
  42 H :    0.033244
  43 H :    0.030473
  44 H :    0.038217
  45 H :    0.025029
  46 H :    0.034077
  47 H :    0.030765
  48 H :    0.038667
  49 H :    0.026193
  50 H :    0.034203
  51 H :    0.031275
  52 H :    0.035953
  53 H :    0.026198
  54 H :    0.033245
  55 H :    0.029854
  56 H :    0.036528
  57 H :    0.026448
  58 H :    0.033199
  59 H :    0.028542
  60 H :    0.028538
  61 H :    0.028054

  Mayer bond orders larger than 0.100000
B(  0-C ,  1-N ) :   1.4990 B(  0-C ,  5-N ) :   1.5325 B(  0-C , 40-H ) :   0.9752
B(  1-N ,  2-C ) :   1.5445 B(  2-C ,  3-C ) :   1.3814 B(  2-C , 41-H ) :   0.9816
B(  3-C ,  4-C ) :   1.3470 B(  3-C , 42-H ) :   0.9770 B(  4-C ,  5-N ) :   1.5272
B(  4-C ,  6-C ) :   1.0477 B(  6-C ,  7-C ) :   1.7385 B(  6-C , 43-H ) :   0.9704
B(  7-C ,  8-C ) :   1.0052 B(  7-C , 44-H ) :   0.9742 B(  8-C ,  9-N ) :   1.5220
B(  8-C , 13-N ) :   1.5396 B(  9-N , 10-C ) :   1.5568 B( 10-C , 11-C ) :   1.3606
B( 10-C , 45-H ) :   0.9803 B( 11-C , 12-C ) :   1.3428 B( 11-C , 46-H ) :   0.9770
B( 12-C , 13-N ) :   1.5210 B( 12-C , 14-C ) :   1.0396 B( 14-C , 15-C ) :   1.7365
B( 14-C , 47-H ) :   0.9734 B( 15-C , 16-C ) :   1.0047 B( 15-C , 48-H ) :   0.9760
B( 16-C , 17-N ) :   1.5195 B( 16-C , 21-N ) :   1.5447 B( 17-N , 18-C ) :   1.5431
B( 18-C , 19-C ) :   1.3744 B( 18-C , 49-H ) :   0.9793 B( 19-C , 20-C ) :   1.3322
B( 19-C , 50-H ) :   0.9763 B( 20-C , 21-N ) :   1.5301 B( 20-C , 22-C ) :   1.0374
B( 22-C , 23-C ) :   1.7418 B( 22-C , 51-H ) :   0.9746 B( 23-C , 24-C ) :   1.0055
B( 23-C , 52-H ) :   0.9742 B( 24-C , 25-N ) :   1.5253 B( 24-C , 29-N ) :   1.5511
B( 25-N , 26-C ) :   1.5451 B( 26-C , 27-C ) :   1.3725 B( 26-C , 53-H ) :   0.9798
B( 27-C , 28-C ) :   1.3311 B( 27-C , 54-H ) :   0.9771 B( 28-C , 29-N ) :   1.5299
B( 28-C , 30-C ) :   1.0377 B( 30-C , 31-C ) :   1.7405 B( 30-C , 55-H ) :   0.9737
B( 31-C , 32-C ) :   1.0047 B( 31-C , 56-H ) :   0.9755 B( 32-C , 33-N ) :   1.5301
B( 32-C , 37-N ) :   1.5489 B( 33-N , 34-C ) :   1.5425 B( 34-C , 35-C ) :   1.3803
B( 34-C , 57-H ) :   0.9800 B( 35-C , 36-C ) :   1.3327 B( 35-C , 58-H ) :   0.9748
B( 36-C , 37-N ) :   1.5266 B( 36-C , 38-C ) :   1.0619 B( 38-C , 39-C ) :   1.9587
B( 38-C , 59-H ) :   0.9669 B( 39-C , 60-H ) :   0.9419 B( 39-C , 61-H ) :   0.9470

-----------------------------------------------------------------------------
         ABSORPTION SPECTRUM VIA TRANSITION ELECTRIC DIPOLE MOMENTS
-----------------------------------------------------------------------------
State   Energy  Wavelength   fosc         T2         TX        TY        TZ
        (cm-1)    (nm)                  (au**2)     (au)      (au)      (au)
-----------------------------------------------------------------------------
   0   32555.2    307.2   0.005330775   0.05391   0.06026   0.21411   0.06657
   1   33075.9    302.3   0.002560087   0.02548   0.00985  -0.13769  -0.08016
   2   33181.5    301.4   0.013370865   0.13266  -0.06464  -0.35317   0.06127
   3   33351.6    299.8   0.001042173   0.01029  -0.01151  -0.09686   0.02780
   4   33849.4    295.4   0.014927365   0.14518   0.15645  -0.14827   0.31419
   5   33936.9    294.7   0.000393095   0.00381  -0.01051  -0.05863  -0.01630
   6   34165.3    292.7   0.022977875   0.22141  -0.05757   0.09648  -0.45693
   7   34847.5    287.0   0.714544502   6.75046   0.75258  -0.35141   2.46183
   8   35241.2    283.8   0.004919771   0.04596  -0.08822  -0.19449   0.01867
   9   35472.4    281.9   0.008566559   0.07950  -0.02818   0.27827   0.03574
  10   35843.7    279.0   0.105096543   0.96527   0.87208  -0.24188   0.38241
  11   36090.0    277.1   0.254235018   2.31912  -1.15019   0.07801  -0.99504
  12   38031.9    262.9   0.772566211   6.68750  -0.49769   0.09270   2.53598
  13   38312.4    261.0   1.005841195   8.64303  -1.59636   0.52009  -2.41334
  14   39265.3    254.7   0.323269437   2.71039  -0.73297  -0.09402   1.47116

FINAL SINGLE POINT ENERGY     -1701.764704358045

DIPOLE MOMENT
-------------
                                X             Y             Z
Electronic contribution:      1.19932      -1.84924      15.09430
Nuclear contribution   :     -1.11313       2.10943     -18.71132
                        -----------------------------------------
Total Dipole Moment    :      0.08619       0.26019      -3.61702
                        -----------------------------------------
Magnitude (a.u.)       :      3.62739
Magnitude (Debye)      :      9.22008

Rotational constants in cm-1:     0.009374     0.000608     0.000573
Rotational constants in MHz :   281.035221    18.217047    17.167459

                             ****ORCA TERMINATED NORMALLY****
TOTAL RUN TIME: 0 days 0 hours 2 minutes 26 seconds 754 msec
