                         Program Version 4.2.0 -  RELEASE  -
|  1> # ORCA input file
|  2> # SCF done       -136.620062129267          0.000579026613
|  3> ! CAM-B3LYP def2-SVP def2/J RIJCOSX Grid4 TightSCF
|  4> %maxcore 5000
|  5> %tddft
|  6>     Mode sTDDFT
|  7>     Ethresh 5.0
|  8>     maxcore 5000
|  9> end
| 10>
| 11> %pal
| 12>   nprocs 6
| 13>   end
| 14> * xyz 0 1
| 15>    C       -0.80032         2.20293         0.70537
| 16>    N       -0.67409         3.30868        -0.01090
| 17>    C       -1.49857         3.43729        -1.04106
| 18>    C       -2.44164         2.47640        -1.35754
| 19>    C       -2.49226         1.34347        -0.53326
| 20>    N       -1.65360         1.22508         0.50356
| 21>    C       -3.44097         0.28213        -0.76757
| 22>    C       -3.50492        -0.81504         0.01566
| 23>    C       -4.42445        -1.88001        -0.16337
| 24>    S       -5.60174        -1.83571        -1.43778
| 25>    C       -6.32597        -3.32834        -0.96160
| 26>    C       -5.63103        -3.89261         0.10978
| 27>    C       -4.56601        -3.05471         0.58576
| 28>    C       -3.80382        -3.48602         1.70596
| 29>    C       -2.75613        -2.73106         2.27955
| 30>    N       -1.89656        -2.19447         2.81722
| 31>    C       -4.06996        -4.71176         2.28563
| 32>    C       -5.03826        -5.56791         1.75565
| 33>    C       -5.80519        -5.18762         0.67295
| 34>    C       -6.64789        -6.16661         0.09828
| 35>    N       -7.24227        -7.04315        -0.34176
| 36>    C       -7.53875        -3.74562        -1.59606
| 37>    C       -8.56749        -4.31553        -0.94754
| 38>    C       -9.79874        -4.71095        -1.60017
| 39>    N      -10.77411        -5.13230        -0.79170
| 40>    C      -11.90186        -5.51598        -1.35985
| 41>    C      -12.08992        -5.48152        -2.73130
| 42>    C      -11.01634        -5.01378        -3.50086
| 43>    N       -9.87935        -4.62787        -2.92351
| 44>    C      -11.11684        -4.95243        -4.94407
| 45>    C      -10.06399        -4.66417        -5.72805
| 46>    C      -10.08469        -4.59604        -7.15516
| 47>    S       -9.10493        -3.39445        -7.92120
| 48>    C       -9.73500        -3.73548        -9.49646
| 49>    C      -10.65351        -4.79101        -9.43578
| 50>    C      -10.83149        -5.30076        -8.10302
| 51>    C      -11.62496        -6.46665        -7.91215
| 52>    C      -11.69202        -7.17753        -6.69289
| 53>    N      -11.77774        -7.85092        -5.76803
| 54>    C      -12.30509        -7.01580        -8.98170
| 55>    C      -12.20687        -6.46171       -10.25912
| 56>    C      -11.37966        -5.38249       -10.50519
| 57>    C      -11.31080        -4.93909       -11.84527
| 58>    N      -11.33441        -4.65688       -12.95712
| 59>    C       -9.32196        -2.98930       -10.63030
| 60>    C       -8.41573        -1.99184       -10.61428
| 61>    C       -8.05117        -1.27904       -11.81802
| 62>    N       -7.14143        -0.30858       -11.69785
| 63>    C       -6.81521         0.33873       -12.80210
| 64>    C       -7.37316         0.04721       -14.03577
| 65>    C       -8.31955        -0.98575       -14.06916
| 66>    N       -8.64283        -1.63360       -12.95518
| 67>    C       -9.01575        -1.43816       -15.26852
| 68>    C       -8.87096        -0.93533       -16.48785
| 69>    H       -0.13087         2.09288         1.54931
| 70>    H       -1.39059         4.34385        -1.62364
| 71>    H       -3.10909         2.58890        -2.19716
| 72>    H       -4.11180         0.40529        -1.60819
| 73>    H       -2.80890        -0.88427         0.83904
| 74>    H       -3.49137        -5.02748         3.14077
| 75>    H       -5.17454        -6.54938         2.18401
| 76>    H       -7.65779        -3.50334        -2.64353
| 77>    H       -8.55151        -4.48644         0.11830
| 78>    H      -12.67772        -5.85788        -0.68637
| 79>    H      -13.00741        -5.80871        -3.19139
| 80>    H      -12.09261        -5.15700        -5.35921
| 81>    H       -9.13809        -4.38518        -5.24218
| 82>    H      -12.90696        -7.89902        -8.82875
| 83>    H      -12.75902        -6.90265       -11.07537
| 84>    H       -9.76909        -3.24094       -11.58082
| 85>    H       -7.91863        -1.67617        -9.70815
| 86>    H       -6.07581         1.12193       -12.68624
| 87>    H       -7.08774         0.59125       -14.91983
| 88>    H       -9.69735        -2.25678       -15.08242
| 89>    H       -8.20262        -0.11972       -16.70899
| 90>    H       -9.42525        -1.32888       -17.32239
| 91> *
| 92>
| 93>                          ****END OF INPUT****

CARTESIAN COORDINATES (ANGSTROEM)
---------------------------------
  C     -0.800320    2.202930    0.705370
  N     -0.674090    3.308680   -0.010900
  C     -1.498570    3.437290   -1.041060
  C     -2.441640    2.476400   -1.357540
  C     -2.492260    1.343470   -0.533260
  N     -1.653600    1.225080    0.503560
  C     -3.440970    0.282130   -0.767570
  C     -3.504920   -0.815040    0.015660
  C     -4.424450   -1.880010   -0.163370
  S     -5.601740   -1.835710   -1.437780
  C     -6.325970   -3.328340   -0.961600
  C     -5.631030   -3.892610    0.109780
  C     -4.566010   -3.054710    0.585760
  C     -3.803820   -3.486020    1.705960
  C     -2.756130   -2.731060    2.279550
  N     -1.896560   -2.194470    2.817220
  C     -4.069960   -4.711760    2.285630
  C     -5.038260   -5.567910    1.755650
  C     -5.805190   -5.187620    0.672950
  C     -6.647890   -6.166610    0.098280
  N     -7.242270   -7.043150   -0.341760
  C     -7.538750   -3.745620   -1.596060
  C     -8.567490   -4.315530   -0.947540
  C     -9.798740   -4.710950   -1.600170
  N    -10.774110   -5.132300   -0.791700
  C    -11.901860   -5.515980   -1.359850
  C    -12.089920   -5.481520   -2.731300
  C    -11.016340   -5.013780   -3.500860
  N     -9.879350   -4.627870   -2.923510
  C    -11.116840   -4.952430   -4.944070
  C    -10.063990   -4.664170   -5.728050
  C    -10.084690   -4.596040   -7.155160
  S     -9.104930   -3.394450   -7.921200
  C     -9.735000   -3.735480   -9.496460
  C    -10.653510   -4.791010   -9.435780
  C    -10.831490   -5.300760   -8.103020
  C    -11.624960   -6.466650   -7.912150
  C    -11.692020   -7.177530   -6.692890
  N    -11.777740   -7.850920   -5.768030
  C    -12.305090   -7.015800   -8.981700
  C    -12.206870   -6.461710  -10.259120
  C    -11.379660   -5.382490  -10.505190
  C    -11.310800   -4.939090  -11.845270
  N    -11.334410   -4.656880  -12.957120
  C     -9.321960   -2.989300  -10.630300
  C     -8.415730   -1.991840  -10.614280
  C     -8.051170   -1.279040  -11.818020
  N     -7.141430   -0.308580  -11.697850
  C     -6.815210    0.338730  -12.802100
  C     -7.373160    0.047210  -14.035770
  C     -8.319550   -0.985750  -14.069160
  N     -8.642830   -1.633600  -12.955180
  C     -9.015750   -1.438160  -15.268520
  C     -8.870960   -0.935330  -16.487850
  H     -0.130870    2.092880    1.549310
  H     -1.390590    4.343850   -1.623640
  H     -3.109090    2.588900   -2.197160
  H     -4.111800    0.405290   -1.608190
  H     -2.808900   -0.884270    0.839040
  H     -3.491370   -5.027480    3.140770
  H     -5.174540   -6.549380    2.184010
  H     -7.657790   -3.503340   -2.643530
  H     -8.551510   -4.486440    0.118300
  H    -12.677720   -5.857880   -0.686370
  H    -13.007410   -5.808710   -3.191390
  H    -12.092610   -5.157000   -5.359210
  H     -9.138090   -4.385180   -5.242180
  H    -12.906960   -7.899020   -8.828750
  H    -12.759020   -6.902650  -11.075370
  H     -9.769090   -3.240940  -11.580820
  H     -7.918630   -1.676170   -9.708150
  H     -6.075810    1.121930  -12.686240
  H     -7.087740    0.591250  -14.919830
  H     -9.697350   -2.256780  -15.082420
  H     -8.202620   -0.119720  -16.708990
  H     -9.425250   -1.328880  -17.322390

 Total Charge           Charge          ....    0
 Multiplicity           Mult            ....    1
 Number of Electrons    NEL             ....  376
 Basis Dimension        Dim             ....  874

ORBITAL ENERGIES
----------------

  NO   OCC          E(Eh)            E(eV)
   0   2.0000     -88.986397     -2421.4430
   1   2.0000     -88.984171     -2421.3824
   2   2.0000     -14.419916      -392.3859
   3   2.0000     -14.417443      -392.3186
   4   2.0000     -14.413874      -392.2214
   5   2.0000     -14.410359      -392.1258
   6   2.0000     -14.410223      -392.1221
   7   2.0000     -14.405192      -391.9852
   8   2.0000     -14.404647      -391.9704
   9   2.0000     -14.404341      -391.9620
  10   2.0000     -14.401115      -391.8743
  11   2.0000     -14.398551      -391.8045
  12   2.0000     -10.341572      -281.4085
  13   2.0000     -10.339065      -281.3403
  14   2.0000     -10.338477      -281.3243
  15   2.0000     -10.338084      -281.3136
  16   2.0000     -10.333666      -281.1933
  17   2.0000     -10.333484      -281.1884
  18   2.0000     -10.329220      -281.0724
  19   2.0000     -10.328286      -281.0470
  20   2.0000     -10.326587      -281.0007
  21   2.0000     -10.325794      -280.9791
  22   2.0000     -10.325719      -280.9771
  23   2.0000     -10.325416      -280.9688
  24   2.0000     -10.323602      -280.9195
  25   2.0000     -10.322523      -280.8901
  26   2.0000     -10.319019      -280.7948
  27   2.0000     -10.318081      -280.7693
  28   2.0000     -10.317727      -280.7596
  29   2.0000     -10.317696      -280.7588
  30   2.0000     -10.317571      -280.7554
  31   2.0000     -10.317409      -280.7510
  32   2.0000     -10.314939      -280.6838
  33   2.0000     -10.314738      -280.6783
  34   2.0000     -10.314363      -280.6681
  35   2.0000     -10.314084      -280.6605
  36   2.0000     -10.312821      -280.6261
  37   2.0000     -10.312511      -280.6177
  38   2.0000     -10.310898      -280.5738
  39   2.0000     -10.310192      -280.5546
  40   2.0000     -10.309475      -280.5351
  41   2.0000     -10.297241      -280.2022
  42   2.0000     -10.291961      -280.0585
  43   2.0000     -10.291140      -280.0362
  44   2.0000     -10.288697      -279.9697
  45   2.0000     -10.287937      -279.9490
  46   2.0000     -10.283730      -279.8345
  47   2.0000     -10.282246      -279.7941
  48   2.0000     -10.281073      -279.7622
  49   2.0000     -10.280964      -279.7593
  50   2.0000     -10.280810      -279.7551
  51   2.0000     -10.277772      -279.6724
  52   2.0000     -10.276349      -279.6337
  53   2.0000     -10.273825      -279.5650
  54   2.0000      -8.081601      -219.9115
  55   2.0000      -8.079366      -219.8507
  56   2.0000      -6.050376      -164.6391
  57   2.0000      -6.048140      -164.5783
  58   2.0000      -6.046302      -164.5283
  59   2.0000      -6.044717      -164.4851
  60   2.0000      -6.044101      -164.4684
  61   2.0000      -6.042480      -164.4243
  62   2.0000      -1.081544       -29.4303
  63   2.0000      -1.079391       -29.3717
  64   2.0000      -1.072838       -29.1934
  65   2.0000      -1.029806       -28.0225
  66   2.0000      -1.026270       -27.9262
  67   2.0000      -1.005571       -27.3630
  68   2.0000      -1.001103       -27.2414
  69   2.0000      -0.999487       -27.1974
  70   2.0000      -0.994998       -27.0753
  71   2.0000      -0.981032       -26.6952
  72   2.0000      -0.977256       -26.5925
  73   2.0000      -0.973740       -26.4968
  74   2.0000      -0.965966       -26.2853
  75   2.0000      -0.961562       -26.1654
  76   2.0000      -0.931959       -25.3599
  77   2.0000      -0.927264       -25.2321
  78   2.0000      -0.912815       -24.8390
  79   2.0000      -0.909566       -24.7505
  80   2.0000      -0.897380       -24.4190
  81   2.0000      -0.889429       -24.2026
  82   2.0000      -0.878212       -23.8974
  83   2.0000      -0.871396       -23.7119
  84   2.0000      -0.863698       -23.5024
  85   2.0000      -0.859167       -23.3791
  86   2.0000      -0.852962       -23.2103
  87   2.0000      -0.846593       -23.0370
  88   2.0000      -0.814426       -22.1617
  89   2.0000      -0.810602       -22.0576
  90   2.0000      -0.786576       -21.4038
  91   2.0000      -0.781822       -21.2745
  92   2.0000      -0.769311       -20.9340
  93   2.0000      -0.763752       -20.7827
  94   2.0000      -0.748910       -20.3789
  95   2.0000      -0.744873       -20.2690
  96   2.0000      -0.741992       -20.1906
  97   2.0000      -0.734838       -19.9959
  98   2.0000      -0.714730       -19.4488
  99   2.0000      -0.711920       -19.3723
 100   2.0000      -0.704179       -19.1617
 101   2.0000      -0.698756       -19.0141
 102   2.0000      -0.687993       -18.7212
 103   2.0000      -0.677855       -18.4454
 104   2.0000      -0.665381       -18.1059
 105   2.0000      -0.659566       -17.9477
 106   2.0000      -0.645558       -17.5665
 107   2.0000      -0.644243       -17.5307
 108   2.0000      -0.639573       -17.4037
 109   2.0000      -0.624713       -16.9993
 110   2.0000      -0.617550       -16.8044
 111   2.0000      -0.609141       -16.5756
 112   2.0000      -0.608207       -16.5501
 113   2.0000      -0.601394       -16.3648
 114   2.0000      -0.599944       -16.3253
 115   2.0000      -0.593254       -16.1433
 116   2.0000      -0.591660       -16.0999
 117   2.0000      -0.589368       -16.0375
 118   2.0000      -0.583333       -15.8733
 119   2.0000      -0.571596       -15.5539
 120   2.0000      -0.560427       -15.2500
 121   2.0000      -0.551838       -15.0163
 122   2.0000      -0.549320       -14.9478
 123   2.0000      -0.542055       -14.7501
 124   2.0000      -0.538242       -14.6463
 125   2.0000      -0.537057       -14.6141
 126   2.0000      -0.534844       -14.5539
 127   2.0000      -0.531444       -14.4613
 128   2.0000      -0.527240       -14.3469
 129   2.0000      -0.525717       -14.3055
 130   2.0000      -0.523510       -14.2454
 131   2.0000      -0.521538       -14.1918
 132   2.0000      -0.517700       -14.0873
 133   2.0000      -0.511640       -13.9224
 134   2.0000      -0.510838       -13.9006
 135   2.0000      -0.506561       -13.7842
 136   2.0000      -0.505267       -13.7490
 137   2.0000      -0.497282       -13.5317
 138   2.0000      -0.494400       -13.4533
 139   2.0000      -0.492717       -13.4075
 140   2.0000      -0.491178       -13.3656
 141   2.0000      -0.480959       -13.0875
 142   2.0000      -0.479644       -13.0518
 143   2.0000      -0.476677       -12.9710
 144   2.0000      -0.476264       -12.9598
 145   2.0000      -0.473344       -12.8803
 146   2.0000      -0.473050       -12.8723
 147   2.0000      -0.468963       -12.7611
 148   2.0000      -0.465315       -12.6619
 149   2.0000      -0.463036       -12.5999
 150   2.0000      -0.459851       -12.5132
 151   2.0000      -0.449474       -12.2308
 152   2.0000      -0.448515       -12.2047
 153   2.0000      -0.445002       -12.1091
 154   2.0000      -0.442344       -12.0368
 155   2.0000      -0.441687       -12.0189
 156   2.0000      -0.440878       -11.9969
 157   2.0000      -0.439369       -11.9558
 158   2.0000      -0.436420       -11.8756
 159   2.0000      -0.436219       -11.8701
 160   2.0000      -0.428033       -11.6474
 161   2.0000      -0.421777       -11.4771
 162   2.0000      -0.417425       -11.3587
 163   2.0000      -0.414391       -11.2761
 164   2.0000      -0.409796       -11.1511
 165   2.0000      -0.409252       -11.1363
 166   2.0000      -0.406938       -11.0733
 167   2.0000      -0.406619       -11.0647
 168   2.0000      -0.400221       -10.8906
 169   2.0000      -0.392864       -10.6904
 170   2.0000      -0.380569       -10.3558
 171   2.0000      -0.376705       -10.2507
 172   2.0000      -0.375973       -10.2308
 173   2.0000      -0.373795       -10.1715
 174   2.0000      -0.361184        -9.8283
 175   2.0000      -0.359157        -9.7732
 176   2.0000      -0.346171        -9.4198
 177   2.0000      -0.342568        -9.3217
 178   2.0000      -0.340619        -9.2687
 179   2.0000      -0.335898        -9.1402
 180   2.0000      -0.331097        -9.0096
 181   2.0000      -0.324715        -8.8359
 182   2.0000      -0.320811        -8.7297
 183   2.0000      -0.320158        -8.7120
 184   2.0000      -0.317873        -8.6498
 185   2.0000      -0.313746        -8.5375
 186   2.0000      -0.257381        -7.0037
 187   2.0000      -0.253995        -6.9115
 188   0.0000      -0.092925        -2.5286
 189   0.0000      -0.089657        -2.4397
 190   0.0000      -0.046412        -1.2629
 191   0.0000      -0.042028        -1.1436
 192   0.0000      -0.029056        -0.7907

MULLIKEN ATOMIC CHARGES
-----------------------
   0 C :    0.073573
   1 N :   -0.110581
   2 C :    0.066617
   3 C :   -0.034207
   4 C :    0.024259
   5 N :   -0.081873
   6 C :   -0.018157
   7 C :    0.028101
   8 C :   -0.135276
   9 S :    0.182040
  10 C :   -0.146366
  11 C :    0.157005
  12 C :    0.164584
  13 C :   -0.090392
  14 C :   -0.180055
  15 N :    0.119323
  16 C :    0.017053
  17 C :    0.013273
  18 C :   -0.081521
  19 C :   -0.206802
  20 N :    0.134412
  21 C :    0.044284
  22 C :    0.063031
  23 C :   -0.075388
  24 N :   -0.072368
  25 C :    0.085356
  26 C :   -0.029051
  27 C :    0.034148
  28 N :   -0.064103
  29 C :    0.013118
  30 C :    0.055463
  31 C :   -0.158757
  32 S :    0.193710
  33 C :   -0.121101
  34 C :    0.154662
  35 C :    0.173144
  36 C :   -0.094076
  37 C :   -0.208290
  38 N :    0.129522
  39 C :    0.013506
  40 C :    0.017174
  41 C :   -0.089677
  42 C :   -0.181240
  43 N :    0.120624
  44 C :    0.016442
  45 C :    0.024031
  46 C :   -0.073945
  47 N :   -0.069270
  48 C :    0.071670
  49 C :   -0.050500
  50 C :    0.032454
  51 N :   -0.056765
  52 C :    0.026362
  53 C :   -0.002437
  54 H :    0.019317
  55 H :    0.007598
  56 H :   -0.009956
  57 H :   -0.019589
  58 H :    0.030819
  59 H :    0.007424
  60 H :    0.007539
  61 H :    0.011828
  62 H :    0.009268
  63 H :    0.008310
  64 H :   -0.001641
  65 H :    0.000454
  66 H :    0.016088
  67 H :    0.008606
  68 H :    0.007901
  69 H :    0.029876
  70 H :   -0.012890
  71 H :    0.005387
  72 H :   -0.010054
  73 H :    0.013790
  74 H :    0.017391
  75 H :    0.035794
Sum of atomic charges:    0.0000000

LOEWDIN ATOMIC CHARGES
----------------------
   0 C :    0.048934
   1 N :   -0.098217
   2 C :    0.047656
   3 C :   -0.065559
   4 C :    0.031870
   5 N :   -0.085259
   6 C :   -0.048525
   7 C :   -0.002296
   8 C :   -0.174939
   9 S :    0.509794
  10 C :   -0.161137
  11 C :   -0.037225
  12 C :   -0.026155
  13 C :   -0.045351
  14 C :   -0.029223
  15 N :   -0.039492
  16 C :    0.015866
  17 C :    0.010837
  18 C :   -0.043038
  19 C :   -0.028773
  20 N :   -0.042608
  21 C :   -0.029158
  22 C :   -0.002740
  23 C :    0.030431
  24 N :   -0.086488
  25 C :    0.054265
  26 C :   -0.053372
  27 C :    0.037708
  28 N :   -0.084740
  29 C :   -0.013976
  30 C :   -0.020026
  31 C :   -0.167967
  32 S :    0.518901
  33 C :   -0.169141
  34 C :   -0.029713
  35 C :   -0.035253
  36 C :   -0.047076
  37 C :   -0.027576
  38 N :   -0.049117
  39 C :    0.012855
  40 C :    0.012772
  41 C :   -0.042844
  42 C :   -0.025425
  43 N :   -0.043932
  44 C :   -0.015706
  45 C :   -0.033734
  46 C :    0.024932
  47 N :   -0.096010
  48 C :    0.046408
  49 C :   -0.062459
  50 C :    0.038219
  51 N :   -0.081227
  52 C :   -0.026169
  53 C :   -0.016813
  54 H :    0.020496
  55 H :    0.025440
  56 H :    0.031523
  57 H :    0.018480
  58 H :    0.046389
  59 H :    0.046093
  60 H :    0.045966
  61 H :    0.033649
  62 H :    0.036546
  63 H :    0.027761
  64 H :    0.035909
  65 H :    0.030805
  66 H :    0.035883
  67 H :    0.046139
  68 H :    0.046123
  69 H :    0.043495
  70 H :    0.024756
  71 H :    0.025609
  72 H :    0.031249
  73 H :    0.041394
  74 H :    0.021548
  75 H :    0.031756

  Mayer bond orders larger than 0.100000
B(  0-C ,  1-N ) :   1.4945 B(  0-C ,  5-N ) :   1.5311 B(  0-C , 54-H ) :   0.9751
B(  1-N ,  2-C ) :   1.5442 B(  2-C ,  3-C ) :   1.3863 B(  2-C , 55-H ) :   0.9814
B(  3-C ,  4-C ) :   1.3321 B(  3-C , 56-H ) :   0.9764 B(  4-C ,  5-N ) :   1.5173
B(  4-C ,  6-C ) :   1.0930 B(  6-C ,  7-C ) :   1.6812 B(  6-C , 57-H ) :   0.9753
B(  7-C ,  8-C ) :   1.1316 B(  7-C , 58-H ) :   0.9529 B(  8-C ,  9-S ) :   1.1409
B(  8-C , 10-C ) :   0.1065 B(  8-C , 12-C ) :   1.3566 B(  9-S , 10-C ) :   1.1768
B( 10-C , 11-C ) :   1.3827 B( 10-C , 21-C ) :   1.0537 B( 11-C , 12-C ) :   1.1800
B( 11-C , 18-C ) :   1.2007 B( 12-C , 13-C ) :   1.2005 B( 13-C , 14-C ) :   1.0862
B( 13-C , 16-C ) :   1.5437 B( 14-C , 15-N ) :   2.9759 B( 16-C , 17-C ) :   1.1933
B( 16-C , 59-H ) :   0.9939 B( 17-C , 18-C ) :   1.5412 B( 17-C , 60-H ) :   0.9949
B( 18-C , 19-C ) :   1.0838 B( 19-C , 20-N ) :   3.0269 B( 21-C , 22-C ) :   1.7260
B( 21-C , 61-H ) :   0.9476 B( 22-C , 23-C ) :   1.0577 B( 22-C , 62-H ) :   0.9600
B( 23-C , 24-N ) :   1.5211 B( 23-C , 28-N ) :   1.5507 B( 24-N , 25-C ) :   1.5428
B( 25-C , 26-C ) :   1.3739 B( 25-C , 63-H ) :   0.9789 B( 26-C , 27-C ) :   1.3367
B( 26-C , 64-H ) :   0.9737 B( 27-C , 28-N ) :   1.5179 B( 27-C , 29-C ) :   1.0919
B( 29-C , 30-C ) :   1.7447 B( 29-C , 65-H ) :   0.9612 B( 30-C , 31-C ) :   1.0609
B( 30-C , 66-H ) :   0.9430 B( 31-C , 32-S ) :   1.1725 B( 31-C , 33-C ) :   0.1076
B( 31-C , 35-C ) :   1.3763 B( 32-S , 33-C ) :   1.1534 B( 33-C , 34-C ) :   1.3577
B( 33-C , 44-C ) :   1.1257 B( 34-C , 35-C ) :   1.1752 B( 34-C , 41-C ) :   1.2027
B( 35-C , 36-C ) :   1.1973 B( 36-C , 37-C ) :   1.0895 B( 36-C , 39-C ) :   1.5386
B( 37-C , 38-N ) :   3.0236 B( 39-C , 40-C ) :   1.1959 B( 39-C , 67-H ) :   0.9948
B( 40-C , 41-C ) :   1.5394 B( 40-C , 68-H ) :   0.9940 B( 41-C , 42-C ) :   1.0852
B( 42-C , 43-N ) :   2.9863 B( 44-C , 45-C ) :   1.6730 B( 44-C , 69-H ) :   0.9488
B( 45-C , 46-C ) :   1.0430 B( 45-C , 70-H ) :   0.9754 B( 46-C , 47-N ) :   1.5330
B( 46-C , 51-N ) :   1.5301 B( 47-N , 48-C ) :   1.5331 B( 48-C , 49-C ) :   1.4029
B( 48-C , 71-H ) :   0.9788 B( 49-C , 50-C ) :   1.3353 B( 49-C , 72-H ) :   0.9688
B( 50-C , 51-N ) :   1.5178 B( 50-C , 52-C ) :   1.0637 B( 52-C , 53-C ) :   1.9385
B( 52-C , 73-H ) :   0.9637 B( 53-C , 74-H ) :   0.9495 B( 53-C , 75-H ) :   0.9513

-----------------------------------------------------------------------------
         ABSORPTION SPECTRUM VIA TRANSITION ELECTRIC DIPOLE MOMENTS
-----------------------------------------------------------------------------
State   Energy  Wavelength   fosc         T2         TX        TY        TZ
        (cm-1)    (nm)                  (au**2)     (au)      (au)      (au)
-----------------------------------------------------------------------------
   0   18644.2    536.4   0.436529699   7.70807  -0.68543  -0.09047  -2.68888
   1   19535.3    511.9   0.612007573  10.31364  -2.19682  -2.21196   0.77126
   2   23944.8    417.6   0.002321945   0.03192  -0.09257  -0.01258   0.15230
   3   25187.3    397.0   0.001508864   0.01972   0.10117  -0.06660  -0.07107
   4   27376.5    365.3   0.417457260   5.02007   0.52149   0.21386   2.16850
   5   28369.6    352.5   0.984765495  11.42759  -2.07486  -2.26464   1.41207
   6   30461.4    328.3   0.000164661   0.00178  -0.01277  -0.01052   0.03881
   7   30970.4    322.9   0.002569924   0.02732  -0.06374   0.09380   0.12023
   8   31149.8    321.0   0.023701435   0.25049   0.23079   0.30896  -0.31901
   9   31444.7    318.0   0.008455024   0.08852  -0.15744   0.18646  -0.17019
  10   32036.6    312.1   0.006897480   0.07088  -0.23824   0.00067   0.11884
  11   32326.1    309.3   0.011661317   0.11876  -0.20260   0.17401  -0.21779
  12   32896.8    304.0   0.102881534   1.02958  -0.73600  -0.35664  -0.60058
  13   33180.8    301.4   0.071788900   0.71227   0.68811   0.28740   0.39519
  14   33913.8    294.9   0.209775339   2.03635   0.33142  -1.36137   0.27054
  15   34473.0    290.1   0.017513310   0.16725   0.01349   0.35399   0.20435
  16   35120.9    284.7   0.018134344   0.16999   0.17664   0.21524   0.30406
  17   35403.5    282.5   0.044654101   0.41523   0.58535   0.26909  -0.01368
  18   35489.2    281.8   0.084637553   0.78513  -0.05612   0.62446  -0.62612
  19   36375.0    274.9   0.009698237   0.08777   0.19762  -0.21607  -0.04512
  20   36528.1    273.8   0.415679543   3.74633  -1.17644  -1.42856  -0.56704
  21   37076.3    269.7   0.010536161   0.09355  -0.14808  -0.25406  -0.08414
  22   37701.6    265.2   0.478656636   4.17965  -0.38534   1.56421  -1.25874
  23   37836.6    264.3   0.002551176   0.02220  -0.11590  -0.08782   0.03243
  24   38483.6    259.9   0.014315866   0.12247  -0.21523   0.18897  -0.20108
  25   38855.5    257.4   0.002988833   0.02532   0.13079  -0.00403  -0.09056
  26   39443.5    253.5   0.007157398   0.05974   0.09630   0.11570   0.19256
  27   39650.2    252.2   0.011556896   0.09596  -0.05246   0.30278   0.03909
  28   39699.0    251.9   0.000185501   0.00154   0.03414   0.00760  -0.01775

FINAL SINGLE POINT ENERGY     -2954.495801762436

DIPOLE MOMENT
-------------
                                X             Y             Z
Electronic contribution:     -0.57939     -12.19852      20.39591
Nuclear contribution   :     -0.98358      12.73845     -22.41812
                        -----------------------------------------
Total Dipole Moment    :     -1.56297       0.53993      -2.02221
                        -----------------------------------------
Magnitude (a.u.)       :      2.61223
Magnitude (Debye)      :      6.63975

Rotational constants in cm-1:     0.001683     0.000636     0.000477
Rotational constants in MHz :    50.451825    19.071455    14.309369

                             ****ORCA TERMINATED NORMALLY****
TOTAL RUN TIME: 0 days 0 hours 4 minutes 46 seconds 685 msec
