                         Program Version 4.2.0 -  RELEASE  -
|  1> # ORCA input file
|  2> # SCF done       -179.225549302521          0.000580417573
|  3> ! CAM-B3LYP def2-SVP def2/J RIJCOSX Grid4 TightSCF
|  4> %maxcore 5000
|  5> %tddft
|  6>     Mode sTDDFT
|  7>     Ethresh 5.0
|  8>     maxcore 5000
|  9> end
| 10>
| 11> %pal
| 12>   nprocs 6
| 13>   end
| 14> * xyz 0 1
| 15>    C       -0.00935       -11.16712        -6.23036
| 16>    N        0.31724       -12.22883        -6.94869
| 17>    C       -0.61828       -12.68376        -7.77258
| 18>    C       -1.86341       -12.09441        -7.88458
| 19>    C       -2.10843       -10.97298        -7.07684
| 20>    N       -1.15422       -10.52353        -6.24826
| 21>    C       -3.34445       -10.23232        -7.05403
| 22>    C       -4.43057       -10.50730        -7.80987
| 23>    C       -5.64175        -9.77575        -7.77252
| 24>    S       -5.83104        -8.41276        -6.71154
| 25>    C       -7.46213        -8.11767        -7.22528
| 26>    C       -7.85135        -9.05368        -8.20621
| 27>    C       -6.81341        -9.99504        -8.51114
| 28>    C       -7.06404       -11.00546        -9.47835
| 29>    C       -6.11959       -11.98526        -9.84983
| 30>    N       -5.41778       -12.81932       -10.21140
| 31>    C       -8.29431       -11.06499       -10.11129
| 32>    C       -9.29721       -10.14747        -9.81702
| 33>    C       -9.09365        -9.14720        -8.87726
| 34>    C      -10.18112        -8.27192        -8.66355
| 35>    N      -11.12268        -7.62079        -8.57102
| 36>    C       -8.22919        -7.08104        -6.67785
| 37>    C       -7.79373        -6.20416        -5.72144
| 38>    C       -8.60816        -5.20268        -5.17777
| 39>    S      -10.26403        -5.04746        -5.69530
| 40>    C      -10.58727        -3.72112        -4.61698
| 41>    C       -9.42842        -3.39888        -3.87868
| 42>    C       -8.31117        -4.23524        -4.19764
| 43>    C       -7.07731        -4.02202        -3.53452
| 44>    C       -5.91965        -4.78839        -3.78816
| 45>    N       -4.93946        -5.36559        -3.94127
| 46>    C       -6.96679        -3.01491        -2.58810
| 47>    C       -8.05237        -2.20429        -2.27767
| 48>    C       -9.27568        -2.38104        -2.90788
| 49>    C      -10.31387        -1.50296        -2.52688
| 50>    N      -11.09356        -0.74668        -2.15610
| 51>    C      -11.86311        -3.14479        -4.56776
| 52>    C      -12.88887        -3.56675        -5.37100
| 53>    C      -14.19352        -3.03598        -5.33367
| 54>    C      -15.22405        -3.45623        -6.16686
| 55>    O      -16.49394        -2.93408        -6.07711
| 56>    C      -16.67973        -1.96865        -5.13486
| 57>    C      -15.61948        -1.52711        -4.29229
| 58>    C      -16.00326        -0.55795        -3.42523
| 59>    S      -17.67124        -0.16989        -3.62529
| 60>    C      -17.84957        -1.32626        -4.89041
| 61>    O      -14.36953        -2.05361        -4.37919
| 62>    C      -15.07005        -4.43760        -7.18191
| 63>    C      -16.08122        -4.84505        -7.99304
| 64>    C      -15.97868        -5.80582        -9.04921
| 65>    C      -17.11252        -6.08259        -9.79233
| 66>    C      -17.07391        -7.00084       -10.85821
| 67>    C      -18.04719        -7.43986       -11.75229
| 68>    C      -19.49205        -7.07759       -11.87559
| 69>    C      -20.35197        -7.76471       -10.79309
| 70>    N      -19.99318        -7.32419        -9.45749
| 71>    C      -19.73581        -5.56095       -11.88811
| 72>    N      -18.98215        -4.95769       -12.97603
| 73>    C      -17.39997        -8.38429       -12.63426
| 74>    C      -17.87375        -9.09619       -13.67461
| 75>    C      -16.99121        -9.97932       -14.48437
| 76>    C      -15.59091       -10.09853       -13.97312
| 77>    C      -15.13249        -9.38773       -12.92768
| 78>    C      -15.99379        -8.50459       -12.23059
| 79>    C      -15.80555        -7.66204       -11.15738
| 80>    C      -14.66322        -7.37221       -10.37331
| 81>    C      -14.74686        -6.47753        -9.36018
| 82>    C      -16.95110        -9.41370       -15.89151
| 83>    C      -17.40327       -10.04146       -16.95908
| 84>    H        0.74864       -10.78775        -5.55578
| 85>    H       -0.34873       -13.55347        -8.35874
| 86>    H       -2.60334       -12.48675        -8.56230
| 87>    H       -3.35644        -9.40091        -6.36163
| 88>    H       -4.40712       -11.33744        -8.49893
| 89>    H       -8.47348       -11.83724       -10.84445
| 90>    H      -10.24826       -10.21178       -10.32378
| 91>    H       -9.24205        -6.98213        -7.04125
| 92>    H       -6.78033        -6.28469        -5.35679
| 93>    H       -6.02169        -2.86120        -2.08938
| 94>    H       -7.94689        -1.42429        -1.53887
| 95>    H      -12.03754        -2.34318        -3.86792
| 96>    H      -12.68992        -4.36159        -6.07086
| 97>    H      -15.40675        -0.05801        -2.69146
| 98>    H      -18.79301        -1.46527        -5.37509
| 99>    H      -14.08805        -4.85852        -7.30324
|100>    H      -17.05931        -4.40568        -7.84718
|101>    H      -18.04025        -5.59403        -9.53755
|102>    H      -19.84204        -7.45519       -12.84141
|103>    H      -20.25933        -8.85666       -10.92751
|104>    H      -21.39718        -7.49176       -10.96370
|105>    H      -19.08019        -7.68823        -9.20540
|106>    H      -20.66279        -7.67342        -8.78135
|107>    H      -19.50591        -5.14248       -10.90005
|108>    H      -20.79724        -5.38272       -12.08472
|109>    H      -17.98817        -5.10206       -12.82656
|110>    H      -19.14982        -3.95812       -13.00769
|111>    H      -18.90260        -9.02601       -14.00065
|112>    H      -17.44485       -10.97808       -14.54409
|113>    H      -14.94885       -10.77344       -14.51892
|114>    H      -14.10806        -9.48625       -12.59833
|115>    H      -13.72900        -7.86898       -10.58943
|116>    H      -13.86873        -6.27029        -8.77118
|117>    H      -16.50813        -8.43018       -15.96215
|118>    H      -17.84783       -11.02211       -16.90405
|119>    H      -17.34476        -9.59985       -17.93931
|120> *
|121>
|122>                          ****END OF INPUT****

CARTESIAN COORDINATES (ANGSTROEM)
---------------------------------
  C     -0.009350  -11.167120   -6.230360
  N      0.317240  -12.228830   -6.948690
  C     -0.618280  -12.683760   -7.772580
  C     -1.863410  -12.094410   -7.884580
  C     -2.108430  -10.972980   -7.076840
  N     -1.154220  -10.523530   -6.248260
  C     -3.344450  -10.232320   -7.054030
  C     -4.430570  -10.507300   -7.809870
  C     -5.641750   -9.775750   -7.772520
  S     -5.831040   -8.412760   -6.711540
  C     -7.462130   -8.117670   -7.225280
  C     -7.851350   -9.053680   -8.206210
  C     -6.813410   -9.995040   -8.511140
  C     -7.064040  -11.005460   -9.478350
  C     -6.119590  -11.985260   -9.849830
  N     -5.417780  -12.819320  -10.211400
  C     -8.294310  -11.064990  -10.111290
  C     -9.297210  -10.147470   -9.817020
  C     -9.093650   -9.147200   -8.877260
  C    -10.181120   -8.271920   -8.663550
  N    -11.122680   -7.620790   -8.571020
  C     -8.229190   -7.081040   -6.677850
  C     -7.793730   -6.204160   -5.721440
  C     -8.608160   -5.202680   -5.177770
  S    -10.264030   -5.047460   -5.695300
  C    -10.587270   -3.721120   -4.616980
  C     -9.428420   -3.398880   -3.878680
  C     -8.311170   -4.235240   -4.197640
  C     -7.077310   -4.022020   -3.534520
  C     -5.919650   -4.788390   -3.788160
  N     -4.939460   -5.365590   -3.941270
  C     -6.966790   -3.014910   -2.588100
  C     -8.052370   -2.204290   -2.277670
  C     -9.275680   -2.381040   -2.907880
  C    -10.313870   -1.502960   -2.526880
  N    -11.093560   -0.746680   -2.156100
  C    -11.863110   -3.144790   -4.567760
  C    -12.888870   -3.566750   -5.371000
  C    -14.193520   -3.035980   -5.333670
  C    -15.224050   -3.456230   -6.166860
  O    -16.493940   -2.934080   -6.077110
  C    -16.679730   -1.968650   -5.134860
  C    -15.619480   -1.527110   -4.292290
  C    -16.003260   -0.557950   -3.425230
  S    -17.671240   -0.169890   -3.625290
  C    -17.849570   -1.326260   -4.890410
  O    -14.369530   -2.053610   -4.379190
  C    -15.070050   -4.437600   -7.181910
  C    -16.081220   -4.845050   -7.993040
  C    -15.978680   -5.805820   -9.049210
  C    -17.112520   -6.082590   -9.792330
  C    -17.073910   -7.000840  -10.858210
  C    -18.047190   -7.439860  -11.752290
  C    -19.492050   -7.077590  -11.875590
  C    -20.351970   -7.764710  -10.793090
  N    -19.993180   -7.324190   -9.457490
  C    -19.735810   -5.560950  -11.888110
  N    -18.982150   -4.957690  -12.976030
  C    -17.399970   -8.384290  -12.634260
  C    -17.873750   -9.096190  -13.674610
  C    -16.991210   -9.979320  -14.484370
  C    -15.590910  -10.098530  -13.973120
  C    -15.132490   -9.387730  -12.927680
  C    -15.993790   -8.504590  -12.230590
  C    -15.805550   -7.662040  -11.157380
  C    -14.663220   -7.372210  -10.373310
  C    -14.746860   -6.477530   -9.360180
  C    -16.951100   -9.413700  -15.891510
  C    -17.403270  -10.041460  -16.959080
  H      0.748640  -10.787750   -5.555780
  H     -0.348730  -13.553470   -8.358740
  H     -2.603340  -12.486750   -8.562300
  H     -3.356440   -9.400910   -6.361630
  H     -4.407120  -11.337440   -8.498930
  H     -8.473480  -11.837240  -10.844450
  H    -10.248260  -10.211780  -10.323780
  H     -9.242050   -6.982130   -7.041250
  H     -6.780330   -6.284690   -5.356790
  H     -6.021690   -2.861200   -2.089380
  H     -7.946890   -1.424290   -1.538870
  H    -12.037540   -2.343180   -3.867920
  H    -12.689920   -4.361590   -6.070860
  H    -15.406750   -0.058010   -2.691460
  H    -18.793010   -1.465270   -5.375090
  H    -14.088050   -4.858520   -7.303240
  H    -17.059310   -4.405680   -7.847180
  H    -18.040250   -5.594030   -9.537550
  H    -19.842040   -7.455190  -12.841410
  H    -20.259330   -8.856660  -10.927510
  H    -21.397180   -7.491760  -10.963700
  H    -19.080190   -7.688230   -9.205400
  H    -20.662790   -7.673420   -8.781350
  H    -19.505910   -5.142480  -10.900050
  H    -20.797240   -5.382720  -12.084720
  H    -17.988170   -5.102060  -12.826560
  H    -19.149820   -3.958120  -13.007690
  H    -18.902600   -9.026010  -14.000650
  H    -17.444850  -10.978080  -14.544090
  H    -14.948850  -10.773440  -14.518920
  H    -14.108060   -9.486250  -12.598330
  H    -13.729000   -7.868980  -10.589430
  H    -13.868730   -6.270290   -8.771180
  H    -16.508130   -8.430180  -15.962150
  H    -17.847830  -11.022110  -16.904050
  H    -17.344760   -9.599850  -17.939310

 Total Charge           Charge          ....    0
 Multiplicity           Mult            ....    1
 Number of Electrons    NEL             ....  492
 Basis Dimension        Dim             .... 1158

ORBITAL ENERGIES
----------------

  NO   OCC          E(Eh)            E(eV)
   0   2.0000     -88.980425     -2421.2805
   1   2.0000     -88.977390     -2421.1979
   2   2.0000     -88.956111     -2420.6188
   3   2.0000     -19.280141      -524.6393
   4   2.0000     -19.272588      -524.4338
   5   2.0000     -14.430518      -392.6743
   6   2.0000     -14.424301      -392.5052
   7   2.0000     -14.420049      -392.3895
   8   2.0000     -14.419294      -392.3689
   9   2.0000     -14.395762      -391.7286
  10   2.0000     -14.394106      -391.6835
  11   2.0000     -14.377548      -391.2330
  12   2.0000     -14.364307      -390.8727
  13   2.0000     -10.356376      -281.8113
  14   2.0000     -10.347090      -281.5586
  15   2.0000     -10.341292      -281.4009
  16   2.0000     -10.340187      -281.3708
  17   2.0000     -10.338707      -281.3305
  18   2.0000     -10.338650      -281.3290
  19   2.0000     -10.336722      -281.2765
  20   2.0000     -10.334649      -281.2201
  21   2.0000     -10.330335      -281.1027
  22   2.0000     -10.328609      -281.0558
  23   2.0000     -10.328056      -281.0407
  24   2.0000     -10.324109      -280.9333
  25   2.0000     -10.321110      -280.8517
  26   2.0000     -10.319946      -280.8200
  27   2.0000     -10.319893      -280.8186
  28   2.0000     -10.319581      -280.8101
  29   2.0000     -10.319168      -280.7988
  30   2.0000     -10.318476      -280.7800
  31   2.0000     -10.317323      -280.7486
  32   2.0000     -10.316587      -280.7286
  33   2.0000     -10.316495      -280.7261
  34   2.0000     -10.316189      -280.7178
  35   2.0000     -10.315123      -280.6888
  36   2.0000     -10.313952      -280.6569
  37   2.0000     -10.312947      -280.6295
  38   2.0000     -10.310165      -280.5538
  39   2.0000     -10.307913      -280.4926
  40   2.0000     -10.298876      -280.2467
  41   2.0000     -10.298351      -280.2324
  42   2.0000     -10.294419      -280.1254
  43   2.0000     -10.293737      -280.1068
  44   2.0000     -10.292780      -280.0808
  45   2.0000     -10.292412      -280.0708
  46   2.0000     -10.290965      -280.0314
  47   2.0000     -10.290903      -280.0297
  48   2.0000     -10.285520      -279.8832
  49   2.0000     -10.281093      -279.7628
  50   2.0000     -10.281026      -279.7609
  51   2.0000     -10.279145      -279.7098
  52   2.0000     -10.278368      -279.6886
  53   2.0000     -10.277942      -279.6770
  54   2.0000     -10.275482      -279.6101
  55   2.0000     -10.274651      -279.5875
  56   2.0000     -10.271531      -279.5026
  57   2.0000     -10.270562      -279.4762
  58   2.0000     -10.269460      -279.4462
  59   2.0000     -10.269056      -279.4352
  60   2.0000     -10.266305      -279.3604
  61   2.0000     -10.265527      -279.3392
  62   2.0000     -10.264565      -279.3130
  63   2.0000     -10.264422      -279.3091
  64   2.0000     -10.260769      -279.2097
  65   2.0000     -10.260709      -279.2081
  66   2.0000     -10.260332      -279.1978
  67   2.0000     -10.260071      -279.1907
  68   2.0000     -10.259451      -279.1739
  69   2.0000      -8.075011      -219.7322
  70   2.0000      -8.071901      -219.6476
  71   2.0000      -8.051844      -219.1018
  72   2.0000      -6.043892      -164.4627
  73   2.0000      -6.040869      -164.3804
  74   2.0000      -6.039916      -164.3545
  75   2.0000      -6.037885      -164.2992
  76   2.0000      -6.036952      -164.2738
  77   2.0000      -6.034588      -164.2095
  78   2.0000      -6.021334      -163.8488
  79   2.0000      -6.017179      -163.7358
  80   2.0000      -6.013561      -163.6373
  81   2.0000      -1.203611       -32.7519
  82   2.0000      -1.166364       -31.7384
  83   2.0000      -1.067266       -29.0418
  84   2.0000      -1.030634       -28.0450
  85   2.0000      -1.026564       -27.9342
  86   2.0000      -1.013808       -27.5871
  87   2.0000      -1.006160       -27.3790
  88   2.0000      -1.005289       -27.3553
  89   2.0000      -1.000011       -27.2117
  90   2.0000      -0.985756       -26.8238
  91   2.0000      -0.981965       -26.7206
  92   2.0000      -0.969134       -26.3715
  93   2.0000      -0.966347       -26.2956
  94   2.0000      -0.963109       -26.2075
  95   2.0000      -0.960945       -26.1486
  96   2.0000      -0.942984       -25.6599
  97   2.0000      -0.942408       -25.6442
  98   2.0000      -0.936554       -25.4849
  99   2.0000      -0.926958       -25.2238
 100   2.0000      -0.919841       -25.0302
 101   2.0000      -0.909067       -24.7370
 102   2.0000      -0.901160       -24.5218
 103   2.0000      -0.895231       -24.3605
 104   2.0000      -0.887492       -24.1499
 105   2.0000      -0.870469       -23.6867
 106   2.0000      -0.866389       -23.5756
 107   2.0000      -0.862519       -23.4703
 108   2.0000      -0.860002       -23.4019
 109   2.0000      -0.851201       -23.1624
 110   2.0000      -0.842287       -22.9198
 111   2.0000      -0.833318       -22.6757
 112   2.0000      -0.828474       -22.5439
 113   2.0000      -0.823547       -22.4099
 114   2.0000      -0.822080       -22.3699
 115   2.0000      -0.812720       -22.1152
 116   2.0000      -0.797215       -21.6933
 117   2.0000      -0.789410       -21.4809
 118   2.0000      -0.784167       -21.3383
 119   2.0000      -0.782070       -21.2812
 120   2.0000      -0.763761       -20.7830
 121   2.0000      -0.756245       -20.5785
 122   2.0000      -0.748652       -20.3718
 123   2.0000      -0.736497       -20.0411
 124   2.0000      -0.728764       -19.8307
 125   2.0000      -0.723896       -19.6982
 126   2.0000      -0.713473       -19.4146
 127   2.0000      -0.710009       -19.3203
 128   2.0000      -0.704972       -19.1833
 129   2.0000      -0.697991       -18.9933
 130   2.0000      -0.692566       -18.8457
 131   2.0000      -0.685050       -18.6411
 132   2.0000      -0.683010       -18.5857
 133   2.0000      -0.676452       -18.4072
 134   2.0000      -0.675507       -18.3815
 135   2.0000      -0.666583       -18.1387
 136   2.0000      -0.663750       -18.0616
 137   2.0000      -0.655995       -17.8505
 138   2.0000      -0.650502       -17.7011
 139   2.0000      -0.646502       -17.5922
 140   2.0000      -0.645291       -17.5593
 141   2.0000      -0.641714       -17.4619
 142   2.0000      -0.617602       -16.8058
 143   2.0000      -0.614898       -16.7322
 144   2.0000      -0.609308       -16.5801
 145   2.0000      -0.605412       -16.4741
 146   2.0000      -0.598949       -16.2982
 147   2.0000      -0.596864       -16.2415
 148   2.0000      -0.594768       -16.1845
 149   2.0000      -0.591623       -16.0989
 150   2.0000      -0.585347       -15.9281
 151   2.0000      -0.582799       -15.8588
 152   2.0000      -0.581204       -15.8154
 153   2.0000      -0.570364       -15.5204
 154   2.0000      -0.568926       -15.4813
 155   2.0000      -0.567483       -15.4420
 156   2.0000      -0.560196       -15.2437
 157   2.0000      -0.557819       -15.1790
 158   2.0000      -0.554220       -15.0811
 159   2.0000      -0.550524       -14.9805
 160   2.0000      -0.545611       -14.8468
 161   2.0000      -0.540603       -14.7106
 162   2.0000      -0.537763       -14.6333
 163   2.0000      -0.533558       -14.5189
 164   2.0000      -0.532959       -14.5026
 165   2.0000      -0.530047       -14.4233
 166   2.0000      -0.529167       -14.3994
 167   2.0000      -0.527624       -14.3574
 168   2.0000      -0.524291       -14.2667
 169   2.0000      -0.522391       -14.2150
 170   2.0000      -0.520558       -14.1651
 171   2.0000      -0.517207       -14.0739
 172   2.0000      -0.514634       -14.0039
 173   2.0000      -0.511809       -13.9270
 174   2.0000      -0.508263       -13.8305
 175   2.0000      -0.506489       -13.7823
 176   2.0000      -0.502677       -13.6785
 177   2.0000      -0.502332       -13.6692
 178   2.0000      -0.501836       -13.6557
 179   2.0000      -0.499272       -13.5859
 180   2.0000      -0.495901       -13.4942
 181   2.0000      -0.493057       -13.4168
 182   2.0000      -0.490622       -13.3505
 183   2.0000      -0.484081       -13.1725
 184   2.0000      -0.482454       -13.1283
 185   2.0000      -0.482117       -13.1191
 186   2.0000      -0.479582       -13.0501
 187   2.0000      -0.478709       -13.0263
 188   2.0000      -0.478591       -13.0231
 189   2.0000      -0.477319       -12.9885
 190   2.0000      -0.476037       -12.9536
 191   2.0000      -0.474197       -12.9036
 192   2.0000      -0.472943       -12.8694
 193   2.0000      -0.471881       -12.8405
 194   2.0000      -0.471584       -12.8325
 195   2.0000      -0.464829       -12.6486
 196   2.0000      -0.462170       -12.5763
 197   2.0000      -0.459917       -12.5150
 198   2.0000      -0.452776       -12.3207
 199   2.0000      -0.451602       -12.2887
 200   2.0000      -0.449230       -12.2242
 201   2.0000      -0.445867       -12.1327
 202   2.0000      -0.443434       -12.0665
 203   2.0000      -0.442036       -12.0284
 204   2.0000      -0.441522       -12.0144
 205   2.0000      -0.436770       -11.8851
 206   2.0000      -0.434406       -11.8208
 207   2.0000      -0.433905       -11.8071
 208   2.0000      -0.431235       -11.7345
 209   2.0000      -0.430292       -11.7088
 210   2.0000      -0.428681       -11.6650
 211   2.0000      -0.424182       -11.5426
 212   2.0000      -0.424011       -11.5379
 213   2.0000      -0.423552       -11.5254
 214   2.0000      -0.417450       -11.3594
 215   2.0000      -0.416799       -11.3417
 216   2.0000      -0.414023       -11.2661
 217   2.0000      -0.412497       -11.2246
 218   2.0000      -0.409874       -11.1532
 219   2.0000      -0.408789       -11.1237
 220   2.0000      -0.407852       -11.0982
 221   2.0000      -0.404226       -10.9996
 222   2.0000      -0.390710       -10.6318
 223   2.0000      -0.386437       -10.5155
 224   2.0000      -0.385947       -10.5022
 225   2.0000      -0.381501       -10.3812
 226   2.0000      -0.368095       -10.0164
 227   2.0000      -0.362129        -9.8540
 228   2.0000      -0.356797        -9.7089
 229   2.0000      -0.356467        -9.7000
 230   2.0000      -0.349142        -9.5006
 231   2.0000      -0.344838        -9.3835
 232   2.0000      -0.344084        -9.3630
 233   2.0000      -0.341517        -9.2931
 234   2.0000      -0.331906        -9.0316
 235   2.0000      -0.327395        -8.9089
 236   2.0000      -0.318909        -8.6780
 237   2.0000      -0.313238        -8.5236
 238   2.0000      -0.308071        -8.3830
 239   2.0000      -0.305677        -8.3179
 240   2.0000      -0.288625        -7.8539
 241   2.0000      -0.285200        -7.7607
 242   2.0000      -0.282980        -7.7003
 243   2.0000      -0.254837        -6.9345
 244   2.0000      -0.227532        -6.1915
 245   2.0000      -0.211575        -5.7572
 246   0.0000      -0.109017        -2.9665
 247   0.0000      -0.081796        -2.2258
 248   0.0000      -0.067784        -1.8445
 249   0.0000      -0.048096        -1.3088
 250   0.0000      -0.036885        -1.0037

MULLIKEN ATOMIC CHARGES
-----------------------
   0 C :    0.069482
   1 N :   -0.107742
   2 C :    0.062182
   3 C :   -0.046314
   4 C :    0.013240
   5 N :   -0.094247
   6 C :    0.027177
   7 C :    0.014952
   8 C :   -0.124957
   9 S :    0.171966
  10 C :   -0.104093
  11 C :    0.166690
  12 C :    0.164083
  13 C :   -0.096457
  14 C :   -0.175060
  15 N :    0.107027
  16 C :    0.020053
  17 C :    0.014314
  18 C :   -0.094352
  19 C :   -0.162560
  20 N :    0.102012
  21 C :   -0.049123
  22 C :   -0.006391
  23 C :   -0.124285
  24 S :    0.110736
  25 C :   -0.086072
  26 C :    0.158882
  27 C :    0.181813
  28 C :   -0.105692
  29 C :   -0.170850
  30 N :    0.106872
  31 C :    0.025293
  32 C :    0.010917
  33 C :   -0.091738
  34 C :   -0.173266
  35 N :    0.110842
  36 C :   -0.015671
  37 C :   -0.066929
  38 C :    0.170857
  39 C :    0.202248
  40 O :   -0.246352
  41 C :    0.211754
  42 C :    0.225188
  43 C :   -0.170475
  44 S :    0.111302
  45 C :   -0.172712
  46 O :   -0.252233
  47 C :   -0.061111
  48 C :    0.010049
  49 C :    0.139012
  50 C :   -0.128013
  51 C :    0.036404
  52 C :   -0.089624
  53 C :    0.004816
  54 C :    0.145759
  55 N :   -0.232107
  56 C :    0.130746
  57 N :   -0.224906
  58 C :    0.113220
  59 C :   -0.127515
  60 C :    0.112534
  61 C :   -0.040228
  62 C :    0.025102
  63 C :    0.007640
  64 C :    0.040057
  65 C :   -0.005150
  66 C :   -0.010806
  67 C :   -0.036906
  68 C :   -0.017075
  69 H :    0.012518
  70 H :    0.008212
  71 H :    0.007503
  72 H :    0.000076
  73 H :   -0.001789
  74 H :    0.007633
  75 H :    0.002546
  76 H :    0.010983
  77 H :    0.012282
  78 H :    0.005955
  79 H :    0.006390
  80 H :    0.019405
  81 H :    0.010353
  82 H :    0.034749
  83 H :    0.024744
  84 H :   -0.011250
  85 H :   -0.005948
  86 H :   -0.023398
  87 H :   -0.024829
  88 H :   -0.018163
  89 H :   -0.008535
  90 H :    0.103517
  91 H :    0.094647
  92 H :   -0.002020
  93 H :   -0.016769
  94 H :    0.097183
  95 H :    0.087692
  96 H :   -0.001400
  97 H :    0.020092
  98 H :   -0.011226
  99 H :   -0.041736
 100 H :   -0.042325
 101 H :   -0.029461
 102 H :    0.015825
 103 H :    0.014691
 104 H :    0.027645
Sum of atomic charges:   -0.0000000

LOEWDIN ATOMIC CHARGES
----------------------
   0 C :    0.041798
   1 N :   -0.097476
   2 C :    0.045381
   3 C :   -0.056824
   4 C :    0.029538
   5 N :   -0.092695
   6 C :   -0.029427
   7 C :   -0.027724
   8 C :   -0.174135
   9 S :    0.513620
  10 C :   -0.153655
  11 C :   -0.036588
  12 C :   -0.027296
  13 C :   -0.047476
  14 C :   -0.022132
  15 N :   -0.054051
  16 C :    0.014760
  17 C :    0.006345
  18 C :   -0.044363
  19 C :   -0.013941
  20 N :   -0.060956
  21 C :   -0.067440
  22 C :   -0.032165
  23 C :   -0.176848
  24 S :    0.492424
  25 C :   -0.140649
  26 C :   -0.037527
  27 C :   -0.023191
  28 C :   -0.051152
  29 C :   -0.024202
  30 N :   -0.050996
  31 C :    0.017660
  32 C :    0.005173
  33 C :   -0.039421
  34 C :   -0.022771
  35 N :   -0.046745
  36 C :   -0.056590
  37 C :   -0.021005
  38 C :    0.014125
  39 C :    0.053299
  40 O :   -0.042457
  41 C :   -0.010569
  42 C :   -0.007575
  43 C :   -0.206502
  44 S :    0.438772
  45 C :   -0.209585
  46 O :   -0.050570
  47 C :   -0.057340
  48 C :    0.014162
  49 C :   -0.031909
  50 C :   -0.010670
  51 C :   -0.031363
  52 C :   -0.036899
  53 C :   -0.039633
  54 C :    0.028330
  55 N :   -0.116905
  56 C :    0.027198
  57 N :   -0.125255
  58 C :   -0.019075
  59 C :    0.069647
  60 C :   -0.030134
  61 C :   -0.029639
  62 C :   -0.018954
  63 C :   -0.035752
  64 C :   -0.032266
  65 C :   -0.005255
  66 C :   -0.024944
  67 C :   -0.000603
  68 C :   -0.055159
  69 H :    0.017431
  70 H :    0.025977
  71 H :    0.035504
  72 H :    0.029525
  73 H :    0.037763
  74 H :    0.046092
  75 H :    0.043931
  76 H :    0.027693
  77 H :    0.033152
  78 H :    0.045932
  79 H :    0.045270
  80 H :    0.041604
  81 H :    0.025233
  82 H :    0.033344
  83 H :    0.029242
  84 H :    0.031325
  85 H :    0.032755
  86 H :    0.025961
  87 H :    0.026784
  88 H :   -0.001201
  89 H :    0.015502
  90 H :    0.054900
  91 H :    0.056643
  92 H :   -0.000536
  93 H :    0.015162
  94 H :    0.050553
  95 H :    0.052509
  96 H :    0.031652
  97 H :    0.051496
  98 H :    0.024749
  99 H :    0.027467
 100 H :    0.026575
 101 H :    0.026145
 102 H :    0.031360
 103 H :    0.021243
 104 H :    0.027481

  Mayer bond orders larger than 0.100000
B(  0-C ,  1-N ) :   1.5090 B(  0-C ,  5-N ) :   1.5243 B(  0-C , 69-H ) :   0.9743
B(  1-N ,  2-C ) :   1.5326 B(  2-C ,  3-C ) :   1.4085 B(  2-C , 70-H ) :   0.9795
B(  3-C ,  4-C ) :   1.3483 B(  3-C , 71-H ) :   0.9669 B(  4-C ,  5-N ) :   1.5050
B(  4-C ,  6-C ) :   1.0807 B(  6-C ,  7-C ) :   1.6300 B(  6-C , 72-H ) :   0.9822
B(  7-C ,  8-C ) :   1.1865 B(  7-C , 73-H ) :   0.9509 B(  8-C ,  9-S ) :   1.1187
B(  8-C , 10-C ) :   0.1012 B(  8-C , 12-C ) :   1.3475 B(  9-S , 10-C ) :   1.1533
B( 10-C , 11-C ) :   1.3008 B( 10-C , 21-C ) :   1.2345 B( 11-C , 12-C ) :   1.1712
B( 11-C , 18-C ) :   1.2207 B( 12-C , 13-C ) :   1.2049 B( 13-C , 14-C ) :   1.0865
B( 13-C , 16-C ) :   1.5250 B( 14-C , 15-N ) :   2.9893 B( 16-C , 17-C ) :   1.2128
B( 16-C , 74-H ) :   0.9935 B( 17-C , 18-C ) :   1.5138 B( 17-C , 75-H ) :   0.9940
B( 18-C , 19-C ) :   1.0819 B( 19-C , 20-N ) :   2.9518 B( 21-C , 22-C ) :   1.5382
B( 21-C , 76-H ) :   0.9536 B( 22-C , 23-C ) :   1.2466 B( 22-C , 77-H ) :   0.9579
B( 23-C , 24-S ) :   1.1084 B( 23-C , 27-C ) :   1.3027 B( 24-S , 25-C ) :   1.1423
B( 25-C , 26-C ) :   1.2835 B( 25-C , 36-C ) :   1.2026 B( 26-C , 27-C ) :   1.1836
B( 26-C , 33-C ) :   1.2344 B( 27-C , 28-C ) :   1.2214 B( 28-C , 29-C ) :   1.0914
B( 28-C , 31-C ) :   1.5121 B( 29-C , 30-N ) :   2.9596 B( 31-C , 32-C ) :   1.2179
B( 31-C , 78-H ) :   0.9940 B( 32-C , 33-C ) :   1.5079 B( 32-C , 79-H ) :   0.9950
B( 33-C , 34-C ) :   1.0885 B( 34-C , 35-N ) :   2.9687 B( 36-C , 37-C ) :   1.5424
B( 36-C , 80-H ) :   0.9690 B( 37-C , 38-C ) :   1.2359 B( 37-C , 81-H ) :   0.9576
B( 38-C , 39-C ) :   1.3769 B( 38-C , 46-O ) :   1.0655 B( 39-C , 40-O ) :   1.0838
B( 39-C , 47-C ) :   1.1960 B( 40-O , 41-C ) :   1.0434 B( 41-C , 42-C ) :   1.2046
B( 41-C , 45-C ) :   1.5690 B( 42-C , 43-C ) :   1.5735 B( 42-C , 46-O ) :   1.0495
B( 43-C , 44-S ) :   1.1409 B( 43-C , 82-H ) :   0.9707 B( 44-S , 45-C ) :   1.1458
B( 45-C , 83-H ) :   0.9728 B( 47-C , 48-C ) :   1.6166 B( 47-C , 84-H ) :   0.9498
B( 48-C , 49-C ) :   1.0733 B( 48-C , 85-H ) :   0.9964 B( 49-C , 50-C ) :   1.4688
B( 49-C , 66-C ) :   1.1040 B( 50-C , 51-C ) :   1.1064 B( 50-C , 86-H ) :   1.0050
B( 51-C , 52-C ) :   1.4522 B( 51-C , 64-C ) :   1.1227 B( 52-C , 53-C ) :   1.0466
B( 52-C , 58-C ) :   1.1167 B( 53-C , 54-C ) :   1.0438 B( 53-C , 56-C ) :   1.0317
B( 53-C , 87-H ) :   0.8734 B( 54-C , 55-N ) :   1.0971 B( 54-C , 88-H ) :   0.9393
B( 54-C , 89-H ) :   0.9373 B( 55-N , 90-H ) :   0.9569 B( 55-N , 91-H ) :   0.9678
B( 56-C , 57-N ) :   1.0862 B( 56-C , 92-H ) :   0.9413 B( 56-C , 93-H ) :   0.9354
B( 57-N , 94-H ) :   0.9705 B( 57-N , 95-H ) :   0.9686 B( 58-C , 59-C ) :   1.6481
B( 58-C , 63-C ) :   1.0493 B( 59-C , 60-C ) :   0.9774 B( 59-C , 96-H ) :   0.9706
B( 60-C , 61-C ) :   0.9907 B( 60-C , 67-C ) :   0.9610 B( 60-C , 97-H ) :   0.8757
B( 61-C , 62-C ) :   1.7196 B( 61-C , 98-H ) :   0.9736 B( 62-C , 63-C ) :   1.1271
B( 62-C , 99-H ) :   0.9880 B( 63-C , 64-C ) :   1.4465 B( 64-C , 65-C ) :   1.1222
B( 65-C , 66-C ) :   1.6414 B( 65-C ,100-H ) :   0.9898 B( 66-C ,101-H ) :   0.9809
B( 67-C , 68-C ) :   2.0058 B( 67-C ,102-H ) :   0.9637 B( 68-C ,103-H ) :   0.9602
B( 68-C ,104-H ) :   0.9532

-----------------------------------------------------------------------------
         ABSORPTION SPECTRUM VIA TRANSITION ELECTRIC DIPOLE MOMENTS
-----------------------------------------------------------------------------
State   Energy  Wavelength   fosc         T2         TX        TY        TZ
        (cm-1)    (nm)                  (au**2)     (au)      (au)      (au)
-----------------------------------------------------------------------------
   0    8979.9   1113.6   0.655859618  24.04443  -4.44305   2.06404  -0.20848
   1   13287.3    752.6   0.155386209   3.84992   0.27946  -1.52898  -1.19752
   2   14017.1    713.4   0.065422630   1.53655   0.73050   0.61276   0.79211
   3   15585.5    641.6   0.105942139   2.23781  -1.09927   0.91808   0.43191
   4   17978.1    556.2   0.131803657   2.41356   0.60034   0.97180   1.05298
   5   19139.4    522.5   0.081338387   1.39908  -0.93713  -0.23759  -0.68147
   6   19837.9    504.1   0.236840265   3.93040   1.45171   0.42699   1.28087
   7   21621.0    462.5   0.483262183   7.35840  -0.52601   2.04868   1.69842
   8   23259.3    429.9   0.037754785   0.53438  -0.67225   0.00961  -0.28701
   9   24163.6    413.8   0.137110176   1.86803  -0.73543   0.99893   0.57385
  10   24909.4    401.5   0.066711888   0.88169   0.18878   0.67728   0.62237
  11   25163.2    397.4   0.103637272   1.35589  -0.36302  -0.70233  -0.85489
  12   26118.9    382.9   0.159972130   2.01635   0.27471   0.89735   1.06567
  13   27064.3    369.5   0.173018665   2.10461  -0.02400   0.98523   1.06459
  14   27893.3    358.5   0.044721864   0.52783   0.45668   0.23336   0.51461
  15   28330.3    353.0   0.306282662   3.55916  -0.49074  -1.06528  -1.47767
  16   29223.2    342.2   0.131655204   1.48315   0.82480   0.34986   0.82490
  17   29488.2    339.1   0.001527900   0.01706  -0.02605  -0.07389   0.10449
  18   29607.1    337.8   0.375816766   4.17884   1.62191   0.50264   1.13825
  19   29947.9    333.9   0.102438371   1.12609   0.80346   0.26977   0.63856
  20   30541.1    327.4   0.003235478   0.03488  -0.10327  -0.15225  -0.03210
  21   30705.6    325.7   0.019803221   0.21232   0.22598  -0.22696  -0.33128
  22   31357.8    318.9   0.046958974   0.49300   0.65536  -0.14036   0.20929
  23   31660.6    315.8   0.062134723   0.64609  -0.68700   0.36563   0.20108
  24   32780.1    305.1   0.112954052   1.13440   0.01860   0.73312   0.77239
  25   33343.0    299.9   0.012625882   0.12466   0.34093  -0.08854   0.02421
  26   33644.9    297.2   0.059235712   0.57961  -0.57300   0.45165   0.21749
  27   33959.2    294.5   0.278911414   2.70386  -0.58876  -0.87947  -1.25847
  28   34199.1    292.4   0.153246545   1.47520  -0.45592  -0.66406  -0.90904
  29   34461.9    290.2   0.006959041   0.06648   0.25419   0.04191   0.01041
  30   34773.7    287.6   0.057976793   0.54888   0.41322   0.37812   0.48492
  31   34987.1    285.8   0.231769860   2.18084   0.48063   0.81349   1.13493
  32   35276.4    283.5   0.024933624   0.23269   0.11364  -0.30705  -0.35425
  33   35366.0    282.8   0.044134360   0.41083   0.37025  -0.32899  -0.40684
  34   35470.7    281.9   0.259449299   2.40801  -0.72382  -0.71262  -1.17315
  35   35731.7    279.9   0.040453387   0.37271  -0.51088  -0.10076  -0.31869
  36   36018.1    277.6   0.184787932   1.68899  -1.12617   0.52581   0.37981
  37   36195.8    276.3   0.320433546   2.91444   1.18626   0.59036   1.07643
  38   36841.0    271.4   0.091888788   0.82112   0.01597  -0.61365  -0.66656
  39   37442.3    267.1   0.069615678   0.61210   0.16899  -0.45324  -0.61491
  40   37700.6    265.2   0.032065130   0.28000   0.39540   0.07963   0.34251
  41   38024.7    263.0   0.252308120   2.18445  -1.30427  -0.21109  -0.66240
  42   38168.6    262.0   0.025373340   0.21885   0.19863   0.25933   0.33487
  43   38738.5    258.1   0.076599535   0.65097  -0.37462  -0.30297  -0.64717
  44   39200.8    255.1   0.015391192   0.12926   0.33179  -0.05557   0.12682
  45   39470.2    253.4   0.000850279   0.00709   0.05697   0.05504  -0.02858
  46   39510.4    253.1   0.064535281   0.53773   0.65523  -0.07520   0.32053
  47   39650.5    252.2   0.046545484   0.38646  -0.40235  -0.22881  -0.41499
  48   39888.0    250.7   0.112812359   0.93109  -0.40358  -0.49142  -0.72575
  49   40030.5    249.8   0.037944911   0.31206   0.25517   0.27616   0.41314
  50   40229.0    248.6   0.002640051   0.02160  -0.06482  -0.11125  -0.07090
  51   40246.6    248.5   0.035458491   0.29005  -0.12255  -0.17265  -0.49520

FINAL SINGLE POINT ENERGY     -3934.598572899840

DIPOLE MOMENT
-------------
                                X             Y             Z
Electronic contribution:     70.04866      23.03697      61.47057
Nuclear contribution   :    -72.94843     -23.29139     -62.49622
                        -----------------------------------------
Total Dipole Moment    :     -2.89978      -0.25443      -1.02564
                        -----------------------------------------
Magnitude (a.u.)       :      3.08632
Magnitude (Debye)      :      7.84480

Rotational constants in cm-1:     0.000885     0.000492     0.000321
Rotational constants in MHz :    26.526953    14.750516     9.608732

                             ****ORCA TERMINATED NORMALLY****
TOTAL RUN TIME: 0 days 0 hours 10 minutes 44 seconds 115 msec
