                         Program Version 4.2.0 -  RELEASE  -
|  1> # ORCA input file
|  2> # SCF done       -218.841353499487          0.000620511870
|  3> ! CAM-B3LYP def2-SVP def2/J RIJCOSX Grid4 TightSCF
|  4> %maxcore 5000
|  5> %tddft
|  6>     Mode sTDDFT
|  7>     Ethresh 5.0
|  8>     maxcore 5000
|  9> end
| 10>
| 11> %pal
| 12>   nprocs 6
| 13>   end
| 14> * xyz 0 1
| 15>    C       -6.79759        -1.56179         1.54225
| 16>    O       -7.07118        -1.27614         0.40061
| 17>    C       -6.74489        -2.92766         2.12183
| 18>    C       -6.41305        -2.85855         3.48595
| 19>    C       -6.31787        -4.01037         4.24833
| 20>    C       -6.55883        -5.22638         3.62491
| 21>    C       -6.88738        -5.31298         2.27343
| 22>    C       -6.98336        -4.14638         1.51084
| 23>    F       -7.30272        -4.23251         0.22491
| 24>    F       -7.11308        -6.50260         1.71209
| 25>    F       -6.47910        -6.34937         4.34089
| 26>    C       -6.22553        -1.45381         3.84738
| 27>    C       -5.76513        -1.00127         5.05647
| 28>    C       -5.46653        -1.83599         6.15465
| 29>    N       -5.21088        -2.45994         7.08303
| 30>    C       -5.48792         0.34828         5.36527
| 31>    N       -5.22274         1.41887         5.68438
| 32>    C       -6.52417        -0.65331         2.67886
| 33>    C       -6.71014         0.70577         2.69735
| 34>    C       -6.89105         1.60178         1.63078
| 35>    C       -6.61343         1.50174         0.27034
| 36>    C       -6.91061         2.67069        -0.41236
| 37>    C       -7.43848         3.68449         0.42539
| 38>    S       -7.51843         3.20485         2.05283
| 39>    C       -7.74825         4.80523        -0.37001
| 40>    C       -7.41167         4.52325        -1.70771
| 41>    C       -6.85524         3.17778        -1.77281
| 42>    C       -6.35852         2.55066        -2.87663
| 43>    C       -6.36677         3.16813        -4.14585
| 44>    N       -6.37780         3.67544        -5.17399
| 45>    C       -5.77096         1.26716        -2.82840
| 46>    N       -5.26114         0.24147        -2.80547
| 47>    C       -7.68780         5.57867        -2.57109
| 48>    C       -8.23694         6.66686        -1.90899
| 49>    S       -8.40869         6.37062        -0.18137
| 50>    C       -8.65894         7.90705        -2.46234
| 51>    C       -9.20117         8.90386        -1.68129
| 52>    C       -9.65113        10.13236        -2.14792
| 53>    C       -9.44446        10.52103        -3.54906
| 54>    C       -8.94381         9.69509        -4.49484
| 55>    S       -8.46027         8.07635        -4.20073
| 56>    C       -9.86290        11.87768        -3.63115
| 57>    C      -10.30831        12.30855        -2.37852
| 58>    C      -10.74046        13.65268        -2.40052
| 59>    C      -10.61101        14.19543        -3.63932
| 60>    S       -9.97053        13.10680        -4.82424
| 61>    C      -10.21850        11.21951        -1.44436
| 62>    C      -10.64572        11.29341        -0.09905
| 63>    C      -10.95763        10.22799         0.69091
| 64>    C      -11.30486        10.29443         2.05802
| 65>    C      -11.36347        11.38931         2.91444
| 66>    C      -11.70127        11.02193         4.21005
| 67>    C      -11.90484         9.63369         4.35982
| 68>    S      -11.68348         8.79116         2.89028
| 69>    C      -12.20701         9.36072         5.70898
| 70>    C      -12.19856        10.58231         6.42443
| 71>    C      -11.87981        11.65931         5.50756
| 72>    C      -11.74077        12.98220         5.81150
| 73>    C      -11.91137        13.45217         7.13075
| 74>    N      -12.05659        13.81394         8.20908
| 75>    C      -11.42233        13.94500         4.83185
| 76>    N      -11.17180        14.72014         4.02483
| 77>    C      -12.43632        10.41598         7.77876
| 78>    C      -12.62725         9.08183         8.12328
| 79>    S      -12.54238         8.02736         6.70974
| 80>    C      -12.90528         8.51588         9.37834
| 81>    C      -12.75229         9.05654        10.62568
| 82>    C      -13.51110         8.44690        11.75001
| 83>    O      -14.10776         7.39936        11.73278
| 84>    C      -13.40415         9.42909        12.85735
| 85>    C      -12.54956        10.47883        12.47355
| 86>    C      -12.01962        10.18853        11.13788
| 87>    C      -10.87154        10.73728        10.62587
| 88>    C      -10.13553        11.76479        11.25357
| 89>    N       -9.49671        12.59689        11.71759
| 90>    C      -10.22916        10.27480         9.46087
| 91>    N       -9.65524         9.91716         8.53307
| 92>    C      -12.31699        11.54908        13.31877
| 93>    C      -12.94468        11.54843        14.55670
| 94>    C      -13.78133        10.50981        14.96087
| 95>    C      -14.01577         9.43579        14.09863
| 96>    F      -14.81991         8.45171        14.48547
| 97>    F      -14.36035        10.54332        16.16323
| 98>    F      -12.74534        12.57341        15.38676
| 99>    H       -6.07317        -4.00389         5.29747
|100>    H       -6.75961         1.17354         3.67400
|101>    H       -6.21363         0.61151        -0.17795
|102>    H       -7.50789         5.57255        -3.63100
|103>    H       -9.24108         8.70770        -0.61918
|104>    H       -8.81958         9.99874        -5.52232
|105>    H      -11.12187        14.19286        -1.55348
|106>    H      -10.85685        15.19289        -3.94709
|107>    H      -10.76239        12.29158         0.30121
|108>    H      -10.97474         9.23644         0.26310
|109>    H      -11.16049        12.39523         2.59715
|110>    H      -12.51697        11.21873         8.48876
|111>    H      -13.36940         7.53396         9.36976
|112>    H      -11.68457        12.38036        13.05391
|113> *
|114>
|115>                          ****END OF INPUT****

CARTESIAN COORDINATES (ANGSTROEM)
---------------------------------
  C     -6.797590   -1.561790    1.542250
  O     -7.071180   -1.276140    0.400610
  C     -6.744890   -2.927660    2.121830
  C     -6.413050   -2.858550    3.485950
  C     -6.317870   -4.010370    4.248330
  C     -6.558830   -5.226380    3.624910
  C     -6.887380   -5.312980    2.273430
  C     -6.983360   -4.146380    1.510840
  F     -7.302720   -4.232510    0.224910
  F     -7.113080   -6.502600    1.712090
  F     -6.479100   -6.349370    4.340890
  C     -6.225530   -1.453810    3.847380
  C     -5.765130   -1.001270    5.056470
  C     -5.466530   -1.835990    6.154650
  N     -5.210880   -2.459940    7.083030
  C     -5.487920    0.348280    5.365270
  N     -5.222740    1.418870    5.684380
  C     -6.524170   -0.653310    2.678860
  C     -6.710140    0.705770    2.697350
  C     -6.891050    1.601780    1.630780
  C     -6.613430    1.501740    0.270340
  C     -6.910610    2.670690   -0.412360
  C     -7.438480    3.684490    0.425390
  S     -7.518430    3.204850    2.052830
  C     -7.748250    4.805230   -0.370010
  C     -7.411670    4.523250   -1.707710
  C     -6.855240    3.177780   -1.772810
  C     -6.358520    2.550660   -2.876630
  C     -6.366770    3.168130   -4.145850
  N     -6.377800    3.675440   -5.173990
  C     -5.770960    1.267160   -2.828400
  N     -5.261140    0.241470   -2.805470
  C     -7.687800    5.578670   -2.571090
  C     -8.236940    6.666860   -1.908990
  S     -8.408690    6.370620   -0.181370
  C     -8.658940    7.907050   -2.462340
  C     -9.201170    8.903860   -1.681290
  C     -9.651130   10.132360   -2.147920
  C     -9.444460   10.521030   -3.549060
  C     -8.943810    9.695090   -4.494840
  S     -8.460270    8.076350   -4.200730
  C     -9.862900   11.877680   -3.631150
  C    -10.308310   12.308550   -2.378520
  C    -10.740460   13.652680   -2.400520
  C    -10.611010   14.195430   -3.639320
  S     -9.970530   13.106800   -4.824240
  C    -10.218500   11.219510   -1.444360
  C    -10.645720   11.293410   -0.099050
  C    -10.957630   10.227990    0.690910
  C    -11.304860   10.294430    2.058020
  C    -11.363470   11.389310    2.914440
  C    -11.701270   11.021930    4.210050
  C    -11.904840    9.633690    4.359820
  S    -11.683480    8.791160    2.890280
  C    -12.207010    9.360720    5.708980
  C    -12.198560   10.582310    6.424430
  C    -11.879810   11.659310    5.507560
  C    -11.740770   12.982200    5.811500
  C    -11.911370   13.452170    7.130750
  N    -12.056590   13.813940    8.209080
  C    -11.422330   13.945000    4.831850
  N    -11.171800   14.720140    4.024830
  C    -12.436320   10.415980    7.778760
  C    -12.627250    9.081830    8.123280
  S    -12.542380    8.027360    6.709740
  C    -12.905280    8.515880    9.378340
  C    -12.752290    9.056540   10.625680
  C    -13.511100    8.446900   11.750010
  O    -14.107760    7.399360   11.732780
  C    -13.404150    9.429090   12.857350
  C    -12.549560   10.478830   12.473550
  C    -12.019620   10.188530   11.137880
  C    -10.871540   10.737280   10.625870
  C    -10.135530   11.764790   11.253570
  N     -9.496710   12.596890   11.717590
  C    -10.229160   10.274800    9.460870
  N     -9.655240    9.917160    8.533070
  C    -12.316990   11.549080   13.318770
  C    -12.944680   11.548430   14.556700
  C    -13.781330   10.509810   14.960870
  C    -14.015770    9.435790   14.098630
  F    -14.819910    8.451710   14.485470
  F    -14.360350   10.543320   16.163230
  F    -12.745340   12.573410   15.386760
  H     -6.073170   -4.003890    5.297470
  H     -6.759610    1.173540    3.674000
  H     -6.213630    0.611510   -0.177950
  H     -7.507890    5.572550   -3.631000
  H     -9.241080    8.707700   -0.619180
  H     -8.819580    9.998740   -5.522320
  H    -11.121870   14.192860   -1.553480
  H    -10.856850   15.192890   -3.947090
  H    -10.762390   12.291580    0.301210
  H    -10.974740    9.236440    0.263100
  H    -11.160490   12.395230    2.597150
  H    -12.516970   11.218730    8.488760
  H    -13.369400    7.533960    9.369760
  H    -11.684570   12.380360   13.053910

 Total Charge           Charge          ....    0
 Multiplicity           Mult            ....    1
 Number of Electrons    NEL             ....  608
 Basis Dimension        Dim             .... 1270

ORBITAL ENERGIES
----------------

  NO   OCC          E(Eh)            E(eV)
   0   2.0000     -89.008970     -2422.0572
   1   2.0000     -89.007045     -2422.0048
   2   2.0000     -89.001513     -2421.8543
   3   2.0000     -88.998586     -2421.7746
   4   2.0000     -88.996011     -2421.7046
   5   2.0000     -88.970736     -2421.0168
   6   2.0000     -24.815000      -675.2505
   7   2.0000     -24.813622      -675.2130
   8   2.0000     -24.812167      -675.1734
   9   2.0000     -24.811094      -675.1442
  10   2.0000     -24.810526      -675.1287
  11   2.0000     -24.808430      -675.0717
  12   2.0000     -19.230450      -523.2871
  13   2.0000     -19.222812      -523.0793
  14   2.0000     -14.443707      -393.0332
  15   2.0000     -14.439713      -392.9246
  16   2.0000     -14.439132      -392.9088
  17   2.0000     -14.439018      -392.9056
  18   2.0000     -14.427615      -392.5954
  19   2.0000     -14.425427      -392.5358
  20   2.0000     -14.425278      -392.5318
  21   2.0000     -14.420270      -392.3955
  22   2.0000     -10.403444      -283.0921
  23   2.0000     -10.400376      -283.0086
  24   2.0000     -10.399643      -282.9887
  25   2.0000     -10.398396      -282.9548
  26   2.0000     -10.396625      -282.9066
  27   2.0000     -10.393987      -282.8348
  28   2.0000     -10.387059      -282.6462
  29   2.0000     -10.380290      -282.4621
  30   2.0000     -10.378848      -282.4228
  31   2.0000     -10.373973      -282.2901
  32   2.0000     -10.366183      -282.0782
  33   2.0000     -10.361154      -281.9413
  34   2.0000     -10.358578      -281.8712
  35   2.0000     -10.356202      -281.8066
  36   2.0000     -10.355030      -281.7747
  37   2.0000     -10.352853      -281.7155
  38   2.0000     -10.352270      -281.6996
  39   2.0000     -10.351633      -281.6823
  40   2.0000     -10.351513      -281.6790
  41   2.0000     -10.348290      -281.5913
  42   2.0000     -10.348169      -281.5880
  43   2.0000     -10.346263      -281.5361
  44   2.0000     -10.343430      -281.4590
  45   2.0000     -10.339627      -281.3556
  46   2.0000     -10.339322      -281.3473
  47   2.0000     -10.339199      -281.3439
  48   2.0000     -10.338662      -281.3293
  49   2.0000     -10.338591      -281.3274
  50   2.0000     -10.337845      -281.3071
  51   2.0000     -10.337369      -281.2941
  52   2.0000     -10.332429      -281.1597
  53   2.0000     -10.331893      -281.1451
  54   2.0000     -10.331825      -281.1433
  55   2.0000     -10.330033      -281.0945
  56   2.0000     -10.328108      -281.0421
  57   2.0000     -10.327745      -281.0322
  58   2.0000     -10.326701      -281.0038
  59   2.0000     -10.326217      -280.9907
  60   2.0000     -10.322405      -280.8869
  61   2.0000     -10.320706      -280.8407
  62   2.0000     -10.320484      -280.8347
  63   2.0000     -10.319750      -280.8147
  64   2.0000     -10.319658      -280.8122
  65   2.0000     -10.319524      -280.8085
  66   2.0000     -10.318432      -280.7788
  67   2.0000     -10.316565      -280.7280
  68   2.0000     -10.316313      -280.7211
  69   2.0000     -10.314932      -280.6836
  70   2.0000     -10.312638      -280.6211
  71   2.0000     -10.312344      -280.6131
  72   2.0000     -10.312032      -280.6047
  73   2.0000     -10.310943      -280.5750
  74   2.0000     -10.310268      -280.5567
  75   2.0000     -10.308773      -280.5160
  76   2.0000     -10.306585      -280.4564
  77   2.0000     -10.305656      -280.4312
  78   2.0000     -10.304503      -280.3998
  79   2.0000     -10.303093      -280.3614
  80   2.0000     -10.302978      -280.3583
  81   2.0000     -10.296299      -280.1765
  82   2.0000     -10.289497      -279.9914
  83   2.0000     -10.288359      -279.9605
  84   2.0000      -8.103293      -220.5018
  85   2.0000      -8.101894      -220.4637
  86   2.0000      -8.096291      -220.3113
  87   2.0000      -8.093399      -220.2326
  88   2.0000      -8.091074      -220.1693
  89   2.0000      -8.066134      -219.4907
  90   2.0000      -6.072595      -165.2437
  91   2.0000      -6.071000      -165.2003
  92   2.0000      -6.068543      -165.1334
  93   2.0000      -6.066894      -165.0886
  94   2.0000      -6.065452      -165.0493
  95   2.0000      -6.065450      -165.0493
  96   2.0000      -6.064381      -165.0202
  97   2.0000      -6.062583      -164.9713
  98   2.0000      -6.061333      -164.9373
  99   2.0000      -6.060720      -164.9206
 100   2.0000      -6.058715      -164.8660
 101   2.0000      -6.058513      -164.8605
 102   2.0000      -6.056092      -164.7946
 103   2.0000      -6.055782      -164.7862
 104   2.0000      -6.052905      -164.7079
 105   2.0000      -6.035582      -164.2365
 106   2.0000      -6.031310      -164.1203
 107   2.0000      -6.028169      -164.0348
 108   2.0000      -1.341730       -36.5103
 109   2.0000      -1.338017       -36.4093
 110   2.0000      -1.330805       -36.2130
 111   2.0000      -1.327291       -36.1174
 112   2.0000      -1.320001       -35.9190
 113   2.0000      -1.316260       -35.8173
 114   2.0000      -1.148606       -31.2552
 115   2.0000      -1.140834       -31.0437
 116   2.0000      -1.062866       -28.9221
 117   2.0000      -1.055633       -28.7252
 118   2.0000      -1.034759       -28.1572
 119   2.0000      -1.033599       -28.1257
 120   2.0000      -1.031176       -28.0597
 121   2.0000      -1.029375       -28.0107
 122   2.0000      -1.026472       -27.9317
 123   2.0000      -1.018805       -27.7231
 124   2.0000      -1.016798       -27.6685
 125   2.0000      -1.016168       -27.6513
 126   2.0000      -1.014897       -27.6167
 127   2.0000      -1.011361       -27.5205
 128   2.0000      -1.008432       -27.4408
 129   2.0000      -1.004942       -27.3459
 130   2.0000      -1.000040       -27.2125
 131   2.0000      -0.990960       -26.9654
 132   2.0000      -0.974345       -26.5133
 133   2.0000      -0.972547       -26.4644
 134   2.0000      -0.968488       -26.3539
 135   2.0000      -0.963947       -26.2303
 136   2.0000      -0.947305       -25.7775
 137   2.0000      -0.935715       -25.4621
 138   2.0000      -0.929951       -25.3053
 139   2.0000      -0.917210       -24.9585
 140   2.0000      -0.913011       -24.8443
 141   2.0000      -0.910141       -24.7662
 142   2.0000      -0.901424       -24.5290
 143   2.0000      -0.894855       -24.3503
 144   2.0000      -0.890451       -24.2304
 145   2.0000      -0.883594       -24.0438
 146   2.0000      -0.880715       -23.9655
 147   2.0000      -0.877878       -23.8883
 148   2.0000      -0.875322       -23.8187
 149   2.0000      -0.871423       -23.7126
 150   2.0000      -0.866457       -23.5775
 151   2.0000      -0.858115       -23.3505
 152   2.0000      -0.840937       -22.8831
 153   2.0000      -0.827464       -22.5164
 154   2.0000      -0.823446       -22.4071
 155   2.0000      -0.811978       -22.0950
 156   2.0000      -0.797242       -21.6941
 157   2.0000      -0.791641       -21.5416
 158   2.0000      -0.787760       -21.4360
 159   2.0000      -0.786862       -21.4116
 160   2.0000      -0.782580       -21.2951
 161   2.0000      -0.773145       -21.0383
 162   2.0000      -0.758521       -20.6404
 163   2.0000      -0.752818       -20.4852
 164   2.0000      -0.736913       -20.0524
 165   2.0000      -0.733223       -19.9520
 166   2.0000      -0.729524       -19.8513
 167   2.0000      -0.724986       -19.7279
 168   2.0000      -0.716574       -19.4990
 169   2.0000      -0.713911       -19.4265
 170   2.0000      -0.707918       -19.2634
 171   2.0000      -0.701925       -19.1004
 172   2.0000      -0.699040       -19.0219
 173   2.0000      -0.695237       -18.9183
 174   2.0000      -0.689902       -18.7732
 175   2.0000      -0.686014       -18.6674
 176   2.0000      -0.682381       -18.5685
 177   2.0000      -0.671417       -18.2702
 178   2.0000      -0.668030       -18.1780
 179   2.0000      -0.662844       -18.0369
 180   2.0000      -0.661558       -18.0019
 181   2.0000      -0.659312       -17.9408
 182   2.0000      -0.654511       -17.8102
 183   2.0000      -0.651147       -17.7186
 184   2.0000      -0.646123       -17.5819
 185   2.0000      -0.643776       -17.5180
 186   2.0000      -0.642450       -17.4819
 187   2.0000      -0.641565       -17.4579
 188   2.0000      -0.633487       -17.2381
 189   2.0000      -0.630598       -17.1595
 190   2.0000      -0.627239       -17.0680
 191   2.0000      -0.618281       -16.8243
 192   2.0000      -0.616126       -16.7656
 193   2.0000      -0.614654       -16.7256
 194   2.0000      -0.611862       -16.6496
 195   2.0000      -0.610190       -16.6041
 196   2.0000      -0.609235       -16.5781
 197   2.0000      -0.608018       -16.5450
 198   2.0000      -0.597604       -16.2616
 199   2.0000      -0.593471       -16.1492
 200   2.0000      -0.591042       -16.0831
 201   2.0000      -0.588297       -16.0084
 202   2.0000      -0.584031       -15.8923
 203   2.0000      -0.576078       -15.6759
 204   2.0000      -0.575653       -15.6643
 205   2.0000      -0.572457       -15.5774
 206   2.0000      -0.569895       -15.5076
 207   2.0000      -0.564840       -15.3701
 208   2.0000      -0.561818       -15.2878
 209   2.0000      -0.558186       -15.1890
 210   2.0000      -0.557661       -15.1747
 211   2.0000      -0.556824       -15.1520
 212   2.0000      -0.554056       -15.0766
 213   2.0000      -0.552599       -15.0370
 214   2.0000      -0.549232       -14.9454
 215   2.0000      -0.544645       -14.8205
 216   2.0000      -0.544462       -14.8156
 217   2.0000      -0.539486       -14.6802
 218   2.0000      -0.537585       -14.6284
 219   2.0000      -0.535190       -14.5633
 220   2.0000      -0.532830       -14.4990
 221   2.0000      -0.530688       -14.4408
 222   2.0000      -0.529552       -14.4098
 223   2.0000      -0.528522       -14.3818
 224   2.0000      -0.526304       -14.3215
 225   2.0000      -0.523086       -14.2339
 226   2.0000      -0.519170       -14.1273
 227   2.0000      -0.518027       -14.0962
 228   2.0000      -0.514736       -14.0067
 229   2.0000      -0.513154       -13.9636
 230   2.0000      -0.510186       -13.8829
 231   2.0000      -0.509425       -13.8622
 232   2.0000      -0.508157       -13.8277
 233   2.0000      -0.507025       -13.7969
 234   2.0000      -0.505090       -13.7442
 235   2.0000      -0.504155       -13.7188
 236   2.0000      -0.502838       -13.6829
 237   2.0000      -0.499115       -13.5816
 238   2.0000      -0.495278       -13.4772
 239   2.0000      -0.491771       -13.3818
 240   2.0000      -0.487178       -13.2568
 241   2.0000      -0.484798       -13.1920
 242   2.0000      -0.483169       -13.1477
 243   2.0000      -0.478299       -13.0152
 244   2.0000      -0.477622       -12.9968
 245   2.0000      -0.476799       -12.9744
 246   2.0000      -0.473558       -12.8862
 247   2.0000      -0.472764       -12.8646
 248   2.0000      -0.471769       -12.8375
 249   2.0000      -0.469817       -12.7844
 250   2.0000      -0.468695       -12.7539
 251   2.0000      -0.466918       -12.7055
 252   2.0000      -0.466224       -12.6866
 253   2.0000      -0.463299       -12.6070
 254   2.0000      -0.462132       -12.5753
 255   2.0000      -0.459213       -12.4958
 256   2.0000      -0.459010       -12.4903
 257   2.0000      -0.458080       -12.4650
 258   2.0000      -0.457847       -12.4587
 259   2.0000      -0.457739       -12.4557
 260   2.0000      -0.453409       -12.3379
 261   2.0000      -0.453147       -12.3307
 262   2.0000      -0.452292       -12.3075
 263   2.0000      -0.451700       -12.2914
 264   2.0000      -0.450810       -12.2672
 265   2.0000      -0.449034       -12.2188
 266   2.0000      -0.448516       -12.2047
 267   2.0000      -0.447114       -12.1666
 268   2.0000      -0.446251       -12.1431
 269   2.0000      -0.442649       -12.0451
 270   2.0000      -0.439089       -11.9482
 271   2.0000      -0.437752       -11.9118
 272   2.0000      -0.436904       -11.8888
 273   2.0000      -0.435954       -11.8629
 274   2.0000      -0.435198       -11.8423
 275   2.0000      -0.434149       -11.8138
 276   2.0000      -0.433022       -11.7831
 277   2.0000      -0.427953       -11.6452
 278   2.0000      -0.425146       -11.5688
 279   2.0000      -0.422523       -11.4974
 280   2.0000      -0.417633       -11.3644
 281   2.0000      -0.417322       -11.3559
 282   2.0000      -0.412974       -11.2376
 283   2.0000      -0.412327       -11.2200
 284   2.0000      -0.398241       -10.8367
 285   2.0000      -0.389410       -10.5964
 286   2.0000      -0.378639       -10.3033
 287   2.0000      -0.368338       -10.0230
 288   2.0000      -0.358576        -9.7573
 289   2.0000      -0.357713        -9.7339
 290   2.0000      -0.355234        -9.6664
 291   2.0000      -0.351976        -9.5777
 292   2.0000      -0.347691        -9.4611
 293   2.0000      -0.346901        -9.4397
 294   2.0000      -0.345447        -9.4001
 295   2.0000      -0.336528        -9.1574
 296   2.0000      -0.334399        -9.0995
 297   2.0000      -0.330532        -8.9942
 298   2.0000      -0.326529        -8.8853
 299   2.0000      -0.320154        -8.7118
 300   2.0000      -0.301450        -8.2029
 301   2.0000      -0.290073        -7.8933
 302   2.0000      -0.272804        -7.4234
 303   2.0000      -0.238706        -6.4955
 304   0.0000      -0.128303        -3.4913
 305   0.0000      -0.118329        -3.2199
 306   0.0000      -0.099922        -2.7190
 307   0.0000      -0.095465        -2.5977
 308   0.0000      -0.081667        -2.2223

MULLIKEN ATOMIC CHARGES
-----------------------
   0 C :    0.151367
   1 O :   -0.127527
   2 C :   -0.093278
   3 C :    0.059761
   4 C :   -0.095530
   5 C :    0.234057
   6 C :    0.154236
   7 C :    0.158478
   8 F :   -0.135994
   9 F :   -0.151468
  10 F :   -0.157419
  11 C :    0.288006
  12 C :   -0.336935
  13 C :   -0.189537
  14 N :    0.161866
  15 C :   -0.203571
  16 N :    0.165845
  17 C :   -0.101038
  18 C :    0.030842
  19 C :   -0.114882
  20 C :    0.031950
  21 C :   -0.021209
  22 C :   -0.076401
  23 S :    0.209244
  24 C :   -0.097973
  25 C :    0.030373
  26 C :    0.304149
  27 C :   -0.286292
  28 C :   -0.185884
  29 N :    0.172618
  30 C :   -0.188098
  31 N :    0.196585
  32 C :   -0.062308
  33 C :   -0.048743
  34 S :    0.169917
  35 C :   -0.027383
  36 C :   -0.101100
  37 C :    0.053756
  38 C :    0.059869
  39 C :   -0.120105
  40 S :    0.146189
  41 C :   -0.107685
  42 C :    0.054210
  43 C :    0.008787
  44 C :   -0.064958
  45 S :    0.139605
  46 C :    0.082863
  47 C :   -0.019690
  48 C :    0.018550
  49 C :   -0.068678
  50 C :   -0.039371
  51 C :    0.023245
  52 C :   -0.114920
  53 S :    0.183353
  54 C :   -0.063668
  55 C :   -0.010635
  56 C :    0.303966
  57 C :   -0.283971
  58 C :   -0.181697
  59 N :    0.170601
  60 C :   -0.182259
  61 N :    0.169845
  62 C :    0.000513
  63 C :   -0.115122
  64 S :    0.209861
  65 C :    0.090341
  66 C :   -0.149078
  67 C :    0.130248
  68 O :   -0.121318
  69 C :   -0.061147
  70 C :    0.035738
  71 C :    0.263297
  72 C :   -0.331917
  73 C :   -0.173356
  74 N :    0.167111
  75 C :   -0.201839
  76 N :    0.172464
  77 C :   -0.095782
  78 C :    0.233228
  79 C :    0.153323
  80 C :    0.151216
  81 F :   -0.138135
  82 F :   -0.152877
  83 F :   -0.158169
  84 H :    0.017084
  85 H :    0.023736
  86 H :    0.036192
  87 H :    0.023866
  88 H :   -0.002667
  89 H :    0.044367
  90 H :   -0.010028
  91 H :    0.032883
  92 H :   -0.007453
  93 H :   -0.018892
  94 H :    0.007451
  95 H :    0.025658
  96 H :    0.022671
  97 H :    0.022605
Sum of atomic charges:   -0.0000000

LOEWDIN ATOMIC CHARGES
----------------------
   0 C :    0.084890
   1 O :   -0.124784
   2 C :   -0.079348
   3 C :   -0.004781
   4 C :   -0.029169
   5 C :    0.079927
   6 C :    0.041052
   7 C :    0.086999
   8 F :   -0.019370
   9 F :   -0.032236
  10 F :   -0.035450
  11 C :    0.072827
  12 C :   -0.134402
  13 C :   -0.020962
  14 N :   -0.042911
  15 C :   -0.025203
  16 N :   -0.045044
  17 C :   -0.101933
  18 C :    0.045565
  19 C :   -0.178802
  20 C :    0.027745
  21 C :   -0.074826
  22 C :   -0.155441
  23 S :    0.494925
  24 C :   -0.192214
  25 C :   -0.046599
  26 C :    0.074887
  27 C :   -0.088406
  28 C :   -0.015006
  29 N :   -0.026969
  30 C :   -0.021298
  31 N :   -0.011744
  32 C :   -0.042378
  33 C :   -0.161946
  34 S :    0.477730
  35 C :   -0.187898
  36 C :   -0.026444
  37 C :   -0.017374
  38 C :   -0.046372
  39 C :   -0.134720
  40 S :    0.470191
  41 C :   -0.201547
  42 C :   -0.038636
  43 C :   -0.061979
  44 C :   -0.157912
  45 S :    0.430689
  46 C :   -0.046736
  47 C :    0.005174
  48 C :   -0.065268
  49 C :   -0.143573
  50 C :   -0.034057
  51 C :   -0.046418
  52 C :   -0.202053
  53 S :    0.472035
  54 C :   -0.148803
  55 C :   -0.072044
  56 C :    0.082638
  57 C :   -0.096808
  58 C :   -0.013055
  59 N :   -0.030326
  60 C :   -0.014957
  61 N :   -0.031531
  62 C :    0.015780
  63 C :   -0.186424
  64 S :    0.494773
  65 C :    0.047148
  66 C :   -0.102658
  67 C :    0.083225
  68 O :   -0.130336
  69 C :   -0.082626
  70 C :   -0.000944
  71 C :    0.063731
  72 C :   -0.133819
  73 C :   -0.021538
  74 N :   -0.040088
  75 C :   -0.014536
  76 N :   -0.042743
  77 C :   -0.029830
  78 C :    0.080651
  79 C :    0.038843
  80 C :    0.086497
  81 F :   -0.021505
  82 F :   -0.033913
  83 F :   -0.035356
  84 H :    0.052791
  85 H :    0.044570
  86 H :    0.046334
  87 H :    0.037265
  88 H :    0.025492
  89 H :    0.040400
  90 H :    0.033245
  91 H :    0.026279
  92 H :    0.034285
  93 H :    0.024324
  94 H :    0.039519
  95 H :    0.043110
  96 H :    0.046634
  97 H :    0.053876

  Mayer bond orders larger than 0.100000
B(  0-C ,  1-O ) :   2.2342 B(  0-C ,  2-C ) :   0.9355 B(  0-C , 17-C ) :   0.9565
B(  2-C ,  3-C ) :   1.3511 B(  2-C ,  7-C ) :   1.2719 B(  3-C ,  4-C ) :   1.3304
B(  3-C , 11-C ) :   1.0045 B(  4-C ,  5-C ) :   1.3252 B(  4-C , 84-H ) :   0.9967
B(  5-C ,  6-C ) :   1.2959 B(  5-C , 10-F ) :   1.1522 B(  6-C ,  7-C ) :   1.2580
B(  6-C ,  9-F ) :   1.1752 B(  7-C ,  8-F ) :   1.2465 B( 11-C , 12-C ) :   1.6416
B( 11-C , 17-C ) :   1.0933 B( 12-C , 13-C ) :   1.1381 B( 12-C , 15-C ) :   1.1407
B( 13-C , 14-N ) :   2.9796 B( 15-C , 16-N ) :   2.9925 B( 17-C , 18-C ) :   1.5733
B( 18-C , 19-C ) :   1.2198 B( 18-C , 85-H ) :   0.9242 B( 19-C , 20-C ) :   1.3894
B( 19-C , 23-S ) :   1.0686 B( 20-C , 21-C ) :   1.3489 B( 20-C , 86-H ) :   0.9743
B( 21-C , 22-C ) :   1.3665 B( 21-C , 26-C ) :   0.9968 B( 22-C , 23-S ) :   1.1690
B( 22-C , 24-C ) :   1.2150 B( 24-C , 25-C ) :   1.4315 B( 24-C , 34-S ) :   1.1045
B( 25-C , 26-C ) :   0.9941 B( 25-C , 32-C ) :   1.3159 B( 26-C , 27-C ) :   1.7205
B( 27-C , 28-C ) :   1.1339 B( 27-C , 30-C ) :   1.1332 B( 28-C , 29-N ) :   2.9857
B( 30-C , 31-N ) :   2.9953 B( 32-C , 33-C ) :   1.4368 B( 32-C , 87-H ) :   0.9814
B( 33-C , 34-S ) :   1.1156 B( 33-C , 35-C ) :   1.1800 B( 35-C , 36-C ) :   1.4964
B( 35-C , 40-S ) :   1.0615 B( 36-C , 37-C ) :   1.2644 B( 36-C , 88-H ) :   0.9570
B( 37-C , 38-C ) :   1.0586 B( 37-C , 46-C ) :   1.3629 B( 38-C , 39-C ) :   1.6046
B( 38-C , 41-C ) :   1.1788 B( 39-C , 40-S ) :   1.1421 B( 39-C , 89-H ) :   0.9400
B( 41-C , 42-C ) :   1.4334 B( 41-C , 45-S ) :   1.0816 B( 42-C , 43-C ) :   1.2227
B( 42-C , 46-C ) :   1.1013 B( 43-C , 44-C ) :   1.5876 B( 43-C , 90-H ) :   0.9982
B( 44-C , 45-S ) :   1.1558 B( 44-C , 91-H ) :   0.9656 B( 46-C , 47-C ) :   1.1745
B( 47-C , 48-C ) :   1.6300 B( 47-C , 92-H ) :   0.9619 B( 48-C , 49-C ) :   1.1398
B( 48-C , 93-H ) :   0.9535 B( 49-C , 50-C ) :   1.4206 B( 49-C , 53-S ) :   1.1199
B( 50-C , 51-C ) :   1.3273 B( 50-C , 94-H ) :   0.9901 B( 51-C , 52-C ) :   1.4147
B( 51-C , 56-C ) :   0.9933 B( 52-C , 53-S ) :   1.0988 B( 52-C , 54-C ) :   1.2244
B( 54-C , 55-C ) :   1.3834 B( 54-C , 64-S ) :   1.1608 B( 55-C , 56-C ) :   1.0043
B( 55-C , 62-C ) :   1.3777 B( 56-C , 57-C ) :   1.7182 B( 57-C , 58-C ) :   1.1317
B( 57-C , 60-C ) :   1.1327 B( 58-C , 59-N ) :   2.9828 B( 60-C , 61-N ) :   2.9853
B( 62-C , 63-C ) :   1.3722 B( 62-C , 95-H ) :   0.9781 B( 63-C , 64-S ) :   1.0736
B( 63-C , 65-C ) :   1.1704 B( 65-C , 66-C ) :   1.6322 B( 65-C , 96-H ) :   0.9256
B( 66-C , 67-C ) :   0.9585 B( 66-C , 71-C ) :   1.0627 B( 67-C , 68-O ) :   2.3001
B( 67-C , 69-C ) :   0.9071 B( 69-C , 70-C ) :   1.3567 B( 69-C , 80-C ) :   1.2742
B( 70-C , 71-C ) :   1.0088 B( 70-C , 77-C ) :   1.3349 B( 71-C , 72-C ) :   1.6461
B( 72-C , 73-C ) :   1.1231 B( 72-C , 75-C ) :   1.1768 B( 73-C , 74-N ) :   2.9959
B( 75-C , 76-N ) :   2.9941 B( 77-C , 78-C ) :   1.3237 B( 77-C , 97-H ) :   0.9993
B( 78-C , 79-C ) :   1.2992 B( 78-C , 83-F ) :   1.1474 B( 79-C , 80-C ) :   1.2582
B( 79-C , 82-F ) :   1.1733 B( 80-C , 81-F ) :   1.2470

-----------------------------------------------------------------------------
         ABSORPTION SPECTRUM VIA TRANSITION ELECTRIC DIPOLE MOMENTS
-----------------------------------------------------------------------------
State   Energy  Wavelength   fosc         T2         TX        TY        TZ
        (cm-1)    (nm)                  (au**2)     (au)      (au)      (au)
-----------------------------------------------------------------------------
   0    9560.8   1045.9   0.339613883  11.69411   1.49727  -2.58113  -1.67034
   1   10957.7    912.6   0.239237952   7.18765   0.01364  -1.28470   2.35309
   2   16089.3    621.5   0.355848107   7.28120  -0.86230   1.08855   2.31359
   3   16589.7    602.8   0.192542862   3.82088  -0.71654   1.60925   0.84721
   4   18652.9    536.1   1.147738042  20.25690  -0.90377   2.66335  -3.51378
   5   19048.4    525.0   0.086025508   1.48677  -0.19445   1.19638   0.13277
   6   20567.5    486.2   0.146504445   2.34501   0.45288   0.28460  -1.43489
   7   22556.8    443.3   0.154184200   2.25029   0.17881  -1.06110   1.04517
   8   23416.2    427.1   0.462618504   6.50404   0.45916   0.59558  -2.43690
   9   23565.1    424.4   0.098170215   1.37147  -0.21932   1.02172  -0.52863
  10   24407.3    409.7   0.071123476   0.95933  -0.39844   0.67453  -0.58786
  11   24747.5    404.1   0.101418102   1.34915   0.11954   1.11381  -0.30704
  12   24844.6    402.5   0.208637456   2.76462   0.57660   0.58131  -1.44714
  13   25576.9    391.0   0.062075634   0.79900  -0.16050   0.16939  -0.86287
  14   25869.7    386.6   0.076003777   0.96721   0.35093  -0.53694   0.74549
  15   27523.4    363.3   0.035969149   0.43023   0.34353  -0.10724  -0.54838
  16   27980.8    357.4   0.047183992   0.55515   0.39210  -0.52192  -0.35917
  17   28152.3    355.2   0.037812823   0.44218  -0.35741  -0.42660   0.36394
  18   28412.0    352.0   0.047591427   0.55144   0.17372   0.71898  -0.06587
  19   29344.0    340.8   0.103786245   1.16438   0.04062  -0.43172   0.98811
  20   29593.7    337.9   0.089489946   0.99552   0.64657   0.24673  -0.71874
  21   29773.4    335.9   0.208066507   2.30064  -0.23224   1.08378   1.03543
  22   30076.5    332.5   0.080283110   0.87876  -0.57744  -0.02089   0.73817
  23   30266.9    330.4   0.190991966   2.07741   0.08769  -1.16820  -0.83967
  24   30636.5    326.4   0.065811604   0.70720   0.14952  -0.75289  -0.34350
  25   30731.1    325.4   0.028907550   0.30968  -0.00926  -0.44740   0.33080
  26   31258.3    319.9   0.485050591   5.10854   0.37002  -0.84475  -2.06350
  27   31610.4    316.4   0.191461747   1.99401   0.69451  -1.16547  -0.39159
  28   31961.3    312.9   0.479210085   4.93602   0.27645   1.99134  -0.94560
  29   32025.3    312.3   0.068203974   0.70112   0.06066  -0.83336  -0.05431
  30   32232.7    310.2   0.127335751   1.30056  -0.10879   0.99999   0.53735
  31   32577.3    307.0   0.058412459   0.59029   0.05658   0.02686  -0.76575
  32   32612.0    306.6   0.031813229   0.32115   0.32366  -0.06605  -0.46047
  33   32772.1    305.1   0.040313240   0.40497   0.08413  -0.56654   0.27734
  34   32836.1    304.5   0.011943927   0.11975  -0.23526   0.23484   0.09618
  35   33060.1    302.5   0.174563081   1.73829  -0.44229  -0.03882   1.24144
  36   33493.4    298.6   0.138817787   1.36446   0.71563   0.64418  -0.66134
  37   33813.8    295.7   0.217257835   2.11523   0.02431  -0.85735   1.17456
  38   34001.9    294.1   0.067101123   0.64968   0.03129  -0.33852  -0.73083
  39   34110.8    293.2   0.057543290   0.55536  -0.02582   0.67265   0.31976
  40   34325.8    291.3   0.024769781   0.23756   0.01507  -0.04947   0.48465
  41   34405.3    290.7   0.082369756   0.78817  -0.54721   0.35710   0.60101
  42   34561.1    289.3   0.286579368   2.72981  -0.17627  -1.63604   0.14871
  43   34671.8    288.4   0.096508055   0.91635  -0.87373  -0.35753   0.15849
  44   34935.7    286.2   0.020275400   0.19106  -0.03831  -0.29758   0.31787
  45   35388.4    282.6   0.225410915   2.09696   0.55892  -1.29884   0.31236
  46   35638.6    280.6   0.079317803   0.73270  -0.32562  -0.61585   0.49739
  47   35831.3    279.1   0.027205094   0.24996   0.20964  -0.36854   0.26492
  48   36239.3    275.9   0.347348794   3.15545   0.13769   1.65517   0.63001
  49   36387.2    274.8   0.129886781   1.17514  -0.20362  -0.08385   1.06144
  50   36655.3    272.8   0.169034268   1.51815  -0.28615  -0.70127  -0.97185
  51   37032.1    270.0   0.074100022   0.65874   0.57105   0.47175  -0.33180
  52   37189.6    268.9   0.297921100   2.63727   0.94009   0.22357  -1.30519
  53   37331.2    267.9   0.032457070   0.28623  -0.48690   0.14581  -0.16702
  54   37386.3    267.5   0.025038747   0.22048  -0.16918   0.43802   0.00097
  55   37512.8    266.6   0.027535808   0.24165  -0.23688   0.40726  -0.14027
  56   37698.0    265.3   0.002414170   0.02108  -0.10960   0.01022   0.09469
  57   38231.0    261.6   0.012207460   0.10512  -0.19168   0.21441  -0.14969
  58   38563.2    259.3   0.221124421   1.88773  -0.35075  -0.00982  -1.32838
  59   38650.9    258.7   0.042338728   0.36062   0.14900  -0.55010   0.18924
  60   38750.0    258.1   0.019079472   0.16210   0.10718   0.13338  -0.36444
  61   39029.5    256.2   0.097795032   0.82490   0.55175   0.67597  -0.25207
  62   39040.6    256.1   0.041741275   0.35199   0.17338   0.22904  -0.51910
  63   39462.6    253.4   0.022474554   0.18749   0.36907   0.02560   0.22500
  64   39511.3    253.1   0.069803176   0.58161  -0.15770   0.44919   0.59579
  65   39750.5    251.6   0.016733944   0.13859   0.15729   0.13673   0.30847
  66   39909.1    250.6   0.000077508   0.00064   0.00143   0.02387   0.00820
  67   40074.5    249.5   0.036251682   0.29781   0.00611   0.50162   0.21482
  68   40162.3    249.0   0.007921805   0.06494  -0.05717   0.07814   0.23571

FINAL SINGLE POINT ENERGY     -5942.311399421983

DIPOLE MOMENT
-------------
                                X             Y             Z
Electronic contribution:     -4.06495     -46.27044      46.19596
Nuclear contribution   :      2.01260      47.39319     -50.01416
                        -----------------------------------------
Total Dipole Moment    :     -2.05235       1.12275      -3.81820
                        -----------------------------------------
Magnitude (a.u.)       :      4.47787
Magnitude (Debye)      :     11.38185

Rotational constants in cm-1:     0.000501     0.000290     0.000190
Rotational constants in MHz :    15.021915     8.687122     5.697347

                             ****ORCA TERMINATED NORMALLY****
TOTAL RUN TIME: 0 days 0 hours 28 minutes 35 seconds 60 msec
