                         Program Version 4.2.0 -  RELEASE  -
|  1> # ORCA input file
|  2> # SCF done       -175.310592469585          0.000837761271
|  3> ! CAM-B3LYP def2-SVP def2/J RIJCOSX Grid4 TightSCF
|  4> %maxcore 5000
|  5> %tddft
|  6>     Mode sTDDFT
|  7>     Ethresh 5.0
|  8>     maxcore 5000
|  9> end
| 10>
| 11> %pal
| 12>   nprocs 6
| 13>   end
| 14> * xyz 0 1
| 15>    C       -7.79522         2.97283         7.09723
| 16>    N       -6.48881         2.92058         6.89444
| 17>    C       -6.01283         1.77610         6.42544
| 18>    C       -6.82887         0.69097         6.15801
| 19>    C       -8.19809         0.85293         6.40637
| 20>    N       -8.66651         2.01339         6.88102
| 21>    C       -9.13883        -0.21705         6.15998
| 22>    C      -10.45770        -0.09319         6.40149
| 23>    C      -11.40423        -1.13071         6.15675
| 24>    O      -11.01809        -2.31952         5.65667
| 25>    C      -12.11181        -3.10265         5.51381
| 26>    C      -13.23567        -2.41202         5.93136
| 27>    C      -12.78259        -1.14916         6.34435
| 28>    C      -13.61223        -0.03790         6.87731
| 29>    F      -13.53928         1.07273         6.11945
| 30>    F      -14.90971        -0.36400         6.94937
| 31>    F      -13.24297         0.33715         8.11628
| 32>    C      -11.99735        -4.41975         4.98809
| 33>    C      -10.81834        -4.98526         4.64039
| 34>    C      -10.70418        -6.28714         4.08524
| 35>    O      -11.79268        -7.04331         3.83520
| 36>    C      -11.39178        -8.21148         3.28083
| 37>    C      -10.00952        -8.22187         3.17374
| 38>    C       -9.57136        -6.99347         3.68902
| 39>    C       -8.16919        -6.52001         3.77637
| 40>    F       -7.83671        -6.07637         5.00290
| 41>    F       -7.28445        -7.47936         3.46793
| 42>    F       -7.91338        -5.49197         2.93889
| 43>    C      -12.37566        -9.15110         2.86879
| 44>    C      -12.07226       -10.29834         2.21599
| 45>    C      -13.03731       -11.24201         1.75735
| 46>    C      -12.75328       -12.21931         0.83640
| 47>    O      -13.62869       -13.24645         0.54833
| 48>    C      -14.83959       -13.17312         1.17085
| 49>    C      -15.16953       -12.10405         2.05479
| 50>    C      -16.42781       -12.20271         2.54925
| 51>    S      -17.23108       -13.60475         1.94482
| 52>    C      -15.85299       -14.05995         1.01455
| 53>    O      -14.28183       -11.11720         2.35927
| 54>    C      -11.54156       -12.31353         0.07525
| 55>    C      -10.77650       -11.26196        -0.29231
| 56>    C       -9.50985       -11.29512        -0.97188
| 57>    C       -8.80878       -10.11228        -1.08022
| 58>    C       -7.53417       -10.07732        -1.67764
| 59>    C       -6.62155        -9.04861        -1.86398
| 60>    C       -6.71925        -7.61619        -1.45248
| 61>    C       -7.88741        -6.90726        -2.15457
| 62>    N       -7.71042        -6.99148        -3.59434
| 63>    C       -6.80993        -7.47969         0.07751
| 64>    N       -5.56947        -7.95222         0.66625
| 65>    C       -5.48713        -9.62242        -2.54686
| 66>    C       -4.32857        -9.07374        -2.95760
| 67>    C       -3.30866        -9.86455        -3.69692
| 68>    C       -3.62221       -11.32138        -3.82582
| 69>    C       -4.77672       -11.86060        -3.39463
| 70>    C       -5.75015       -11.05218        -2.75837
| 71>    C       -6.99080       -11.31934        -2.22123
| 72>    C       -7.74104       -12.51519        -2.11758
| 73>    C       -8.94900       -12.50431        -1.50334
| 74>    C       -3.18847        -9.27326        -5.08834
| 75>    C       -2.08298        -8.75295        -5.58357
| 76>    H       -8.18916         3.90770         7.47588
| 77>    H       -4.94277         1.73878         6.26390
| 78>    H       -6.43408        -0.23735         5.77735
| 79>    H       -8.73706        -1.13913         5.76425
| 80>    H      -10.83690         0.83751         6.79640
| 81>    H      -14.24573        -2.76585         5.94023
| 82>    H      -12.92002        -4.96661         4.86884
| 83>    H       -9.89722        -4.43862         4.77408
| 84>    H       -9.39271        -9.00437         2.78370
| 85>    H      -13.40467        -8.88192         3.05166
| 86>    H      -11.04086       -10.55249         2.03252
| 87>    H      -16.92358       -11.54041         3.22728
| 88>    H      -15.86847       -14.94409         0.41260
| 89>    H      -11.31038       -13.31455        -0.25908
| 90>    H      -11.12984       -10.26702        -0.05342
| 91>    H       -9.24319        -9.20679        -0.68061
| 92>    H       -5.79546        -7.11183        -1.75260
| 93>    H       -7.94421        -5.86989        -1.77962
| 94>    H       -8.82972        -7.40312        -1.91371
| 95>    H       -6.85950        -6.51342        -3.87194
| 96>    H       -8.48636        -6.54881        -4.07369
| 97>    H       -7.70014        -8.01557         0.44414
| 98>    H       -6.92123        -6.42376         0.34143
| 99>    H       -5.44900        -8.94015         0.46432
|100>    H       -5.59290        -7.84091         1.67341
|101>    H       -4.10062        -8.02814        -2.80299
|102>    H       -2.33643        -9.74197        -3.20063
|103>    H       -2.87192       -11.92025        -4.31978
|104>    H       -4.97169       -12.91640        -3.51809
|105>    H       -7.33711       -13.42948        -2.52787
|106>    H       -9.52005       -13.41563        -1.42219
|107>    H       -4.09872        -9.31951        -5.66957
|108>    H       -1.16825        -8.70097        -5.01556
|109>    H       -2.04453        -8.35794        -6.58462
|110> *
|111>
|112>                          ****END OF INPUT****

CARTESIAN COORDINATES (ANGSTROEM)
---------------------------------
  C     -7.795220    2.972830    7.097230
  N     -6.488810    2.920580    6.894440
  C     -6.012830    1.776100    6.425440
  C     -6.828870    0.690970    6.158010
  C     -8.198090    0.852930    6.406370
  N     -8.666510    2.013390    6.881020
  C     -9.138830   -0.217050    6.159980
  C    -10.457700   -0.093190    6.401490
  C    -11.404230   -1.130710    6.156750
  O    -11.018090   -2.319520    5.656670
  C    -12.111810   -3.102650    5.513810
  C    -13.235670   -2.412020    5.931360
  C    -12.782590   -1.149160    6.344350
  C    -13.612230   -0.037900    6.877310
  F    -13.539280    1.072730    6.119450
  F    -14.909710   -0.364000    6.949370
  F    -13.242970    0.337150    8.116280
  C    -11.997350   -4.419750    4.988090
  C    -10.818340   -4.985260    4.640390
  C    -10.704180   -6.287140    4.085240
  O    -11.792680   -7.043310    3.835200
  C    -11.391780   -8.211480    3.280830
  C    -10.009520   -8.221870    3.173740
  C     -9.571360   -6.993470    3.689020
  C     -8.169190   -6.520010    3.776370
  F     -7.836710   -6.076370    5.002900
  F     -7.284450   -7.479360    3.467930
  F     -7.913380   -5.491970    2.938890
  C    -12.375660   -9.151100    2.868790
  C    -12.072260  -10.298340    2.215990
  C    -13.037310  -11.242010    1.757350
  C    -12.753280  -12.219310    0.836400
  O    -13.628690  -13.246450    0.548330
  C    -14.839590  -13.173120    1.170850
  C    -15.169530  -12.104050    2.054790
  C    -16.427810  -12.202710    2.549250
  S    -17.231080  -13.604750    1.944820
  C    -15.852990  -14.059950    1.014550
  O    -14.281830  -11.117200    2.359270
  C    -11.541560  -12.313530    0.075250
  C    -10.776500  -11.261960   -0.292310
  C     -9.509850  -11.295120   -0.971880
  C     -8.808780  -10.112280   -1.080220
  C     -7.534170  -10.077320   -1.677640
  C     -6.621550   -9.048610   -1.863980
  C     -6.719250   -7.616190   -1.452480
  C     -7.887410   -6.907260   -2.154570
  N     -7.710420   -6.991480   -3.594340
  C     -6.809930   -7.479690    0.077510
  N     -5.569470   -7.952220    0.666250
  C     -5.487130   -9.622420   -2.546860
  C     -4.328570   -9.073740   -2.957600
  C     -3.308660   -9.864550   -3.696920
  C     -3.622210  -11.321380   -3.825820
  C     -4.776720  -11.860600   -3.394630
  C     -5.750150  -11.052180   -2.758370
  C     -6.990800  -11.319340   -2.221230
  C     -7.741040  -12.515190   -2.117580
  C     -8.949000  -12.504310   -1.503340
  C     -3.188470   -9.273260   -5.088340
  C     -2.082980   -8.752950   -5.583570
  H     -8.189160    3.907700    7.475880
  H     -4.942770    1.738780    6.263900
  H     -6.434080   -0.237350    5.777350
  H     -8.737060   -1.139130    5.764250
  H    -10.836900    0.837510    6.796400
  H    -14.245730   -2.765850    5.940230
  H    -12.920020   -4.966610    4.868840
  H     -9.897220   -4.438620    4.774080
  H     -9.392710   -9.004370    2.783700
  H    -13.404670   -8.881920    3.051660
  H    -11.040860  -10.552490    2.032520
  H    -16.923580  -11.540410    3.227280
  H    -15.868470  -14.944090    0.412600
  H    -11.310380  -13.314550   -0.259080
  H    -11.129840  -10.267020   -0.053420
  H     -9.243190   -9.206790   -0.680610
  H     -5.795460   -7.111830   -1.752600
  H     -7.944210   -5.869890   -1.779620
  H     -8.829720   -7.403120   -1.913710
  H     -6.859500   -6.513420   -3.871940
  H     -8.486360   -6.548810   -4.073690
  H     -7.700140   -8.015570    0.444140
  H     -6.921230   -6.423760    0.341430
  H     -5.449000   -8.940150    0.464320
  H     -5.592900   -7.840910    1.673410
  H     -4.100620   -8.028140   -2.802990
  H     -2.336430   -9.741970   -3.200630
  H     -2.871920  -11.920250   -4.319780
  H     -4.971690  -12.916400   -3.518090
  H     -7.337110  -13.429480   -2.527870
  H     -9.520050  -13.415630   -1.422190
  H     -4.098720   -9.319510   -5.669570
  H     -1.168250   -8.700970   -5.015560
  H     -2.044530   -8.357940   -6.584620

 Total Charge           Charge          ....    0
 Multiplicity           Mult            ....    1
 Number of Electrons    NEL             ....  440
 Basis Dimension        Dim             .... 1028

ORBITAL ENERGIES
----------------

  NO   OCC          E(Eh)            E(eV)
   0   2.0000     -88.954467     -2420.5741
   1   2.0000     -24.809214      -675.0930
   2   2.0000     -24.799990      -674.8420
   3   2.0000     -24.798261      -674.7950
   4   2.0000     -24.797637      -674.7780
   5   2.0000     -24.790920      -674.5952
   6   2.0000     -24.790744      -674.5904
   7   2.0000     -19.305906      -525.3404
   8   2.0000     -19.303199      -525.2667
   9   2.0000     -19.271388      -524.4011
  10   2.0000     -19.269331      -524.3451
  11   2.0000     -14.404201      -391.9582
  12   2.0000     -14.401164      -391.8756
  13   2.0000     -14.373062      -391.1109
  14   2.0000     -14.365529      -390.9059
  15   2.0000     -10.523803      -286.3672
  16   2.0000     -10.516803      -286.1768
  17   2.0000     -10.349964      -281.6368
  18   2.0000     -10.347468      -281.5689
  19   2.0000     -10.344944      -281.5002
  20   2.0000     -10.344779      -281.4957
  21   2.0000     -10.342253      -281.4270
  22   2.0000     -10.339304      -281.3468
  23   2.0000     -10.337439      -281.2960
  24   2.0000     -10.337117      -281.2873
  25   2.0000     -10.328276      -281.0467
  26   2.0000     -10.324985      -280.9571
  27   2.0000     -10.315920      -280.7104
  28   2.0000     -10.296845      -280.1914
  29   2.0000     -10.296247      -280.1751
  30   2.0000     -10.294977      -280.1406
  31   2.0000     -10.294180      -280.1189
  32   2.0000     -10.293564      -280.1021
  33   2.0000     -10.291329      -280.0413
  34   2.0000     -10.291006      -280.0325
  35   2.0000     -10.290625      -280.0222
  36   2.0000     -10.289467      -279.9906
  37   2.0000     -10.287186      -279.9286
  38   2.0000     -10.287113      -279.9266
  39   2.0000     -10.284891      -279.8661
  40   2.0000     -10.282608      -279.8040
  41   2.0000     -10.282337      -279.7966
  42   2.0000     -10.282068      -279.7893
  43   2.0000     -10.281356      -279.7699
  44   2.0000     -10.278784      -279.6999
  45   2.0000     -10.278514      -279.6926
  46   2.0000     -10.278363      -279.6885
  47   2.0000     -10.275465      -279.6096
  48   2.0000     -10.274312      -279.5782
  49   2.0000     -10.268749      -279.4269
  50   2.0000     -10.267194      -279.3846
  51   2.0000     -10.266884      -279.3761
  52   2.0000     -10.266033      -279.3530
  53   2.0000     -10.265016      -279.3253
  54   2.0000     -10.264037      -279.2987
  55   2.0000     -10.263590      -279.2865
  56   2.0000     -10.259086      -279.1639
  57   2.0000     -10.258639      -279.1518
  58   2.0000     -10.256960      -279.1061
  59   2.0000     -10.256542      -279.0947
  60   2.0000     -10.255345      -279.0621
  61   2.0000      -8.050311      -219.0601
  62   2.0000      -6.019830      -163.8079
  63   2.0000      -6.015661      -163.6945
  64   2.0000      -6.011951      -163.5935
  65   2.0000      -1.391594       -37.8672
  66   2.0000      -1.383148       -37.6374
  67   2.0000      -1.297059       -35.2948
  68   2.0000      -1.288737       -35.0683
  69   2.0000      -1.287766       -35.0419
  70   2.0000      -1.281634       -34.8750
  71   2.0000      -1.226133       -33.3648
  72   2.0000      -1.222148       -33.2563
  73   2.0000      -1.196091       -32.5473
  74   2.0000      -1.159230       -31.5443
  75   2.0000      -1.075321       -29.2610
  76   2.0000      -0.983228       -26.7550
  77   2.0000      -0.978741       -26.6329
  78   2.0000      -0.975893       -26.5554
  79   2.0000      -0.957894       -26.0656
  80   2.0000      -0.944276       -25.6951
  81   2.0000      -0.942262       -25.6403
  82   2.0000      -0.936162       -25.4743
  83   2.0000      -0.928840       -25.2750
  84   2.0000      -0.928293       -25.2601
  85   2.0000      -0.922706       -25.1081
  86   2.0000      -0.913186       -24.8491
  87   2.0000      -0.903342       -24.5812
  88   2.0000      -0.891440       -24.2573
  89   2.0000      -0.877162       -23.8688
  90   2.0000      -0.868099       -23.6222
  91   2.0000      -0.860622       -23.4187
  92   2.0000      -0.849285       -23.1102
  93   2.0000      -0.833306       -22.6754
  94   2.0000      -0.832311       -22.6483
  95   2.0000      -0.828372       -22.5411
  96   2.0000      -0.821926       -22.3658
  97   2.0000      -0.813547       -22.1377
  98   2.0000      -0.804768       -21.8988
  99   2.0000      -0.799177       -21.7467
 100   2.0000      -0.791688       -21.5429
 101   2.0000      -0.781721       -21.2717
 102   2.0000      -0.761376       -20.7181
 103   2.0000      -0.754966       -20.5437
 104   2.0000      -0.744022       -20.2459
 105   2.0000      -0.737612       -20.0714
 106   2.0000      -0.729684       -19.8557
 107   2.0000      -0.721934       -19.6448
 108   2.0000      -0.716185       -19.4884
 109   2.0000      -0.712760       -19.3952
 110   2.0000      -0.708249       -19.2724
 111   2.0000      -0.699755       -19.0413
 112   2.0000      -0.694774       -18.9058
 113   2.0000      -0.687724       -18.7139
 114   2.0000      -0.683744       -18.6056
 115   2.0000      -0.679808       -18.4985
 116   2.0000      -0.673366       -18.3232
 117   2.0000      -0.671878       -18.2827
 118   2.0000      -0.670438       -18.2435
 119   2.0000      -0.666779       -18.1440
 120   2.0000      -0.665379       -18.1059
 121   2.0000      -0.662176       -18.0187
 122   2.0000      -0.656677       -17.8691
 123   2.0000      -0.656025       -17.8513
 124   2.0000      -0.647226       -17.6119
 125   2.0000      -0.643624       -17.5139
 126   2.0000      -0.619795       -16.8655
 127   2.0000      -0.615172       -16.7397
 128   2.0000      -0.612989       -16.6803
 129   2.0000      -0.603336       -16.4176
 130   2.0000      -0.598856       -16.2957
 131   2.0000      -0.592364       -16.1190
 132   2.0000      -0.588109       -16.0033
 133   2.0000      -0.585495       -15.9321
 134   2.0000      -0.577619       -15.7178
 135   2.0000      -0.574743       -15.6395
 136   2.0000      -0.573063       -15.5938
 137   2.0000      -0.571566       -15.5531
 138   2.0000      -0.570147       -15.5145
 139   2.0000      -0.568107       -15.4590
 140   2.0000      -0.562242       -15.2994
 141   2.0000      -0.558152       -15.1881
 142   2.0000      -0.551629       -15.0106
 143   2.0000      -0.550883       -14.9903
 144   2.0000      -0.547811       -14.9067
 145   2.0000      -0.545739       -14.8503
 146   2.0000      -0.542430       -14.7603
 147   2.0000      -0.541764       -14.7422
 148   2.0000      -0.541652       -14.7391
 149   2.0000      -0.540254       -14.7011
 150   2.0000      -0.538731       -14.6596
 151   2.0000      -0.529172       -14.3995
 152   2.0000      -0.527082       -14.3426
 153   2.0000      -0.523442       -14.2436
 154   2.0000      -0.522996       -14.2314
 155   2.0000      -0.521421       -14.1886
 156   2.0000      -0.516763       -14.0618
 157   2.0000      -0.516692       -14.0599
 158   2.0000      -0.513696       -13.9784
 159   2.0000      -0.512522       -13.9464
 160   2.0000      -0.511964       -13.9313
 161   2.0000      -0.507709       -13.8155
 162   2.0000      -0.506438       -13.7809
 163   2.0000      -0.505149       -13.7458
 164   2.0000      -0.501882       -13.6569
 165   2.0000      -0.500121       -13.6090
 166   2.0000      -0.499528       -13.5928
 167   2.0000      -0.494545       -13.4573
 168   2.0000      -0.492968       -13.4143
 169   2.0000      -0.492225       -13.3941
 170   2.0000      -0.488484       -13.2923
 171   2.0000      -0.487625       -13.2689
 172   2.0000      -0.483996       -13.1702
 173   2.0000      -0.478723       -13.0267
 174   2.0000      -0.478530       -13.0215
 175   2.0000      -0.477875       -13.0036
 176   2.0000      -0.476957       -12.9786
 177   2.0000      -0.473716       -12.8905
 178   2.0000      -0.468707       -12.7542
 179   2.0000      -0.468143       -12.7388
 180   2.0000      -0.463040       -12.6000
 181   2.0000      -0.462903       -12.5962
 182   2.0000      -0.459837       -12.5128
 183   2.0000      -0.457283       -12.4433
 184   2.0000      -0.456758       -12.4290
 185   2.0000      -0.453887       -12.3509
 186   2.0000      -0.447963       -12.1897
 187   2.0000      -0.440716       -11.9925
 188   2.0000      -0.436267       -11.8714
 189   2.0000      -0.431705       -11.7473
 190   2.0000      -0.430293       -11.7089
 191   2.0000      -0.428379       -11.6568
 192   2.0000      -0.425151       -11.5689
 193   2.0000      -0.423082       -11.5126
 194   2.0000      -0.415526       -11.3070
 195   2.0000      -0.413400       -11.2492
 196   2.0000      -0.410030       -11.1575
 197   2.0000      -0.404501       -11.0070
 198   2.0000      -0.394408       -10.7324
 199   2.0000      -0.387232       -10.5371
 200   2.0000      -0.383436       -10.4338
 201   2.0000      -0.381067       -10.3693
 202   2.0000      -0.377898       -10.2831
 203   2.0000      -0.371960       -10.1215
 204   2.0000      -0.364448        -9.9171
 205   2.0000      -0.364328        -9.9139
 206   2.0000      -0.363925        -9.9029
 207   2.0000      -0.350090        -9.5264
 208   2.0000      -0.342195        -9.3116
 209   2.0000      -0.331017        -9.0074
 210   2.0000      -0.320711        -8.7270
 211   2.0000      -0.318762        -8.6740
 212   2.0000      -0.305965        -8.3257
 213   2.0000      -0.296151        -8.0587
 214   2.0000      -0.293693        -7.9918
 215   2.0000      -0.291655        -7.9363
 216   2.0000      -0.285727        -7.7750
 217   2.0000      -0.261199        -7.1076
 218   2.0000      -0.233707        -6.3595
 219   2.0000      -0.215285        -5.8582
 220   0.0000      -0.071599        -1.9483
 221   0.0000      -0.061849        -1.6830
 222   0.0000      -0.035836        -0.9751
 223   0.0000      -0.011762        -0.3201
 224   0.0000       0.013889         0.3779

MULLIKEN ATOMIC CHARGES
-----------------------
   0 C :    0.073799
   1 N :   -0.108767
   2 C :    0.064940
   3 C :   -0.026446
   4 C :    0.023050
   5 N :   -0.090257
   6 C :   -0.001420
   7 C :    0.014148
   8 C :    0.143079
   9 O :   -0.195855
  10 C :    0.197989
  11 C :   -0.064707
  12 C :   -0.106111
  13 C :    0.525640
  14 F :   -0.165485
  15 F :   -0.155824
  16 F :   -0.165239
  17 C :   -0.016249
  18 C :   -0.023221
  19 C :    0.130835
  20 O :   -0.195293
  21 C :    0.202914
  22 C :   -0.091817
  23 C :   -0.100677
  24 C :    0.536064
  25 F :   -0.164986
  26 F :   -0.158689
  27 F :   -0.170032
  28 C :    0.003664
  29 C :   -0.088621
  30 C :    0.157208
  31 C :    0.157294
  32 O :   -0.247331
  33 C :    0.214850
  34 C :    0.223671
  35 C :   -0.178507
  36 S :    0.106923
  37 C :   -0.172303
  38 O :   -0.263425
  39 C :   -0.003780
  40 C :   -0.036518
  41 C :    0.113557
  42 C :   -0.118254
  43 C :    0.052244
  44 C :   -0.004120
  45 C :   -0.066663
  46 C :    0.162769
  47 N :   -0.214953
  48 C :    0.151917
  49 N :   -0.228688
  50 C :    0.108901
  51 C :   -0.131433
  52 C :    0.111051
  53 C :   -0.039597
  54 C :    0.019763
  55 C :    0.012149
  56 C :    0.029148
  57 C :    0.002724
  58 C :   -0.010172
  59 C :   -0.042658
  60 C :   -0.016749
  61 H :    0.015026
  62 H :    0.010879
  63 H :   -0.005619
  64 H :   -0.007984
  65 H :    0.028422
  66 H :   -0.003190
  67 H :    0.007872
  68 H :    0.016023
  69 H :   -0.000646
  70 H :    0.002846
  71 H :    0.027563
  72 H :    0.023480
  73 H :    0.024799
  74 H :    0.004653
  75 H :    0.008718
  76 H :   -0.033673
  77 H :   -0.027173
  78 H :   -0.016900
  79 H :   -0.016298
  80 H :    0.083354
  81 H :    0.089530
  82 H :   -0.034130
  83 H :   -0.010568
  84 H :    0.095561
  85 H :    0.086204
  86 H :   -0.004489
  87 H :    0.022845
  88 H :   -0.010958
  89 H :   -0.037323
  90 H :   -0.039226
  91 H :   -0.033149
  92 H :    0.016743
  93 H :    0.016229
  94 H :    0.025131
Sum of atomic charges:   -0.0000000

LOEWDIN ATOMIC CHARGES
----------------------
   0 C :    0.047150
   1 N :   -0.096090
   2 C :    0.048587
   3 C :   -0.060898
   4 C :    0.031255
   5 N :   -0.088479
   6 C :   -0.026877
   7 C :   -0.001198
   8 C :    0.048840
   9 O :    0.026742
  10 C :    0.038451
  11 C :   -0.040961
  12 C :   -0.117166
  13 C :    0.169105
  14 F :   -0.065196
  15 F :   -0.055896
  16 F :   -0.064684
  17 C :   -0.028871
  18 C :   -0.032323
  19 C :    0.042246
  20 O :    0.024124
  21 C :    0.042288
  22 C :   -0.054549
  23 C :   -0.121952
  24 C :    0.173466
  25 F :   -0.063391
  26 F :   -0.052039
  27 F :   -0.069635
  28 C :   -0.047747
  29 C :   -0.018403
  30 C :    0.013482
  31 C :    0.031302
  32 O :   -0.055205
  33 C :   -0.008182
  34 C :   -0.006500
  35 C :   -0.212634
  36 S :    0.433032
  37 C :   -0.210047
  38 O :   -0.062151
  39 C :   -0.046661
  40 C :    0.001355
  41 C :   -0.034755
  42 C :   -0.009351
  43 C :   -0.023237
  44 C :   -0.020760
  45 C :   -0.040450
  46 C :    0.026941
  47 N :   -0.117195
  48 C :    0.026946
  49 N :   -0.122639
  50 C :   -0.017086
  51 C :    0.072050
  52 C :   -0.029892
  53 C :   -0.030463
  54 C :   -0.018619
  55 C :   -0.035039
  56 C :   -0.031191
  57 C :   -0.003567
  58 C :   -0.030988
  59 C :   -0.001240
  60 C :   -0.057077
  61 H :    0.018754
  62 H :    0.026351
  63 H :    0.033575
  64 H :    0.030460
  65 H :    0.043821
  66 H :    0.037845
  67 H :    0.041472
  68 H :    0.038470
  69 H :    0.033790
  70 H :    0.038189
  71 H :    0.038136
  72 H :    0.028313
  73 H :    0.029079
  74 H :    0.033338
  75 H :    0.032819
  76 H :    0.019004
  77 H :    0.022195
  78 H :   -0.002056
  79 H :    0.014195
  80 H :    0.049076
  81 H :    0.054163
  82 H :   -0.005946
  83 H :    0.013138
  84 H :    0.051238
  85 H :    0.047497
  86 H :    0.030827
  87 H :    0.052257
  88 H :    0.024872
  89 H :    0.028711
  90 H :    0.026969
  91 H :    0.024130
  92 H :    0.031191
  93 H :    0.021568
  94 H :    0.026477

  Mayer bond orders larger than 0.100000
B(  0-C ,  1-N ) :   1.4979 B(  0-C ,  5-N ) :   1.5306 B(  0-C , 61-H ) :   0.9753
B(  1-N ,  2-C ) :   1.5447 B(  2-C ,  3-C ) :   1.3829 B(  2-C , 62-H ) :   0.9813
B(  3-C ,  4-C ) :   1.3436 B(  3-C , 63-H ) :   0.9765 B(  4-C ,  5-N ) :   1.5203
B(  4-C ,  6-C ) :   1.0635 B(  6-C ,  7-C ) :   1.6894 B(  6-C , 64-H ) :   0.9871
B(  7-C ,  8-C ) :   1.1361 B(  7-C , 65-H ) :   0.9455 B(  8-C ,  9-O ) :   1.1667
B(  8-C , 12-C ) :   1.4414 B(  9-O , 10-C ) :   1.1381 B( 10-C , 11-C ) :   1.4197
B( 10-C , 17-C ) :   1.1278 B( 11-C , 12-C ) :   1.2515 B( 11-C , 66-H ) :   1.0238
B( 12-C , 13-C ) :   0.9454 B( 13-C , 14-F ) :   1.1681 B( 13-C , 15-F ) :   1.1816
B( 13-C , 16-F ) :   1.1679 B( 17-C , 18-C ) :   1.6283 B( 17-C , 67-H ) :   0.9767
B( 18-C , 19-C ) :   1.1684 B( 18-C , 68-H ) :   0.9542 B( 19-C , 20-O ) :   1.1676
B( 19-C , 23-C ) :   1.4295 B( 20-O , 21-C ) :   1.1198 B( 21-C , 22-C ) :   1.4501
B( 21-C , 28-C ) :   1.1048 B( 22-C , 23-C ) :   1.2567 B( 22-C , 69-H ) :   1.0098
B( 23-C , 24-C ) :   0.9459 B( 24-C , 25-F ) :   1.1570 B( 24-C , 26-F ) :   1.1458
B( 24-C , 27-F ) :   1.1545 B( 28-C , 29-C ) :   1.6455 B( 28-C , 70-H ) :   0.9767
B( 29-C , 30-C ) :   1.1732 B( 29-C , 71-H ) :   0.9584 B( 30-C , 31-C ) :   1.5057
B( 30-C , 38-O ) :   1.0521 B( 31-C , 32-O ) :   1.0568 B( 31-C , 39-C ) :   1.1094
B( 32-O , 33-C ) :   1.0544 B( 33-C , 34-C ) :   1.1969 B( 33-C , 37-C ) :   1.5771
B( 34-C , 35-C ) :   1.5742 B( 34-C , 38-O ) :   1.0582 B( 35-C , 36-S ) :   1.1390
B( 35-C , 72-H ) :   0.9724 B( 36-S , 37-C ) :   1.1414 B( 37-C , 73-H ) :   0.9712
B( 39-C , 40-C ) :   1.6683 B( 39-C , 74-H ) :   0.9446 B( 40-C , 41-C ) :   1.0873
B( 40-C , 75-H ) :   0.9822 B( 41-C , 42-C ) :   1.5012 B( 41-C , 58-C ) :   1.1250
B( 42-C , 43-C ) :   1.1088 B( 42-C , 76-H ) :   0.9953 B( 43-C , 44-C ) :   1.4703
B( 43-C , 56-C ) :   1.1276 B( 44-C , 45-C ) :   1.0141 B( 44-C , 50-C ) :   1.1117
B( 45-C , 46-C ) :   1.0479 B( 45-C , 48-C ) :   1.0375 B( 45-C , 77-H ) :   0.8849
B( 46-C , 47-N ) :   1.0834 B( 46-C , 78-H ) :   0.9377 B( 46-C , 79-H ) :   0.9319
B( 47-N , 80-H ) :   0.9715 B( 47-N , 81-H ) :   0.9685 B( 48-C , 49-N ) :   1.0954
B( 48-C , 82-H ) :   0.9330 B( 48-C , 83-H ) :   0.9317 B( 49-N , 84-H ) :   0.9703
B( 49-N , 85-H ) :   0.9644 B( 50-C , 51-C ) :   1.6459 B( 50-C , 55-C ) :   1.0534
B( 51-C , 52-C ) :   0.9755 B( 51-C , 86-H ) :   0.9732 B( 52-C , 53-C ) :   0.9929
B( 52-C , 59-C ) :   0.9594 B( 52-C , 87-H ) :   0.8770 B( 53-C , 54-C ) :   1.7201
B( 53-C , 88-H ) :   0.9724 B( 54-C , 55-C ) :   1.1261 B( 54-C , 89-H ) :   0.9893
B( 55-C , 56-C ) :   1.4405 B( 56-C , 57-C ) :   1.1374 B( 57-C , 58-C ) :   1.6179
B( 57-C , 90-H ) :   0.9893 B( 58-C , 91-H ) :   0.9826 B( 59-C , 60-C ) :   2.0054
B( 59-C , 92-H ) :   0.9643 B( 60-C , 93-H ) :   0.9601 B( 60-C , 94-H ) :   0.9529

-----------------------------------------------------------------------------
         ABSORPTION SPECTRUM VIA TRANSITION ELECTRIC DIPOLE MOMENTS
-----------------------------------------------------------------------------
State   Energy  Wavelength   fosc         T2         TX        TY        TZ
        (cm-1)    (nm)                  (au**2)     (au)      (au)      (au)
-----------------------------------------------------------------------------
   0   14806.6    675.4   0.016560044   0.36820  -0.16888  -0.48980   0.31588
   1   19015.9    525.9   1.028453516  17.80510   0.80669  -3.26859  -2.54375
   2   21152.8    472.8   0.058043179   0.90336   0.24349  -0.60107  -0.69482
   3   24027.6    416.2   0.821264277  11.25248   2.07938   2.63218   0.01718
   4   25599.3    390.6   0.140417424   1.80580   0.76162  -0.57513  -0.94603
   5   27011.0    370.2   0.144202664   1.75755  -0.65870  -1.14745  -0.08379
   6   28416.4    351.9   0.019973010   0.23139  -0.44339  -0.18587   0.01574
   7   29626.3    337.5   0.137532357   1.52828  -0.75011  -0.97924  -0.08194
   8   29664.4    337.1   0.003324008   0.03689  -0.03019  -0.17581   0.07121
   9   29944.6    333.9   0.042404236   0.46619  -0.16274   0.48960   0.44721
  10   31092.8    321.6   0.036062863   0.38184  -0.43038  -0.40609  -0.17804
  11   32412.0    308.5   0.329271162   3.34444   1.29468   1.11771  -0.64729
  12   33855.2    295.4   0.496181181   4.82492  -2.00352   0.05183   0.89898
  13   34275.2    291.8   0.211728206   2.03364  -1.22548  -0.22501   0.69370
  14   34422.6    290.5   0.084837800   0.81137  -0.89556  -0.09069   0.03355
  15   35717.5    280.0   0.043187281   0.39806  -0.48655  -0.37908   0.13278
  16   36048.1    277.4   0.079077943   0.72219   0.72180   0.33072  -0.30301
  17   36197.5    276.3   0.147475753   1.34127   0.83735   0.79922   0.03713
  18   36698.9    272.5   0.018114406   0.16250  -0.26693  -0.29823   0.04804
  19   37205.6    268.8   0.103870999   0.91910  -0.64782  -0.61437   0.34925
  20   37831.7    264.3   0.436904180   3.80195  -1.77376  -0.35133   0.72958
  21   38441.4    260.1   0.648876354   5.55698  -2.24887  -0.62519   0.32969
  22   38626.2    258.9   0.009417011   0.08026  -0.27363  -0.01614   0.07162
  23   38783.9    257.8   0.006275166   0.05327  -0.10679  -0.20294   0.02603
  24   38912.7    257.0   0.047463546   0.40155   0.58394   0.16787  -0.17997
  25   39412.3    253.7   0.093964981   0.78489  -0.62540  -0.49023   0.39171

FINAL SINGLE POINT ENERGY     -3286.776641021070

DIPOLE MOMENT
-------------
                                X             Y             Z
Electronic contribution:    -60.27334      39.97111      73.75638
Nuclear contribution   :     60.84812     -41.58712     -75.20638
                        -----------------------------------------
Total Dipole Moment    :      0.57478      -1.61601      -1.45000
                        -----------------------------------------
Magnitude (a.u.)       :      2.24597
Magnitude (Debye)      :      5.70879

Rotational constants in cm-1:     0.001115     0.000556     0.000388
Rotational constants in MHz :    33.425298    16.656728    11.636556

                             ****ORCA TERMINATED NORMALLY****
TOTAL RUN TIME: 0 days 0 hours 7 minutes 35 seconds 953 msec
