                         Program Version 4.2.0 -  RELEASE  -
|  1> # ORCA input file
|  2> # SCF done       -220.579161869744          0.000831869973
|  3> ! CAM-B3LYP def2-SVP def2/J RIJCOSX Grid4 TightSCF
|  4> %maxcore 5000
|  5> %tddft
|  6>     Mode sTDDFT
|  7>     Ethresh 5.0
|  8>     maxcore 5000
|  9> end
| 10>
| 11> %pal
| 12>   nprocs 6
| 13>   end
| 14> * xyz 0 1
| 15>    C       -7.88882         0.66989        -1.09232
| 16>    O       -8.58784         1.60983        -0.76503
| 17>    C       -7.98256        -0.04907        -2.38623
| 18>    C       -6.97605        -1.02453        -2.46782
| 19>    C       -6.86240        -1.82954        -3.58777
| 20>    C       -7.76843        -1.64526        -4.62359
| 21>    C       -8.76774        -0.67867        -4.55863
| 22>    C       -8.87604         0.12625        -3.42476
| 23>    F       -9.84550         1.04280        -3.37289
| 24>    F       -9.62050        -0.50802        -5.57818
| 25>    F       -7.68947        -2.42194        -5.70327
| 26>    C       -6.19544        -0.97557        -1.23098
| 27>    C       -5.04309        -1.68919        -1.01279
| 28>    C       -4.50494        -2.62338        -1.92296
| 29>    N       -4.01813        -3.40867        -2.60432
| 30>    C       -4.19506        -1.58262         0.11056
| 31>    N       -3.43087        -1.55442         0.96817
| 32>    C       -6.81014        -0.00298        -0.34984
| 33>    C       -6.45201         0.10232         0.98093
| 34>    C       -6.83206         0.96650         2.01939
| 35>    C       -7.62451         2.09941         1.92324
| 36>    C       -7.93773         2.93498         2.97596
| 37>    C       -7.44547         2.69988         4.33689
| 38>    C       -6.64955         1.66076         4.67962
| 39>    S       -6.11104         0.47675         3.56900
| 40>    C       -7.97076         3.76539         5.11133
| 41>    C       -8.73284         4.62371         4.30288
| 42>    C       -9.28959         5.68509         5.05713
| 43>    C       -8.94026         5.61160         6.36587
| 44>    S       -7.92786         4.25852         6.75293
| 45>    C       -8.71936         4.12334         2.96049
| 46>    C       -9.32698         4.64551         1.79840
| 47>    C       -9.93011         5.85851         1.68596
| 48>    C      -10.51044         6.35156         0.48826
| 49>    C      -10.68520         5.70270        -0.71041
| 50>    C      -11.28830         6.49547        -1.71240
| 51>    C      -11.56599         7.80381        -1.22935
| 52>    S      -11.10230         7.99991         0.43283
| 53>    C      -12.12703         8.84523        -1.95647
| 54>    O      -12.28291         9.99206        -1.24411
| 55>    C      -12.79689        11.15994        -1.83180
| 56>    C      -12.45104         8.57571        -3.30125
| 57>    C      -12.19615         7.25961        -3.76937
| 58>    C      -11.63729         6.21576        -3.04890
| 59>    O      -11.52272         5.06758        -3.75531
| 60>    C      -10.84376         3.94601        -3.23987
| 61>    S      -12.62355         7.04618        -5.43600
| 62>    C      -13.10795         8.72972        -5.54135
| 63>    C      -12.97281         9.38185        -4.34438
| 64>    C      -13.47773         9.27387        -6.80717
| 65>    C      -13.37487         8.51564        -7.95147
| 66>    C      -13.51520         8.99564        -9.24598
| 67>    C      -14.08092        10.32194        -9.48884
| 68>    C      -14.32458        11.22124        -8.50712
| 69>    S      -13.96766        10.94831        -6.85075
| 70>    C      -14.23962        10.41256       -10.90177
| 71>    C      -13.74169         9.25958       -11.50746
| 72>    C      -13.83131         9.31623       -12.91389
| 73>    C      -14.39006        10.48394       -13.33096
| 74>    S      -14.81410        11.55962       -12.04494
| 75>    C      -13.23291         8.37032       -10.48769
| 76>    C      -12.44219         7.24090       -10.73946
| 77>    C      -11.65179         6.61499        -9.80252
| 78>    C      -10.78305         5.56259       -10.06314
| 79>    C       -9.93367         4.94711        -9.16086
| 80>    C       -9.30382         3.67841        -9.58377
| 81>    O       -9.31462         3.19667       -10.69253
| 82>    C       -8.68113         3.11835        -8.35578
| 83>    C       -8.87603         4.01789        -7.29413
| 84>    C       -9.57509         5.21310        -7.79636
| 85>    C       -9.67946         6.37140        -7.05399
| 86>    C       -9.29726         6.49158        -5.70138
| 87>    N       -9.03744         6.69124        -4.59933
| 88>    C      -10.08815         7.65152        -7.47513
| 89>    N      -10.35861         8.75046        -7.68544
| 90>    C       -8.40141         3.71623        -6.02960
| 91>    C       -7.72595         2.51860        -5.85340
| 92>    C       -7.51630         1.62328        -6.89543
| 93>    C       -8.00622         1.92613        -8.16819
| 94>    F       -7.80323         1.07227        -9.16513
| 95>    F       -6.84598         0.48529        -6.67333
| 96>    F       -7.24976         2.21185        -4.63498
| 97>    H       -6.10789        -2.59097        -3.69239
| 98>    H       -5.74344        -0.65002         1.30993
| 99>    H       -8.01512         2.32312         0.94161
|100>    H       -6.29300         1.51049         5.68672
|101>    H       -9.92308         6.46172         4.67082
|102>    H       -9.21848         6.28038         7.15684
|103>    H       -9.27033         4.01644         0.92187
|104>    H       -9.95476         6.53029         2.53005
|105>    H      -10.38302         4.68270        -0.84204
|106>    H      -12.80357        11.90055        -1.03256
|107>    H      -13.81955        11.01294        -2.19195
|108>    H      -12.15658        11.51632        -2.64391
|109>    H      -10.82746         3.22532        -4.05525
|110>    H      -11.37615         3.50464        -2.39416
|111>    H       -9.81981         4.19426        -2.95208
|112>    H      -13.22298        10.42236        -4.25726
|113>    H      -13.16280         7.46914        -7.79702
|114>    H      -14.72064        12.20463        -8.70484
|115>    H      -13.50957         8.54125       -13.58532
|116>    H      -14.58582        10.79437       -14.33867
|117>    H      -12.37915         6.91024       -11.76914
|118>    H      -11.66242         6.98829        -8.79739
|119>    H      -10.78737         5.11520       -11.05168
|120>    H       -8.53032         4.36504        -5.18128
|121> *
|122>
|123>                          ****END OF INPUT****

CARTESIAN COORDINATES (ANGSTROEM)
---------------------------------
  C     -7.888820    0.669890   -1.092320
  O     -8.587840    1.609830   -0.765030
  C     -7.982560   -0.049070   -2.386230
  C     -6.976050   -1.024530   -2.467820
  C     -6.862400   -1.829540   -3.587770
  C     -7.768430   -1.645260   -4.623590
  C     -8.767740   -0.678670   -4.558630
  C     -8.876040    0.126250   -3.424760
  F     -9.845500    1.042800   -3.372890
  F     -9.620500   -0.508020   -5.578180
  F     -7.689470   -2.421940   -5.703270
  C     -6.195440   -0.975570   -1.230980
  C     -5.043090   -1.689190   -1.012790
  C     -4.504940   -2.623380   -1.922960
  N     -4.018130   -3.408670   -2.604320
  C     -4.195060   -1.582620    0.110560
  N     -3.430870   -1.554420    0.968170
  C     -6.810140   -0.002980   -0.349840
  C     -6.452010    0.102320    0.980930
  C     -6.832060    0.966500    2.019390
  C     -7.624510    2.099410    1.923240
  C     -7.937730    2.934980    2.975960
  C     -7.445470    2.699880    4.336890
  C     -6.649550    1.660760    4.679620
  S     -6.111040    0.476750    3.569000
  C     -7.970760    3.765390    5.111330
  C     -8.732840    4.623710    4.302880
  C     -9.289590    5.685090    5.057130
  C     -8.940260    5.611600    6.365870
  S     -7.927860    4.258520    6.752930
  C     -8.719360    4.123340    2.960490
  C     -9.326980    4.645510    1.798400
  C     -9.930110    5.858510    1.685960
  C    -10.510440    6.351560    0.488260
  C    -10.685200    5.702700   -0.710410
  C    -11.288300    6.495470   -1.712400
  C    -11.565990    7.803810   -1.229350
  S    -11.102300    7.999910    0.432830
  C    -12.127030    8.845230   -1.956470
  O    -12.282910    9.992060   -1.244110
  C    -12.796890   11.159940   -1.831800
  C    -12.451040    8.575710   -3.301250
  C    -12.196150    7.259610   -3.769370
  C    -11.637290    6.215760   -3.048900
  O    -11.522720    5.067580   -3.755310
  C    -10.843760    3.946010   -3.239870
  S    -12.623550    7.046180   -5.436000
  C    -13.107950    8.729720   -5.541350
  C    -12.972810    9.381850   -4.344380
  C    -13.477730    9.273870   -6.807170
  C    -13.374870    8.515640   -7.951470
  C    -13.515200    8.995640   -9.245980
  C    -14.080920   10.321940   -9.488840
  C    -14.324580   11.221240   -8.507120
  S    -13.967660   10.948310   -6.850750
  C    -14.239620   10.412560  -10.901770
  C    -13.741690    9.259580  -11.507460
  C    -13.831310    9.316230  -12.913890
  C    -14.390060   10.483940  -13.330960
  S    -14.814100   11.559620  -12.044940
  C    -13.232910    8.370320  -10.487690
  C    -12.442190    7.240900  -10.739460
  C    -11.651790    6.614990   -9.802520
  C    -10.783050    5.562590  -10.063140
  C     -9.933670    4.947110   -9.160860
  C     -9.303820    3.678410   -9.583770
  O     -9.314620    3.196670  -10.692530
  C     -8.681130    3.118350   -8.355780
  C     -8.876030    4.017890   -7.294130
  C     -9.575090    5.213100   -7.796360
  C     -9.679460    6.371400   -7.053990
  C     -9.297260    6.491580   -5.701380
  N     -9.037440    6.691240   -4.599330
  C    -10.088150    7.651520   -7.475130
  N    -10.358610    8.750460   -7.685440
  C     -8.401410    3.716230   -6.029600
  C     -7.725950    2.518600   -5.853400
  C     -7.516300    1.623280   -6.895430
  C     -8.006220    1.926130   -8.168190
  F     -7.803230    1.072270   -9.165130
  F     -6.845980    0.485290   -6.673330
  F     -7.249760    2.211850   -4.634980
  H     -6.107890   -2.590970   -3.692390
  H     -5.743440   -0.650020    1.309930
  H     -8.015120    2.323120    0.941610
  H     -6.293000    1.510490    5.686720
  H     -9.923080    6.461720    4.670820
  H     -9.218480    6.280380    7.156840
  H     -9.270330    4.016440    0.921870
  H     -9.954760    6.530290    2.530050
  H    -10.383020    4.682700   -0.842040
  H    -12.803570   11.900550   -1.032560
  H    -13.819550   11.012940   -2.191950
  H    -12.156580   11.516320   -2.643910
  H    -10.827460    3.225320   -4.055250
  H    -11.376150    3.504640   -2.394160
  H     -9.819810    4.194260   -2.952080
  H    -13.222980   10.422360   -4.257260
  H    -13.162800    7.469140   -7.797020
  H    -14.720640   12.204630   -8.704840
  H    -13.509570    8.541250  -13.585320
  H    -14.585820   10.794370  -14.338670
  H    -12.379150    6.910240  -11.769140
  H    -11.662420    6.988290   -8.797390
  H    -10.787370    5.115200  -11.051680
  H     -8.530320    4.365040   -5.181280

 Total Charge           Charge          ....    0
 Multiplicity           Mult            ....    1
 Number of Electrons    NEL             ....  606
 Basis Dimension        Dim             .... 1292

ORBITAL ENERGIES
----------------

  NO   OCC          E(Eh)            E(eV)
   0   2.0000     -88.993509     -2421.6365
   1   2.0000     -88.976068     -2421.1619
   2   2.0000     -88.967965     -2420.9414
   3   2.0000     -88.963430     -2420.8180
   4   2.0000     -88.953706     -2420.5534
   5   2.0000     -88.943790     -2420.2836
   6   2.0000     -24.815026      -675.2512
   7   2.0000     -24.811317      -675.1503
   8   2.0000     -24.808933      -675.0854
   9   2.0000     -24.808198      -675.0654
  10   2.0000     -24.804020      -674.9517
  11   2.0000     -24.799898      -674.8395
  12   2.0000     -19.251981      -523.8730
  13   2.0000     -19.247456      -523.7499
  14   2.0000     -19.226269      -523.1734
  15   2.0000     -19.203719      -522.5598
  16   2.0000     -14.416725      -392.2990
  17   2.0000     -14.414549      -392.2398
  18   2.0000     -14.406754      -392.0277
  19   2.0000     -14.406667      -392.0253
  20   2.0000     -10.396461      -282.9021
  21   2.0000     -10.392032      -282.7816
  22   2.0000     -10.389813      -282.7212
  23   2.0000     -10.388838      -282.6947
  24   2.0000     -10.387379      -282.6550
  25   2.0000     -10.384885      -282.5871
  26   2.0000     -10.381776      -282.5025
  27   2.0000     -10.358680      -281.8740
  28   2.0000     -10.344666      -281.4927
  29   2.0000     -10.343923      -281.4725
  30   2.0000     -10.343048      -281.4487
  31   2.0000     -10.339463      -281.3511
  32   2.0000     -10.338456      -281.3237
  33   2.0000     -10.336470      -281.2696
  34   2.0000     -10.334999      -281.2296
  35   2.0000     -10.333720      -281.1948
  36   2.0000     -10.332789      -281.1695
  37   2.0000     -10.330431      -281.1053
  38   2.0000     -10.325924      -280.9827
  39   2.0000     -10.325549      -280.9725
  40   2.0000     -10.322619      -280.8927
  41   2.0000     -10.319519      -280.8084
  42   2.0000     -10.317572      -280.7554
  43   2.0000     -10.317075      -280.7419
  44   2.0000     -10.315440      -280.6974
  45   2.0000     -10.315341      -280.6947
  46   2.0000     -10.312135      -280.6075
  47   2.0000     -10.311580      -280.5924
  48   2.0000     -10.311502      -280.5902
  49   2.0000     -10.307329      -280.4767
  50   2.0000     -10.307135      -280.4714
  51   2.0000     -10.306266      -280.4478
  52   2.0000     -10.305619      -280.4302
  53   2.0000     -10.305055      -280.4148
  54   2.0000     -10.304978      -280.4127
  55   2.0000     -10.303774      -280.3800
  56   2.0000     -10.303474      -280.3718
  57   2.0000     -10.303438      -280.3708
  58   2.0000     -10.303414      -280.3701
  59   2.0000     -10.301863      -280.3279
  60   2.0000     -10.301169      -280.3091
  61   2.0000     -10.300526      -280.2916
  62   2.0000     -10.300516      -280.2913
  63   2.0000     -10.296856      -280.1917
  64   2.0000     -10.296765      -280.1892
  65   2.0000     -10.294984      -280.1408
  66   2.0000     -10.294358      -280.1237
  67   2.0000     -10.293892      -280.1110
  68   2.0000     -10.292008      -280.0598
  69   2.0000     -10.291479      -280.0454
  70   2.0000     -10.291426      -280.0439
  71   2.0000     -10.289793      -279.9995
  72   2.0000     -10.287507      -279.9373
  73   2.0000     -10.286829      -279.9188
  74   2.0000     -10.286567      -279.9117
  75   2.0000     -10.284431      -279.8536
  76   2.0000     -10.283180      -279.8195
  77   2.0000     -10.282643      -279.8049
  78   2.0000     -10.281305      -279.7685
  79   2.0000     -10.279205      -279.7114
  80   2.0000     -10.274534      -279.5843
  81   2.0000     -10.272251      -279.5221
  82   2.0000      -8.088488      -220.0989
  83   2.0000      -8.071593      -219.6392
  84   2.0000      -8.063667      -219.4235
  85   2.0000      -8.058941      -219.2949
  86   2.0000      -8.047846      -218.9930
  87   2.0000      -8.039199      -218.7577
  88   2.0000      -6.057891      -164.8436
  89   2.0000      -6.053328      -164.7194
  90   2.0000      -6.050792      -164.6504
  91   2.0000      -6.041094      -164.3865
  92   2.0000      -6.036667      -164.2661
  93   2.0000      -6.033385      -164.1768
  94   2.0000      -6.033093      -164.1688
  95   2.0000      -6.028810      -164.0523
  96   2.0000      -6.028397      -164.0410
  97   2.0000      -6.025652      -163.9663
  98   2.0000      -6.024119      -163.9246
  99   2.0000      -6.020934      -163.8379
 100   2.0000      -6.017617      -163.7477
 101   2.0000      -6.013503      -163.6357
 102   2.0000      -6.009127      -163.5167
 103   2.0000      -6.008758      -163.5066
 104   2.0000      -6.004781      -163.3984
 105   2.0000      -6.000580      -163.2841
 106   2.0000      -1.337067       -36.3834
 107   2.0000      -1.331782       -36.2396
 108   2.0000      -1.325568       -36.0705
 109   2.0000      -1.319754       -35.9123
 110   2.0000      -1.313847       -35.7516
 111   2.0000      -1.310244       -35.6536
 112   2.0000      -1.155912       -31.4540
 113   2.0000      -1.151197       -31.3257
 114   2.0000      -1.140969       -31.0473
 115   2.0000      -1.120679       -30.4952
 116   2.0000      -1.024089       -27.8669
 117   2.0000      -1.018701       -27.7203
 118   2.0000      -1.016458       -27.6592
 119   2.0000      -1.013514       -27.5791
 120   2.0000      -1.005720       -27.3670
 121   2.0000      -1.000675       -27.2298
 122   2.0000      -0.997243       -27.1364
 123   2.0000      -0.994071       -27.0500
 124   2.0000      -0.986284       -26.8382
 125   2.0000      -0.984814       -26.7981
 126   2.0000      -0.981143       -26.6983
 127   2.0000      -0.971662       -26.4403
 128   2.0000      -0.960919       -26.1479
 129   2.0000      -0.951336       -25.8872
 130   2.0000      -0.940423       -25.5902
 131   2.0000      -0.938635       -25.5416
 132   2.0000      -0.921725       -25.0814
 133   2.0000      -0.912742       -24.8370
 134   2.0000      -0.906211       -24.6593
 135   2.0000      -0.903643       -24.5894
 136   2.0000      -0.895256       -24.3611
 137   2.0000      -0.892781       -24.2938
 138   2.0000      -0.877066       -23.8662
 139   2.0000      -0.875837       -23.8327
 140   2.0000      -0.874180       -23.7877
 141   2.0000      -0.867344       -23.6016
 142   2.0000      -0.864674       -23.5290
 143   2.0000      -0.864163       -23.5151
 144   2.0000      -0.849730       -23.1223
 145   2.0000      -0.845135       -22.9973
 146   2.0000      -0.840401       -22.8685
 147   2.0000      -0.828106       -22.5339
 148   2.0000      -0.825835       -22.4721
 149   2.0000      -0.815709       -22.1966
 150   2.0000      -0.807055       -21.9611
 151   2.0000      -0.804489       -21.8913
 152   2.0000      -0.794885       -21.6299
 153   2.0000      -0.791393       -21.5349
 154   2.0000      -0.780480       -21.2379
 155   2.0000      -0.778149       -21.1745
 156   2.0000      -0.771611       -20.9966
 157   2.0000      -0.765367       -20.8267
 158   2.0000      -0.744932       -20.2706
 159   2.0000      -0.743048       -20.2194
 160   2.0000      -0.742302       -20.1991
 161   2.0000      -0.736204       -20.0331
 162   2.0000      -0.724945       -19.7268
 163   2.0000      -0.721792       -19.6410
 164   2.0000      -0.717300       -19.5187
 165   2.0000      -0.709456       -19.3053
 166   2.0000      -0.702794       -19.1240
 167   2.0000      -0.689390       -18.7593
 168   2.0000      -0.680240       -18.5103
 169   2.0000      -0.679681       -18.4951
 170   2.0000      -0.678752       -18.4698
 171   2.0000      -0.674567       -18.3559
 172   2.0000      -0.668938       -18.2027
 173   2.0000      -0.666569       -18.1383
 174   2.0000      -0.659000       -17.9323
 175   2.0000      -0.656041       -17.8518
 176   2.0000      -0.654964       -17.8225
 177   2.0000      -0.651401       -17.7255
 178   2.0000      -0.649962       -17.6864
 179   2.0000      -0.648231       -17.6393
 180   2.0000      -0.642712       -17.4891
 181   2.0000      -0.638447       -17.3730
 182   2.0000      -0.636767       -17.3273
 183   2.0000      -0.633320       -17.2335
 184   2.0000      -0.626923       -17.0594
 185   2.0000      -0.626235       -17.0407
 186   2.0000      -0.615500       -16.7486
 187   2.0000      -0.612166       -16.6579
 188   2.0000      -0.611689       -16.6449
 189   2.0000      -0.607929       -16.5426
 190   2.0000      -0.606523       -16.5043
 191   2.0000      -0.599185       -16.3046
 192   2.0000      -0.593791       -16.1579
 193   2.0000      -0.591430       -16.0936
 194   2.0000      -0.590532       -16.0692
 195   2.0000      -0.588494       -16.0137
 196   2.0000      -0.584719       -15.9110
 197   2.0000      -0.582324       -15.8458
 198   2.0000      -0.577697       -15.7199
 199   2.0000      -0.576661       -15.6918
 200   2.0000      -0.575123       -15.6499
 201   2.0000      -0.574410       -15.6305
 202   2.0000      -0.564919       -15.3722
 203   2.0000      -0.564733       -15.3672
 204   2.0000      -0.563618       -15.3368
 205   2.0000      -0.562948       -15.3186
 206   2.0000      -0.559804       -15.2330
 207   2.0000      -0.554461       -15.0877
 208   2.0000      -0.553641       -15.0653
 209   2.0000      -0.550264       -14.9734
 210   2.0000      -0.546757       -14.8780
 211   2.0000      -0.545594       -14.8464
 212   2.0000      -0.539361       -14.6767
 213   2.0000      -0.536610       -14.6019
 214   2.0000      -0.535582       -14.5739
 215   2.0000      -0.533853       -14.5269
 216   2.0000      -0.532743       -14.4967
 217   2.0000      -0.531619       -14.4661
 218   2.0000      -0.530429       -14.4337
 219   2.0000      -0.524793       -14.2804
 220   2.0000      -0.524538       -14.2734
 221   2.0000      -0.521609       -14.1937
 222   2.0000      -0.521216       -14.1830
 223   2.0000      -0.520206       -14.1555
 224   2.0000      -0.519488       -14.1360
 225   2.0000      -0.517918       -14.0933
 226   2.0000      -0.512404       -13.9432
 227   2.0000      -0.509450       -13.8628
 228   2.0000      -0.508167       -13.8279
 229   2.0000      -0.503665       -13.7054
 230   2.0000      -0.502502       -13.6738
 231   2.0000      -0.499736       -13.5985
 232   2.0000      -0.496308       -13.5052
 233   2.0000      -0.495181       -13.4746
 234   2.0000      -0.492451       -13.4003
 235   2.0000      -0.489401       -13.3173
 236   2.0000      -0.487718       -13.2715
 237   2.0000      -0.483382       -13.1535
 238   2.0000      -0.481449       -13.1009
 239   2.0000      -0.477467       -12.9925
 240   2.0000      -0.475916       -12.9503
 241   2.0000      -0.474733       -12.9181
 242   2.0000      -0.469571       -12.7777
 243   2.0000      -0.468803       -12.7568
 244   2.0000      -0.467833       -12.7304
 245   2.0000      -0.463772       -12.6199
 246   2.0000      -0.463358       -12.6086
 247   2.0000      -0.461015       -12.5449
 248   2.0000      -0.457748       -12.4560
 249   2.0000      -0.455724       -12.4009
 250   2.0000      -0.455269       -12.3885
 251   2.0000      -0.452793       -12.3211
 252   2.0000      -0.448800       -12.2125
 253   2.0000      -0.448135       -12.1944
 254   2.0000      -0.446340       -12.1455
 255   2.0000      -0.445700       -12.1281
 256   2.0000      -0.444726       -12.1016
 257   2.0000      -0.443473       -12.0675
 258   2.0000      -0.442030       -12.0283
 259   2.0000      -0.440476       -11.9860
 260   2.0000      -0.439575       -11.9614
 261   2.0000      -0.438207       -11.9242
 262   2.0000      -0.434656       -11.8276
 263   2.0000      -0.432964       -11.7816
 264   2.0000      -0.431783       -11.7494
 265   2.0000      -0.428461       -11.6590
 266   2.0000      -0.427078       -11.6214
 267   2.0000      -0.425774       -11.5859
 268   2.0000      -0.424722       -11.5573
 269   2.0000      -0.422308       -11.4916
 270   2.0000      -0.421091       -11.4585
 271   2.0000      -0.419124       -11.4050
 272   2.0000      -0.416455       -11.3323
 273   2.0000      -0.412616       -11.2279
 274   2.0000      -0.411550       -11.1988
 275   2.0000      -0.407063       -11.0767
 276   2.0000      -0.405080       -11.0228
 277   2.0000      -0.402398       -10.9498
 278   2.0000      -0.396350       -10.7852
 279   2.0000      -0.395010       -10.7488
 280   2.0000      -0.394055       -10.7228
 281   2.0000      -0.388419       -10.5694
 282   2.0000      -0.380667       -10.3585
 283   2.0000      -0.376201       -10.2369
 284   2.0000      -0.352140        -9.5822
 285   2.0000      -0.348442        -9.4816
 286   2.0000      -0.346066        -9.4169
 287   2.0000      -0.345950        -9.4138
 288   2.0000      -0.338182        -9.2024
 289   2.0000      -0.336724        -9.1627
 290   2.0000      -0.336138        -9.1468
 291   2.0000      -0.334834        -9.1113
 292   2.0000      -0.329788        -8.9740
 293   2.0000      -0.321654        -8.7526
 294   2.0000      -0.318845        -8.6762
 295   2.0000      -0.314901        -8.5689
 296   2.0000      -0.301242        -8.1972
 297   2.0000      -0.299909        -8.1609
 298   2.0000      -0.285167        -7.7598
 299   2.0000      -0.277363        -7.5474
 300   2.0000      -0.246098        -6.6967
 301   2.0000      -0.241703        -6.5771
 302   2.0000      -0.222724        -6.0606
 303   0.0000      -0.104408        -2.8411
 304   0.0000      -0.093276        -2.5382
 305   0.0000      -0.071433        -1.9438
 306   0.0000      -0.064411        -1.7527
 307   0.0000      -0.047907        -1.3036

MULLIKEN ATOMIC CHARGES
-----------------------
   0 C :    0.166065
   1 O :   -0.166933
   2 C :   -0.058218
   3 C :    0.065038
   4 C :   -0.104086
   5 C :    0.248601
   6 C :    0.137206
   7 C :    0.151124
   8 F :   -0.154604
   9 F :   -0.163839
  10 F :   -0.154724
  11 C :    0.288215
  12 C :   -0.347238
  13 C :   -0.189270
  14 N :    0.152177
  15 C :   -0.206822
  16 N :    0.164004
  17 C :   -0.090308
  18 C :    0.041499
  19 C :   -0.123795
  20 C :   -0.004565
  21 C :    0.028298
  22 C :    0.060058
  23 C :   -0.112597
  24 S :    0.144329
  25 C :   -0.098361
  26 C :    0.038901
  27 C :    0.004707
  28 C :   -0.064999
  29 S :    0.139472
  30 C :    0.119304
  31 C :   -0.025162
  32 C :    0.058463
  33 C :   -0.040896
  34 C :   -0.098635
  35 C :    0.076768
  36 C :   -0.140795
  37 S :    0.138925
  38 C :    0.126044
  39 O :   -0.310587
  40 C :    0.181399
  41 C :    0.093319
  42 C :   -0.155081
  43 C :    0.186781
  44 O :   -0.318505
  45 C :    0.167387
  46 S :    0.113069
  47 C :   -0.010429
  48 C :   -0.109930
  49 C :    0.006185
  50 C :   -0.082190
  51 C :    0.073749
  52 C :    0.072190
  53 C :   -0.123181
  54 S :    0.157934
  55 C :   -0.115650
  56 C :    0.062005
  57 C :    0.008058
  58 C :   -0.066466
  59 S :    0.134388
  60 C :    0.071477
  61 C :    0.016978
  62 C :    0.000737
  63 C :    0.038807
  64 C :   -0.139700
  65 C :    0.126754
  66 O :   -0.133335
  67 C :   -0.073640
  68 C :    0.045292
  69 C :    0.325259
  70 C :   -0.364172
  71 C :   -0.172218
  72 N :    0.131179
  73 C :   -0.221406
  74 N :    0.165550
  75 C :   -0.102148
  76 C :    0.223818
  77 C :    0.155474
  78 C :    0.156147
  79 F :   -0.138710
  80 F :   -0.164014
  81 F :   -0.174801
  82 H :    0.016173
  83 H :    0.018185
  84 H :    0.003926
  85 H :    0.039389
  86 H :   -0.005882
  87 H :    0.031085
  88 H :   -0.008738
  89 H :   -0.040156
  90 H :   -0.024467
  91 H :    0.039370
  92 H :    0.027491
  93 H :    0.033926
  94 H :    0.034902
  95 H :    0.036501
  96 H :    0.047114
  97 H :   -0.025894
  98 H :    0.027899
  99 H :    0.040599
 100 H :   -0.013578
 101 H :    0.030380
 102 H :   -0.013398
 103 H :   -0.040878
 104 H :    0.005677
 105 H :   -0.000748
Sum of atomic charges:   -0.0000000

LOEWDIN ATOMIC CHARGES
----------------------
   0 C :    0.091493
   1 O :   -0.152822
   2 C :   -0.077178
   3 C :   -0.000753
   4 C :   -0.028227
   5 C :    0.080830
   6 C :    0.033436
   7 C :    0.082385
   8 F :   -0.027902
   9 F :   -0.039936
  10 F :   -0.032263
  11 C :    0.074010
  12 C :   -0.140303
  13 C :   -0.019965
  14 N :   -0.049916
  15 C :   -0.027795
  16 N :   -0.047591
  17 C :   -0.111474
  18 C :    0.044516
  19 C :   -0.191673
  20 C :    0.038599
  21 C :   -0.035891
  22 C :   -0.063708
  23 C :   -0.129148
  24 S :    0.457286
  25 C :   -0.177562
  26 C :   -0.043911
  27 C :   -0.059816
  28 C :   -0.158617
  29 S :    0.431959
  30 C :   -0.003933
  31 C :   -0.015565
  32 C :   -0.024618
  33 C :   -0.157799
  34 C :   -0.049021
  35 C :   -0.059792
  36 C :   -0.169850
  37 S :    0.413524
  38 C :    0.023884
  39 O :   -0.105634
  40 C :    0.078285
  41 C :   -0.071596
  42 C :   -0.166841
  43 C :    0.029558
  44 O :   -0.102073
  45 C :    0.075387
  46 S :    0.440335
  47 C :   -0.175899
  48 C :   -0.051052
  49 C :   -0.143607
  50 C :   -0.025183
  51 C :    0.024469
  52 C :   -0.038908
  53 C :   -0.140683
  54 S :    0.492598
  55 C :   -0.209272
  56 C :   -0.032986
  57 C :   -0.062884
  58 C :   -0.160944
  59 S :    0.427255
  60 C :   -0.066593
  61 C :    0.051970
  62 C :   -0.060581
  63 C :    0.067815
  64 C :   -0.121509
  65 C :    0.079230
  66 O :   -0.141784
  67 C :   -0.078965
  68 C :    0.004737
  69 C :    0.063029
  70 C :   -0.152494
  71 C :   -0.017998
  72 N :   -0.068153
  73 C :   -0.027638
  74 N :   -0.066911
  75 C :   -0.036958
  76 C :    0.071250
  77 C :    0.031579
  78 C :    0.086785
  79 F :   -0.022163
  80 F :   -0.038916
  81 F :   -0.047498
  82 H :    0.052622
  83 H :    0.041199
  84 H :    0.037451
  85 H :    0.038648
  86 H :    0.031727
  87 H :    0.026177
  88 H :    0.034932
  89 H :    0.025568
  90 H :    0.028918
  91 H :    0.031655
  92 H :    0.015617
  93 H :    0.017731
  94 H :    0.023496
  95 H :    0.018645
  96 H :    0.018225
  97 H :    0.019675
  98 H :    0.030952
  99 H :    0.038563
 100 H :    0.031840
 101 H :    0.025057
 102 H :    0.035522
 103 H :    0.023434
 104 H :    0.041134
 105 H :    0.047763

  Mayer bond orders larger than 0.100000
B(  0-C ,  1-O ) :   2.1430 B(  0-C ,  2-C ) :   0.9519 B(  0-C , 17-C ) :   0.9697
B(  1-O , 84-H ) :   0.1077 B(  2-C ,  3-C ) :   1.3649 B(  2-C ,  7-C ) :   1.2725
B(  3-C ,  4-C ) :   1.3276 B(  3-C , 11-C ) :   0.9935 B(  4-C ,  5-C ) :   1.3213
B(  4-C , 82-H ) :   0.9977 B(  5-C ,  6-C ) :   1.3006 B(  5-C , 10-F ) :   1.1586
B(  6-C ,  7-C ) :   1.2663 B(  6-C ,  9-F ) :   1.1528 B(  7-C ,  8-F ) :   1.1891
B( 11-C , 12-C ) :   1.6112 B( 11-C , 17-C ) :   1.1192 B( 12-C , 13-C ) :   1.1458
B( 12-C , 15-C ) :   1.1412 B( 13-C , 14-N ) :   2.9728 B( 15-C , 16-N ) :   2.9910
B( 17-C , 18-C ) :   1.5046 B( 18-C , 19-C ) :   1.2818 B( 18-C , 83-H ) :   0.9153
B( 19-C , 20-C ) :   1.4170 B( 19-C , 24-S ) :   1.0284 B( 20-C , 21-C ) :   1.3395
B( 20-C , 84-H ) :   0.9349 B( 21-C , 22-C ) :   1.0271 B( 21-C , 30-C ) :   1.2937
B( 22-C , 23-C ) :   1.5850 B( 22-C , 25-C ) :   1.2030 B( 23-C , 24-S ) :   1.1667
B( 23-C , 85-H ) :   0.9424 B( 25-C , 26-C ) :   1.4079 B( 25-C , 29-S ) :   1.0937
B( 26-C , 27-C ) :   1.1989 B( 26-C , 30-C ) :   1.1224 B( 27-C , 28-C ) :   1.6074
B( 27-C , 86-H ) :   0.9999 B( 28-C , 29-S ) :   1.1392 B( 28-C , 87-H ) :   0.9645
B( 30-C , 31-C ) :   1.2009 B( 31-C , 32-C ) :   1.6241 B( 31-C , 88-H ) :   0.9591
B( 32-C , 33-C ) :   1.1164 B( 32-C , 89-H ) :   0.9697 B( 33-C , 34-C ) :   1.5531
B( 33-C , 37-S ) :   1.0577 B( 34-C , 35-C ) :   1.1812 B( 34-C , 90-H ) :   0.9904
B( 35-C , 36-C ) :   1.3250 B( 35-C , 43-C ) :   1.2007 B( 36-C , 37-S ) :   1.0488
B( 36-C , 38-C ) :   1.4150 B( 38-C , 39-O ) :   1.2533 B( 38-C , 41-C ) :   1.2037
B( 39-O , 40-C ) :   0.9549 B( 40-C , 91-H ) :   0.9742 B( 40-C , 92-H ) :   0.9676
B( 40-C , 93-H ) :   0.9676 B( 41-C , 42-C ) :   1.3060 B( 41-C , 48-C ) :   1.1756
B( 42-C , 43-C ) :   1.4192 B( 42-C , 46-S ) :   1.0479 B( 43-C , 44-O ) :   1.2439
B( 44-O , 45-C ) :   0.9342 B( 45-C , 94-H ) :   0.9689 B( 45-C , 95-H ) :   0.9666
B( 45-C , 96-H ) :   0.9607 B( 46-S , 47-C ) :   1.0568 B( 47-C , 48-C ) :   1.5572
B( 47-C , 49-C ) :   1.1604 B( 48-C , 97-H ) :   0.9816 B( 49-C , 50-C ) :   1.4660
B( 49-C , 54-S ) :   1.1036 B( 50-C , 51-C ) :   1.2852 B( 50-C , 98-H ) :   0.9507
B( 51-C , 52-C ) :   1.1031 B( 51-C , 60-C ) :   1.2900 B( 52-C , 53-C ) :   1.5855
B( 52-C , 55-C ) :   1.1566 B( 53-C , 54-S ) :   1.1539 B( 53-C , 99-H ) :   0.9393
B( 55-C , 56-C ) :   1.4616 B( 55-C , 59-S ) :   1.0767 B( 56-C , 57-C ) :   1.2317
B( 56-C , 60-C ) :   1.0704 B( 57-C , 58-C ) :   1.5778 B( 57-C ,100-H ) :   0.9986
B( 58-C , 59-S ) :   1.1626 B( 58-C ,101-H ) :   0.9667 B( 60-C , 61-C ) :   1.2548
B( 61-C , 62-C ) :   1.4658 B( 61-C ,102-H ) :   0.9771 B( 62-C , 63-C ) :   1.2633
B( 62-C ,103-H ) :   0.9543 B( 63-C , 64-C ) :   1.4556 B( 63-C ,104-H ) :   0.9593
B( 64-C , 65-C ) :   0.9757 B( 64-C , 69-C ) :   1.1150 B( 65-C , 66-O ) :   2.2847
B( 65-C , 67-C ) :   0.8996 B( 67-C , 68-C ) :   1.3673 B( 67-C , 78-C ) :   1.2808
B( 68-C , 69-C ) :   1.0036 B( 68-C , 75-C ) :   1.3383 B( 69-C , 70-C ) :   1.5594
B( 70-C , 71-C ) :   1.1458 B( 70-C , 73-C ) :   1.1854 B( 71-C , 72-N ) :   2.9115
B( 73-C , 74-N ) :   2.9588 B( 75-C , 76-C ) :   1.3208 B( 75-C ,105-H ) :   0.9917
B( 76-C , 77-C ) :   1.3152 B( 76-C , 81-F ) :   1.1107 B( 77-C , 78-C ) :   1.2550
B( 77-C , 80-F ) :   1.1372 B( 78-C , 79-F ) :   1.2486

-----------------------------------------------------------------------------
         ABSORPTION SPECTRUM VIA TRANSITION ELECTRIC DIPOLE MOMENTS
-----------------------------------------------------------------------------
State   Energy  Wavelength   fosc         T2         TX        TY        TZ
        (cm-1)    (nm)                  (au**2)     (au)      (au)      (au)
-----------------------------------------------------------------------------
   0   11539.0    866.6   0.216242475   6.16947   1.05532  -1.82378   1.31514
   1   13248.0    754.8   0.463524204  11.51855  -1.98523   2.60933   0.87684
   2   16487.7    606.5   0.121306729   2.42215  -1.31509   0.59043  -0.58659
   3   17156.7    582.9   0.427540183   8.20388  -1.23230   2.00086   1.63764
   4   18814.5    531.5   0.032224805   0.56386   0.17243  -0.46355   0.56503
   5   19803.4    505.0   0.224408986   3.73057  -0.36304  -0.11222  -1.89372
   6   20674.6    483.7   0.040329775   0.64219   0.33450  -0.33518   0.64649
   7   20932.8    477.7   0.440704536   6.93098   1.11125  -1.04960   2.14347
   8   21940.0    455.8   0.050771376   0.76183   0.38328  -0.68234  -0.38643
   9   22662.7    441.3   0.020783652   0.30192  -0.30553   0.17405  -0.42222
  10   22958.1    435.6   0.339769883   4.87220  -0.05960   0.47387   2.15501
  11   23891.9    418.6   0.222369733   3.06408  -0.78547   1.37222   0.75108
  12   24273.7    412.0   0.193761896   2.62789   0.76997  -0.60017   1.29415
  13   24643.5    405.8   0.022272165   0.29753  -0.26309  -0.02709  -0.47706
  14   25993.7    384.7   0.662311630   8.38823  -1.07073   0.64681  -2.61216
  15   26634.9    375.4   0.295673550   3.65457   0.92912  -0.99787   1.33998
  16   26930.5    371.3   0.299678738   3.66342   0.74326  -0.64984   1.63972
  17   27377.0    365.3   0.132364436   1.59170   0.40758  -1.05129  -0.56600
  18   27998.1    357.2   0.044239672   0.52019  -0.21339   0.66309   0.18698
  19   28564.9    350.1   0.015907619   0.18334   0.00252  -0.39227  -0.17163
  20   28867.4    346.4   0.000502940   0.00574   0.05968   0.03292   0.03302
  21   28936.9    345.6   0.020184150   0.22963   0.33152  -0.01518   0.34569
  22   29122.8    343.4   0.086649740   0.97951   0.13989   0.00958   0.97972
  23   29619.2    337.6   0.017998237   0.20005  -0.03942   0.11208  -0.43120
  24   29917.2    334.3   0.287851242   3.16754  -0.72046   0.43244  -1.56891
  25   30184.4    331.3   0.016804116   0.18328  -0.35636  -0.00521  -0.23718
  26   30772.7    325.0   0.015552785   0.16639   0.07682   0.29262   0.27360
  27   30878.1    323.9   0.010947487   0.11672   0.04068   0.23593   0.24372
  28   30929.1    323.3   0.254338458   2.70720   1.15356  -1.10926   0.38215
  29   31583.7    316.6   0.162438478   1.69317  -0.44168   1.22165  -0.07516
  30   31802.9    314.4   0.015840669   0.16398   0.01834  -0.40312  -0.03370
  31   32019.5    312.3   0.019978894   0.20541  -0.12460   0.15519  -0.40719
  32   32455.6    308.1   0.052402062   0.53154   0.10086   0.12565   0.71104
  33   32749.4    305.3   0.040236667   0.40448  -0.34541   0.32586  -0.42306
  34   32963.2    303.4   0.006852986   0.06844   0.18233  -0.18528  -0.02953
  35   33145.6    301.7   0.128454847   1.27585   0.56023  -0.51005   0.83776
  36   33361.6    299.7   0.088056473   0.86894  -0.38311   0.74419   0.41031
  37   33841.3    295.5   0.072051681   0.70093  -0.27876   0.77030   0.17280
  38   34109.0    293.2   0.076997094   0.74316  -0.35312   0.30317  -0.72564
  39   34214.7    292.3   0.032065040   0.30853  -0.08574   0.42472   0.34754
  40   34403.5    290.7   0.023735808   0.22713   0.24963  -0.23789  -0.32898
  41   34656.8    288.5   0.094138556   0.89424   0.34043  -0.86146  -0.19034
  42   34718.3    288.0   0.278001843   2.63612   0.83767  -0.32261   1.35290
  43   35098.7    284.9   0.144939097   1.35947   0.61956  -0.96363  -0.21689
  44   35276.7    283.5   0.179541452   1.67553  -0.80272   0.65231  -0.77824
  45   35391.6    282.6   0.307598667   2.86128   0.39681  -1.57911  -0.45850
  46   35561.9    281.2   0.050672815   0.46910  -0.50317   0.26373  -0.38257
  47   35992.6    277.8   0.045846820   0.41934  -0.51951  -0.04776  -0.38363
  48   36168.0    276.5   0.355710803   3.23779   1.38102  -1.11898   0.28007
  49   36383.2    274.9   0.291164617   2.63459  -0.11665   0.79500   1.41031
  50   36681.7    272.6   0.553723152   4.96957  -1.01819   1.30059  -1.49711
  51   36780.7    271.9   0.015626956   0.13987  -0.16258  -0.23432   0.24194
  52   36996.9    270.3   0.033424502   0.29742  -0.24852  -0.30400  -0.37848
  53   37115.5    269.4   0.085804278   0.76108  -0.19404  -0.10967  -0.84344
  54   37351.4    267.7   0.019636615   0.17308  -0.10762   0.25187   0.31314
  55   37455.6    267.0   0.036339707   0.31940  -0.00879   0.13582  -0.54853
  56   37673.3    265.4   0.014524161   0.12692   0.01527  -0.07264  -0.34844
  57   37942.7    263.6   0.056165269   0.48732   0.04982   0.20451   0.66559
  58   38241.1    261.5   0.103063559   0.88726  -0.36428   0.26252  -0.82803
  59   38466.6    260.0   0.006215982   0.05320  -0.09627   0.05298  -0.20279
  60   38490.7    259.8   0.042941063   0.36728   0.16804  -0.38993   0.43243
  61   38650.9    258.7   0.081693177   0.69583   0.38207  -0.72227   0.16783
  62   38929.5    256.9   0.007264019   0.06143   0.16436  -0.16121  -0.09179
  63   38958.5    256.7   0.019114557   0.16152   0.03428  -0.23848  -0.32168
  64   39205.2    255.1   0.003779601   0.03174   0.13238  -0.11370  -0.03588
  65   39421.4    253.7   0.071247628   0.59500   0.30520  -0.69584  -0.13290
  66   39442.2    253.5   0.002145634   0.01791  -0.07371   0.07395   0.08371
  67   39665.5    252.1   0.001133063   0.00940   0.08806  -0.03543   0.01988
  68   39706.5    251.8   0.000435908   0.00361  -0.04548  -0.03932   0.00016
  69   39776.4    251.4   0.174651595   1.44551  -0.29610   0.65698   0.96240
  70   39865.9    250.8   0.031303060   0.25850  -0.12291   0.43053   0.24091
  71   40116.2    249.3   0.040672472   0.33378   0.29253  -0.34156  -0.36268
  72   40210.8    248.7   0.039572969   0.32399  -0.13708   0.54758   0.07317

FINAL SINGLE POINT ENERGY     -5879.955084079565

DIPOLE MOMENT
-------------
                                X             Y             Z
Electronic contribution:     27.13155     -53.86448     -16.89513
Nuclear contribution   :    -30.65734      57.48129      18.41500
                        -----------------------------------------
Total Dipole Moment    :     -3.52580       3.61681       1.51988
                        -----------------------------------------
Magnitude (a.u.)       :      5.27471
Magnitude (Debye)      :     13.40725

Rotational constants in cm-1:     0.000948     0.000396     0.000287
Rotational constants in MHz :    28.420944    11.868418     8.616806

                             ****ORCA TERMINATED NORMALLY****
TOTAL RUN TIME: 0 days 0 hours 13 minutes 5 seconds 51 msec
