                         Program Version 4.2.0 -  RELEASE  -
|  1> # ORCA input file
|  2> # SCF done       -144.451529048867          0.000550277005
|  3> ! CAM-B3LYP def2-SVP def2/J RIJCOSX Grid4 TightSCF
|  4> %maxcore 5000
|  5> %tddft
|  6>     Mode sTDDFT
|  7>     Ethresh 5.0
|  8>     maxcore 5000
|  9> end
| 10>
| 11> %pal
| 12>   nprocs 6
| 13>   end
| 14> * xyz 0 1
| 15>    C        1.47818        -5.55431        -5.76032
| 16>    C        0.94202        -5.70496        -4.56531
| 17>    C        1.50531        -5.11668        -3.28607
| 18>    C        2.48002        -4.01227        -3.52255
| 19>    C        3.74645        -4.05220        -3.07179
| 20>    C        4.21401        -5.17315        -2.34314
| 21>    C        5.43358        -5.47496        -1.77499
| 22>    C        6.65669        -4.76758        -1.70859
| 23>    C        7.70628        -5.30328        -1.03878
| 24>    C        7.62649        -6.59214        -0.41235
| 25>    C        8.74658        -7.14313         0.31072
| 26>    C        9.81287        -6.44898         0.75158
| 27>    C       10.90617        -7.03750         1.47362
| 28>    C       11.80975        -6.30761         2.17944
| 29>    C       11.63194        -4.89735         2.45344
| 30>    C       10.44071        -4.25086         2.74396
| 31>    C       10.74068        -2.90884         2.97919
| 32>    C       12.10627        -2.75364         2.82439
| 33>    C       12.90020        -1.54309         2.91778
| 34>    C       13.74068        -0.98973         1.96243
| 35>    C       14.26218         0.17918         2.50140
| 36>    C       13.74385         0.33276         3.78700
| 37>    C       14.09337         1.41604         4.64050
| 38>    C       13.74524         1.72997         5.90668
| 39>    C       14.25586         2.91579         6.54876
| 40>    C       13.87138         3.25910         7.85499
| 41>    C       14.40605         4.41506         8.38605
| 42>    N       15.25148         5.18408         7.70935
| 43>    C       15.55276         4.77613         6.48798
| 44>    N       15.10948         3.70184         5.87621
| 45>    N       12.90720        -0.73577         4.01744
| 46>    C       12.12806        -0.98599         5.20249
| 47>    C       10.90158        -0.07813         5.27849
| 48>    N       12.63838        -3.97183         2.50127
| 49>    C       14.04904        -4.23742         2.36334
| 50>    C       14.70767        -4.43980         3.72627
| 51>    O       12.93855        -6.86661         2.77689
| 52>    C       13.04867        -8.21629         2.63582
| 53>    C       14.06071        -8.96887         3.13179
| 54>    S       13.83983       -10.63921         2.75808
| 55>    C       12.36595       -10.31009         1.92168
| 56>    C       12.07219        -8.98715         1.93805
| 57>    O       10.98364        -8.41964         1.35306
| 58>    C        6.45818        -7.31428        -0.49032
| 59>    C        5.32596        -6.78125        -1.14143
| 60>    C        4.04058        -7.28173        -1.30518
| 61>    C        3.58972        -8.58324        -0.70998
| 62>    C        3.26365        -8.39254         0.78844
| 63>    N        2.16724        -7.45479         0.99078
| 64>    C        2.48340        -9.35234        -1.45036
| 65>    N        1.14464        -8.79559        -1.29821
| 66>    C        3.30735        -6.29399        -2.05894
| 67>    C        2.02925        -6.25912        -2.48652
| 68>    H        1.04244        -6.01110        -6.63282
| 69>    H        2.37016        -4.97190        -5.91745
| 70>    H        0.05734        -6.31197        -4.42748
| 71>    H        0.64381        -4.70224        -2.73702
| 72>    H        2.10932        -3.16449        -4.07991
| 73>    H        4.42513        -3.23106        -3.25642
| 74>    H        6.73993        -3.80374        -2.19036
| 75>    H        8.64180        -4.76789        -0.99173
| 76>    H        8.68211        -8.19574         0.55442
| 77>    H        9.89552        -5.38666         0.58671
| 78>    H        9.47546        -4.71095         2.80876
| 79>    H       10.03562        -2.13414         3.20465
| 80>    H       13.91592        -1.37610         0.97705
| 81>    H       14.94448         0.85573         2.02584
| 82>    H       14.77816         2.11337         4.17192
| 83>    H       13.07747         1.13879         6.51227
| 84>    H       13.18442         2.64328         8.41508
| 85>    H       14.15802         4.75160         9.38546
| 86>    H       16.24220         5.39816         5.92933
| 87>    H       12.76424        -0.84856         6.08094
| 88>    H       11.80665        -2.03096         5.17378
| 89>    H       11.19246         0.96880         5.25752
| 90>    H       10.35103        -0.27459         6.19478
| 91>    H       10.24517        -0.26173         4.43237
| 92>    H       14.51639        -3.39259         1.85447
| 93>    H       14.17850        -5.13005         1.75023
| 94>    H       14.59304        -3.54583         4.33557
| 95>    H       15.76767        -4.64036         3.59861
| 96>    H       14.25097        -5.28107         4.24075
| 97>    H       14.91398        -8.64389         3.68937
| 98>    H       11.80828       -11.10391         1.47110
| 99>    H        6.40412        -8.29144        -0.02944
|100>    H        4.46382        -9.24728        -0.73812
|101>    H        4.18928        -8.07088         1.29310
|102>    H        2.96243        -9.35377         1.21964
|103>    H        2.38957        -6.57564         0.53318
|104>    H        2.04218        -7.27102         1.98074
|105>    H        2.53134       -10.39222        -1.08454
|106>    H        2.72335        -9.37056        -2.52059
|107>    H        1.03413        -8.45332        -0.34588
|108>    H        0.45086        -9.51470        -1.47098
|109>    H        1.35273        -7.07761        -2.27125
|110> *
|111>
|112>                          ****END OF INPUT****

CARTESIAN COORDINATES (ANGSTROEM)
---------------------------------
  C      1.478180   -5.554310   -5.760320
  C      0.942020   -5.704960   -4.565310
  C      1.505310   -5.116680   -3.286070
  C      2.480020   -4.012270   -3.522550
  C      3.746450   -4.052200   -3.071790
  C      4.214010   -5.173150   -2.343140
  C      5.433580   -5.474960   -1.774990
  C      6.656690   -4.767580   -1.708590
  C      7.706280   -5.303280   -1.038780
  C      7.626490   -6.592140   -0.412350
  C      8.746580   -7.143130    0.310720
  C      9.812870   -6.448980    0.751580
  C     10.906170   -7.037500    1.473620
  C     11.809750   -6.307610    2.179440
  C     11.631940   -4.897350    2.453440
  C     10.440710   -4.250860    2.743960
  C     10.740680   -2.908840    2.979190
  C     12.106270   -2.753640    2.824390
  C     12.900200   -1.543090    2.917780
  C     13.740680   -0.989730    1.962430
  C     14.262180    0.179180    2.501400
  C     13.743850    0.332760    3.787000
  C     14.093370    1.416040    4.640500
  C     13.745240    1.729970    5.906680
  C     14.255860    2.915790    6.548760
  C     13.871380    3.259100    7.854990
  C     14.406050    4.415060    8.386050
  N     15.251480    5.184080    7.709350
  C     15.552760    4.776130    6.487980
  N     15.109480    3.701840    5.876210
  N     12.907200   -0.735770    4.017440
  C     12.128060   -0.985990    5.202490
  C     10.901580   -0.078130    5.278490
  N     12.638380   -3.971830    2.501270
  C     14.049040   -4.237420    2.363340
  C     14.707670   -4.439800    3.726270
  O     12.938550   -6.866610    2.776890
  C     13.048670   -8.216290    2.635820
  C     14.060710   -8.968870    3.131790
  S     13.839830  -10.639210    2.758080
  C     12.365950  -10.310090    1.921680
  C     12.072190   -8.987150    1.938050
  O     10.983640   -8.419640    1.353060
  C      6.458180   -7.314280   -0.490320
  C      5.325960   -6.781250   -1.141430
  C      4.040580   -7.281730   -1.305180
  C      3.589720   -8.583240   -0.709980
  C      3.263650   -8.392540    0.788440
  N      2.167240   -7.454790    0.990780
  C      2.483400   -9.352340   -1.450360
  N      1.144640   -8.795590   -1.298210
  C      3.307350   -6.293990   -2.058940
  C      2.029250   -6.259120   -2.486520
  H      1.042440   -6.011100   -6.632820
  H      2.370160   -4.971900   -5.917450
  H      0.057340   -6.311970   -4.427480
  H      0.643810   -4.702240   -2.737020
  H      2.109320   -3.164490   -4.079910
  H      4.425130   -3.231060   -3.256420
  H      6.739930   -3.803740   -2.190360
  H      8.641800   -4.767890   -0.991730
  H      8.682110   -8.195740    0.554420
  H      9.895520   -5.386660    0.586710
  H      9.475460   -4.710950    2.808760
  H     10.035620   -2.134140    3.204650
  H     13.915920   -1.376100    0.977050
  H     14.944480    0.855730    2.025840
  H     14.778160    2.113370    4.171920
  H     13.077470    1.138790    6.512270
  H     13.184420    2.643280    8.415080
  H     14.158020    4.751600    9.385460
  H     16.242200    5.398160    5.929330
  H     12.764240   -0.848560    6.080940
  H     11.806650   -2.030960    5.173780
  H     11.192460    0.968800    5.257520
  H     10.351030   -0.274590    6.194780
  H     10.245170   -0.261730    4.432370
  H     14.516390   -3.392590    1.854470
  H     14.178500   -5.130050    1.750230
  H     14.593040   -3.545830    4.335570
  H     15.767670   -4.640360    3.598610
  H     14.250970   -5.281070    4.240750
  H     14.913980   -8.643890    3.689370
  H     11.808280  -11.103910    1.471100
  H      6.404120   -8.291440   -0.029440
  H      4.463820   -9.247280   -0.738120
  H      4.189280   -8.070880    1.293100
  H      2.962430   -9.353770    1.219640
  H      2.389570   -6.575640    0.533180
  H      2.042180   -7.271020    1.980740
  H      2.531340  -10.392220   -1.084540
  H      2.723350   -9.370560   -2.520590
  H      1.034130   -8.453320   -0.345880
  H      0.450860   -9.514700   -1.470980
  H      1.352730   -7.077610   -2.271250

 Total Charge           Charge          ....    0
 Multiplicity           Mult            ....    1
 Number of Electrons    NEL             ....  380
 Basis Dimension        Dim             ....  956

ORBITAL ENERGIES
----------------

  NO   OCC          E(Eh)            E(eV)
   0   2.0000     -88.951479     -2420.4928
   1   2.0000     -19.268846      -524.3319
   2   2.0000     -19.262784      -524.1670
   3   2.0000     -14.459297      -393.4575
   4   2.0000     -14.457543      -393.4097
   5   2.0000     -14.391605      -391.6155
   6   2.0000     -14.388620      -391.5343
   7   2.0000     -14.383854      -391.4046
   8   2.0000     -14.362460      -390.8224
   9   2.0000     -10.335253      -281.2365
  10   2.0000     -10.334485      -281.2156
  11   2.0000     -10.333415      -281.1865
  12   2.0000     -10.330846      -281.1166
  13   2.0000     -10.317733      -280.7598
  14   2.0000     -10.313132      -280.6346
  15   2.0000     -10.308134      -280.4986
  16   2.0000     -10.304972      -280.4125
  17   2.0000     -10.300968      -280.3036
  18   2.0000     -10.298470      -280.2356
  19   2.0000     -10.294680      -280.1325
  20   2.0000     -10.293600      -280.1031
  21   2.0000     -10.288798      -279.9724
  22   2.0000     -10.288551      -279.9657
  23   2.0000     -10.286950      -279.9221
  24   2.0000     -10.281780      -279.7815
  25   2.0000     -10.276939      -279.6497
  26   2.0000     -10.276528      -279.6385
  27   2.0000     -10.275144      -279.6009
  28   2.0000     -10.272479      -279.5284
  29   2.0000     -10.269831      -279.4563
  30   2.0000     -10.269392      -279.4444
  31   2.0000     -10.263891      -279.2947
  32   2.0000     -10.263451      -279.2827
  33   2.0000     -10.263078      -279.2725
  34   2.0000     -10.262669      -279.2614
  35   2.0000     -10.260361      -279.1986
  36   2.0000     -10.259483      -279.1747
  37   2.0000     -10.258569      -279.1499
  38   2.0000     -10.256387      -279.0905
  39   2.0000     -10.255188      -279.0578
  40   2.0000     -10.254474      -279.0384
  41   2.0000     -10.254019      -279.0260
  42   2.0000     -10.253799      -279.0201
  43   2.0000     -10.252470      -278.9839
  44   2.0000     -10.252047      -278.9724
  45   2.0000     -10.251975      -278.9704
  46   2.0000     -10.249726      -278.9092
  47   2.0000     -10.249379      -278.8998
  48   2.0000     -10.249035      -278.8904
  49   2.0000     -10.247397      -278.8459
  50   2.0000     -10.247282      -278.8427
  51   2.0000     -10.245415      -278.7919
  52   2.0000     -10.244666      -278.7715
  53   2.0000      -8.047205      -218.9756
  54   2.0000      -6.016742      -163.7239
  55   2.0000      -6.012591      -163.6109
  56   2.0000      -6.008833      -163.5087
  57   2.0000      -1.190184       -32.3865
  58   2.0000      -1.153420       -31.3861
  59   2.0000      -1.087468       -29.5915
  60   2.0000      -1.075038       -29.2533
  61   2.0000      -1.063049       -28.9270
  62   2.0000      -0.978356       -26.6224
  63   2.0000      -0.976068       -26.5602
  64   2.0000      -0.963317       -26.2132
  65   2.0000      -0.960061       -26.1246
  66   2.0000      -0.938671       -25.5425
  67   2.0000      -0.929268       -25.2867
  68   2.0000      -0.912086       -24.8191
  69   2.0000      -0.906304       -24.6618
  70   2.0000      -0.900683       -24.5088
  71   2.0000      -0.894397       -24.3378
  72   2.0000      -0.888798       -24.1854
  73   2.0000      -0.867919       -23.6173
  74   2.0000      -0.861078       -23.4311
  75   2.0000      -0.855656       -23.2836
  76   2.0000      -0.837772       -22.7969
  77   2.0000      -0.827315       -22.5124
  78   2.0000      -0.824870       -22.4458
  79   2.0000      -0.818748       -22.2793
  80   2.0000      -0.818130       -22.2624
  81   2.0000      -0.814039       -22.1511
  82   2.0000      -0.811557       -22.0836
  83   2.0000      -0.803732       -21.8706
  84   2.0000      -0.783660       -21.3245
  85   2.0000      -0.769871       -20.9493
  86   2.0000      -0.746066       -20.3015
  87   2.0000      -0.739233       -20.1156
  88   2.0000      -0.727919       -19.8077
  89   2.0000      -0.724238       -19.7075
  90   2.0000      -0.720846       -19.6152
  91   2.0000      -0.720169       -19.5968
  92   2.0000      -0.718591       -19.5538
  93   2.0000      -0.705124       -19.1874
  94   2.0000      -0.687288       -18.7020
  95   2.0000      -0.681283       -18.5387
  96   2.0000      -0.676765       -18.4157
  97   2.0000      -0.675579       -18.3834
  98   2.0000      -0.667597       -18.1662
  99   2.0000      -0.661309       -17.9951
 100   2.0000      -0.646770       -17.5995
 101   2.0000      -0.640292       -17.4232
 102   2.0000      -0.634661       -17.2700
 103   2.0000      -0.630674       -17.1615
 104   2.0000      -0.625342       -17.0164
 105   2.0000      -0.616918       -16.7872
 106   2.0000      -0.609007       -16.5719
 107   2.0000      -0.599912       -16.3244
 108   2.0000      -0.598585       -16.2883
 109   2.0000      -0.588059       -16.0019
 110   2.0000      -0.579559       -15.7706
 111   2.0000      -0.577952       -15.7269
 112   2.0000      -0.573724       -15.6118
 113   2.0000      -0.568467       -15.4688
 114   2.0000      -0.561947       -15.2914
 115   2.0000      -0.561728       -15.2854
 116   2.0000      -0.554361       -15.0849
 117   2.0000      -0.551037       -14.9945
 118   2.0000      -0.543901       -14.8003
 119   2.0000      -0.543232       -14.7821
 120   2.0000      -0.542075       -14.7506
 121   2.0000      -0.539290       -14.6748
 122   2.0000      -0.536600       -14.6016
 123   2.0000      -0.534225       -14.5370
 124   2.0000      -0.530659       -14.4400
 125   2.0000      -0.525910       -14.3108
 126   2.0000      -0.512910       -13.9570
 127   2.0000      -0.510371       -13.8879
 128   2.0000      -0.509002       -13.8507
 129   2.0000      -0.506154       -13.7731
 130   2.0000      -0.503561       -13.7026
 131   2.0000      -0.502216       -13.6660
 132   2.0000      -0.500651       -13.6234
 133   2.0000      -0.498282       -13.5590
 134   2.0000      -0.497681       -13.5426
 135   2.0000      -0.496289       -13.5047
 136   2.0000      -0.493419       -13.4266
 137   2.0000      -0.490839       -13.3564
 138   2.0000      -0.487369       -13.2620
 139   2.0000      -0.485939       -13.2231
 140   2.0000      -0.480078       -13.0636
 141   2.0000      -0.479790       -13.0557
 142   2.0000      -0.474241       -12.9047
 143   2.0000      -0.472695       -12.8627
 144   2.0000      -0.471598       -12.8328
 145   2.0000      -0.469122       -12.7655
 146   2.0000      -0.464593       -12.6422
 147   2.0000      -0.459727       -12.5098
 148   2.0000      -0.457667       -12.4538
 149   2.0000      -0.455493       -12.3946
 150   2.0000      -0.453157       -12.3310
 151   2.0000      -0.450024       -12.2458
 152   2.0000      -0.447073       -12.1655
 153   2.0000      -0.445029       -12.1099
 154   2.0000      -0.441065       -12.0020
 155   2.0000      -0.440273       -11.9804
 156   2.0000      -0.435367       -11.8469
 157   2.0000      -0.435323       -11.8457
 158   2.0000      -0.427919       -11.6443
 159   2.0000      -0.424884       -11.5617
 160   2.0000      -0.423401       -11.5213
 161   2.0000      -0.422460       -11.4957
 162   2.0000      -0.419838       -11.4244
 163   2.0000      -0.416081       -11.3221
 164   2.0000      -0.414102       -11.2683
 165   2.0000      -0.408802       -11.1241
 166   2.0000      -0.404733       -11.0133
 167   2.0000      -0.401763       -10.9325
 168   2.0000      -0.399422       -10.8688
 169   2.0000      -0.378965       -10.3122
 170   2.0000      -0.374284       -10.1848
 171   2.0000      -0.367136        -9.9903
 172   2.0000      -0.357007        -9.7147
 173   2.0000      -0.353451        -9.6179
 174   2.0000      -0.352711        -9.5978
 175   2.0000      -0.339243        -9.2313
 176   2.0000      -0.331666        -9.0251
 177   2.0000      -0.329001        -8.9526
 178   2.0000      -0.312154        -8.4941
 179   2.0000      -0.310765        -8.4564
 180   2.0000      -0.309785        -8.4297
 181   2.0000      -0.309208        -8.4140
 182   2.0000      -0.306474        -8.3396
 183   2.0000      -0.300141        -8.1672
 184   2.0000      -0.287874        -7.8335
 185   2.0000      -0.286966        -7.8087
 186   2.0000      -0.277399        -7.5484
 187   2.0000      -0.250279        -6.8104
 188   2.0000      -0.231270        -6.2932
 189   2.0000      -0.206923        -5.6307
 190   0.0000      -0.052465        -1.4277
 191   0.0000      -0.026483        -0.7206
 192   0.0000      -0.002418        -0.0658
 193   0.0000       0.025612         0.6969
 194   0.0000       0.030069         0.8182

MULLIKEN ATOMIC CHARGES
-----------------------
   0 C :    0.002625
   1 C :   -0.084459
   2 C :    0.172491
   3 C :   -0.062706
   4 C :    0.011153
   5 C :    0.014607
   6 C :    0.029933
   7 C :    0.000700
   8 C :   -0.015609
   9 C :    0.125897
  10 C :   -0.001715
  11 C :   -0.078100
  12 C :    0.167548
  13 C :    0.126014
  14 C :    0.038720
  15 C :   -0.044131
  16 C :   -0.045053
  17 C :    0.057719
  18 C :    0.055222
  19 C :   -0.026998
  20 C :   -0.028854
  21 C :    0.109540
  22 C :    0.046440
  23 C :   -0.051542
  24 C :    0.029567
  25 C :   -0.043304
  26 C :    0.068715
  27 N :   -0.117920
  28 C :    0.066832
  29 N :   -0.094832
  30 N :   -0.162161
  31 C :    0.086675
  32 C :    0.006777
  33 N :   -0.156681
  34 C :    0.118955
  35 C :    0.002460
  36 O :   -0.271828
  37 C :    0.232607
  38 C :   -0.183506
  39 S :    0.101987
  40 C :   -0.174975
  41 C :    0.219511
  42 O :   -0.259629
  43 C :   -0.103904
  44 C :    0.051728
  45 C :   -0.057276
  46 C :   -0.068758
  47 C :    0.134603
  48 N :   -0.235957
  49 C :    0.161007
  50 N :   -0.219975
  51 C :    0.052002
  52 C :   -0.103013
  53 H :    0.017653
  54 H :    0.023557
  55 H :    0.006921
  56 H :    0.031758
  57 H :   -0.013836
  58 H :   -0.042296
  59 H :   -0.043289
  60 H :   -0.033644
  61 H :   -0.013248
  62 H :    0.024434
  63 H :   -0.016533
  64 H :   -0.040867
  65 H :   -0.027658
  66 H :   -0.025062
  67 H :    0.004921
  68 H :   -0.043716
  69 H :   -0.015280
  70 H :    0.001894
  71 H :    0.009008
  72 H :    0.028319
  73 H :    0.045704
  74 H :    0.032531
  75 H :    0.019685
  76 H :    0.018750
  77 H :    0.017722
  78 H :    0.033896
  79 H :    0.018931
  80 H :    0.016283
  81 H :    0.027234
  82 H :    0.020101
  83 H :    0.022893
  84 H :   -0.047700
  85 H :   -0.000826
  86 H :   -0.007162
  87 H :   -0.007017
  88 H :    0.109338
  89 H :    0.099829
  90 H :   -0.019535
  91 H :   -0.002067
  92 H :    0.096127
  93 H :    0.089082
  94 H :   -0.015981
Sum of atomic charges:   -0.0000000

LOEWDIN ATOMIC CHARGES
----------------------
   0 C :   -0.050039
   1 C :   -0.007535
   2 C :   -0.035803
   3 C :   -0.032594
   4 C :   -0.021603
   5 C :   -0.033863
   6 C :   -0.037714
   7 C :   -0.007729
   8 C :   -0.032585
   9 C :   -0.026583
  10 C :   -0.011690
  11 C :   -0.045849
  12 C :    0.027133
  13 C :    0.005152
  14 C :   -0.031566
  15 C :   -0.061058
  16 C :   -0.074689
  17 C :   -0.027490
  18 C :   -0.011948
  19 C :   -0.078986
  20 C :   -0.043279
  21 C :   -0.034982
  22 C :    0.022751
  23 C :   -0.088469
  24 C :    0.039964
  25 C :   -0.074040
  26 C :    0.044520
  27 N :   -0.108338
  28 C :    0.042139
  29 N :   -0.097852
  30 N :    0.075694
  31 C :    0.037488
  32 C :   -0.061007
  33 N :    0.080481
  34 C :    0.038491
  35 C :   -0.060200
  36 O :   -0.061370
  37 C :   -0.008954
  38 C :   -0.215213
  39 S :    0.428189
  40 C :   -0.212598
  41 C :   -0.005941
  42 O :   -0.059053
  43 C :   -0.023840
  44 C :   -0.023703
  45 C :   -0.055355
  46 C :   -0.038909
  47 C :    0.026706
  48 N :   -0.098918
  49 C :    0.028147
  50 N :   -0.106484
  51 C :   -0.038301
  52 C :    0.081868
  53 H :    0.024349
  54 H :    0.024110
  55 H :    0.025927
  56 H :    0.059090
  57 H :    0.022296
  58 H :    0.026947
  59 H :    0.025062
  60 H :    0.023678
  61 H :    0.027859
  62 H :    0.034499
  63 H :    0.027222
  64 H :    0.021134
  65 H :    0.023126
  66 H :    0.025847
  67 H :    0.043184
  68 H :    0.018566
  69 H :    0.028860
  70 H :    0.023326
  71 H :    0.015666
  72 H :    0.025131
  73 H :    0.035013
  74 H :    0.028727
  75 H :    0.030292
  76 H :    0.025898
  77 H :    0.027787
  78 H :    0.029575
  79 H :    0.024210
  80 H :    0.028537
  81 H :    0.024059
  82 H :    0.027089
  83 H :    0.028119
  84 H :    0.018941
  85 H :    0.035382
  86 H :    0.005397
  87 H :    0.012060
  88 H :    0.057605
  89 H :    0.058653
  90 H :    0.003491
  91 H :    0.014357
  92 H :    0.034105
  93 H :    0.052595
  94 H :    0.019637

  Mayer bond orders larger than 0.100000
B(  0-C ,  1-C ) :   2.0443 B(  0-C , 53-H ) :   0.9548 B(  0-C , 54-H ) :   0.9356
B(  1-C ,  2-C ) :   0.9528 B(  1-C , 55-H ) :   0.9660 B(  2-C ,  3-C ) :   0.9992
B(  2-C , 52-C ) :   0.9554 B(  2-C , 56-H ) :   0.8532 B(  3-C ,  4-C ) :   1.7145
B(  3-C , 57-H ) :   0.9710 B(  4-C ,  5-C ) :   1.1262 B(  4-C , 58-H ) :   0.9903
B(  5-C ,  6-C ) :   1.4258 B(  5-C , 51-C ) :   1.0588 B(  6-C ,  7-C ) :   1.1397
B(  6-C , 44-C ) :   1.1336 B(  7-C ,  8-C ) :   1.6076 B(  7-C , 59-H ) :   0.9894
B(  8-C ,  9-C ) :   1.1335 B(  8-C , 60-H ) :   0.9811 B(  9-C , 10-C ) :   1.0517
B(  9-C , 43-C ) :   1.5102 B( 10-C , 11-C ) :   1.6878 B( 10-C , 61-H ) :   0.9872
B( 11-C , 12-C ) :   1.1432 B( 11-C , 62-H ) :   0.9492 B( 12-C , 13-C ) :   1.5777
B( 12-C , 42-O ) :   1.0449 B( 13-C , 14-C ) :   0.9972 B( 13-C , 36-O ) :   1.0278
B( 14-C , 15-C ) :   1.4647 B( 14-C , 17-C ) :   0.1203 B( 14-C , 33-N ) :   1.2022
B( 15-C , 16-C ) :   1.2876 B( 15-C , 63-H ) :   1.0124 B( 16-C , 17-C ) :   1.4603
B( 16-C , 64-H ) :   1.0189 B( 17-C , 18-C ) :   0.9094 B( 17-C , 33-N ) :   1.2345
B( 18-C , 19-C ) :   1.4543 B( 18-C , 21-C ) :   0.1103 B( 18-C , 30-N ) :   1.2544
B( 19-C , 20-C ) :   1.3094 B( 19-C , 65-H ) :   1.0099 B( 20-C , 21-C ) :   1.3824
B( 20-C , 66-H ) :   1.0122 B( 21-C , 22-C ) :   1.1202 B( 21-C , 30-N ) :   1.1564
B( 22-C , 23-C ) :   1.6313 B( 22-C , 67-H ) :   0.9481 B( 23-C , 24-C ) :   1.1017
B( 23-C , 68-H ) :   0.9741 B( 24-C , 25-C ) :   1.3240 B( 24-C , 29-N ) :   1.5068
B( 25-C , 26-C ) :   1.4012 B( 25-C , 69-H ) :   0.9741 B( 26-C , 27-N ) :   1.5326
B( 26-C , 70-H ) :   0.9807 B( 27-N , 28-C ) :   1.5049 B( 28-C , 29-N ) :   1.5316
B( 28-C , 71-H ) :   0.9747 B( 30-N , 31-C ) :   0.9610 B( 31-C , 32-C ) :   1.1062
B( 31-C , 72-H ) :   0.9461 B( 31-C , 73-H ) :   0.9345 B( 32-C , 74-H ) :   0.9624
B( 32-C , 75-H ) :   0.9657 B( 32-C , 76-H ) :   0.9602 B( 33-N , 34-C ) :   0.9614
B( 34-C , 35-C ) :   1.1140 B( 34-C , 77-H ) :   0.9378 B( 34-C , 78-H ) :   0.9395
B( 35-C , 79-H ) :   0.9669 B( 35-C , 80-H ) :   0.9650 B( 35-C , 81-H ) :   0.9637
B( 36-O , 37-C ) :   1.0419 B( 37-C , 38-C ) :   1.5683 B( 37-C , 41-C ) :   1.2006
B( 38-C , 39-S ) :   1.1380 B( 38-C , 82-H ) :   0.9732 B( 39-S , 40-C ) :   1.1365
B( 40-C , 41-C ) :   1.5757 B( 40-C , 83-H ) :   0.9713 B( 41-C , 42-O ) :   1.0666
B( 43-C , 44-C ) :   1.1233 B( 43-C , 84-H ) :   0.9925 B( 44-C , 45-C ) :   1.4775
B( 45-C , 46-C ) :   1.0267 B( 45-C , 51-C ) :   1.0994 B( 46-C , 47-C ) :   1.0452
B( 46-C , 49-C ) :   1.0630 B( 46-C , 85-H ) :   0.8844 B( 47-C , 48-N ) :   1.0454
B( 47-C , 86-H ) :   0.9399 B( 47-C , 87-H ) :   0.9433 B( 48-N , 88-H ) :   0.9607
B( 48-N , 89-H ) :   0.9657 B( 48-N , 92-H ) :   0.1215 B( 49-C , 50-N ) :   1.0566
B( 49-C , 90-H ) :   0.9335 B( 49-C , 91-H ) :   0.9453 B( 50-N , 92-H ) :   0.9204
B( 50-N , 93-H ) :   0.9654 B( 50-N , 94-H ) :   0.2077 B( 51-C , 52-C ) :   1.6689
B( 52-C , 94-H ) :   0.8962

-----------------------------------------------------------------------------
         ABSORPTION SPECTRUM VIA TRANSITION ELECTRIC DIPOLE MOMENTS
-----------------------------------------------------------------------------
State   Energy  Wavelength   fosc         T2         TX        TY        TZ
        (cm-1)    (nm)                  (au**2)     (au)      (au)      (au)
-----------------------------------------------------------------------------
   0   15889.9    629.3   0.080438980   1.66656  -0.50372  -1.16174   0.25137
   1   24059.6    415.6   0.579731246   7.93257   2.26100   0.86882   1.43723
   2   26973.3    370.7   0.919523897  11.22287   2.21631   1.51708   2.00233
   3   29448.2    339.6   0.413665729   4.62451   0.36801  -1.96228  -0.79909
   4   29977.3    333.6   0.009566316   0.10506  -0.26631   0.14491   0.11461
   5   31238.5    320.1   0.330953387   3.48781  -0.84428   1.56944   0.55843
   6   32179.2    310.8   0.484820026   4.96000  -1.63517  -0.75488  -1.31011
   7   33114.5    302.0   0.191030977   1.89916  -1.18976  -0.44536  -0.53411
   8   34091.5    293.3   0.036878850   0.35613   0.44849   0.34043  -0.19771
   9   34864.9    286.8   0.008525783   0.08050   0.07514   0.00489   0.27356
  10   34998.5    285.7   0.006456253   0.06073   0.18120  -0.06228   0.15498
  11   35571.3    281.1   0.174322836   1.61336  -0.12510  -0.90157  -0.88593
  12   36429.5    274.5   0.057047455   0.51554  -0.60785   0.21857  -0.31349
  13   37177.3    269.0   0.083009816   0.73507  -0.40025   0.73107  -0.20100
  14   38049.5    262.8   0.274612994   2.37601  -1.26250   0.46139  -0.75447
  15   38674.1    258.6   0.472595748   4.02296  -1.45514   0.79742  -1.12679
  16   39478.7    253.3   0.104820093   0.87409   0.61465  -0.67077   0.21534
  17   40228.7    248.6   0.009676520   0.07919   0.15799  -0.21735  -0.08360

FINAL SINGLE POINT ENERGY     -2576.092355286879

DIPOLE MOMENT
-------------
                                X             Y             Z
Electronic contribution:     44.11176      -5.14080       9.32999
Nuclear contribution   :    -45.47880       3.68791      -8.79300
                        -----------------------------------------
Total Dipole Moment    :     -1.36704      -1.45289       0.53699
                        -----------------------------------------
Magnitude (a.u.)       :      2.06593
Magnitude (Debye)      :      5.25118

Rotational constants in cm-1:     0.001897     0.000575     0.000469
Rotational constants in MHz :    56.866254    17.231620    14.068822

                             ****ORCA TERMINATED NORMALLY****
TOTAL RUN TIME: 0 days 0 hours 6 minutes 40 seconds 290 msec
