                         Program Version 4.2.0 -  RELEASE  -
|  1> # ORCA input file
|  2> # SCF done       -183.798387554333          0.000323053072
|  3> ! CAM-B3LYP def2-SVP def2/J RIJCOSX Grid4 TightSCF
|  4> %maxcore 5000
|  5> %tddft
|  6>     Mode sTDDFT
|  7>     Ethresh 5.0
|  8>     maxcore 5000
|  9> end
| 10>
| 11> %pal
| 12>   nprocs 6
| 13>   end
| 14> * xyz 0 1
| 15>    C        3.86467         2.29669        -3.45043
| 16>    C        2.71484         3.26121        -3.60102
| 17>    C        3.38695         4.66917        -3.52387
| 18>    C        4.92089         4.69536        -3.63838
| 19>    C        5.46614         5.35546        -4.65947
| 20>    O        5.82724         4.24500        -2.69440
| 21>    C        5.75870         2.98623        -1.98689
| 22>    C        4.29517         2.61856        -2.00320
| 23>    C        3.44871         1.70510        -1.17817
| 24>    C        2.16180         1.87931        -1.46534
| 25>    C        1.68642         2.92945        -2.46178
| 26>    C        0.35261         2.48896        -3.06746
| 27>    C        6.30935         3.20930        -0.57963
| 28>    C        7.74911         3.72134        -0.55744
| 29>    C        8.77093         2.68399        -1.03212
| 30>    C        8.76528         1.46781        -0.18330
| 31>    O        8.94452         0.26083        -0.77126
| 32>    C        8.58890         1.28061         1.15987
| 33>    C        8.34133         1.94847         2.44106
| 34>    O        8.20279         3.11157         2.72080
| 35>    N        8.28707         0.89914         3.35477
| 36>    C        8.47127        -0.37691         2.81849
| 37>    O        8.45450        -1.40016         3.45488
| 38>    C        8.66637        -0.12470         1.39458
| 39>    C        8.88870        -0.72261         0.17537
| 40>    C        9.04246        -2.09736        -0.15956
| 41>    C        9.28655        -2.55879        -1.40317
| 42>    C        9.46050        -3.95088        -1.68130
| 43>    C        9.78260        -4.47812        -2.87320
| 44>    C        9.97321        -3.68979        -4.12684
| 45>    C       10.06099        -5.95297        -3.05530
| 46>    N        9.98476        -6.77921        -1.87658
| 47>    C       10.90056        -6.77974        -0.89249
| 48>    C       11.94296        -5.90526        -0.78818
| 49>    C       12.92210        -5.99106         0.21005
| 50>    C       13.90516        -5.04780         0.38900
| 51>    C       15.02703        -5.11330         1.24360
| 52>    C       15.87059        -4.04586         1.14010
| 53>    C       15.43260        -3.06348         0.22668
| 54>    S       13.93082        -3.53498        -0.51344
| 55>    C       16.07072        -1.88330        -0.12821
| 56>    C       17.40407        -1.50447         0.09887
| 57>    C       17.75558        -0.34953        -0.54110
| 58>    C       16.71909         0.24570        -1.29439
| 59>    S       15.25995        -0.68433        -1.11336
| 60>    C       16.86248         1.43949        -1.99368
| 61>    C       15.96807         2.18796        -2.73830
| 62>    C       14.68376         1.96120        -3.22373
| 63>    C       13.84783         3.14898        -3.50216
| 64>    O       14.19366         4.31280        -3.48100
| 65>    C       12.49293         2.62643        -3.78419
| 66>    C       11.34920         3.30899        -4.06898
| 67>    C       10.15932         2.58471        -4.31587
| 68>    C       10.17997         1.16379        -4.22267
| 69>    C        8.98672         0.45503        -4.45739
| 70>    C        7.84942         1.13569        -4.79258
| 71>    C        7.81510         2.52960        -4.91145
| 72>    C        8.95995         3.23671        -4.66335
| 73>    F        6.71030         0.44496        -5.02160
| 74>    C       11.38731         0.48364        -3.92857
| 75>    C       12.53221         1.20440        -3.73633
| 76>    C       13.92313         0.79684        -3.51838
| 77>    C       14.42347        -0.46788        -3.79060
| 78>    C       15.79667        -0.70793        -3.97731
| 79>    N       16.90999        -0.91753        -4.16982
| 80>    C       13.62046        -1.59255        -4.01371
| 81>    N       13.00207        -2.55250        -4.16326
| 82>    H        4.64562         2.48847        -4.18495
| 83>    H        3.56706         1.25230        -3.54734
| 84>    H        2.21147         3.16169        -4.56531
| 85>    H        3.10073         5.19538        -2.60884
| 86>    H        3.02092         5.27828        -4.35083
| 87>    H        4.86986         5.85435        -5.39962
| 88>    H        6.53373         5.45003        -4.74719
| 89>    H        6.38088         2.25967        -2.52802
| 90>    H        3.86986         3.58611        -1.72258
| 91>    H        3.83051         0.98168        -0.47779
| 92>    H        1.38629         1.29463        -0.99440
| 93>    H        1.49720         3.84732        -1.88771
| 94>    H        0.48254         1.57332        -3.64061
| 95>    H       -0.04086         3.25872        -3.72779
| 96>    H       -0.38090         2.30403        -2.28564
| 97>    H        5.67547         3.94077        -0.07540
| 98>    H        6.23595         2.26755        -0.03282
| 99>    H        7.99512         4.01891         0.46239
|100>    H        7.81530         4.59699        -1.20251
|101>    H        9.76905         3.13264        -1.00203
|102>    H        8.58005         2.38657        -2.06328
|103>    H        8.12751         1.05222         4.34030
|104>    H        8.95659        -2.77286         0.67993
|105>    H        9.38506        -1.84821        -2.20939
|106>    H        9.34747        -4.60485        -0.82664
|107>    H       10.98316        -3.27422        -4.15475
|108>    H        9.25987        -2.87365        -4.19070
|109>    H        9.85219        -4.32220        -5.00330
|110>    H       11.07031        -6.04121        -3.47960
|111>    H        9.35976        -6.35734        -3.79176
|112>    H        9.17978        -7.37501        -1.77953
|113>    H       10.76554        -7.54648        -0.14030
|114>    H       12.02929        -5.08960        -1.49014
|115>    H       12.92879        -6.85335         0.86439
|116>    H       15.19149        -5.95643         1.89157
|117>    H       16.77957        -3.93181         1.70260
|118>    H       18.08051        -2.10752         0.67736
|119>    H       18.74156         0.07895        -0.51570
|120>    H       17.83669         1.89477        -1.85686
|121>    H       16.28739         3.21127        -2.92125
|122>    H       11.34974         4.38744        -4.12009
|123>    H        8.97371        -0.62138        -4.39382
|124>    H        6.89656         3.01989        -5.19116
|125>    H        8.95824         4.31348        -4.73613
|126>    H       11.37656        -0.59311        -3.87233
|127> *
|128>
|129>                          ****END OF INPUT****

CARTESIAN COORDINATES (ANGSTROEM)
---------------------------------
  C      3.864670    2.296690   -3.450430
  C      2.714840    3.261210   -3.601020
  C      3.386950    4.669170   -3.523870
  C      4.920890    4.695360   -3.638380
  C      5.466140    5.355460   -4.659470
  O      5.827240    4.245000   -2.694400
  C      5.758700    2.986230   -1.986890
  C      4.295170    2.618560   -2.003200
  C      3.448710    1.705100   -1.178170
  C      2.161800    1.879310   -1.465340
  C      1.686420    2.929450   -2.461780
  C      0.352610    2.488960   -3.067460
  C      6.309350    3.209300   -0.579630
  C      7.749110    3.721340   -0.557440
  C      8.770930    2.683990   -1.032120
  C      8.765280    1.467810   -0.183300
  O      8.944520    0.260830   -0.771260
  C      8.588900    1.280610    1.159870
  C      8.341330    1.948470    2.441060
  O      8.202790    3.111570    2.720800
  N      8.287070    0.899140    3.354770
  C      8.471270   -0.376910    2.818490
  O      8.454500   -1.400160    3.454880
  C      8.666370   -0.124700    1.394580
  C      8.888700   -0.722610    0.175370
  C      9.042460   -2.097360   -0.159560
  C      9.286550   -2.558790   -1.403170
  C      9.460500   -3.950880   -1.681300
  C      9.782600   -4.478120   -2.873200
  C      9.973210   -3.689790   -4.126840
  C     10.060990   -5.952970   -3.055300
  N      9.984760   -6.779210   -1.876580
  C     10.900560   -6.779740   -0.892490
  C     11.942960   -5.905260   -0.788180
  C     12.922100   -5.991060    0.210050
  C     13.905160   -5.047800    0.389000
  C     15.027030   -5.113300    1.243600
  C     15.870590   -4.045860    1.140100
  C     15.432600   -3.063480    0.226680
  S     13.930820   -3.534980   -0.513440
  C     16.070720   -1.883300   -0.128210
  C     17.404070   -1.504470    0.098870
  C     17.755580   -0.349530   -0.541100
  C     16.719090    0.245700   -1.294390
  S     15.259950   -0.684330   -1.113360
  C     16.862480    1.439490   -1.993680
  C     15.968070    2.187960   -2.738300
  C     14.683760    1.961200   -3.223730
  C     13.847830    3.148980   -3.502160
  O     14.193660    4.312800   -3.481000
  C     12.492930    2.626430   -3.784190
  C     11.349200    3.308990   -4.068980
  C     10.159320    2.584710   -4.315870
  C     10.179970    1.163790   -4.222670
  C      8.986720    0.455030   -4.457390
  C      7.849420    1.135690   -4.792580
  C      7.815100    2.529600   -4.911450
  C      8.959950    3.236710   -4.663350
  F      6.710300    0.444960   -5.021600
  C     11.387310    0.483640   -3.928570
  C     12.532210    1.204400   -3.736330
  C     13.923130    0.796840   -3.518380
  C     14.423470   -0.467880   -3.790600
  C     15.796670   -0.707930   -3.977310
  N     16.909990   -0.917530   -4.169820
  C     13.620460   -1.592550   -4.013710
  N     13.002070   -2.552500   -4.163260
  H      4.645620    2.488470   -4.184950
  H      3.567060    1.252300   -3.547340
  H      2.211470    3.161690   -4.565310
  H      3.100730    5.195380   -2.608840
  H      3.020920    5.278280   -4.350830
  H      4.869860    5.854350   -5.399620
  H      6.533730    5.450030   -4.747190
  H      6.380880    2.259670   -2.528020
  H      3.869860    3.586110   -1.722580
  H      3.830510    0.981680   -0.477790
  H      1.386290    1.294630   -0.994400
  H      1.497200    3.847320   -1.887710
  H      0.482540    1.573320   -3.640610
  H     -0.040860    3.258720   -3.727790
  H     -0.380900    2.304030   -2.285640
  H      5.675470    3.940770   -0.075400
  H      6.235950    2.267550   -0.032820
  H      7.995120    4.018910    0.462390
  H      7.815300    4.596990   -1.202510
  H      9.769050    3.132640   -1.002030
  H      8.580050    2.386570   -2.063280
  H      8.127510    1.052220    4.340300
  H      8.956590   -2.772860    0.679930
  H      9.385060   -1.848210   -2.209390
  H      9.347470   -4.604850   -0.826640
  H     10.983160   -3.274220   -4.154750
  H      9.259870   -2.873650   -4.190700
  H      9.852190   -4.322200   -5.003300
  H     11.070310   -6.041210   -3.479600
  H      9.359760   -6.357340   -3.791760
  H      9.179780   -7.375010   -1.779530
  H     10.765540   -7.546480   -0.140300
  H     12.029290   -5.089600   -1.490140
  H     12.928790   -6.853350    0.864390
  H     15.191490   -5.956430    1.891570
  H     16.779570   -3.931810    1.702600
  H     18.080510   -2.107520    0.677360
  H     18.741560    0.078950   -0.515700
  H     17.836690    1.894770   -1.856860
  H     16.287390    3.211270   -2.921250
  H     11.349740    4.387440   -4.120090
  H      8.973710   -0.621380   -4.393820
  H      6.896560    3.019890   -5.191160
  H      8.958240    4.313480   -4.736130
  H     11.376560   -0.593110   -3.872330

 Total Charge           Charge          ....    0
 Multiplicity           Mult            ....    1
 Number of Electrons    NEL             ....  484
 Basis Dimension        Dim             .... 1171

ORBITAL ENERGIES
----------------

  NO   OCC          E(Eh)            E(eV)
   0   2.0000     -88.958162     -2420.6746
   1   2.0000     -88.953836     -2420.5569
   2   2.0000     -24.776281      -674.1969
   3   2.0000     -19.299287      -525.1603
   4   2.0000     -19.220307      -523.0111
   5   2.0000     -19.200004      -522.4587
   6   2.0000     -19.199374      -522.4415
   7   2.0000     -19.183647      -522.0136
   8   2.0000     -14.472515      -393.8172
   9   2.0000     -14.444098      -393.0439
  10   2.0000     -14.395922      -391.7330
  11   2.0000     -14.379307      -391.2808
  12   2.0000     -10.389107      -282.7020
  13   2.0000     -10.388686      -282.6905
  14   2.0000     -10.354496      -281.7602
  15   2.0000     -10.351397      -281.6758
  16   2.0000     -10.347184      -281.5612
  17   2.0000     -10.346019      -281.5295
  18   2.0000     -10.333656      -281.1931
  19   2.0000     -10.332524      -281.1623
  20   2.0000     -10.330595      -281.1098
  21   2.0000     -10.318735      -280.7871
  22   2.0000     -10.314046      -280.6595
  23   2.0000     -10.313828      -280.6535
  24   2.0000     -10.311437      -280.5885
  25   2.0000     -10.309279      -280.5297
  26   2.0000     -10.305900      -280.4378
  27   2.0000     -10.304208      -280.3918
  28   2.0000     -10.303792      -280.3804
  29   2.0000     -10.303688      -280.3776
  30   2.0000     -10.300895      -280.3016
  31   2.0000     -10.290373      -280.0153
  32   2.0000     -10.289857      -280.0012
  33   2.0000     -10.287430      -279.9352
  34   2.0000     -10.285317      -279.8777
  35   2.0000     -10.284196      -279.8472
  36   2.0000     -10.282103      -279.7902
  37   2.0000     -10.281792      -279.7818
  38   2.0000     -10.281482      -279.7734
  39   2.0000     -10.280848      -279.7561
  40   2.0000     -10.280181      -279.7379
  41   2.0000     -10.279728      -279.7256
  42   2.0000     -10.276832      -279.6468
  43   2.0000     -10.276480      -279.6372
  44   2.0000     -10.275687      -279.6157
  45   2.0000     -10.275572      -279.6125
  46   2.0000     -10.275373      -279.6071
  47   2.0000     -10.274486      -279.5830
  48   2.0000     -10.272391      -279.5260
  49   2.0000     -10.270965      -279.4872
  50   2.0000     -10.270677      -279.4793
  51   2.0000     -10.269540      -279.4484
  52   2.0000     -10.266981      -279.3788
  53   2.0000     -10.266314      -279.3606
  54   2.0000     -10.265727      -279.3446
  55   2.0000     -10.264837      -279.3204
  56   2.0000     -10.264380      -279.3080
  57   2.0000     -10.259459      -279.1741
  58   2.0000     -10.258923      -279.1595
  59   2.0000     -10.258852      -279.1576
  60   2.0000     -10.256885      -279.1040
  61   2.0000     -10.252279      -278.9787
  62   2.0000     -10.251845      -278.9669
  63   2.0000     -10.251181      -278.9488
  64   2.0000     -10.250463      -278.9293
  65   2.0000     -10.247565      -278.8504
  66   2.0000     -10.235492      -278.5219
  67   2.0000      -8.054109      -219.1635
  68   2.0000      -8.048467      -219.0099
  69   2.0000      -6.023669      -163.9124
  70   2.0000      -6.019581      -163.8011
  71   2.0000      -6.017789      -163.7524
  72   2.0000      -6.015408      -163.6876
  73   2.0000      -6.013698      -163.6410
  74   2.0000      -6.010432      -163.5522
  75   2.0000      -1.288186       -35.0533
  76   2.0000      -1.213940       -33.0330
  77   2.0000      -1.144133       -31.1334
  78   2.0000      -1.123492       -30.5718
  79   2.0000      -1.117407       -30.4062
  80   2.0000      -1.097313       -29.8594
  81   2.0000      -1.067535       -29.0491
  82   2.0000      -1.030754       -28.0482
  83   2.0000      -1.003072       -27.2950
  84   2.0000      -0.992700       -27.0128
  85   2.0000      -0.978643       -26.6302
  86   2.0000      -0.977273       -26.5929
  87   2.0000      -0.964655       -26.2496
  88   2.0000      -0.951516       -25.8921
  89   2.0000      -0.945819       -25.7370
  90   2.0000      -0.928876       -25.2760
  91   2.0000      -0.918664       -24.9981
  92   2.0000      -0.912192       -24.8220
  93   2.0000      -0.907567       -24.6962
  94   2.0000      -0.904069       -24.6010
  95   2.0000      -0.893722       -24.3194
  96   2.0000      -0.885257       -24.0891
  97   2.0000      -0.874332       -23.7918
  98   2.0000      -0.871107       -23.7040
  99   2.0000      -0.864312       -23.5191
 100   2.0000      -0.856151       -23.2970
 101   2.0000      -0.852650       -23.2018
 102   2.0000      -0.848489       -23.0885
 103   2.0000      -0.838603       -22.8195
 104   2.0000      -0.828929       -22.5563
 105   2.0000      -0.826230       -22.4829
 106   2.0000      -0.821718       -22.3601
 107   2.0000      -0.814033       -22.1510
 108   2.0000      -0.805209       -21.9109
 109   2.0000      -0.797112       -21.6905
 110   2.0000      -0.785853       -21.3842
 111   2.0000      -0.772931       -21.0325
 112   2.0000      -0.763158       -20.7666
 113   2.0000      -0.760407       -20.6917
 114   2.0000      -0.755649       -20.5623
 115   2.0000      -0.753228       -20.4964
 116   2.0000      -0.737280       -20.0624
 117   2.0000      -0.735042       -20.0015
 118   2.0000      -0.727032       -19.7836
 119   2.0000      -0.711537       -19.3619
 120   2.0000      -0.705518       -19.1981
 121   2.0000      -0.693311       -18.8659
 122   2.0000      -0.691364       -18.8130
 123   2.0000      -0.688297       -18.7295
 124   2.0000      -0.683359       -18.5951
 125   2.0000      -0.681758       -18.5516
 126   2.0000      -0.672238       -18.2925
 127   2.0000      -0.668830       -18.1998
 128   2.0000      -0.665193       -18.1008
 129   2.0000      -0.660208       -17.9652
 130   2.0000      -0.654788       -17.8177
 131   2.0000      -0.653641       -17.7865
 132   2.0000      -0.636534       -17.3210
 133   2.0000      -0.630952       -17.1691
 134   2.0000      -0.622610       -16.9421
 135   2.0000      -0.617190       -16.7946
 136   2.0000      -0.613734       -16.7005
 137   2.0000      -0.610748       -16.6193
 138   2.0000      -0.607928       -16.5426
 139   2.0000      -0.606577       -16.5058
 140   2.0000      -0.597704       -16.2643
 141   2.0000      -0.596590       -16.2340
 142   2.0000      -0.587329       -15.9820
 143   2.0000      -0.586091       -15.9483
 144   2.0000      -0.583572       -15.8798
 145   2.0000      -0.581773       -15.8309
 146   2.0000      -0.577489       -15.7143
 147   2.0000      -0.570462       -15.5231
 148   2.0000      -0.566049       -15.4030
 149   2.0000      -0.561353       -15.2752
 150   2.0000      -0.559352       -15.2208
 151   2.0000      -0.552860       -15.0441
 152   2.0000      -0.549526       -14.9534
 153   2.0000      -0.547856       -14.9079
 154   2.0000      -0.546022       -14.8580
 155   2.0000      -0.543559       -14.7910
 156   2.0000      -0.540736       -14.7142
 157   2.0000      -0.536639       -14.6027
 158   2.0000      -0.533969       -14.5300
 159   2.0000      -0.532828       -14.4990
 160   2.0000      -0.531161       -14.4536
 161   2.0000      -0.528577       -14.3833
 162   2.0000      -0.523655       -14.2494
 163   2.0000      -0.523241       -14.2381
 164   2.0000      -0.514641       -14.0041
 165   2.0000      -0.513738       -13.9795
 166   2.0000      -0.510852       -13.9010
 167   2.0000      -0.508327       -13.8323
 168   2.0000      -0.507185       -13.8012
 169   2.0000      -0.506339       -13.7782
 170   2.0000      -0.504747       -13.7349
 171   2.0000      -0.503796       -13.7090
 172   2.0000      -0.501700       -13.6519
 173   2.0000      -0.497855       -13.5473
 174   2.0000      -0.496368       -13.5068
 175   2.0000      -0.494551       -13.4574
 176   2.0000      -0.490645       -13.3511
 177   2.0000      -0.487216       -13.2578
 178   2.0000      -0.486192       -13.2300
 179   2.0000      -0.485868       -13.2211
 180   2.0000      -0.483285       -13.1508
 181   2.0000      -0.481156       -13.0929
 182   2.0000      -0.480227       -13.0676
 183   2.0000      -0.477195       -12.9851
 184   2.0000      -0.473141       -12.8748
 185   2.0000      -0.470725       -12.8091
 186   2.0000      -0.470570       -12.8049
 187   2.0000      -0.467425       -12.7193
 188   2.0000      -0.462932       -12.5970
 189   2.0000      -0.461569       -12.5599
 190   2.0000      -0.458508       -12.4766
 191   2.0000      -0.457713       -12.4550
 192   2.0000      -0.453995       -12.3538
 193   2.0000      -0.451328       -12.2813
 194   2.0000      -0.450504       -12.2588
 195   2.0000      -0.447235       -12.1699
 196   2.0000      -0.440715       -11.9925
 197   2.0000      -0.438673       -11.9369
 198   2.0000      -0.435681       -11.8555
 199   2.0000      -0.432599       -11.7716
 200   2.0000      -0.431477       -11.7411
 201   2.0000      -0.430367       -11.7109
 202   2.0000      -0.428493       -11.6599
 203   2.0000      -0.427616       -11.6360
 204   2.0000      -0.424006       -11.5378
 205   2.0000      -0.423419       -11.5218
 206   2.0000      -0.418183       -11.3793
 207   2.0000      -0.415048       -11.2940
 208   2.0000      -0.414367       -11.2755
 209   2.0000      -0.411021       -11.1844
 210   2.0000      -0.409182       -11.1344
 211   2.0000      -0.408163       -11.1067
 212   2.0000      -0.407869       -11.0987
 213   2.0000      -0.406470       -11.0606
 214   2.0000      -0.401623       -10.9287
 215   2.0000      -0.398584       -10.8460
 216   2.0000      -0.397613       -10.8196
 217   2.0000      -0.393981       -10.7208
 218   2.0000      -0.384182       -10.4541
 219   2.0000      -0.377858       -10.2820
 220   2.0000      -0.373785       -10.1712
 221   2.0000      -0.373360       -10.1596
 222   2.0000      -0.363959        -9.9038
 223   2.0000      -0.362451        -9.8628
 224   2.0000      -0.357143        -9.7184
 225   2.0000      -0.356268        -9.6945
 226   2.0000      -0.351088        -9.5536
 227   2.0000      -0.349787        -9.5182
 228   2.0000      -0.347859        -9.4657
 229   2.0000      -0.340540        -9.2666
 230   2.0000      -0.334168        -9.0932
 231   2.0000      -0.331418        -9.0183
 232   2.0000      -0.323524        -8.8035
 233   2.0000      -0.316186        -8.6039
 234   2.0000      -0.307764        -8.3747
 235   2.0000      -0.302465        -8.2305
 236   2.0000      -0.289955        -7.8901
 237   2.0000      -0.285753        -7.7757
 238   2.0000      -0.279995        -7.6191
 239   2.0000      -0.269134        -7.3235
 240   2.0000      -0.259883        -7.0718
 241   2.0000      -0.217407        -5.9160
 242   0.0000      -0.092101        -2.5062
 243   0.0000      -0.041861        -1.1391
 244   0.0000      -0.039487        -1.0745
 245   0.0000      -0.029552        -0.8042
 246   0.0000      -0.007514        -0.2045

MULLIKEN ATOMIC CHARGES
-----------------------
   0 C :    0.138371
   1 C :   -0.138359
   2 C :    0.181252
   3 C :    0.022484
   4 C :   -0.064351
   5 O :   -0.357089
   6 C :    0.220663
   7 C :   -0.160231
   8 C :    0.011814
   9 C :   -0.042184
  10 C :    0.012096
  11 C :    0.048700
  12 C :    0.054369
  13 C :    0.023684
  14 C :    0.132008
  15 C :   -0.066240
  16 O :   -0.201923
  17 C :   -0.060933
  18 C :    0.176320
  19 O :   -0.151333
  20 N :   -0.165271
  21 C :    0.158941
  22 O :   -0.153214
  23 C :   -0.036273
  24 C :    0.082725
  25 C :   -0.036041
  26 C :    0.036910
  27 C :    0.024694
  28 C :   -0.225089
  29 C :    0.077504
  30 C :    0.184883
  31 N :   -0.126976
  32 C :    0.073097
  33 C :   -0.063360
  34 C :    0.039254
  35 C :   -0.066402
  36 C :    0.064840
  37 C :    0.009987
  38 C :   -0.011790
  39 S :    0.122544
  40 C :   -0.080647
  41 C :    0.046403
  42 C :    0.027328
  43 C :   -0.017204
  44 S :    0.130208
  45 C :   -0.004505
  46 C :    0.022674
  47 C :   -0.159342
  48 C :    0.134132
  49 O :   -0.161929
  50 C :    0.014479
  51 C :   -0.100653
  52 C :    0.075374
  53 C :    0.134346
  54 C :   -0.091756
  55 C :    0.306426
  56 C :   -0.047616
  57 C :   -0.008586
  58 F :   -0.199427
  59 C :   -0.104674
  60 C :    0.057856
  61 C :    0.288705
  62 C :   -0.402966
  63 C :   -0.217057
  64 N :    0.152333
  65 C :   -0.142117
  66 N :    0.121793
  67 H :    0.014346
  68 H :    0.004379
  69 H :   -0.013192
  70 H :    0.009592
  71 H :   -0.003404
  72 H :    0.004983
  73 H :    0.008180
  74 H :    0.000661
  75 H :    0.033152
  76 H :   -0.021861
  77 H :   -0.021193
  78 H :    0.008531
  79 H :    0.011389
  80 H :    0.008891
  81 H :    0.009608
  82 H :   -0.001694
  83 H :    0.003943
  84 H :    0.028192
  85 H :    0.012361
  86 H :    0.039643
  87 H :    0.021695
  88 H :    0.134273
  89 H :    0.002913
  90 H :   -0.016693
  91 H :   -0.030582
  92 H :    0.063225
  93 H :    0.027398
  94 H :    0.002104
  95 H :    0.046763
  96 H :    0.033372
  97 H :    0.138594
  98 H :    0.016365
  99 H :    0.037413
 100 H :   -0.004480
 101 H :   -0.004985
 102 H :   -0.008585
 103 H :   -0.013546
 104 H :   -0.012955
 105 H :   -0.011178
 106 H :    0.017183
 107 H :   -0.017899
 108 H :   -0.050398
 109 H :   -0.003988
 110 H :   -0.009338
 111 H :   -0.036840
Sum of atomic charges:   -0.0000000

LOEWDIN ATOMIC CHARGES
----------------------
   0 C :   -0.013641
   1 C :   -0.018879
   2 C :   -0.031922
   3 C :    0.058364
   4 C :   -0.118145
   5 O :   -0.132994
   6 C :    0.091246
   7 C :   -0.053637
   8 C :   -0.020568
   9 C :   -0.030746
  10 C :   -0.030808
  11 C :   -0.046330
  12 C :   -0.034882
  13 C :   -0.026187
  14 C :   -0.035697
  15 C :    0.083026
  16 O :    0.017737
  17 C :   -0.122480
  18 C :    0.086747
  19 O :   -0.162993
  20 N :   -0.006402
  21 C :    0.083500
  22 O :   -0.171154
  23 C :   -0.103421
  24 C :    0.062142
  25 C :   -0.042926
  26 C :    0.000504
  27 C :   -0.059808
  28 C :   -0.024775
  29 C :   -0.058742
  30 C :    0.038167
  31 N :    0.030611
  32 C :    0.074606
  33 C :   -0.125275
  34 C :    0.019191
  35 C :   -0.188898
  36 C :    0.003105
  37 C :   -0.060041
  38 C :   -0.123617
  39 S :    0.419304
  40 C :   -0.220863
  41 C :   -0.017397
  42 C :   -0.051963
  43 C :   -0.110730
  44 S :    0.481836
  45 C :   -0.077861
  46 C :    0.031867
  47 C :   -0.122498
  48 C :    0.079310
  49 O :   -0.161871
  50 C :   -0.054002
  51 C :    0.022908
  52 C :   -0.027139
  53 C :    0.000751
  54 C :   -0.052392
  55 C :    0.082869
  56 C :   -0.045395
  57 C :    0.003199
  58 F :   -0.074548
  59 C :   -0.011432
  60 C :   -0.005182
  61 C :    0.036657
  62 C :   -0.195125
  63 C :   -0.038508
  64 N :   -0.076737
  65 C :    0.002479
  66 N :   -0.096652
  67 H :    0.017236
  68 H :    0.021047
  69 H :    0.015593
  70 H :    0.027570
  71 H :    0.033563
  72 H :    0.018638
  73 H :    0.017336
  74 H :    0.009572
  75 H :    0.039347
  76 H :    0.020471
  77 H :    0.018258
  78 H :    0.028915
  79 H :    0.022790
  80 H :    0.021981
  81 H :    0.021528
  82 H :    0.028897
  83 H :    0.022296
  84 H :    0.027422
  85 H :    0.028836
  86 H :    0.049604
  87 H :    0.036941
  88 H :    0.092096
  89 H :    0.042003
  90 H :    0.027645
  91 H :    0.021757
  92 H :    0.042077
  93 H :    0.029882
  94 H :    0.029537
  95 H :    0.042092
  96 H :    0.039053
  97 H :    0.088999
  98 H :    0.033749
  99 H :    0.029935
 100 H :    0.036846
 101 H :    0.036775
 102 H :    0.033450
 103 H :    0.032214
 104 H :    0.033406
 105 H :    0.038129
 106 H :    0.043839
 107 H :    0.036932
 108 H :    0.031883
 109 H :    0.039642
 110 H :    0.033596
 111 H :    0.031757

  Mayer bond orders larger than 0.100000
B(  0-C ,  1-C ) :   1.1171 B(  0-C ,  7-C ) :   1.0008 B(  0-C , 67-H ) :   0.9077
B(  0-C , 68-H ) :   0.9231 B(  1-C ,  2-C ) :   0.9975 B(  1-C , 10-C ) :   0.9624
B(  1-C , 69-H ) :   0.9278 B(  2-C ,  3-C ) :   1.0134 B(  2-C , 70-H ) :   0.8936
B(  2-C , 71-H ) :   0.9128 B(  3-C ,  4-C ) :   1.9447 B(  3-C ,  5-O ) :   1.0735
B(  4-C , 72-H ) :   0.9496 B(  4-C , 73-H ) :   0.9360 B(  5-O ,  6-C ) :   0.9187
B(  6-C ,  7-C ) :   1.0053 B(  6-C , 12-C ) :   1.0601 B(  6-C , 74-H ) :   0.9137
B(  7-C ,  8-C ) :   0.9689 B(  7-C , 75-H ) :   0.9127 B(  8-C ,  9-C ) :   1.8722
B(  8-C , 76-H ) :   0.9957 B(  9-C , 10-C ) :   1.0259 B(  9-C , 77-H ) :   0.9753
B( 10-C , 11-C ) :   1.0756 B( 10-C , 78-H ) :   0.9046 B( 11-C , 79-H ) :   0.9693
B( 11-C , 80-H ) :   0.9646 B( 11-C , 81-H ) :   0.9635 B( 12-C , 13-C ) :   1.0938
B( 12-C , 82-H ) :   0.9189 B( 12-C , 83-H ) :   0.9286 B( 13-C , 14-C ) :   1.0891
B( 13-C , 84-H ) :   0.9244 B( 13-C , 85-H ) :   0.9256 B( 14-C , 15-C ) :   1.0670
B( 14-C , 86-H ) :   0.8938 B( 14-C , 87-H ) :   0.9013 B( 15-C , 16-O ) :   1.1630
B( 15-C , 17-C ) :   1.5219 B( 16-O , 24-C ) :   1.1448 B( 17-C , 18-C ) :   0.8699
B( 17-C , 23-C ) :   1.2315 B( 18-C , 19-O ) :   2.2120 B( 18-C , 20-N ) :   1.0956
B( 20-N , 21-C ) :   1.0720 B( 20-N , 88-H ) :   0.9153 B( 21-C , 22-O ) :   2.2617
B( 21-C , 23-C ) :   0.8892 B( 23-C , 24-C ) :   1.4394 B( 24-C , 25-C ) :   1.1347
B( 25-C , 26-C ) :   1.6709 B( 25-C , 89-H ) :   0.9685 B( 26-C , 27-C ) :   1.0988
B( 26-C , 90-H ) :   0.9838 B( 27-C , 28-C ) :   1.7694 B( 27-C , 91-H ) :   0.9641
B( 28-C , 29-C ) :   1.0818 B( 28-C , 30-C ) :   1.0025 B( 29-C , 92-H ) :   0.9063
B( 29-C , 93-H ) :   0.9438 B( 29-C , 94-H ) :   0.9359 B( 30-C , 31-N ) :   1.0194
B( 30-C , 95-H ) :   0.9272 B( 30-C , 96-H ) :   0.9286 B( 31-N , 32-C ) :   1.2871
B( 31-N , 97-H ) :   0.9376 B( 32-C , 33-C ) :   1.5332 B( 32-C , 98-H ) :   0.9715
B( 33-C , 34-C ) :   1.2239 B( 33-C , 99-H ) :   0.9565 B( 34-C , 35-C ) :   1.5130
B( 34-C ,100-H ) :   0.9822 B( 35-C , 36-C ) :   1.1879 B( 35-C , 39-S ) :   1.0228
B( 36-C , 37-C ) :   1.5312 B( 36-C ,101-H ) :   0.9977 B( 37-C , 38-C ) :   1.2327
B( 37-C ,102-H ) :   0.9967 B( 38-C , 39-S ) :   1.1287 B( 38-C , 40-C ) :   1.3827
B( 40-C , 41-C ) :   1.2571 B( 40-C , 44-S ) :   1.0465 B( 41-C , 42-C ) :   1.5023
B( 41-C ,103-H ) :   0.9921 B( 42-C , 43-C ) :   1.2304 B( 42-C ,104-H ) :   0.9987
B( 43-C , 44-S ) :   1.1282 B( 43-C , 45-C ) :   1.3590 B( 45-C , 46-C ) :   1.4343
B( 45-C ,105-H ) :   0.9526 B( 46-C , 47-C ) :   1.3653 B( 46-C ,106-H ) :   0.9281
B( 47-C , 48-C ) :   0.9831 B( 47-C , 61-C ) :   1.1987 B( 48-C , 49-O ) :   2.2409
B( 48-C , 50-C ) :   0.9098 B( 50-C , 51-C ) :   1.4878 B( 50-C , 60-C ) :   1.2181
B( 51-C , 52-C ) :   1.1646 B( 51-C ,107-H ) :   1.0191 B( 52-C , 53-C ) :   1.2624
B( 52-C , 57-C ) :   1.2426 B( 53-C , 54-C ) :   1.2129 B( 53-C , 59-C ) :   1.1832
B( 54-C , 55-C ) :   1.4487 B( 54-C ,108-H ) :   0.9959 B( 55-C , 56-C ) :   1.2458
B( 55-C , 58-F ) :   1.0745 B( 56-C , 57-C ) :   1.4428 B( 56-C ,109-H ) :   0.9867
B( 57-C ,110-H ) :   0.9974 B( 59-C , 60-C ) :   1.4891 B( 59-C ,111-H ) :   0.9910
B( 60-C , 61-C ) :   0.9858 B( 61-C , 62-C ) :   1.4742 B( 62-C , 63-C ) :   1.1624
B( 62-C , 65-C ) :   1.1779 B( 63-C , 64-N ) :   3.0179 B( 65-C , 66-N ) :   2.9260
B( 66-N , 92-H ) :   0.1248

-----------------------------------------------------------------------------
         ABSORPTION SPECTRUM VIA TRANSITION ELECTRIC DIPOLE MOMENTS
-----------------------------------------------------------------------------
State   Energy  Wavelength   fosc         T2         TX        TY        TZ
        (cm-1)    (nm)                  (au**2)     (au)      (au)      (au)
-----------------------------------------------------------------------------
   0   12228.1    817.8   0.602615975  16.22393   0.87505   3.46909  -1.85030
   1   21481.6    465.5   0.010304444   0.15792  -0.29649   0.17618  -0.19741
   2   21797.6    458.8   0.009712595   0.14669  -0.22715  -0.28360  -0.12109
   3   23518.7    425.2   0.260814168   3.65084  -1.15624  -1.44294  -0.48153
   4   23837.9    419.5   0.003033508   0.04189   0.17724  -0.08671  -0.05440
   5   25177.5    397.2   0.084081315   1.09942  -0.81609  -0.49529  -0.43372
   6   26212.3    381.5   0.799391007  10.03990   2.91111   0.60156   1.09703
   7   28274.1    353.7   0.003157745   0.03677   0.10302   0.16170  -0.00269
   8   29590.7    337.9   0.002700086   0.03004  -0.00798  -0.17300  -0.00681
   9   30302.6    330.0   0.067000628   0.72791   0.77926  -0.05456   0.34306
  10   31092.8    321.6   0.062953944   0.66656   0.39387  -0.69679  -0.16098
  11   31349.1    319.0   0.572194004   6.00889  -0.56795   1.77895   1.58798
  12   31806.9    314.4   0.228075581   2.36066   0.94731   0.33424   1.16256
  13   32377.1    308.9   0.301279724   3.06342  -0.77961  -0.70376  -1.40013
  14   32678.9    306.0   0.309241371   3.11535   1.12558  -1.21534  -0.60940
  15   33237.9    300.9   0.055386964   0.54859  -0.70439   0.22850  -0.01449
  16   33447.1    299.0   0.213629808   2.10271   1.39625  -0.35709   0.16023
  17   33680.7    296.9   0.015818370   0.15462   0.34114  -0.11260   0.15989
  18   34065.3    293.6   0.125547219   1.21331   0.74255  -0.31498   0.75014
  19   34580.8    289.2   0.010009153   0.09529   0.02457  -0.19443   0.23849
  20   34755.1    287.7   0.047709795   0.45192   0.27371  -0.60769  -0.08783
  21   35217.6    283.9   0.005582934   0.05219  -0.09164   0.16178  -0.13273
  22   35962.6    278.1   0.101450396   0.92871  -0.95365  -0.08487   0.10978
  23   36224.9    276.1   0.008646968   0.07858   0.16906   0.21847  -0.04771
  24   36376.0    274.9   0.089642017   0.81128  -0.21002   0.49284  -0.72407
  25   36730.0    272.3   0.287764557   2.57924   0.97966  -1.26491   0.13965
  26   37398.9    267.4   0.014739710   0.12975   0.26272  -0.24134   0.04980
  27   37543.9    266.4   0.028740161   0.25201   0.33504  -0.33190   0.17207
  28   38050.8    262.8   0.039003204   0.33745   0.15064   0.56103   0.00078
  29   38322.7    260.9   0.258203617   2.21810   0.33120  -1.45119  -0.04971
  30   38865.8    257.3   0.060044442   0.50861   0.12931   0.64728  -0.27003
  31   38913.6    257.0   0.036479194   0.30862  -0.24894  -0.41771   0.26863
  32   39556.8    252.8   0.008805517   0.07328  -0.11749   0.23190   0.07550
  33   39812.9    251.2   0.001854638   0.01534  -0.01004  -0.12340  -0.00292

FINAL SINGLE POINT ENERGY     -3610.355160439567

DIPOLE MOMENT
-------------
                                X             Y             Z
Electronic contribution:     79.23461     -14.59203      11.85653
Nuclear contribution   :    -81.27009      10.17068     -10.54024
                        -----------------------------------------
Total Dipole Moment    :     -2.03549      -4.42135       1.31629
                        -----------------------------------------
Magnitude (a.u.)       :      5.04224
Magnitude (Debye)      :     12.81634

Rotational constants in cm-1:     0.001569     0.000706     0.000625
Rotational constants in MHz :    47.048985    21.167955    18.725440

                             ****ORCA TERMINATED NORMALLY****
TOTAL RUN TIME: 0 days 0 hours 12 minutes 32 seconds 90 msec
