                         Program Version 4.2.0 -  RELEASE  -
|  1> # ORCA input file
|  2> # SCF done       -149.808099323045          0.000200959174
|  3> ! CAM-B3LYP def2-SVP def2/J RIJCOSX Grid4 TightSCF
|  4> %maxcore 5000
|  5> %tddft
|  6>     Mode sTDDFT
|  7>     Ethresh 5.0
|  8>     maxcore 5000
|  9> end
| 10>
| 11> %pal
| 12>   nprocs 6
| 13>   end
| 14> * xyz 0 1
| 15>    C       -6.09863         1.28668        -0.63478
| 16>    S       -4.57534         0.52596        -0.63783
| 17>    C       -5.20246        -0.94461         0.05924
| 18>    C       -6.58475        -0.81324         0.27462
| 19>    C       -7.08839         0.46772        -0.13123
| 20>    C       -8.45981         0.77277        -0.00658
| 21>    C       -9.33199        -0.16319         0.49107
| 22>    C      -10.76261         0.07507         0.63876
| 23>    C      -11.44672         1.10499         0.15501
| 24>    C       -8.82460        -1.43566         0.87318
| 25>    C       -7.50494        -1.75961         0.76947
| 26>    C       -4.35355        -2.03112         0.36533
| 27>    S       -4.81686        -3.19083         1.57083
| 28>    C       -3.36585        -4.13603         1.39551
| 29>    C       -2.52412        -3.53565         0.44038
| 30>    C       -3.07591        -2.35161        -0.13925
| 31>    C       -2.36228        -1.67666        -1.14083
| 32>    C       -1.11316        -2.10865        -1.53059
| 33>    C       -0.33613        -1.43614        -2.56325
| 34>    C       -0.58783        -0.24247        -3.08830
| 35>    C       -0.55716        -3.25036        -0.90385
| 36>    C       -1.23751        -3.95072         0.04850
| 37>    C       -3.22990        -5.36620         2.06323
| 38>    S       -2.19524        -6.61031         1.43565
| 39>    C       -2.72886        -7.78328         2.59470
| 40>    C       -3.65477        -7.21183         3.48601
| 41>    C       -3.93622        -5.84439         3.19124
| 42>    C       -4.80299        -5.12209         4.02129
| 43>    C       -5.41884        -5.73009         5.09543
| 44>    C       -6.33218        -5.01737         5.97838
| 45>    C       -6.89629        -3.83884         5.73923
| 46>    C       -5.14200        -7.09242         5.36223
| 47>    C       -4.28279        -7.81887         4.58991
| 48>    C       -2.29584        -9.12484         2.52334
| 49>    O       -2.85162       -10.04732         3.33922
| 50>    C       -2.34877       -11.27382         3.02833
| 51>    C       -1.42784       -11.13746         2.00229
| 52>    C       -1.38489        -9.77449         1.68023
| 53>    C       -0.50741        -9.19080         0.63703
| 54>    F       -1.18455        -8.68852        -0.41687
| 55>    F        0.26576        -8.18256         1.09139
| 56>    F        0.33595       -10.10145         0.13019
| 57>    C       -2.82924       -12.39993         3.73133
| 58>    C       -2.54613       -13.69328         3.40122
| 59>    C       -3.06780       -14.80066         4.08435
| 60>    C       -2.89538       -16.10506         3.69294
| 61>    C       -3.41880       -17.26011         4.32615
| 62>    C       -3.13261       -18.42820         3.69194
| 63>    C       -2.36359       -18.26950         2.51305
| 64>    S       -2.00094       -16.57317         2.25460
| 65>    C       -1.94539       -19.24629         1.64024
| 66>    C       -2.19233       -20.64470         1.72622
| 67>    C       -1.67407       -21.36660         0.70798
| 68>    C       -0.96954       -20.58983        -0.27120
| 69>    S       -1.01215       -18.88365         0.20175
| 70>    C       -0.36126       -21.02621        -1.38271
| 71>    H       -6.19514         2.28600        -1.00912
| 72>    H       -8.79716         1.75121        -0.31046
| 73>    H      -11.29226        -0.69265         1.18993
| 74>    H      -10.98671         1.89211        -0.41762
| 75>    H      -12.50801         1.19453         0.31094
| 76>    H       -9.52119        -2.17156         1.24830
| 77>    H       -7.17183        -2.74487         1.05301
| 78>    H       -2.80497        -0.82206        -1.62285
| 79>    H        0.53505        -1.98461        -2.90001
| 80>    H       -1.42220         0.36499        -2.78146
| 81>    H        0.04798         0.17885        -3.84783
| 82>    H        0.43196        -3.57159        -1.19526
| 83>    H       -0.78556        -4.81477         0.50775
| 84>    H       -4.96291        -4.07282         3.83944
| 85>    H       -6.56896        -5.53642         6.89930
| 86>    H       -6.72426        -3.28447         4.83228
| 87>    H       -7.56704        -3.38585         6.44889
| 88>    H       -5.62177        -7.55976         6.21027
| 89>    H       -4.07088        -8.84900         4.82152
| 90>    H       -0.85028       -11.91280         1.54410
| 91>    H       -3.49784       -12.19144         4.55513
| 92>    H       -1.90949       -13.89364         2.55020
| 93>    H       -3.66947       -14.62357         4.96636
| 94>    H       -3.99620       -17.18494         5.23106
| 95>    H       -3.45466       -19.39592         4.03257
| 96>    H       -2.75097       -21.06478         2.54387
| 97>    H       -1.76156       -22.43339         0.60204
| 98>    H       -0.36048       -22.07231        -1.63330
| 99>    H        0.14028       -20.35374        -2.05402
|100> *
|101>
|102>                          ****END OF INPUT****

CARTESIAN COORDINATES (ANGSTROEM)
---------------------------------
  C     -6.098630    1.286680   -0.634780
  S     -4.575340    0.525960   -0.637830
  C     -5.202460   -0.944610    0.059240
  C     -6.584750   -0.813240    0.274620
  C     -7.088390    0.467720   -0.131230
  C     -8.459810    0.772770   -0.006580
  C     -9.331990   -0.163190    0.491070
  C    -10.762610    0.075070    0.638760
  C    -11.446720    1.104990    0.155010
  C     -8.824600   -1.435660    0.873180
  C     -7.504940   -1.759610    0.769470
  C     -4.353550   -2.031120    0.365330
  S     -4.816860   -3.190830    1.570830
  C     -3.365850   -4.136030    1.395510
  C     -2.524120   -3.535650    0.440380
  C     -3.075910   -2.351610   -0.139250
  C     -2.362280   -1.676660   -1.140830
  C     -1.113160   -2.108650   -1.530590
  C     -0.336130   -1.436140   -2.563250
  C     -0.587830   -0.242470   -3.088300
  C     -0.557160   -3.250360   -0.903850
  C     -1.237510   -3.950720    0.048500
  C     -3.229900   -5.366200    2.063230
  S     -2.195240   -6.610310    1.435650
  C     -2.728860   -7.783280    2.594700
  C     -3.654770   -7.211830    3.486010
  C     -3.936220   -5.844390    3.191240
  C     -4.802990   -5.122090    4.021290
  C     -5.418840   -5.730090    5.095430
  C     -6.332180   -5.017370    5.978380
  C     -6.896290   -3.838840    5.739230
  C     -5.142000   -7.092420    5.362230
  C     -4.282790   -7.818870    4.589910
  C     -2.295840   -9.124840    2.523340
  O     -2.851620  -10.047320    3.339220
  C     -2.348770  -11.273820    3.028330
  C     -1.427840  -11.137460    2.002290
  C     -1.384890   -9.774490    1.680230
  C     -0.507410   -9.190800    0.637030
  F     -1.184550   -8.688520   -0.416870
  F      0.265760   -8.182560    1.091390
  F      0.335950  -10.101450    0.130190
  C     -2.829240  -12.399930    3.731330
  C     -2.546130  -13.693280    3.401220
  C     -3.067800  -14.800660    4.084350
  C     -2.895380  -16.105060    3.692940
  C     -3.418800  -17.260110    4.326150
  C     -3.132610  -18.428200    3.691940
  C     -2.363590  -18.269500    2.513050
  S     -2.000940  -16.573170    2.254600
  C     -1.945390  -19.246290    1.640240
  C     -2.192330  -20.644700    1.726220
  C     -1.674070  -21.366600    0.707980
  C     -0.969540  -20.589830   -0.271200
  S     -1.012150  -18.883650    0.201750
  C     -0.361260  -21.026210   -1.382710
  H     -6.195140    2.286000   -1.009120
  H     -8.797160    1.751210   -0.310460
  H    -11.292260   -0.692650    1.189930
  H    -10.986710    1.892110   -0.417620
  H    -12.508010    1.194530    0.310940
  H     -9.521190   -2.171560    1.248300
  H     -7.171830   -2.744870    1.053010
  H     -2.804970   -0.822060   -1.622850
  H      0.535050   -1.984610   -2.900010
  H     -1.422200    0.364990   -2.781460
  H      0.047980    0.178850   -3.847830
  H      0.431960   -3.571590   -1.195260
  H     -0.785560   -4.814770    0.507750
  H     -4.962910   -4.072820    3.839440
  H     -6.568960   -5.536420    6.899300
  H     -6.724260   -3.284470    4.832280
  H     -7.567040   -3.385850    6.448890
  H     -5.621770   -7.559760    6.210270
  H     -4.070880   -8.849000    4.821520
  H     -0.850280  -11.912800    1.544100
  H     -3.497840  -12.191440    4.555130
  H     -1.909490  -13.893640    2.550200
  H     -3.669470  -14.623570    4.966360
  H     -3.996200  -17.184940    5.231060
  H     -3.454660  -19.395920    4.032570
  H     -2.750970  -21.064780    2.543870
  H     -1.761560  -22.433390    0.602040
  H     -0.360480  -22.072310   -1.633300
  H      0.140280  -20.353740   -2.054020

 Total Charge           Charge          ....    0
 Multiplicity           Mult            ....    1
 Number of Electrons    NEL             ....  426
 Basis Dimension        Dim             ....  949

ORBITAL ENERGIES
----------------

  NO   OCC          E(Eh)            E(eV)
   0   2.0000     -88.965725     -2420.8805
   1   2.0000     -88.964660     -2420.8515
   2   2.0000     -88.963492     -2420.8197
   3   2.0000     -88.937917     -2420.1238
   4   2.0000     -88.933927     -2420.0152
   5   2.0000     -24.791466      -674.6101
   6   2.0000     -24.787922      -674.5136
   7   2.0000     -24.785755      -674.4547
   8   2.0000     -19.293817      -525.0114
   9   2.0000     -10.511407      -286.0299
  10   2.0000     -10.349085      -281.6129
  11   2.0000     -10.329519      -281.0805
  12   2.0000     -10.310001      -280.5494
  13   2.0000     -10.307904      -280.4923
  14   2.0000     -10.306246      -280.4472
  15   2.0000     -10.305509      -280.4271
  16   2.0000     -10.305191      -280.4185
  17   2.0000     -10.304491      -280.3995
  18   2.0000     -10.302397      -280.3425
  19   2.0000     -10.302323      -280.3405
  20   2.0000     -10.301798      -280.3262
  21   2.0000     -10.290758      -280.0258
  22   2.0000     -10.285751      -279.8895
  23   2.0000     -10.285444      -279.8812
  24   2.0000     -10.283879      -279.8386
  25   2.0000     -10.280629      -279.7501
  26   2.0000     -10.280565      -279.7484
  27   2.0000     -10.279933      -279.7312
  28   2.0000     -10.279541      -279.7205
  29   2.0000     -10.279154      -279.7100
  30   2.0000     -10.278515      -279.6926
  31   2.0000     -10.278415      -279.6899
  32   2.0000     -10.277838      -279.6742
  33   2.0000     -10.277658      -279.6693
  34   2.0000     -10.276433      -279.6360
  35   2.0000     -10.276078      -279.6263
  36   2.0000     -10.273552      -279.5576
  37   2.0000     -10.273308      -279.5509
  38   2.0000     -10.273097      -279.5452
  39   2.0000     -10.272377      -279.5256
  40   2.0000     -10.269467      -279.4464
  41   2.0000     -10.269150      -279.4378
  42   2.0000     -10.268825      -279.4289
  43   2.0000     -10.268357      -279.4162
  44   2.0000     -10.267927      -279.4045
  45   2.0000     -10.267829      -279.4018
  46   2.0000     -10.267253      -279.3862
  47   2.0000     -10.267245      -279.3859
  48   2.0000     -10.267077      -279.3814
  49   2.0000     -10.266971      -279.3785
  50   2.0000     -10.266807      -279.3740
  51   2.0000     -10.265958      -279.3509
  52   2.0000     -10.265860      -279.3483
  53   2.0000     -10.259775      -279.1827
  54   2.0000     -10.258778      -279.1555
  55   2.0000     -10.258250      -279.1412
  56   2.0000      -8.060409      -219.3349
  57   2.0000      -8.058722      -219.2890
  58   2.0000      -8.057835      -219.2648
  59   2.0000      -8.034220      -218.6222
  60   2.0000      -8.030742      -218.5276
  61   2.0000      -6.029470      -164.0702
  62   2.0000      -6.027992      -164.0300
  63   2.0000      -6.027109      -164.0060
  64   2.0000      -6.025051      -163.9500
  65   2.0000      -6.023627      -163.9112
  66   2.0000      -6.023470      -163.9069
  67   2.0000      -6.022656      -163.8848
  68   2.0000      -6.021302      -163.8480
  69   2.0000      -6.020323      -163.8213
  70   2.0000      -6.003959      -163.3760
  71   2.0000      -6.000564      -163.2837
  72   2.0000      -6.000067      -163.2701
  73   2.0000      -5.996663      -163.1775
  74   2.0000      -5.994993      -163.1320
  75   2.0000      -5.991224      -163.0295
  76   2.0000      -1.378129       -37.5008
  77   2.0000      -1.281819       -34.8801
  78   2.0000      -1.277090       -34.7514
  79   2.0000      -1.211644       -32.9705
  80   2.0000      -1.004599       -27.3365
  81   2.0000      -0.992613       -27.0104
  82   2.0000      -0.987788       -26.8791
  83   2.0000      -0.978302       -26.6210
  84   2.0000      -0.965009       -26.2592
  85   2.0000      -0.934623       -25.4324
  86   2.0000      -0.933533       -25.4027
  87   2.0000      -0.931032       -25.3347
  88   2.0000      -0.917500       -24.9664
  89   2.0000      -0.913290       -24.8519
  90   2.0000      -0.893035       -24.3007
  91   2.0000      -0.879710       -23.9381
  92   2.0000      -0.872392       -23.7390
  93   2.0000      -0.869237       -23.6531
  94   2.0000      -0.866142       -23.5689
  95   2.0000      -0.859212       -23.3803
  96   2.0000      -0.845832       -23.0163
  97   2.0000      -0.840199       -22.8630
  98   2.0000      -0.838670       -22.8214
  99   2.0000      -0.825560       -22.4646
 100   2.0000      -0.820860       -22.3367
 101   2.0000      -0.813788       -22.1443
 102   2.0000      -0.809043       -22.0152
 103   2.0000      -0.805788       -21.9266
 104   2.0000      -0.799591       -21.7580
 105   2.0000      -0.794627       -21.6229
 106   2.0000      -0.787800       -21.4371
 107   2.0000      -0.773861       -21.0578
 108   2.0000      -0.749592       -20.3974
 109   2.0000      -0.727947       -19.8084
 110   2.0000      -0.721425       -19.6310
 111   2.0000      -0.719023       -19.5656
 112   2.0000      -0.715287       -19.4639
 113   2.0000      -0.710017       -19.3205
 114   2.0000      -0.699060       -19.0224
 115   2.0000      -0.696778       -18.9603
 116   2.0000      -0.686418       -18.6784
 117   2.0000      -0.679245       -18.4832
 118   2.0000      -0.671960       -18.2850
 119   2.0000      -0.667797       -18.1717
 120   2.0000      -0.660651       -17.9772
 121   2.0000      -0.657451       -17.8902
 122   2.0000      -0.649179       -17.6650
 123   2.0000      -0.643866       -17.5205
 124   2.0000      -0.641986       -17.4693
 125   2.0000      -0.631620       -17.1873
 126   2.0000      -0.628140       -17.0926
 127   2.0000      -0.624169       -16.9845
 128   2.0000      -0.617971       -16.8158
 129   2.0000      -0.617160       -16.7938
 130   2.0000      -0.611788       -16.6476
 131   2.0000      -0.604006       -16.4358
 132   2.0000      -0.594283       -16.1713
 133   2.0000      -0.593609       -16.1529
 134   2.0000      -0.586665       -15.9640
 135   2.0000      -0.574220       -15.6253
 136   2.0000      -0.562602       -15.3092
 137   2.0000      -0.561999       -15.2928
 138   2.0000      -0.560289       -15.2462
 139   2.0000      -0.554946       -15.1008
 140   2.0000      -0.547641       -14.9021
 141   2.0000      -0.544081       -14.8052
 142   2.0000      -0.540809       -14.7162
 143   2.0000      -0.538427       -14.6513
 144   2.0000      -0.537534       -14.6270
 145   2.0000      -0.536230       -14.5916
 146   2.0000      -0.534706       -14.5501
 147   2.0000      -0.529445       -14.4069
 148   2.0000      -0.528248       -14.3744
 149   2.0000      -0.523869       -14.2552
 150   2.0000      -0.517894       -14.0926
 151   2.0000      -0.511374       -13.9152
 152   2.0000      -0.510209       -13.8835
 153   2.0000      -0.508057       -13.8249
 154   2.0000      -0.504381       -13.7249
 155   2.0000      -0.504057       -13.7161
 156   2.0000      -0.499038       -13.5795
 157   2.0000      -0.498112       -13.5543
 158   2.0000      -0.496060       -13.4985
 159   2.0000      -0.495179       -13.4745
 160   2.0000      -0.492784       -13.4093
 161   2.0000      -0.490424       -13.3451
 162   2.0000      -0.490226       -13.3397
 163   2.0000      -0.483390       -13.1537
 164   2.0000      -0.481003       -13.0888
 165   2.0000      -0.479712       -13.0536
 166   2.0000      -0.476148       -12.9566
 167   2.0000      -0.474687       -12.9169
 168   2.0000      -0.473831       -12.8936
 169   2.0000      -0.470057       -12.7909
 170   2.0000      -0.468377       -12.7452
 171   2.0000      -0.461632       -12.5616
 172   2.0000      -0.458469       -12.4756
 173   2.0000      -0.457651       -12.4533
 174   2.0000      -0.455000       -12.3812
 175   2.0000      -0.451918       -12.2973
 176   2.0000      -0.447141       -12.1673
 177   2.0000      -0.444938       -12.1074
 178   2.0000      -0.441112       -12.0033
 179   2.0000      -0.432573       -11.7709
 180   2.0000      -0.432058       -11.7569
 181   2.0000      -0.424605       -11.5541
 182   2.0000      -0.423431       -11.5221
 183   2.0000      -0.423249       -11.5172
 184   2.0000      -0.421368       -11.4660
 185   2.0000      -0.418750       -11.3948
 186   2.0000      -0.416123       -11.3233
 187   2.0000      -0.414821       -11.2879
 188   2.0000      -0.413387       -11.2488
 189   2.0000      -0.411464       -11.1965
 190   2.0000      -0.404198       -10.9988
 191   2.0000      -0.399315       -10.8659
 192   2.0000      -0.394289       -10.7291
 193   2.0000      -0.392151       -10.6710
 194   2.0000      -0.390344       -10.6218
 195   2.0000      -0.375537       -10.2189
 196   2.0000      -0.369953       -10.0669
 197   2.0000      -0.365807        -9.9541
 198   2.0000      -0.362945        -9.8762
 199   2.0000      -0.354825        -9.6553
 200   2.0000      -0.344679        -9.3792
 201   2.0000      -0.333133        -9.0650
 202   2.0000      -0.332471        -9.0470
 203   2.0000      -0.327122        -8.9014
 204   2.0000      -0.315014        -8.5720
 205   2.0000      -0.304316        -8.2809
 206   2.0000      -0.298134        -8.1126
 207   2.0000      -0.293272        -7.9803
 208   2.0000      -0.281755        -7.6669
 209   2.0000      -0.275647        -7.5007
 210   2.0000      -0.252426        -6.8689
 211   2.0000      -0.218472        -5.9449
 212   2.0000      -0.194203        -5.2845
 213   0.0000      -0.081390        -2.2147
 214   0.0000      -0.061736        -1.6799
 215   0.0000      -0.034672        -0.9435
 216   0.0000      -0.016240        -0.4419
 217   0.0000      -0.005317        -0.1447

MULLIKEN ATOMIC CHARGES
-----------------------
   0 C :   -0.126188
   1 S :    0.150380
   2 C :   -0.138300
   3 C :    0.114423
   4 C :    0.097231
   5 C :   -0.057938
   6 C :    0.101554
   7 C :   -0.004700
   8 C :   -0.011350
   9 C :   -0.016564
  10 C :   -0.030779
  11 C :   -0.112024
  12 S :    0.129760
  13 C :   -0.104237
  14 C :    0.088266
  15 C :    0.123355
  16 C :   -0.102682
  17 C :    0.101063
  18 C :   -0.005448
  19 C :   -0.012358
  20 C :   -0.015371
  21 C :   -0.034548
  22 C :   -0.087825
  23 S :    0.150828
  24 C :   -0.166508
  25 C :    0.099739
  26 C :    0.102123
  27 C :   -0.105508
  28 C :    0.103893
  29 C :   -0.008928
  30 C :   -0.014023
  31 C :   -0.008848
  32 C :   -0.027650
  33 C :    0.185590
  34 O :   -0.213902
  35 C :    0.209659
  36 C :   -0.079340
  37 C :   -0.161785
  38 C :    0.530157
  39 F :   -0.168949
  40 F :   -0.170924
  41 F :   -0.154774
  42 C :   -0.011592
  43 C :    0.001807
  44 C :   -0.018511
  45 C :   -0.016341
  46 C :    0.036593
  47 C :    0.025710
  48 C :   -0.048740
  49 S :    0.067754
  50 C :   -0.066639
  51 C :    0.029346
  52 C :    0.049729
  53 C :   -0.063404
  54 S :    0.079420
  55 C :   -0.030850
  56 H :    0.016017
  57 H :   -0.043183
  58 H :   -0.014661
  59 H :    0.013009
  60 H :    0.022558
  61 H :   -0.025226
  62 H :   -0.016960
  63 H :   -0.031035
  64 H :   -0.014044
  65 H :    0.013739
  66 H :    0.022491
  67 H :   -0.023598
  68 H :   -0.011086
  69 H :   -0.021517
  70 H :   -0.015561
  71 H :    0.016765
  72 H :    0.022267
  73 H :   -0.028028
  74 H :   -0.018046
  75 H :   -0.002763
  76 H :   -0.010047
  77 H :    0.002042
  78 H :   -0.019119
  79 H :   -0.015282
  80 H :   -0.015749
  81 H :   -0.013146
  82 H :   -0.011589
  83 H :    0.019356
  84 H :    0.021543
Sum of atomic charges:    0.0000000

LOEWDIN ATOMIC CHARGES
----------------------
   0 C :   -0.202040
   1 S :    0.498781
   2 C :   -0.198752
   3 C :   -0.050127
   4 C :   -0.048017
   5 C :   -0.003252
   6 C :   -0.032955
   7 C :   -0.020328
   8 C :   -0.040349
   9 C :   -0.017849
  10 C :   -0.028443
  11 C :   -0.188717
  12 S :    0.507873
  13 C :   -0.198484
  14 C :   -0.044813
  15 C :   -0.046106
  16 C :   -0.015662
  17 C :   -0.028173
  18 C :   -0.019809
  19 C :   -0.039615
  20 C :   -0.013291
  21 C :   -0.023429
  22 C :   -0.181425
  23 S :    0.513789
  24 C :   -0.213716
  25 C :   -0.031865
  26 C :   -0.049758
  27 C :   -0.017722
  28 C :   -0.030233
  29 C :   -0.021099
  30 C :   -0.040215
  31 C :   -0.015732
  32 C :   -0.016077
  33 C :    0.041800
  34 O :    0.019995
  35 C :    0.026732
  36 C :   -0.037385
  37 C :   -0.139411
  38 C :    0.162654
  39 F :   -0.070386
  40 F :   -0.071279
  41 F :   -0.055463
  42 C :   -0.041519
  43 C :   -0.022461
  44 C :   -0.061691
  45 C :   -0.143842
  46 C :   -0.036265
  47 C :   -0.031542
  48 C :   -0.180392
  49 S :    0.362453
  50 C :   -0.178131
  51 C :   -0.027152
  52 C :   -0.032981
  53 C :   -0.139301
  54 S :    0.350877
  55 C :   -0.077946
  56 H :    0.023240
  57 H :    0.026003
  58 H :    0.027776
  59 H :    0.019496
  60 H :    0.025952
  61 H :    0.027707
  62 H :    0.013846
  63 H :    0.008593
  64 H :    0.028313
  65 H :    0.019907
  66 H :    0.026014
  67 H :    0.028916
  68 H :    0.017623
  69 H :    0.011116
  70 H :    0.027295
  71 H :    0.020785
  72 H :    0.025740
  73 H :    0.026922
  74 H :    0.026749
  75 H :    0.035567
  76 H :    0.035070
  77 H :    0.023239
  78 H :    0.031842
  79 H :    0.032554
  80 H :    0.030694
  81 H :    0.031768
  82 H :    0.033091
  83 H :    0.028298
  84 H :    0.026131

  Mayer bond orders larger than 0.100000
B(  0-C ,  1-S ) :   1.1942 B(  0-C ,  2-C ) :   0.1134 B(  0-C ,  4-C ) :   1.3971
B(  0-C , 56-H ) :   0.9686 B(  1-S ,  2-C ) :   1.1669 B(  2-C ,  3-C ) :   1.3408
B(  2-C , 11-C ) :   1.1773 B(  3-C ,  4-C ) :   1.1985 B(  3-C , 10-C ) :   1.1883
B(  4-C ,  5-C ) :   1.1840 B(  5-C ,  6-C ) :   1.5143 B(  5-C , 57-H ) :   0.9972
B(  6-C ,  7-C ) :   1.0530 B(  6-C ,  9-C ) :   1.1776 B(  7-C ,  8-C ) :   1.9648
B(  7-C , 58-H ) :   0.9674 B(  8-C , 59-H ) :   0.9481 B(  8-C , 60-H ) :   0.9492
B(  9-C , 10-C ) :   1.5722 B(  9-C , 61-H ) :   0.9882 B( 10-C , 62-H ) :   0.9727
B( 11-C , 12-S ) :   1.1558 B( 11-C , 13-C ) :   0.1117 B( 11-C , 15-C ) :   1.3054
B( 12-S , 13-C ) :   1.1320 B( 13-C , 14-C ) :   1.3162 B( 13-C , 22-C ) :   1.1982
B( 14-C , 15-C ) :   1.2103 B( 14-C , 21-C ) :   1.2003 B( 15-C , 16-C ) :   1.2143
B( 16-C , 17-C ) :   1.5062 B( 16-C , 63-H ) :   0.9705 B( 17-C , 18-C ) :   1.0545
B( 17-C , 20-C ) :   1.2000 B( 18-C , 19-C ) :   1.9574 B( 18-C , 64-H ) :   0.9677
B( 19-C , 65-H ) :   0.9483 B( 19-C , 66-H ) :   0.9498 B( 20-C , 21-C ) :   1.5502
B( 20-C , 67-H ) :   0.9904 B( 21-C , 68-H ) :   0.9763 B( 22-C , 23-S ) :   1.1608
B( 22-C , 24-C ) :   0.1195 B( 22-C , 26-C ) :   1.2877 B( 23-S , 24-C ) :   1.1502
B( 24-C , 25-C ) :   1.3061 B( 24-C , 33-C ) :   1.1740 B( 25-C , 26-C ) :   1.2039
B( 25-C , 32-C ) :   1.2292 B( 26-C , 27-C ) :   1.2259 B( 27-C , 28-C ) :   1.4955
B( 27-C , 69-H ) :   0.9687 B( 28-C , 29-C ) :   1.0518 B( 28-C , 31-C ) :   1.2005
B( 29-C , 30-C ) :   1.9562 B( 29-C , 70-H ) :   0.9673 B( 30-C , 71-H ) :   0.9490
B( 30-C , 72-H ) :   0.9504 B( 31-C , 32-C ) :   1.5172 B( 31-C , 73-H ) :   0.9922
B( 32-C , 74-H ) :   0.9880 B( 33-C , 34-O ) :   1.1725 B( 33-C , 37-C ) :   1.4131
B( 34-O , 35-C ) :   1.0800 B( 35-C , 36-C ) :   1.4350 B( 35-C , 42-C ) :   1.1253
B( 36-C , 37-C ) :   1.2736 B( 36-C , 75-H ) :   1.0121 B( 37-C , 38-C ) :   0.9575
B( 38-C , 39-F ) :   1.1582 B( 38-C , 40-F ) :   1.1565 B( 38-C , 41-F ) :   1.1790
B( 42-C , 43-C ) :   1.6155 B( 42-C , 76-H ) :   0.9734 B( 43-C , 44-C ) :   1.1754
B( 43-C , 77-H ) :   0.9700 B( 44-C , 45-C ) :   1.5570 B( 44-C , 78-H ) :   0.9835
B( 45-C , 46-C ) :   1.1399 B( 45-C , 49-S ) :   1.0312 B( 46-C , 47-C ) :   1.5998
B( 46-C , 79-H ) :   0.9990 B( 47-C , 48-C ) :   1.1762 B( 47-C , 80-H ) :   0.9933
B( 48-C , 49-S ) :   1.0373 B( 48-C , 50-C ) :   1.5507 B( 50-C , 51-C ) :   1.1550
B( 50-C , 54-S ) :   1.0448 B( 51-C , 52-C ) :   1.6594 B( 51-C , 81-H ) :   0.9914
B( 52-C , 53-C ) :   1.0807 B( 52-C , 82-H ) :   0.9931 B( 53-C , 54-S ) :   1.0083
B( 53-C , 55-C ) :   1.8632 B( 55-C , 83-H ) :   0.9506 B( 55-C , 84-H ) :   0.9417

-----------------------------------------------------------------------------
         ABSORPTION SPECTRUM VIA TRANSITION ELECTRIC DIPOLE MOMENTS
-----------------------------------------------------------------------------
State   Energy  Wavelength   fosc         T2         TX        TY        TZ
        (cm-1)    (nm)                  (au**2)     (au)      (au)      (au)
-----------------------------------------------------------------------------
   0   11398.4    877.3   1.681976103  48.57946   1.62333  -6.72467   0.85034
   1   16800.8    595.2   0.534283799  10.46930  -0.21355  -2.74765  -1.69532
   2   17867.3    559.7   0.089271486   1.64486  -0.13030  -0.70988  -1.06016
   3   20293.6    492.8   0.043532430   0.70620  -0.59343   0.46462   0.37172
   4   22717.4    440.2   0.314922456   4.56374   1.36621  -0.84557  -1.40791
   5   23632.4    423.1   0.007512366   0.10465  -0.07791   0.30565   0.07182
   6   24398.6    409.9   0.037209966   0.50208  -0.64269  -0.29807   0.01356
   7   26373.7    379.2   0.013277549   0.16574   0.06645   0.15688  -0.36975
   8   27986.1    357.3   0.049669210   0.58428  -0.07619   0.74461  -0.15500
   9   28494.9    350.9   0.053418168   0.61716  -0.69304   0.17200   0.32753
  10   29098.1    343.7   0.046102567   0.52160   0.32980  -0.63477  -0.09947
  11   29924.3    334.2   0.117534667   1.29306   0.41577  -1.05832   0.01172
  12   30504.6    327.8   0.002439673   0.02633   0.03920  -0.15685  -0.01380
  13   31016.0    322.4   0.062352533   0.66183  -0.47330   0.41129   0.51832
  14   31994.7    312.6   0.006750434   0.06946   0.13527   0.21916  -0.05597
  15   32660.6    306.2   0.047778635   0.48160  -0.18021   0.55373  -0.37750
  16   33246.1    300.8   0.043269550   0.42847   0.39264   0.06749   0.51937
  17   33407.0    299.3   0.273859957   2.69878   0.93131   0.14924  -1.34505
  18   34195.1    292.4   0.021086512   0.20301  -0.37638   0.00431   0.24764
  19   34225.6    292.2   0.117187211   1.12721   1.03223  -0.20972  -0.13316
  20   34257.1    291.9   0.007442812   0.07153   0.16304   0.01748  -0.21128
  21   34737.3    287.9   0.126835799   1.20205  -0.87615  -0.23181   0.61699
  22   35164.3    284.4   0.338385311   3.16800   1.38277   0.05901  -1.11913
  23   36111.7    276.9   0.265652654   2.42182  -1.27757  -0.23191   0.85781
  24   36193.4    276.3   0.126971754   1.15492  -0.77022  -0.28915   0.69143
  25   36875.7    271.2   0.195936914   1.74925   0.90318   0.46467  -0.84711
  26   37574.3    266.1   0.041357158   0.36236  -0.58889   0.12226   0.02486
  27   38073.6    262.6   0.042541194   0.36784   0.55398   0.07139  -0.23632
  28   38401.7    260.4   0.124599863   1.06818   0.06448   0.86766  -0.55784
  29   38764.7    258.0   0.036735975   0.31198   0.30790  -0.02326   0.46544
  30   38877.6    257.2   0.031332241   0.26532   0.21851  -0.44919   0.12569
  31   39098.7    255.8   0.034163403   0.28766   0.43341  -0.03843  -0.31359
  32   39405.4    253.8   0.056395159   0.47115   0.39061  -0.09842  -0.55578
  33   39848.4    251.0   0.086959032   0.71842  -0.51071   0.18376   0.65102
  34   40022.1    249.9   0.014829808   0.12199  -0.12629   0.11178   0.30584
  35   40300.8    248.1   0.093363744   0.76268   0.46605  -0.16371  -0.72019

FINAL SINGLE POINT ENERGY     -4170.721930620840

DIPOLE MOMENT
-------------
                                X             Y             Z
Electronic contribution:     34.52761     -15.44453      -6.85476
Nuclear contribution   :    -35.61004      14.89285       7.49969
                        -----------------------------------------
Total Dipole Moment    :     -1.08243      -0.55168       0.64493
                        -----------------------------------------
Magnitude (a.u.)       :      1.37548
Magnitude (Debye)      :      3.49619

Rotational constants in cm-1:     0.002393     0.000393     0.000365
Rotational constants in MHz :    71.746376    11.784105    10.956380

                             ****ORCA TERMINATED NORMALLY****
TOTAL RUN TIME: 0 days 0 hours 7 minutes 1 seconds 945 msec
