                         Program Version 4.2.0 -  RELEASE  -
|  1> # ORCA input file
|  2> # SCF done       -167.784857408581          0.000880886784
|  3> ! CAM-B3LYP def2-SVP def2/J RIJCOSX Grid4 TightSCF
|  4> %maxcore 5000
|  5> %tddft
|  6>     Mode sTDDFT
|  7>     Ethresh 5.0
|  8>     maxcore 5000
|  9> end
| 10>
| 11> %pal
| 12>   nprocs 6
| 13>   end
| 14> * xyz 0 1
| 15>    C      -12.61273        -9.45702        -3.36170
| 16>    S      -12.63179       -10.96245        -4.20242
| 17>    C      -14.24495       -10.71065        -4.81762
| 18>    C      -14.92704       -11.74790        -5.63986
| 19>    C      -15.23548       -12.99638        -4.81166
| 20>    C      -14.71190        -9.51526        -4.37327
| 21>    C      -13.79005        -8.78672        -3.53347
| 22>    N      -14.24992        -7.59100        -3.08444
| 23>    C      -15.44425        -7.34726        -3.50300
| 24>    S      -16.17276        -8.59274        -4.56610
| 25>    C      -16.21012        -6.19314        -3.17009
| 26>    C      -15.78945        -5.36414        -2.19452
| 27>    N      -16.42748        -4.22474        -1.81210
| 28>    C      -16.01720        -3.36602        -0.82920
| 29>    S      -17.23324        -2.43050        -0.01020
| 30>    C      -16.02153        -1.79992         1.05745
| 31>    N      -16.41991        -0.88045         2.03154
| 32>    O      -15.56672        -0.44792         2.78454
| 33>    O      -17.60225        -0.58101         2.05222
| 34>    C      -14.76901        -2.28760         0.79238
| 35>    C      -14.73807        -3.16639        -0.30466
| 36>    C      -13.49747        -3.71723        -0.82666
| 37>    C      -13.23539        -3.84410        -2.13643
| 38>    C      -12.08154        -4.51626        -2.66076
| 39>    C      -11.81285        -4.69515        -3.96276
| 40>    C      -12.61218        -4.12790        -5.09107
| 41>    C      -10.67025        -5.59250        -4.38222
| 42>    N      -11.19595        -6.78476        -5.01551
| 43>    C      -11.54787        -6.79381        -6.30488
| 44>    C      -12.44737        -7.66236        -6.86436
| 45>    C      -12.88623        -7.56244        -8.18527
| 46>    C      -14.14436        -7.98803        -8.66480
| 47>    C      -15.09462        -8.84669        -8.09897
| 48>    C      -16.29114        -9.03178        -8.74083
| 49>    C      -16.55172        -8.40040        -9.96870
| 50>    C      -15.63971        -7.55334       -10.54730
| 51>    C      -14.42979        -7.29936        -9.88781
| 52>    C      -13.32609        -6.47765       -10.23905
| 53>    C      -12.26409        -6.79524        -9.27264
| 54>    C      -10.95325        -6.58858        -9.43487
| 55>    C      -13.20526        -5.55139       -11.25457
| 56>    C      -14.22261        -4.89640       -11.94538
| 57>    C      -13.98131        -4.36950       -13.29234
| 58>    O      -12.92496        -4.33047       -13.89533
| 59>    C      -15.31037        -3.93316       -13.78744
| 60>    C      -15.66160        -3.45594       -15.01405
| 61>    C      -17.01600        -3.12871       -15.26276
| 62>    C      -17.97769        -3.30500       -14.22776
| 63>    C      -19.32458        -2.98233       -14.48271
| 64>    C      -19.69962        -2.50403       -15.70727
| 65>    C      -18.74851        -2.32954       -16.72891
| 66>    C      -17.43338        -2.63503       -16.51278
| 67>    F      -19.14324        -1.85922       -17.92427
| 68>    F      -20.98552        -2.19602       -15.94553
| 69>    C      -17.57902        -3.79425       -12.96026
| 70>    C      -16.26464        -4.10092       -12.74425
| 71>    C      -15.56241        -4.59929       -11.55918
| 72>    C      -16.07368        -4.56745       -10.27297
| 73>    C      -15.30893        -4.73756        -9.10909
| 74>    N      -14.74485        -4.80232        -8.10711
| 75>    C      -17.40606        -4.25294        -9.96415
| 76>    N      -18.48914        -4.03278        -9.64420
| 77>    H      -11.76529        -9.19271        -2.76250
| 78>    H      -14.29360       -12.02536        -6.48703
| 79>    H      -15.85764       -11.32580        -6.02685
| 80>    H      -14.31581       -13.43144        -4.42636
| 81>    H      -15.74011       -13.73692        -5.42620
| 82>    H      -15.87902       -12.74403        -3.97168
| 83>    H      -17.12850        -6.02960        -3.71348
| 84>    H      -14.88269        -5.60386        -1.66412
| 85>    H      -17.34091        -4.04958        -2.21341
| 86>    H      -13.90212        -1.98996         1.35439
| 87>    H      -12.75830        -3.99806        -0.08842
| 88>    H      -13.96517        -3.49051        -2.84954
| 89>    H      -11.41832        -4.95056        -1.92313
| 90>    H      -13.20585        -3.27657        -4.77644
| 91>    H      -13.28936        -4.87295        -5.51143
| 92>    H      -11.95463        -3.79918        -5.89373
| 93>    H      -10.07423        -5.89223        -3.51752
| 94>    H      -10.02193        -5.08153        -5.09991
| 95>    H      -11.68578        -7.42535        -4.39990
| 96>    H      -11.09492        -6.02645        -6.91629
| 97>    H      -12.97022        -8.35041        -6.21429
| 98>    H      -14.87321        -9.36628        -7.18056
| 99>    H      -17.04028        -9.68349        -8.31671
|100>    H      -17.49138        -8.59361       -10.46515
|101>    H      -15.84080        -7.10871       -11.50991
|102>    H      -10.56766        -6.08176       -10.30324
|103>    H      -10.22542        -6.96370        -8.73545
|104>    H      -12.20533        -5.29471       -11.58939
|105>    H      -14.92016        -3.32758       -15.78808
|106>    H      -20.06595        -3.10771       -13.70889
|107>    H      -16.71634        -2.49577       -17.30680
|108>    H      -18.32827        -3.92013       -12.19484
|109> *
|110>
|111>                          ****END OF INPUT****

CARTESIAN COORDINATES (ANGSTROEM)
---------------------------------
  C    -12.612730   -9.457020   -3.361700
  S    -12.631790  -10.962450   -4.202420
  C    -14.244950  -10.710650   -4.817620
  C    -14.927040  -11.747900   -5.639860
  C    -15.235480  -12.996380   -4.811660
  C    -14.711900   -9.515260   -4.373270
  C    -13.790050   -8.786720   -3.533470
  N    -14.249920   -7.591000   -3.084440
  C    -15.444250   -7.347260   -3.503000
  S    -16.172760   -8.592740   -4.566100
  C    -16.210120   -6.193140   -3.170090
  C    -15.789450   -5.364140   -2.194520
  N    -16.427480   -4.224740   -1.812100
  C    -16.017200   -3.366020   -0.829200
  S    -17.233240   -2.430500   -0.010200
  C    -16.021530   -1.799920    1.057450
  N    -16.419910   -0.880450    2.031540
  O    -15.566720   -0.447920    2.784540
  O    -17.602250   -0.581010    2.052220
  C    -14.769010   -2.287600    0.792380
  C    -14.738070   -3.166390   -0.304660
  C    -13.497470   -3.717230   -0.826660
  C    -13.235390   -3.844100   -2.136430
  C    -12.081540   -4.516260   -2.660760
  C    -11.812850   -4.695150   -3.962760
  C    -12.612180   -4.127900   -5.091070
  C    -10.670250   -5.592500   -4.382220
  N    -11.195950   -6.784760   -5.015510
  C    -11.547870   -6.793810   -6.304880
  C    -12.447370   -7.662360   -6.864360
  C    -12.886230   -7.562440   -8.185270
  C    -14.144360   -7.988030   -8.664800
  C    -15.094620   -8.846690   -8.098970
  C    -16.291140   -9.031780   -8.740830
  C    -16.551720   -8.400400   -9.968700
  C    -15.639710   -7.553340  -10.547300
  C    -14.429790   -7.299360   -9.887810
  C    -13.326090   -6.477650  -10.239050
  C    -12.264090   -6.795240   -9.272640
  C    -10.953250   -6.588580   -9.434870
  C    -13.205260   -5.551390  -11.254570
  C    -14.222610   -4.896400  -11.945380
  C    -13.981310   -4.369500  -13.292340
  O    -12.924960   -4.330470  -13.895330
  C    -15.310370   -3.933160  -13.787440
  C    -15.661600   -3.455940  -15.014050
  C    -17.016000   -3.128710  -15.262760
  C    -17.977690   -3.305000  -14.227760
  C    -19.324580   -2.982330  -14.482710
  C    -19.699620   -2.504030  -15.707270
  C    -18.748510   -2.329540  -16.728910
  C    -17.433380   -2.635030  -16.512780
  F    -19.143240   -1.859220  -17.924270
  F    -20.985520   -2.196020  -15.945530
  C    -17.579020   -3.794250  -12.960260
  C    -16.264640   -4.100920  -12.744250
  C    -15.562410   -4.599290  -11.559180
  C    -16.073680   -4.567450  -10.272970
  C    -15.308930   -4.737560   -9.109090
  N    -14.744850   -4.802320   -8.107110
  C    -17.406060   -4.252940   -9.964150
  N    -18.489140   -4.032780   -9.644200
  H    -11.765290   -9.192710   -2.762500
  H    -14.293600  -12.025360   -6.487030
  H    -15.857640  -11.325800   -6.026850
  H    -14.315810  -13.431440   -4.426360
  H    -15.740110  -13.736920   -5.426200
  H    -15.879020  -12.744030   -3.971680
  H    -17.128500   -6.029600   -3.713480
  H    -14.882690   -5.603860   -1.664120
  H    -17.340910   -4.049580   -2.213410
  H    -13.902120   -1.989960    1.354390
  H    -12.758300   -3.998060   -0.088420
  H    -13.965170   -3.490510   -2.849540
  H    -11.418320   -4.950560   -1.923130
  H    -13.205850   -3.276570   -4.776440
  H    -13.289360   -4.872950   -5.511430
  H    -11.954630   -3.799180   -5.893730
  H    -10.074230   -5.892230   -3.517520
  H    -10.021930   -5.081530   -5.099910
  H    -11.685780   -7.425350   -4.399900
  H    -11.094920   -6.026450   -6.916290
  H    -12.970220   -8.350410   -6.214290
  H    -14.873210   -9.366280   -7.180560
  H    -17.040280   -9.683490   -8.316710
  H    -17.491380   -8.593610  -10.465150
  H    -15.840800   -7.108710  -11.509910
  H    -10.567660   -6.081760  -10.303240
  H    -10.225420   -6.963700   -8.735450
  H    -12.205330   -5.294710  -11.589390
  H    -14.920160   -3.327580  -15.788080
  H    -20.065950   -3.107710  -13.708890
  H    -16.716340   -2.495770  -17.306800
  H    -18.328270   -3.920130  -12.194840

 Total Charge           Charge          ....    0
 Multiplicity           Mult            ....    1
 Number of Electrons    NEL             ....  452
 Basis Dimension        Dim             .... 1040

ORBITAL ENERGIES
----------------

  NO   OCC          E(Eh)            E(eV)
   0   2.0000     -88.989472     -2421.5266
   1   2.0000     -88.973556     -2421.0935
   2   2.0000     -88.965891     -2420.8850
   3   2.0000     -24.775976      -674.1886
   4   2.0000     -24.775445      -674.1741
   5   2.0000     -19.238993      -523.5196
   6   2.0000     -19.238327      -523.5015
   7   2.0000     -19.174654      -521.7689
   8   2.0000     -14.650762      -398.6675
   9   2.0000     -14.493593      -394.3907
  10   2.0000     -14.477966      -393.9655
  11   2.0000     -14.417685      -392.3252
  12   2.0000     -14.384806      -391.4305
  13   2.0000     -14.378988      -391.2721
  14   2.0000     -10.375628      -282.3352
  15   2.0000     -10.360263      -281.9171
  16   2.0000     -10.359683      -281.9013
  17   2.0000     -10.356204      -281.8066
  18   2.0000     -10.355826      -281.7964
  19   2.0000     -10.346335      -281.5381
  20   2.0000     -10.346238      -281.5355
  21   2.0000     -10.336332      -281.2659
  22   2.0000     -10.326722      -281.0044
  23   2.0000     -10.322944      -280.9016
  24   2.0000     -10.322633      -280.8931
  25   2.0000     -10.320131      -280.8251
  26   2.0000     -10.313052      -280.6324
  27   2.0000     -10.311754      -280.5971
  28   2.0000     -10.307652      -280.4855
  29   2.0000     -10.306086      -280.4429
  30   2.0000     -10.300918      -280.3022
  31   2.0000     -10.297038      -280.1967
  32   2.0000     -10.296680      -280.1869
  33   2.0000     -10.296636      -280.1857
  34   2.0000     -10.295517      -280.1552
  35   2.0000     -10.295169      -280.1458
  36   2.0000     -10.294705      -280.1332
  37   2.0000     -10.291988      -280.0592
  38   2.0000     -10.291872      -280.0561
  39   2.0000     -10.290167      -280.0097
  40   2.0000     -10.289639      -279.9953
  41   2.0000     -10.286239      -279.9028
  42   2.0000     -10.285672      -279.8874
  43   2.0000     -10.285048      -279.8704
  44   2.0000     -10.283496      -279.8282
  45   2.0000     -10.282746      -279.8077
  46   2.0000     -10.282363      -279.7973
  47   2.0000     -10.282075      -279.7895
  48   2.0000     -10.278551      -279.6936
  49   2.0000     -10.277210      -279.6571
  50   2.0000     -10.276971      -279.6506
  51   2.0000     -10.276140      -279.6280
  52   2.0000     -10.275417      -279.6083
  53   2.0000     -10.273973      -279.5690
  54   2.0000     -10.273749      -279.5629
  55   2.0000     -10.271888      -279.5123
  56   2.0000     -10.271579      -279.5039
  57   2.0000     -10.270397      -279.4717
  58   2.0000     -10.270380      -279.4712
  59   2.0000     -10.262191      -279.2484
  60   2.0000     -10.261208      -279.2217
  61   2.0000     -10.246952      -278.8337
  62   2.0000      -8.085367      -220.0140
  63   2.0000      -8.068742      -219.5616
  64   2.0000      -8.061612      -219.3676
  65   2.0000      -6.055034      -164.7659
  66   2.0000      -6.050614      -164.6456
  67   2.0000      -6.046776      -164.5411
  68   2.0000      -6.038151      -164.3065
  69   2.0000      -6.033805      -164.1882
  70   2.0000      -6.031271      -164.1192
  71   2.0000      -6.030918      -164.1096
  72   2.0000      -6.027445      -164.0151
  73   2.0000      -6.022537      -163.8816
  74   2.0000      -1.319776       -35.9129
  75   2.0000      -1.297256       -35.3001
  76   2.0000      -1.282645       -34.9025
  77   2.0000      -1.138818       -30.9888
  78   2.0000      -1.097271       -29.8583
  79   2.0000      -1.087992       -29.6058
  80   2.0000      -1.077815       -29.3288
  81   2.0000      -1.075527       -29.2666
  82   2.0000      -1.009597       -27.4725
  83   2.0000      -0.996834       -27.1252
  84   2.0000      -0.989561       -26.9273
  85   2.0000      -0.984000       -26.7760
  86   2.0000      -0.974265       -26.5111
  87   2.0000      -0.961187       -26.1552
  88   2.0000      -0.949264       -25.8308
  89   2.0000      -0.939303       -25.5597
  90   2.0000      -0.931056       -25.3353
  91   2.0000      -0.918233       -24.9864
  92   2.0000      -0.913023       -24.8446
  93   2.0000      -0.904857       -24.6224
  94   2.0000      -0.902269       -24.5520
  95   2.0000      -0.891576       -24.2610
  96   2.0000      -0.885182       -24.0870
  97   2.0000      -0.876277       -23.8447
  98   2.0000      -0.868768       -23.6404
  99   2.0000      -0.862536       -23.4708
 100   2.0000      -0.858500       -23.3610
 101   2.0000      -0.853615       -23.2281
 102   2.0000      -0.847262       -23.0552
 103   2.0000      -0.834230       -22.7005
 104   2.0000      -0.822672       -22.3860
 105   2.0000      -0.811861       -22.0919
 106   2.0000      -0.808395       -21.9975
 107   2.0000      -0.803422       -21.8622
 108   2.0000      -0.795596       -21.6493
 109   2.0000      -0.786022       -21.3888
 110   2.0000      -0.771438       -20.9919
 111   2.0000      -0.763348       -20.7718
 112   2.0000      -0.752415       -20.4743
 113   2.0000      -0.750262       -20.4157
 114   2.0000      -0.733294       -19.9540
 115   2.0000      -0.729890       -19.8613
 116   2.0000      -0.725078       -19.7304
 117   2.0000      -0.716148       -19.4874
 118   2.0000      -0.708336       -19.2748
 119   2.0000      -0.688734       -18.7414
 120   2.0000      -0.686898       -18.6914
 121   2.0000      -0.682381       -18.5685
 122   2.0000      -0.672558       -18.3012
 123   2.0000      -0.668409       -18.1883
 124   2.0000      -0.660289       -17.9674
 125   2.0000      -0.656493       -17.8641
 126   2.0000      -0.646295       -17.5866
 127   2.0000      -0.644851       -17.5473
 128   2.0000      -0.639967       -17.4144
 129   2.0000      -0.637995       -17.3607
 130   2.0000      -0.632661       -17.2156
 131   2.0000      -0.631660       -17.1883
 132   2.0000      -0.629102       -17.1187
 133   2.0000      -0.628714       -17.1082
 134   2.0000      -0.619156       -16.8481
 135   2.0000      -0.612839       -16.6762
 136   2.0000      -0.612200       -16.6588
 137   2.0000      -0.606210       -16.4958
 138   2.0000      -0.596541       -16.2327
 139   2.0000      -0.594091       -16.1660
 140   2.0000      -0.585617       -15.9354
 141   2.0000      -0.582306       -15.8454
 142   2.0000      -0.576010       -15.6740
 143   2.0000      -0.570187       -15.5156
 144   2.0000      -0.568418       -15.4674
 145   2.0000      -0.563760       -15.3407
 146   2.0000      -0.562408       -15.3039
 147   2.0000      -0.562060       -15.2944
 148   2.0000      -0.558974       -15.2105
 149   2.0000      -0.555758       -15.1230
 150   2.0000      -0.551193       -14.9987
 151   2.0000      -0.549371       -14.9491
 152   2.0000      -0.545006       -14.8304
 153   2.0000      -0.535742       -14.5783
 154   2.0000      -0.533536       -14.5183
 155   2.0000      -0.530880       -14.4460
 156   2.0000      -0.528849       -14.3907
 157   2.0000      -0.526436       -14.3250
 158   2.0000      -0.525838       -14.3088
 159   2.0000      -0.524771       -14.2797
 160   2.0000      -0.523435       -14.2434
 161   2.0000      -0.515929       -14.0392
 162   2.0000      -0.512656       -13.9501
 163   2.0000      -0.508365       -13.8333
 164   2.0000      -0.505030       -13.7426
 165   2.0000      -0.504461       -13.7271
 166   2.0000      -0.503331       -13.6963
 167   2.0000      -0.501124       -13.6363
 168   2.0000      -0.499506       -13.5923
 169   2.0000      -0.497976       -13.5506
 170   2.0000      -0.492037       -13.3890
 171   2.0000      -0.491056       -13.3623
 172   2.0000      -0.488816       -13.3014
 173   2.0000      -0.484876       -13.1942
 174   2.0000      -0.484446       -13.1824
 175   2.0000      -0.481618       -13.1055
 176   2.0000      -0.476586       -12.9686
 177   2.0000      -0.473747       -12.8913
 178   2.0000      -0.470929       -12.8146
 179   2.0000      -0.465353       -12.6629
 180   2.0000      -0.464429       -12.6378
 181   2.0000      -0.460331       -12.5262
 182   2.0000      -0.458185       -12.4679
 183   2.0000      -0.456599       -12.4247
 184   2.0000      -0.454731       -12.3739
 185   2.0000      -0.452123       -12.3029
 186   2.0000      -0.451078       -12.2745
 187   2.0000      -0.446941       -12.1619
 188   2.0000      -0.440148       -11.9770
 189   2.0000      -0.438991       -11.9455
 190   2.0000      -0.436546       -11.8790
 191   2.0000      -0.433312       -11.7910
 192   2.0000      -0.430063       -11.7026
 193   2.0000      -0.426131       -11.5956
 194   2.0000      -0.424927       -11.5628
 195   2.0000      -0.421055       -11.4575
 196   2.0000      -0.420171       -11.4334
 197   2.0000      -0.418112       -11.3774
 198   2.0000      -0.415302       -11.3009
 199   2.0000      -0.412415       -11.2224
 200   2.0000      -0.408880       -11.1262
 201   2.0000      -0.399092       -10.8598
 202   2.0000      -0.394332       -10.7303
 203   2.0000      -0.393400       -10.7050
 204   2.0000      -0.387128       -10.5343
 205   2.0000      -0.386671       -10.5218
 206   2.0000      -0.382700       -10.4138
 207   2.0000      -0.379583       -10.3290
 208   2.0000      -0.371978       -10.1220
 209   2.0000      -0.370383       -10.0786
 210   2.0000      -0.367152        -9.9907
 211   2.0000      -0.365056        -9.9337
 212   2.0000      -0.362317        -9.8592
 213   2.0000      -0.356938        -9.7128
 214   2.0000      -0.350982        -9.5507
 215   2.0000      -0.331252        -9.0138
 216   2.0000      -0.327417        -8.9095
 217   2.0000      -0.314287        -8.5522
 218   2.0000      -0.305586        -8.3154
 219   2.0000      -0.299156        -8.1405
 220   2.0000      -0.295910        -8.0521
 221   2.0000      -0.290096        -7.8939
 222   2.0000      -0.286095        -7.7850
 223   2.0000      -0.270412        -7.3583
 224   2.0000      -0.269018        -7.3203
 225   2.0000      -0.221589        -6.0297
 226   0.0000      -0.089992        -2.4488
 227   0.0000      -0.066741        -1.8161
 228   0.0000      -0.043971        -1.1965
 229   0.0000      -0.040998        -1.1156
 230   0.0000      -0.024472        -0.6659

MULLIKEN ATOMIC CHARGES
-----------------------
   0 C :   -0.222642
   1 S :    0.129637
   2 C :   -0.338311
   3 C :    0.066005
   4 C :    0.026627
   5 C :    0.008677
   6 C :    0.104258
   7 N :   -0.069516
   8 C :   -0.089576
   9 S :    0.101176
  10 C :    0.012270
  11 C :    0.091531
  12 N :   -0.022305
  13 C :   -0.120234
  14 S :    0.176138
  15 C :   -0.010289
  16 N :    0.279328
  17 O :   -0.251249
  18 O :   -0.264678
  19 C :    0.009274
  20 C :    0.095700
  21 C :   -0.053946
  22 C :    0.003510
  23 C :    0.021342
  24 C :   -0.201482
  25 C :    0.102525
  26 C :    0.192636
  27 N :   -0.120195
  28 C :    0.075770
  29 C :   -0.027167
  30 C :    0.115513
  31 C :    0.061590
  32 C :    0.011794
  33 C :    0.027610
  34 C :    0.036809
  35 C :    0.023595
  36 C :    0.016872
  37 C :    0.061101
  38 C :   -0.012506
  39 C :   -0.029055
  40 C :   -0.016548
  41 C :   -0.188808
  42 C :    0.133038
  43 O :   -0.176970
  44 C :    0.023378
  45 C :   -0.106300
  46 C :    0.116929
  47 C :    0.117144
  48 C :   -0.115926
  49 C :    0.236794
  50 C :    0.233405
  51 C :   -0.111809
  52 F :   -0.182727
  53 F :   -0.182360
  54 C :   -0.105742
  55 C :    0.040343
  56 C :    0.270523
  57 C :   -0.384119
  58 C :   -0.191617
  59 N :    0.118494
  60 C :   -0.195917
  61 N :    0.114031
  62 H :    0.019898
  63 H :    0.027612
  64 H :    0.018777
  65 H :    0.018153
  66 H :    0.023691
  67 H :    0.025016
  68 H :   -0.006033
  69 H :    0.061054
  70 H :    0.140333
  71 H :    0.009780
  72 H :    0.000668
  73 H :    0.013844
  74 H :   -0.028755
  75 H :    0.028017
  76 H :    0.068016
  77 H :    0.009651
  78 H :    0.014494
  79 H :    0.028702
  80 H :    0.146439
  81 H :    0.021908
  82 H :   -0.013677
  83 H :   -0.066069
  84 H :   -0.020477
  85 H :   -0.004097
  86 H :   -0.008461
  87 H :    0.040606
  88 H :    0.023848
  89 H :   -0.011221
  90 H :   -0.020792
  91 H :   -0.001602
  92 H :   -0.007969
  93 H :   -0.014725
Sum of atomic charges:   -0.0000000

LOEWDIN ATOMIC CHARGES
----------------------
   0 C :   -0.238989
   1 S :    0.441389
   2 C :   -0.196677
   3 C :   -0.046018
   4 C :   -0.048651
   5 C :   -0.224124
   6 C :   -0.070611
   7 N :   -0.132230
   8 C :   -0.078180
   9 S :    0.358888
  10 C :   -0.127182
  11 C :    0.085427
  12 N :    0.035283
  13 C :   -0.106416
  14 S :    0.456301
  15 C :   -0.211027
  16 N :    0.274204
  17 O :   -0.216586
  18 O :   -0.230713
  19 C :    0.004602
  20 C :   -0.100966
  21 C :   -0.032961
  22 C :   -0.013210
  23 C :   -0.041415
  24 C :   -0.032968
  25 C :   -0.049779
  26 C :    0.049792
  27 N :    0.051577
  28 C :    0.106235
  29 C :   -0.094461
  30 C :    0.092244
  31 C :   -0.040261
  32 C :    0.003759
  33 C :   -0.039394
  34 C :    0.017942
  35 C :   -0.020800
  36 C :    0.032977
  37 C :   -0.084137
  38 C :    0.001823
  39 C :    0.008069
  40 C :    0.050008
  41 C :   -0.149444
  42 C :    0.072064
  43 O :   -0.181236
  44 C :   -0.046246
  45 C :    0.014505
  46 C :   -0.014040
  47 C :   -0.010241
  48 C :   -0.034740
  49 C :    0.059494
  50 C :    0.059262
  51 C :   -0.037215
  52 F :   -0.059742
  53 F :   -0.059261
  54 C :   -0.001868
  55 C :   -0.014990
  56 C :    0.057787
  57 C :   -0.190121
  58 C :    0.001944
  59 N :   -0.112768
  60 C :   -0.022368
  61 N :   -0.101273
  62 H :    0.023061
  63 H :    0.035709
  64 H :    0.032611
  65 H :    0.021859
  66 H :    0.027749
  67 H :    0.028992
  68 H :    0.030617
  69 H :    0.044029
  70 H :    0.096141
  71 H :    0.046722
  72 H :    0.030359
  73 H :    0.029095
  74 H :    0.024442
  75 H :    0.036269
  76 H :    0.047714
  77 H :    0.033890
  78 H :    0.030066
  79 H :    0.032393
  80 H :    0.085666
  81 H :    0.034468
  82 H :    0.036110
  83 H :    0.023551
  84 H :    0.025549
  85 H :    0.034353
  86 H :    0.035884
  87 H :    0.035029
  88 H :    0.025336
  89 H :    0.033221
  90 H :    0.035475
  91 H :    0.043864
  92 H :    0.041384
  93 H :    0.036121

  Mayer bond orders larger than 0.100000
B(  0-C ,  1-S ) :   1.1317 B(  0-C ,  6-C ) :   1.4768 B(  0-C , 62-H ) :   0.9730
B(  1-S ,  2-C ) :   1.1584 B(  2-C ,  3-C ) :   1.0498 B(  2-C ,  5-C ) :   1.5975
B(  3-C ,  4-C ) :   1.0970 B(  3-C , 63-H ) :   0.9262 B(  3-C , 64-H ) :   0.9335
B(  4-C , 65-H ) :   0.9703 B(  4-C , 66-H ) :   0.9677 B(  4-C , 67-H ) :   0.9698
B(  5-C ,  6-C ) :   1.1796 B(  5-C ,  9-S ) :   1.0298 B(  6-C ,  7-N ) :   1.2638
B(  7-N ,  8-C ) :   1.7416 B(  8-C ,  9-S ) :   1.0266 B(  8-C , 10-C ) :   1.1173
B( 10-C , 11-C ) :   1.6903 B( 10-C , 68-H ) :   0.9477 B( 11-C , 12-N ) :   1.1683
B( 11-C , 69-H ) :   0.9425 B( 12-N , 13-C ) :   1.1505 B( 12-N , 70-H ) :   0.9099
B( 13-C , 14-S ) :   1.1424 B( 13-C , 20-C ) :   1.4221 B( 14-S , 15-C ) :   1.0872
B( 15-C , 16-N ) :   0.9720 B( 15-C , 19-C ) :   1.4809 B( 16-N , 17-O ) :   1.5355
B( 16-N , 18-O ) :   1.5103 B( 17-O , 18-O ) :   0.2587 B( 19-C , 20-C ) :   1.2391
B( 19-C , 71-H ) :   1.0084 B( 20-C , 21-C ) :   1.0061 B( 21-C , 22-C ) :   1.7734
B( 21-C , 72-H ) :   0.9721 B( 22-C , 23-C ) :   1.1095 B( 22-C , 73-H ) :   0.9599
B( 23-C , 24-C ) :   1.7754 B( 23-C , 74-H ) :   0.9742 B( 24-C , 25-C ) :   1.0751
B( 24-C , 26-C ) :   1.0444 B( 25-C , 75-H ) :   0.9434 B( 25-C , 76-H ) :   0.9292
B( 25-C , 77-H ) :   0.9435 B( 26-C , 27-N ) :   0.9889 B( 26-C , 78-H ) :   0.9446
B( 26-C , 79-H ) :   0.9295 B( 27-N , 28-C ) :   1.3682 B( 27-N , 80-H ) :   0.9086
B( 28-C , 29-C ) :   1.4194 B( 28-C , 81-H ) :   0.9520 B( 29-C , 30-C ) :   1.3787
B( 29-C , 82-H ) :   0.9528 B( 30-C , 31-C ) :   1.2065 B( 30-C , 38-C ) :   1.0045
B( 31-C , 32-C ) :   1.2731 B( 31-C , 36-C ) :   1.2379 B( 32-C , 33-C ) :   1.4597
B( 32-C , 83-H ) :   0.9853 B( 33-C , 34-C ) :   1.2674 B( 33-C , 84-H ) :   0.9884
B( 34-C , 35-C ) :   1.4543 B( 34-C , 85-H ) :   0.9861 B( 35-C , 36-C ) :   1.3088
B( 35-C , 86-H ) :   0.9806 B( 36-C , 37-C ) :   1.1584 B( 37-C , 38-C ) :   1.0087
B( 37-C , 40-C ) :   1.4219 B( 38-C , 39-C ) :   1.8826 B( 39-C , 87-H ) :   0.9321
B( 39-C , 88-H ) :   0.9384 B( 40-C , 41-C ) :   1.3188 B( 40-C , 89-H ) :   0.9436
B( 41-C , 42-C ) :   0.9995 B( 41-C , 56-C ) :   1.2006 B( 42-C , 43-O ) :   2.2391
B( 42-C , 44-C ) :   0.9028 B( 44-C , 45-C ) :   1.4937 B( 44-C , 55-C ) :   1.2223
B( 45-C , 46-C ) :   1.1672 B( 45-C , 90-H ) :   1.0165 B( 46-C , 47-C ) :   1.2708
B( 46-C , 51-C ) :   1.2009 B( 47-C , 48-C ) :   1.1967 B( 47-C , 54-C ) :   1.1884
B( 48-C , 49-C ) :   1.4302 B( 48-C , 51-C ) :   0.1100 B( 48-C , 91-H ) :   1.0076
B( 49-C , 50-C ) :   1.2055 B( 49-C , 53-F ) :   1.1230 B( 50-C , 51-C ) :   1.4329
B( 50-C , 52-F ) :   1.1214 B( 51-C , 92-H ) :   1.0069 B( 54-C , 55-C ) :   1.4774
B( 54-C , 93-H ) :   0.9945 B( 55-C , 56-C ) :   0.9783 B( 56-C , 57-C ) :   1.5066
B( 57-C , 58-C ) :   1.1923 B( 57-C , 60-C ) :   1.1576 B( 58-C , 59-N ) :   2.9859
B( 60-C , 61-N ) :   2.9633

-----------------------------------------------------------------------------
         ABSORPTION SPECTRUM VIA TRANSITION ELECTRIC DIPOLE MOMENTS
-----------------------------------------------------------------------------
State   Energy  Wavelength   fosc         T2         TX        TY        TZ
        (cm-1)    (nm)                  (au**2)     (au)      (au)      (au)
-----------------------------------------------------------------------------
   0   10174.4    982.9   0.164526450   5.32355  -0.90055   0.79978  -1.96797
   1   20184.5    495.4   0.323744047   5.28032  -1.40489   1.54506  -0.95886
   2   22231.0    449.8   0.001100918   0.01630   0.02583   0.10919  -0.06093
   3   22643.0    441.6   0.086893925   1.26337  -0.05527  -0.01130  -1.12258
   4   24076.1    415.3   0.020037265   0.27399  -0.01667   0.36967  -0.37021
   5   24630.9    406.0   0.323188427   4.31967   0.26556  -0.61803   1.96652
   6   25921.0    385.8   0.532265396   6.76008  -0.24092   2.25959   1.26344
   7   26875.2    372.1   0.188800541   2.31274  -0.15332  -1.08735  -1.05209
   8   28321.5    353.1   0.059480252   0.69140  -0.18530  -0.57314  -0.57321
   9   28556.2    350.2   0.027848213   0.32105   0.00522  -0.25480  -0.50606
  10   29066.5    344.0   0.175538912   1.98818   0.54022   0.64027   1.13419
  11   29664.4    337.1   0.013530717   0.15016   0.00028  -0.02753  -0.38653
  12   30109.9    332.1   0.045596667   0.49854   0.70088  -0.06777   0.05214
  13   30428.0    328.6   0.063223564   0.68404   0.21381   0.17586   0.77936
  14   31075.6    321.8   0.148766894   1.57602  -0.62259  -0.51345  -0.96165
  15   31308.7    319.4   0.065559976   0.68937   0.22682   0.79867  -0.00631
  16   31882.8    313.6   0.092430607   0.95441   0.04761   0.00047  -0.97578
  17   31983.9    312.7   0.268425840   2.76292   0.20577   0.00563  -1.64941
  18   32198.8    310.6   0.255822848   2.61562   1.20065  -1.01910  -0.36810
  19   32546.5    307.3   0.319706224   3.23387   0.74885  -0.80317   1.42408
  20   33399.5    299.4   0.106753104   1.05224   0.34726  -0.11279   0.95861
  21   33910.9    294.9   0.050933063   0.49447  -0.42902  -0.55686   0.01785
  22   33970.1    294.4   0.139050601   1.34757   0.01738  -0.66061  -0.95439
  23   34566.5    289.3   0.052238183   0.49752   0.06274  -0.49722  -0.49635
  24   35374.0    282.7   0.061373522   0.57118   0.46419  -0.20930   0.55848
  25   35995.7    277.8   0.083646615   0.76502   0.06570   0.16072   0.85725
  26   36166.3    276.5   0.086708655   0.78929  -0.74909   0.47736   0.01675
  27   36564.8    273.5   0.307704756   2.77043   0.56475   0.06691   1.56429
  28   37081.0    269.7   0.201447909   1.78849  -0.87235  -0.84826   0.55493
  29   37295.9    268.1   0.128432030   1.13367  -0.59802  -0.69358   0.54313
  30   37573.7    266.1   0.045085967   0.39503  -0.41966  -0.26122  -0.38818
  31   38166.0    262.0   0.085122111   0.73424  -0.65468   0.39608   0.38569
  32   38396.2    260.4   0.069088435   0.59237   0.57462  -0.45785  -0.22926
  33   38494.6    259.8   0.069717551   0.59624   0.38844   0.36621   0.55789
  34   39124.1    255.6   0.555854263   4.67726   1.58581  -1.20187  -0.84734
  35   39794.2    251.3   0.094384437   0.78083  -0.60627   0.51860   0.37990
  36   39969.1    250.2   0.037521560   0.30905  -0.33103   0.39192   0.21417
  37   40174.4    248.9   0.016862667   0.13818   0.12196  -0.33914  -0.09105
  38   40301.1    248.1   0.020475903   0.16726  -0.39323  -0.04995  -0.10071

FINAL SINGLE POINT ENERGY     -3792.981826601091

DIPOLE MOMENT
-------------
                                X             Y             Z
Electronic contribution:    -38.59610      38.09243     -33.44880
Nuclear contribution   :     41.40927     -41.84850      36.21047
                        -----------------------------------------
Total Dipole Moment    :      2.81317      -3.75607       2.76167
                        -----------------------------------------
Magnitude (a.u.)       :      5.44507
Magnitude (Debye)      :     13.84027

Rotational constants in cm-1:     0.001443     0.000563     0.000468
Rotational constants in MHz :    43.259904    16.883850    14.035497

                             ****ORCA TERMINATED NORMALLY****
TOTAL RUN TIME: 0 days 0 hours 8 minutes 26 seconds 658 msec
