                         Program Version 4.2.0 -  RELEASE  -
|  1> # ORCA input file
|  2> # SCF done       -190.212711821800          0.000559968230
|  3> ! CAM-B3LYP def2-SVP def2/J RIJCOSX Grid4 TightSCF
|  4> %maxcore 5000
|  5> %tddft
|  6>     Mode sTDDFT
|  7>     Ethresh 5.0
|  8>     maxcore 5000
|  9> end
| 10>
| 11> %pal
| 12>   nprocs 6
| 13>   end
| 14> * xyz 0 1
| 15>    C      -17.22683         5.60449        13.78969
| 16>    S      -18.35238         6.87806        14.05808
| 17>    C      -19.63343         6.06849        13.19447
| 18>    C      -20.96433         6.70470        12.99466
| 19>    C      -20.96531         7.60137        11.75409
| 20>    C      -19.17100         4.88161        12.72907
| 21>    C      -17.79498         4.59835        13.06538
| 22>    N      -17.32900         3.41058        12.60717
| 23>    C      -18.22046         2.75902        11.95218
| 24>    S      -19.82753         3.56537        11.81157
| 25>    C      -18.05535         1.49185        11.32295
| 26>    C      -16.88635         0.82109        11.34139
| 27>    C      -16.60631        -0.43943        10.70047
| 28>    C      -15.28636        -0.92229        10.72632
| 29>    C      -14.96971        -2.09329        10.08209
| 30>    C      -15.96016        -2.79479         9.37004
| 31>    C      -17.27456        -2.34769         9.36336
| 32>    C      -17.58819        -1.18330        10.03119
| 33>    C      -15.33883        -3.89780         8.67526
| 34>    C      -13.96227        -3.88698         8.95858
| 35>    C      -13.63315        -2.79000         9.95064
| 36>    C      -13.21826        -3.48081        11.27084
| 37>    C      -13.01689        -2.55692        12.46467
| 38>    C      -12.53510        -1.85051         9.43207
| 39>    C      -12.87172        -1.26430         8.06556
| 40>    C      -13.12252        -4.79654         8.36555
| 41>    C      -13.63558        -5.71328         7.43215
| 42>    C      -15.01739        -5.72998         7.18695
| 43>    C      -15.86939        -4.84001         7.80408
| 44>    C      -12.72065        -6.57503         6.72595
| 45>    C      -12.99484        -7.14564         5.53191
| 46>    C      -12.10246        -7.92589         4.74055
| 47>    C      -12.48654        -8.28153         3.42972
| 48>    C      -11.61204        -8.98980         2.52029
| 49>    N      -12.01866        -9.25660         1.28801
| 50>    C      -13.22639        -8.88677         0.88751
| 51>    C      -14.09414        -8.20891         1.79272
| 52>    N      -13.71654        -7.92235         3.01386
| 53>    C      -15.38766        -7.83032         1.35390
| 54>    N      -16.42153        -7.54349         0.95053
| 55>    C      -13.65837        -9.14500        -0.42469
| 56>    N      -14.09164        -9.31103        -1.47570
| 57>    C      -10.30579        -9.41148         2.90861
| 58>    C       -9.95461        -9.10532         4.26005
| 59>    C      -10.81829        -8.36717         5.14736
| 60>    N      -10.25584        -8.18582         6.33993
| 61>    S       -8.79539        -8.87448         6.34928
| 62>    N       -8.80483        -9.43172         4.83422
| 63>    C       -9.36548       -10.05407         2.10719
| 64>    C       -9.35388       -10.39075         0.75885
| 65>    C       -8.23561       -10.98966         0.14240
| 66>    C       -8.36123       -11.18644        -1.20852
| 67>    C       -9.59380       -10.74870        -1.70481
| 68>    S      -10.60228       -10.10913        -0.42328
| 69>    C      -10.06467       -10.74658        -3.01869
| 70>    C       -9.43330       -11.18563        -4.19443
| 71>    C      -10.18656       -10.99715        -5.32206
| 72>    C      -11.44557       -10.40293        -5.08900
| 73>    S      -11.63932       -10.10314        -3.37183
| 74>    C      -12.37184       -10.07252        -6.05894
| 75>    C      -13.62594        -9.46907        -5.89522
| 76>    C      -14.46387        -9.06984        -6.95976
| 77>    C      -15.62037        -8.47278        -6.43004
| 78>    C      -16.73191        -7.89879        -7.02925
| 79>    C      -17.71911        -7.37381        -6.19504
| 80>    C      -18.92707        -6.73272        -6.47936
| 81>    C      -19.56573        -6.38609        -5.25955
| 82>    C      -18.75648        -6.81432        -4.21009
| 83>    C      -17.59537        -7.43271        -4.74574
| 84>    C      -16.50130        -8.00182        -4.14224
| 85>    C      -15.49856        -8.52236        -4.98149
| 86>    C      -14.29460        -9.12537        -4.67170
| 87>    C      -20.82827        -5.70595        -5.09627
| 88>    C      -21.60498        -5.26745        -6.08328
| 89>    H      -16.23140         5.67509        14.17567
| 90>    H      -21.22111         7.29961        13.87337
| 91>    H      -21.71268         5.91720        12.87524
| 92>    H      -20.22779         8.39372        11.86088
| 93>    H      -21.94491         8.05208        11.61744
| 94>    H      -20.72330         7.01889        10.86802
| 95>    H      -18.92814         1.11157        10.81313
| 96>    H      -16.06219         1.28444        11.86827
| 97>    H      -14.53015        -0.34107        11.23318
| 98>    H      -18.03722        -2.89548         8.83021
| 99>    H      -18.60843        -0.83303        10.02401
|100>    H      -12.29286        -4.02969        11.08155
|101>    H      -13.99003        -4.21362        11.52135
|102>    H      -12.25551        -1.80794        12.26342
|103>    H      -12.69379        -3.14255        13.32285
|104>    H      -13.94480        -2.05664        12.72798
|105>    H      -11.59672        -2.40554         9.36855
|106>    H      -12.39551        -1.03526        10.14312
|107>    H      -12.98114        -2.05258         7.32406
|108>    H      -12.08066        -0.59245         7.73999
|109>    H      -13.80327        -0.70404         8.10889
|110>    H      -12.06127        -4.79265         8.57007
|111>    H      -15.42312        -6.46237         6.50651
|112>    H      -16.92978        -4.86671         7.60165
|113>    H      -11.73682        -6.70290         7.15532
|114>    H      -13.94960        -6.96906         5.05696
|115>    H       -8.45228       -10.30450         2.63637
|116>    H       -7.35915       -11.25095         0.70967
|117>    H       -7.59804       -11.62274        -1.82886
|118>    H       -8.44968       -11.61996        -4.18843
|119>    H       -9.86623       -11.26636        -6.31357
|120>    H      -12.07755       -10.29103        -7.07936
|121>    H      -14.24129        -9.19177        -8.00438
|122>    H      -16.83164        -7.85374        -8.10489
|123>    H      -19.30950        -6.53431        -7.46368
|124>    H      -18.96594        -6.69778        -3.16253
|125>    H      -16.39227        -8.05283        -3.06868
|126>    H      -13.94615        -9.30997        -3.67420
|127>    H      -21.13367        -5.55576        -4.06831
|128>    H      -21.34245        -5.39113        -7.11995
|129>    H      -22.53593        -4.76506        -5.88572
|130> *
|131>
|132>                          ****END OF INPUT****

CARTESIAN COORDINATES (ANGSTROEM)
---------------------------------
  C    -17.226830    5.604490   13.789690
  S    -18.352380    6.878060   14.058080
  C    -19.633430    6.068490   13.194470
  C    -20.964330    6.704700   12.994660
  C    -20.965310    7.601370   11.754090
  C    -19.171000    4.881610   12.729070
  C    -17.794980    4.598350   13.065380
  N    -17.329000    3.410580   12.607170
  C    -18.220460    2.759020   11.952180
  S    -19.827530    3.565370   11.811570
  C    -18.055350    1.491850   11.322950
  C    -16.886350    0.821090   11.341390
  C    -16.606310   -0.439430   10.700470
  C    -15.286360   -0.922290   10.726320
  C    -14.969710   -2.093290   10.082090
  C    -15.960160   -2.794790    9.370040
  C    -17.274560   -2.347690    9.363360
  C    -17.588190   -1.183300   10.031190
  C    -15.338830   -3.897800    8.675260
  C    -13.962270   -3.886980    8.958580
  C    -13.633150   -2.790000    9.950640
  C    -13.218260   -3.480810   11.270840
  C    -13.016890   -2.556920   12.464670
  C    -12.535100   -1.850510    9.432070
  C    -12.871720   -1.264300    8.065560
  C    -13.122520   -4.796540    8.365550
  C    -13.635580   -5.713280    7.432150
  C    -15.017390   -5.729980    7.186950
  C    -15.869390   -4.840010    7.804080
  C    -12.720650   -6.575030    6.725950
  C    -12.994840   -7.145640    5.531910
  C    -12.102460   -7.925890    4.740550
  C    -12.486540   -8.281530    3.429720
  C    -11.612040   -8.989800    2.520290
  N    -12.018660   -9.256600    1.288010
  C    -13.226390   -8.886770    0.887510
  C    -14.094140   -8.208910    1.792720
  N    -13.716540   -7.922350    3.013860
  C    -15.387660   -7.830320    1.353900
  N    -16.421530   -7.543490    0.950530
  C    -13.658370   -9.145000   -0.424690
  N    -14.091640   -9.311030   -1.475700
  C    -10.305790   -9.411480    2.908610
  C     -9.954610   -9.105320    4.260050
  C    -10.818290   -8.367170    5.147360
  N    -10.255840   -8.185820    6.339930
  S     -8.795390   -8.874480    6.349280
  N     -8.804830   -9.431720    4.834220
  C     -9.365480  -10.054070    2.107190
  C     -9.353880  -10.390750    0.758850
  C     -8.235610  -10.989660    0.142400
  C     -8.361230  -11.186440   -1.208520
  C     -9.593800  -10.748700   -1.704810
  S    -10.602280  -10.109130   -0.423280
  C    -10.064670  -10.746580   -3.018690
  C     -9.433300  -11.185630   -4.194430
  C    -10.186560  -10.997150   -5.322060
  C    -11.445570  -10.402930   -5.089000
  S    -11.639320  -10.103140   -3.371830
  C    -12.371840  -10.072520   -6.058940
  C    -13.625940   -9.469070   -5.895220
  C    -14.463870   -9.069840   -6.959760
  C    -15.620370   -8.472780   -6.430040
  C    -16.731910   -7.898790   -7.029250
  C    -17.719110   -7.373810   -6.195040
  C    -18.927070   -6.732720   -6.479360
  C    -19.565730   -6.386090   -5.259550
  C    -18.756480   -6.814320   -4.210090
  C    -17.595370   -7.432710   -4.745740
  C    -16.501300   -8.001820   -4.142240
  C    -15.498560   -8.522360   -4.981490
  C    -14.294600   -9.125370   -4.671700
  C    -20.828270   -5.705950   -5.096270
  C    -21.604980   -5.267450   -6.083280
  H    -16.231400    5.675090   14.175670
  H    -21.221110    7.299610   13.873370
  H    -21.712680    5.917200   12.875240
  H    -20.227790    8.393720   11.860880
  H    -21.944910    8.052080   11.617440
  H    -20.723300    7.018890   10.868020
  H    -18.928140    1.111570   10.813130
  H    -16.062190    1.284440   11.868270
  H    -14.530150   -0.341070   11.233180
  H    -18.037220   -2.895480    8.830210
  H    -18.608430   -0.833030   10.024010
  H    -12.292860   -4.029690   11.081550
  H    -13.990030   -4.213620   11.521350
  H    -12.255510   -1.807940   12.263420
  H    -12.693790   -3.142550   13.322850
  H    -13.944800   -2.056640   12.727980
  H    -11.596720   -2.405540    9.368550
  H    -12.395510   -1.035260   10.143120
  H    -12.981140   -2.052580    7.324060
  H    -12.080660   -0.592450    7.739990
  H    -13.803270   -0.704040    8.108890
  H    -12.061270   -4.792650    8.570070
  H    -15.423120   -6.462370    6.506510
  H    -16.929780   -4.866710    7.601650
  H    -11.736820   -6.702900    7.155320
  H    -13.949600   -6.969060    5.056960
  H     -8.452280  -10.304500    2.636370
  H     -7.359150  -11.250950    0.709670
  H     -7.598040  -11.622740   -1.828860
  H     -8.449680  -11.619960   -4.188430
  H     -9.866230  -11.266360   -6.313570
  H    -12.077550  -10.291030   -7.079360
  H    -14.241290   -9.191770   -8.004380
  H    -16.831640   -7.853740   -8.104890
  H    -19.309500   -6.534310   -7.463680
  H    -18.965940   -6.697780   -3.162530
  H    -16.392270   -8.052830   -3.068680
  H    -13.946150   -9.309970   -3.674200
  H    -21.133670   -5.555760   -4.068310
  H    -21.342450   -5.391130   -7.119950
  H    -22.535930   -4.765060   -5.885720

 Total Charge           Charge          ....    0
 Multiplicity           Mult            ....    1
 Number of Electrons    NEL             ....  542
 Basis Dimension        Dim             .... 1261

ORBITAL ENERGIES
----------------

  NO   OCC          E(Eh)            E(eV)
   0   2.0000     -89.007318     -2422.0123
   1   2.0000     -88.959003     -2420.6975
   2   2.0000     -88.954752     -2420.5819
   3   2.0000     -88.940256     -2420.1874
   4   2.0000     -88.932713     -2419.9822
   5   2.0000     -14.443045      -393.0152
   6   2.0000     -14.428908      -392.6306
   7   2.0000     -14.426558      -392.5666
   8   2.0000     -14.419919      -392.3859
   9   2.0000     -14.415949      -392.2779
  10   2.0000     -14.414348      -392.2343
  11   2.0000     -14.386995      -391.4900
  12   2.0000     -10.357127      -281.8317
  13   2.0000     -10.343067      -281.4492
  14   2.0000     -10.329411      -281.0776
  15   2.0000     -10.325501      -280.9712
  16   2.0000     -10.323809      -280.9251
  17   2.0000     -10.318265      -280.7743
  18   2.0000     -10.317535      -280.7544
  19   2.0000     -10.315899      -280.7099
  20   2.0000     -10.314614      -280.6749
  21   2.0000     -10.314545      -280.6730
  22   2.0000     -10.313138      -280.6348
  23   2.0000     -10.311807      -280.5985
  24   2.0000     -10.311069      -280.5784
  25   2.0000     -10.308728      -280.5147
  26   2.0000     -10.307594      -280.4839
  27   2.0000     -10.303002      -280.3589
  28   2.0000     -10.297919      -280.2206
  29   2.0000     -10.297496      -280.2091
  30   2.0000     -10.296160      -280.1727
  31   2.0000     -10.296134      -280.1721
  32   2.0000     -10.292256      -280.0665
  33   2.0000     -10.288532      -279.9652
  34   2.0000     -10.287870      -279.9472
  35   2.0000     -10.286090      -279.8988
  36   2.0000     -10.285032      -279.8700
  37   2.0000     -10.284069      -279.8437
  38   2.0000     -10.283398      -279.8255
  39   2.0000     -10.279539      -279.7205
  40   2.0000     -10.279235      -279.7122
  41   2.0000     -10.278024      -279.6792
  42   2.0000     -10.277334      -279.6605
  43   2.0000     -10.276967      -279.6505
  44   2.0000     -10.276304      -279.6324
  45   2.0000     -10.274484      -279.5829
  46   2.0000     -10.273289      -279.5504
  47   2.0000     -10.271859      -279.5115
  48   2.0000     -10.271252      -279.4950
  49   2.0000     -10.270969      -279.4873
  50   2.0000     -10.268830      -279.4291
  51   2.0000     -10.266549      -279.3670
  52   2.0000     -10.265977      -279.3514
  53   2.0000     -10.265520      -279.3390
  54   2.0000     -10.264150      -279.3017
  55   2.0000     -10.263804      -279.2923
  56   2.0000     -10.260670      -279.2070
  57   2.0000     -10.260153      -279.1930
  58   2.0000     -10.260058      -279.1904
  59   2.0000     -10.259410      -279.1727
  60   2.0000     -10.257297      -279.1152
  61   2.0000     -10.256110      -279.0830
  62   2.0000     -10.254110      -279.0285
  63   2.0000     -10.251958      -278.9700
  64   2.0000     -10.251476      -278.9568
  65   2.0000     -10.251385      -278.9544
  66   2.0000     -10.250572      -278.9322
  67   2.0000     -10.249816      -278.9117
  68   2.0000     -10.249779      -278.9107
  69   2.0000     -10.248262      -278.8694
  70   2.0000     -10.246542      -278.8226
  71   2.0000     -10.242330      -278.7080
  72   2.0000     -10.240662      -278.6626
  73   2.0000     -10.234214      -278.4871
  74   2.0000      -8.099406      -220.3961
  75   2.0000      -8.054374      -219.1706
  76   2.0000      -8.047276      -218.9775
  77   2.0000      -8.035673      -218.6618
  78   2.0000      -8.028780      -218.4742
  79   2.0000      -6.070793      -165.1947
  80   2.0000      -6.063050      -164.9840
  81   2.0000      -6.061372      -164.9383
  82   2.0000      -6.023964      -163.9204
  83   2.0000      -6.019647      -163.8029
  84   2.0000      -6.017124      -163.7343
  85   2.0000      -6.015865      -163.7000
  86   2.0000      -6.012402      -163.6058
  87   2.0000      -6.009063      -163.5149
  88   2.0000      -6.005046      -163.4056
  89   2.0000      -6.000700      -163.2874
  90   2.0000      -5.998318      -163.2225
  91   2.0000      -5.997966      -163.2129
  92   2.0000      -5.994651      -163.1227
  93   2.0000      -5.989798      -162.9907
  94   2.0000      -1.109469       -30.1902
  95   2.0000      -1.094179       -29.7741
  96   2.0000      -1.043107       -28.3844
  97   2.0000      -1.022126       -27.8135
  98   2.0000      -1.004115       -27.3233
  99   2.0000      -1.000678       -27.2298
 100   2.0000      -0.997169       -27.1343
 101   2.0000      -0.989460       -26.9246
 102   2.0000      -0.978575       -26.6284
 103   2.0000      -0.972879       -26.4734
 104   2.0000      -0.971137       -26.4260
 105   2.0000      -0.966585       -26.3021
 106   2.0000      -0.955877       -26.0107
 107   2.0000      -0.949248       -25.8303
 108   2.0000      -0.931341       -25.3431
 109   2.0000      -0.913735       -24.8640
 110   2.0000      -0.906150       -24.6576
 111   2.0000      -0.893931       -24.3251
 112   2.0000      -0.883223       -24.0337
 113   2.0000      -0.882893       -24.0247
 114   2.0000      -0.880559       -23.9612
 115   2.0000      -0.874672       -23.8010
 116   2.0000      -0.873201       -23.7610
 117   2.0000      -0.864064       -23.5124
 118   2.0000      -0.857191       -23.3253
 119   2.0000      -0.854577       -23.2542
 120   2.0000      -0.850318       -23.1383
 121   2.0000      -0.844447       -22.9786
 122   2.0000      -0.828007       -22.5312
 123   2.0000      -0.826078       -22.4787
 124   2.0000      -0.824462       -22.4348
 125   2.0000      -0.821834       -22.3632
 126   2.0000      -0.815746       -22.1976
 127   2.0000      -0.811319       -22.0771
 128   2.0000      -0.808499       -22.0004
 129   2.0000      -0.800800       -21.7909
 130   2.0000      -0.794693       -21.6247
 131   2.0000      -0.780378       -21.2352
 132   2.0000      -0.773482       -21.0475
 133   2.0000      -0.769211       -20.9313
 134   2.0000      -0.760504       -20.6944
 135   2.0000      -0.754271       -20.5248
 136   2.0000      -0.750743       -20.4287
 137   2.0000      -0.739560       -20.1245
 138   2.0000      -0.724610       -19.7176
 139   2.0000      -0.711695       -19.3662
 140   2.0000      -0.704168       -19.1614
 141   2.0000      -0.701531       -19.0896
 142   2.0000      -0.698918       -19.0185
 143   2.0000      -0.693876       -18.8813
 144   2.0000      -0.684685       -18.6312
 145   2.0000      -0.678630       -18.4665
 146   2.0000      -0.677807       -18.4441
 147   2.0000      -0.673510       -18.3271
 148   2.0000      -0.668143       -18.1811
 149   2.0000      -0.662896       -18.0383
 150   2.0000      -0.659982       -17.9590
 151   2.0000      -0.652340       -17.7511
 152   2.0000      -0.651089       -17.7170
 153   2.0000      -0.644722       -17.5438
 154   2.0000      -0.641177       -17.4473
 155   2.0000      -0.635882       -17.3032
 156   2.0000      -0.632925       -17.2228
 157   2.0000      -0.626333       -17.0434
 158   2.0000      -0.624433       -16.9917
 159   2.0000      -0.619523       -16.8581
 160   2.0000      -0.609816       -16.5939
 161   2.0000      -0.607522       -16.5315
 162   2.0000      -0.602893       -16.4056
 163   2.0000      -0.598655       -16.2902
 164   2.0000      -0.592688       -16.1279
 165   2.0000      -0.588122       -16.0036
 166   2.0000      -0.585889       -15.9429
 167   2.0000      -0.584702       -15.9105
 168   2.0000      -0.577091       -15.7035
 169   2.0000      -0.572946       -15.5907
 170   2.0000      -0.561692       -15.2844
 171   2.0000      -0.556724       -15.1492
 172   2.0000      -0.553600       -15.0642
 173   2.0000      -0.553082       -15.0501
 174   2.0000      -0.547362       -14.8945
 175   2.0000      -0.538608       -14.6563
 176   2.0000      -0.536574       -14.6009
 177   2.0000      -0.535623       -14.5750
 178   2.0000      -0.531694       -14.4681
 179   2.0000      -0.529569       -14.4103
 180   2.0000      -0.528401       -14.3785
 181   2.0000      -0.525585       -14.3019
 182   2.0000      -0.519102       -14.1255
 183   2.0000      -0.517296       -14.0763
 184   2.0000      -0.516861       -14.0645
 185   2.0000      -0.515000       -14.0139
 186   2.0000      -0.510073       -13.8798
 187   2.0000      -0.508022       -13.8240
 188   2.0000      -0.506668       -13.7871
 189   2.0000      -0.503969       -13.7137
 190   2.0000      -0.503436       -13.6992
 191   2.0000      -0.501141       -13.6367
 192   2.0000      -0.500790       -13.6272
 193   2.0000      -0.499132       -13.5821
 194   2.0000      -0.498602       -13.5676
 195   2.0000      -0.494582       -13.4583
 196   2.0000      -0.489089       -13.3088
 197   2.0000      -0.487423       -13.2635
 198   2.0000      -0.484658       -13.1882
 199   2.0000      -0.483177       -13.1479
 200   2.0000      -0.480458       -13.0739
 201   2.0000      -0.478461       -13.0196
 202   2.0000      -0.476927       -12.9779
 203   2.0000      -0.472314       -12.8523
 204   2.0000      -0.469710       -12.7815
 205   2.0000      -0.467158       -12.7120
 206   2.0000      -0.465277       -12.6608
 207   2.0000      -0.464900       -12.6506
 208   2.0000      -0.463628       -12.6160
 209   2.0000      -0.461134       -12.5481
 210   2.0000      -0.456927       -12.4336
 211   2.0000      -0.456464       -12.4210
 212   2.0000      -0.455412       -12.3924
 213   2.0000      -0.453319       -12.3354
 214   2.0000      -0.453008       -12.3270
 215   2.0000      -0.448094       -12.1933
 216   2.0000      -0.447145       -12.1674
 217   2.0000      -0.443561       -12.0699
 218   2.0000      -0.442518       -12.0415
 219   2.0000      -0.440920       -11.9981
 220   2.0000      -0.438643       -11.9361
 221   2.0000      -0.436337       -11.8733
 222   2.0000      -0.434666       -11.8279
 223   2.0000      -0.431442       -11.7401
 224   2.0000      -0.429438       -11.6856
 225   2.0000      -0.428381       -11.6569
 226   2.0000      -0.428000       -11.6465
 227   2.0000      -0.426331       -11.6011
 228   2.0000      -0.422590       -11.4993
 229   2.0000      -0.420205       -11.4344
 230   2.0000      -0.417307       -11.3555
 231   2.0000      -0.415880       -11.3167
 232   2.0000      -0.413732       -11.2582
 233   2.0000      -0.410656       -11.1745
 234   2.0000      -0.409688       -11.1482
 235   2.0000      -0.408591       -11.1183
 236   2.0000      -0.407102       -11.0778
 237   2.0000      -0.406869       -11.0715
 238   2.0000      -0.402349       -10.9485
 239   2.0000      -0.401116       -10.9149
 240   2.0000      -0.399565       -10.8727
 241   2.0000      -0.392689       -10.6856
 242   2.0000      -0.390847       -10.6355
 243   2.0000      -0.386242       -10.5102
 244   2.0000      -0.383289       -10.4298
 245   2.0000      -0.379541       -10.3278
 246   2.0000      -0.376533       -10.2460
 247   2.0000      -0.374367       -10.1870
 248   2.0000      -0.370716       -10.0877
 249   2.0000      -0.365879        -9.9561
 250   2.0000      -0.360872        -9.8198
 251   2.0000      -0.355101        -9.6628
 252   2.0000      -0.352637        -9.5957
 253   2.0000      -0.349897        -9.5212
 254   2.0000      -0.346117        -9.4183
 255   2.0000      -0.340997        -9.2790
 256   2.0000      -0.328450        -8.9376
 257   2.0000      -0.326939        -8.8965
 258   2.0000      -0.325024        -8.8443
 259   2.0000      -0.322485        -8.7753
 260   2.0000      -0.320859        -8.7310
 261   2.0000      -0.310355        -8.4452
 262   2.0000      -0.307027        -8.3546
 263   2.0000      -0.298471        -8.1218
 264   2.0000      -0.286320        -7.7912
 265   2.0000      -0.277712        -7.5569
 266   2.0000      -0.271203        -7.3798
 267   2.0000      -0.258752        -7.0410
 268   2.0000      -0.249214        -6.7814
 269   2.0000      -0.235524        -6.4089
 270   2.0000      -0.196901        -5.3579
 271   0.0000      -0.113461        -3.0874
 272   0.0000      -0.103746        -2.8231
 273   0.0000      -0.060646        -1.6503
 274   0.0000      -0.039593        -1.0774
 275   0.0000      -0.029262        -0.7963

MULLIKEN ATOMIC CHARGES
-----------------------
   0 C :   -0.181987
   1 S :    0.104858
   2 C :   -0.335491
   3 C :    0.083505
   4 C :    0.024410
   5 C :    0.033741
   6 C :    0.130460
   7 N :   -0.027190
   8 C :   -0.106118
   9 S :    0.057754
  10 C :    0.058196
  11 C :    0.016481
  12 C :    0.114946
  13 C :   -0.105680
  14 C :    0.019969
  15 C :    0.108748
  16 C :   -0.046997
  17 C :   -0.005943
  18 C :    0.096570
  19 C :    0.020800
  20 C :   -0.124616
  21 C :    0.081593
  22 C :    0.030729
  23 C :    0.047861
  24 C :    0.026511
  25 C :   -0.110034
  26 C :    0.123921
  27 C :   -0.014305
  28 C :   -0.043388
  29 C :   -0.002753
  30 C :   -0.068558
  31 C :    0.052549
  32 C :   -0.029367
  33 C :   -0.019129
  34 N :   -0.029647
  35 C :   -0.098741
  36 C :   -0.142554
  37 N :    0.034182
  38 C :   -0.222261
  39 N :    0.214835
  40 C :   -0.215188
  41 N :    0.192136
  42 C :    0.110471
  43 C :    0.000582
  44 C :    0.010975
  45 N :   -0.292210
  46 S :    0.487989
  47 N :   -0.280458
  48 C :   -0.135797
  49 C :    0.032921
  50 C :    0.009533
  51 C :    0.037951
  52 C :   -0.038125
  53 S :    0.122476
  54 C :   -0.008168
  55 C :    0.015201
  56 C :    0.051268
  57 C :   -0.042917
  58 S :    0.096492
  59 C :    0.017687
  60 C :    0.052791
  61 C :   -0.019325
  62 C :    0.057331
  63 C :    0.010812
  64 C :    0.046588
  65 C :   -0.011137
  66 C :    0.057967
  67 C :   -0.009529
  68 C :    0.053403
  69 C :    0.022137
  70 C :    0.020708
  71 C :    0.010489
  72 C :    0.010953
  73 C :   -0.021323
  74 H :    0.008913
  75 H :    0.008710
  76 H :    0.013459
  77 H :    0.011391
  78 H :    0.014001
  79 H :    0.018540
  80 H :   -0.020985
  81 H :   -0.001374
  82 H :   -0.035765
  83 H :   -0.036840
  84 H :   -0.030277
  85 H :   -0.005261
  86 H :    0.003882
  87 H :    0.002742
  88 H :    0.009982
  89 H :    0.018463
  90 H :   -0.003779
  91 H :    0.004191
  92 H :    0.024295
  93 H :    0.005947
  94 H :    0.018979
  95 H :   -0.044432
  96 H :   -0.023474
  97 H :   -0.039497
  98 H :   -0.011351
  99 H :   -0.015020
 100 H :   -0.003346
 101 H :   -0.010686
 102 H :   -0.018103
 103 H :   -0.011603
 104 H :   -0.006155
 105 H :   -0.011459
 106 H :   -0.020054
 107 H :   -0.018357
 108 H :   -0.019160
 109 H :   -0.004819
 110 H :    0.004281
 111 H :   -0.018284
 112 H :   -0.012964
 113 H :    0.008480
 114 H :    0.024247
Sum of atomic charges:   -0.0000000

LOEWDIN ATOMIC CHARGES
----------------------
   0 C :   -0.210765
   1 S :    0.430821
   2 C :   -0.202487
   3 C :   -0.043652
   4 C :   -0.050472
   5 C :   -0.217395
   6 C :   -0.064208
   7 N :   -0.103497
   8 C :   -0.089562
   9 S :    0.327044
  10 C :   -0.076091
  11 C :    0.035715
  12 C :   -0.037352
  13 C :   -0.013930
  14 C :   -0.000446
  15 C :   -0.005587
  16 C :   -0.021639
  17 C :   -0.007835
  18 C :   -0.027818
  19 C :    0.005227
  20 C :   -0.033808
  21 C :   -0.009084
  22 C :   -0.059836
  23 C :   -0.016287
  24 C :   -0.056935
  25 C :   -0.024683
  26 C :   -0.015153
  27 C :   -0.017204
  28 C :   -0.017670
  29 C :   -0.021781
  30 C :   -0.019416
  31 C :   -0.073910
  32 C :   -0.001006
  33 C :   -0.008761
  34 N :   -0.031103
  35 C :   -0.086311
  36 C :   -0.024976
  37 N :   -0.024690
  38 C :   -0.027051
  39 N :   -0.032162
  40 C :   -0.022980
  41 N :   -0.063960
  42 C :   -0.030372
  43 C :   -0.047948
  44 C :   -0.034529
  45 N :   -0.290097
  46 S :    0.615661
  47 N :   -0.280766
  48 C :   -0.042230
  49 C :   -0.127874
  50 C :   -0.049108
  51 C :   -0.022955
  52 C :   -0.222943
  53 S :    0.476484
  54 C :   -0.135462
  55 C :   -0.057092
  56 C :   -0.002248
  57 C :   -0.181028
  58 S :    0.446260
  59 C :    0.015280
  60 C :   -0.082870
  61 C :    0.045902
  62 C :   -0.070384
  63 C :    0.091208
  64 C :   -0.065506
  65 C :    0.057943
  66 C :   -0.059571
  67 C :    0.044976
  68 C :   -0.064183
  69 C :    0.100667
  70 C :   -0.062764
  71 C :    0.050855
  72 C :   -0.021988
  73 C :   -0.047892
  74 H :    0.024352
  75 H :    0.029046
  76 H :    0.032388
  77 H :    0.022495
  78 H :    0.022424
  79 H :    0.025876
  80 H :    0.023473
  81 H :    0.035558
  82 H :    0.024703
  83 H :    0.026568
  84 H :    0.025162
  85 H :    0.019717
  86 H :    0.026569
  87 H :    0.019374
  88 H :    0.026426
  89 H :    0.023991
  90 H :    0.019670
  91 H :    0.018617
  92 H :    0.026446
  93 H :    0.022495
  94 H :    0.025174
  95 H :    0.022777
  96 H :    0.027380
  97 H :    0.025099
  98 H :    0.022781
  99 H :    0.025466
 100 H :    0.041712
 101 H :    0.032853
 102 H :    0.029337
 103 H :    0.032881
 104 H :    0.035613
 105 H :    0.040076
 106 H :    0.026678
 107 H :    0.037327
 108 H :    0.027242
 109 H :    0.033319
 110 H :    0.048086
 111 H :    0.012204
 112 H :    0.031631
 113 H :    0.017922
 114 H :    0.026354

  Mayer bond orders larger than 0.100000
B(  0-C ,  1-S ) :   1.1421 B(  0-C ,  6-C ) :   1.4989 B(  0-C , 74-H ) :   0.9788
B(  1-S ,  2-C ) :   1.1540 B(  2-C ,  3-C ) :   1.0623 B(  2-C ,  5-C ) :   1.6010
B(  3-C ,  4-C ) :   1.1017 B(  3-C , 75-H ) :   0.9244 B(  3-C , 76-H ) :   0.9332
B(  4-C , 77-H ) :   0.9689 B(  4-C , 78-H ) :   0.9689 B(  4-C , 79-H ) :   0.9724
B(  5-C ,  6-C ) :   1.1861 B(  5-C ,  9-S ) :   1.0184 B(  6-C ,  7-N ) :   1.2648
B(  7-N ,  8-C ) :   1.7975 B(  7-N ,  9-S ) :   0.1038 B(  8-C ,  9-S ) :   1.0088
B(  8-C , 10-C ) :   1.0752 B( 10-C , 11-C ) :   1.7189 B( 10-C , 80-H ) :   0.9423
B( 11-C , 12-C ) :   1.0593 B( 11-C , 81-H ) :   0.9859 B( 12-C , 13-C ) :   1.2837
B( 12-C , 17-C ) :   1.3397 B( 13-C , 14-C ) :   1.3800 B( 13-C , 82-H ) :   1.0078
B( 14-C , 15-C ) :   1.3810 B( 14-C , 20-C ) :   0.9163 B( 15-C , 16-C ) :   1.3245
B( 15-C , 18-C ) :   1.0069 B( 16-C , 17-C ) :   1.3986 B( 16-C , 83-H ) :   0.9902
B( 17-C , 84-H ) :   0.9850 B( 18-C , 19-C ) :   1.3730 B( 18-C , 28-C ) :   1.3249
B( 19-C , 20-C ) :   0.9257 B( 19-C , 25-C ) :   1.3820 B( 20-C , 21-C ) :   1.0133
B( 20-C , 23-C ) :   1.0336 B( 21-C , 22-C ) :   1.1127 B( 21-C , 85-H ) :   0.9375
B( 21-C , 86-H ) :   0.9384 B( 22-C , 87-H ) :   0.9632 B( 22-C , 88-H ) :   0.9600
B( 22-C , 89-H ) :   0.9609 B( 23-C , 24-C ) :   1.1069 B( 23-C , 90-H ) :   0.9388
B( 23-C , 91-H ) :   0.9379 B( 24-C , 92-H ) :   0.9625 B( 24-C , 93-H ) :   0.9645
B( 24-C , 94-H ) :   0.9645 B( 25-C , 26-C ) :   1.2897 B( 25-C , 95-H ) :   1.0118
B( 26-C , 27-C ) :   1.3433 B( 26-C , 29-C ) :   1.0451 B( 27-C , 28-C ) :   1.3967
B( 27-C , 96-H ) :   0.9858 B( 28-C , 97-H ) :   0.9898 B( 29-C , 30-C ) :   1.6349
B( 29-C , 98-H ) :   0.9694 B( 30-C , 31-C ) :   1.1837 B( 30-C , 99-H ) :   0.9486
B( 31-C , 32-C ) :   1.3047 B( 31-C , 44-C ) :   1.1350 B( 32-C , 33-C ) :   1.0846
B( 32-C , 37-N ) :   1.4018 B( 33-C , 34-N ) :   1.5057 B( 33-C , 42-C ) :   1.1223
B( 34-N , 35-C ) :   1.5140 B( 34-N , 53-S ) :   0.1101 B( 35-C , 36-C ) :   1.2577
B( 35-C , 40-C ) :   1.1522 B( 36-C , 37-N ) :   1.7416 B( 36-C , 38-C ) :   1.1629
B( 38-C , 39-N ) :   3.0500 B( 40-C , 41-N ) :   2.9312 B( 41-N ,111-H ) :   0.1210
B( 42-C , 43-C ) :   1.1079 B( 42-C , 48-C ) :   1.4201 B( 43-C , 44-C ) :   1.1191
B( 43-C , 47-N ) :   1.5948 B( 44-C , 45-N ) :   1.5472 B( 45-N , 46-S ) :   1.2215
B( 45-N , 47-N ) :   0.1328 B( 46-S , 47-N ) :   1.2405 B( 48-C , 49-C ) :   1.3122
B( 48-C ,100-H ) :   0.9525 B( 49-C , 50-C ) :   1.2523 B( 49-C , 53-S ) :   1.1087
B( 50-C , 51-C ) :   1.4649 B( 50-C ,101-H ) :   1.0018 B( 51-C , 52-C ) :   1.2866
B( 51-C ,102-H ) :   0.9934 B( 52-C , 53-S ) :   1.0146 B( 52-C , 54-C ) :   1.3512
B( 54-C , 55-C ) :   1.2547 B( 54-C , 58-S ) :   1.1255 B( 55-C , 56-C ) :   1.5084
B( 55-C ,103-H ) :   0.9945 B( 56-C , 57-C ) :   1.1986 B( 56-C ,104-H ) :   0.9995
B( 57-C , 58-S ) :   1.0305 B( 57-C , 59-C ) :   1.4744 B( 59-C , 60-C ) :   1.2026
B( 59-C ,105-H ) :   0.9731 B( 60-C , 61-C ) :   1.3111 B( 60-C , 71-C ) :   1.1347
B( 61-C , 62-C ) :   1.2104 B( 61-C ,106-H ) :   1.0180 B( 62-C , 63-C ) :   1.3120
B( 62-C , 70-C ) :   1.1252 B( 63-C , 64-C ) :   1.2289 B( 63-C ,107-H ) :   1.0059
B( 64-C , 65-C ) :   1.3269 B( 64-C , 68-C ) :   1.1193 B( 65-C , 66-C ) :   1.2297
B( 65-C ,108-H ) :   1.0098 B( 66-C , 67-C ) :   1.4092 B( 66-C , 72-C ) :   1.0815
B( 67-C , 68-C ) :   1.1449 B( 67-C ,109-H ) :   1.0196 B( 68-C , 69-C ) :   1.3906
B( 69-C , 70-C ) :   1.1588 B( 69-C ,110-H ) :   1.0099 B( 70-C , 71-C ) :   1.4479
B( 71-C ,111-H ) :   0.9732 B( 72-C , 73-C ) :   1.9384 B( 72-C ,112-H ) :   0.9669
B( 73-C ,113-H ) :   0.9536 B( 73-C ,114-H ) :   0.9492

-----------------------------------------------------------------------------
         ABSORPTION SPECTRUM VIA TRANSITION ELECTRIC DIPOLE MOMENTS
-----------------------------------------------------------------------------
State   Energy  Wavelength   fosc         T2         TX        TY        TZ
        (cm-1)    (nm)                  (au**2)     (au)      (au)      (au)
-----------------------------------------------------------------------------
   0    4887.2   2046.1   0.186658783  12.57361  -0.59985  -0.58709  -3.44516
   1    6160.8   1623.2   0.202847217  10.83943   0.01113  -0.86928  -3.17548
   2   11745.8    851.4   0.023298887   0.65302   0.68717  -0.38305  -0.18464
   3   14825.8    674.5   0.361861518   8.03524  -2.08728   0.81684  -1.73530
   4   15354.5    651.3   0.303567672   6.50870   2.05408  -1.15802   0.97388
   5   19374.0    516.2   0.037870560   0.64352   0.69152   0.13867   0.38221
   6   20161.1    496.0   0.598075635   9.76602  -0.67863  -1.19547  -2.80648
   7   20685.4    483.4   0.071332791   1.13527   0.75405   0.06446   0.75002
   8   21025.7    475.6   0.036447381   0.57068   0.32588  -0.44046  -0.52007
   9   21518.0    464.7   0.344872932   5.27634   1.40104  -1.49597  -1.03706
  10   22630.4    441.9   0.070397639   1.02410  -0.71972   0.20361  -0.68165
  11   23739.3    421.2   0.280556065   3.89070   1.59394  -0.99980  -0.59199
  12   24261.4    412.2   1.080931498  14.66754  -2.19297   2.87114   1.27083
  13   25201.1    396.8   0.160013766   2.09032  -1.14750   0.87862  -0.03996
  14   25350.9    394.5   0.029332300   0.38092  -0.45391   0.41712   0.02985
  15   25588.1    390.8   0.480646295   6.18391  -2.21612   1.09115   0.28651
  16   26074.7    383.5   0.083806894   1.05812   0.52344  -0.53126  -0.70845
  17   27075.3    369.3   0.190958293   2.32189   1.51772  -0.13185   0.03205
  18   27956.4    357.7   0.113734732   1.33933   0.73849  -0.38405  -0.80404
  19   28192.8    354.7   0.066705711   0.77893   0.81890  -0.26099   0.20056
  20   28910.3    345.9   0.601804723   6.85296   1.28717  -1.91695  -1.23348
  21   29452.0    339.5   0.121537202   1.35853   0.81119  -0.78964   0.27741
  22   29762.2    336.0   0.025433279   0.28133   0.49967  -0.17213   0.04509
  23   30119.8    332.0   0.027490129   0.30047   0.14604   0.16080   0.50328
  24   30407.6    328.9   0.066720365   0.72236   0.80444   0.27381  -0.01629
  25   30709.3    325.6   0.381817076   4.09318   0.17005  -1.82376  -0.85917
  26   31058.0    322.0   0.044294832   0.46952   0.34204   0.09522   0.58605
  27   31380.7    318.7   0.098140733   1.02958  -0.47316  -0.32642  -0.83615
  28   31771.7    314.7   0.088416652   0.91615   0.46358  -0.10453   0.83086
  29   32053.2    312.0   0.312749309   3.21218   1.42958  -0.93729   0.53848
  30   32244.3    310.1   0.064794045   0.66154   0.42037  -0.52136  -0.46154
  31   32978.6    303.2   0.033323952   0.33266  -0.14426   0.08533  -0.55188
  32   33227.8    301.0   0.015498872   0.15356   0.11599   0.04581   0.37149
  33   33349.4    299.9   0.010031788   0.09903   0.06105  -0.05588   0.30361
  34   33565.9    297.9   0.045280337   0.44411   0.19982   0.11330   0.62557
  35   33617.3    297.5   0.047992520   0.46999  -0.31506  -0.11774  -0.59738
  36   33969.4    294.4   0.014577309   0.14127   0.31607  -0.18725  -0.07944
  37   34233.2    292.1   0.016004227   0.15391  -0.08663  -0.21532  -0.31629
  38   34261.8    291.9   0.050969965   0.48976  -0.34190   0.42561   0.43785
  39   34398.8    290.7   0.058089490   0.55594  -0.48556   0.39885   0.40136
  40   34552.8    289.4   0.010621918   0.10120  -0.10197  -0.08454  -0.28924
  41   34851.7    286.9   0.200434089   1.89331   0.87020  -0.74179  -0.76539
  42   35167.2    284.4   0.174743392   1.63583  -0.87190  -0.02457  -0.93542
  43   35259.5    283.6   0.007806261   0.07289  -0.23394   0.12149   0.05828
  44   35913.9    278.4   0.004160968   0.03814  -0.04152   0.16484   0.09615
  45   36099.0    277.0   0.010159544   0.09265   0.12146   0.09802   0.26132
  46   36185.8    276.4   0.002207003   0.02008   0.10810  -0.09101   0.01044
  47   36392.4    274.8   0.044317404   0.40090   0.43276  -0.40159   0.22879
  48   36493.5    274.0   0.244557059   2.20618   1.15508  -0.93368   0.01401
  49   36672.2    272.7   0.030604988   0.27475   0.21399   0.27592   0.39093
  50   37081.0    269.7   0.015398174   0.13671  -0.32197  -0.07075   0.16745
  51   37319.5    268.0   0.081999347   0.72335   0.80551  -0.15103   0.22737
  52   37402.9    267.4   0.059447109   0.52324  -0.69910   0.15740  -0.09864
  53   37638.0    265.7   0.014074395   0.12311   0.24340   0.00775   0.25259
  54   37671.6    265.5   0.002517065   0.02200   0.04171  -0.03811  -0.13713
  55   38231.3    261.6   0.002766071   0.02382   0.12881   0.06627  -0.05326
  56   38355.4    260.7   0.013354411   0.11462  -0.00659  -0.23171  -0.24676
  57   38481.4    259.9   0.010399660   0.08897  -0.29734   0.01984  -0.01280
  58   38520.4    259.6   0.059147486   0.50550  -0.47792   0.19039   0.49076
  59   38797.4    257.7   0.003771432   0.03200   0.16080   0.00926   0.07784
  60   38972.2    256.6   0.104230189   0.88047  -0.16752  -0.36417  -0.84840
  61   39091.1    255.8   0.143285652   1.20670  -0.78198   0.01394  -0.77137
  62   39335.1    254.2   0.008933464   0.07477  -0.20043   0.18598  -0.00275
  63   39658.3    252.2   0.003007245   0.02496  -0.14119  -0.04479  -0.05499
  64   39984.0    250.1   0.069483166   0.57210   0.40965  -0.48634  -0.40959
  65   40263.8    248.4   0.059414368   0.48579   0.63479  -0.16218   0.23777

FINAL SINGLE POINT ENERGY     -4757.180117165784

DIPOLE MOMENT
-------------
                                X             Y             Z
Electronic contribution:     32.89177     -64.23577     -44.41191
Nuclear contribution   :    -31.71731      62.59562      39.57432
                        -----------------------------------------
Total Dipole Moment    :      1.17446      -1.64014      -4.83760
                        -----------------------------------------
Magnitude (a.u.)       :      5.24135
Magnitude (Debye)      :     13.32245

Rotational constants in cm-1:     0.000948     0.000221     0.000184
Rotational constants in MHz :    28.409807     6.627078     5.524695

                             ****ORCA TERMINATED NORMALLY****
TOTAL RUN TIME: 0 days 0 hours 15 minutes 2 seconds 641 msec
