                         Program Version 4.2.0 -  RELEASE  -
|  1> # ORCA input file
|  2> # SCF done       -161.685223969327          0.000527391834
|  3> ! CAM-B3LYP def2-SVP def2/J RIJCOSX Grid4 TightSCF
|  4> %maxcore 5000
|  5> %tddft
|  6>     Mode sTDDFT
|  7>     Ethresh 5.0
|  8>     maxcore 5000
|  9> end
| 10>
| 11> %pal
| 12>   nprocs 6
| 13>   end
| 14> * xyz 0 1
| 15>    C       -6.41033         5.29328        -3.85950
| 16>    C       -5.04573         5.09497        -3.85975
| 17>    C       -4.10737         6.12264        -3.56877
| 18>    N       -2.81044         5.70432        -3.60227
| 19>    C       -2.70863         4.46556        -3.88373
| 20>    S       -4.19838         3.60548        -4.16871
| 21>    C       -4.54116         7.42654        -3.25474
| 22>    C       -5.92712         7.60724        -3.26643
| 23>    C       -6.85344         6.57501        -3.55528
| 24>    N       -8.16173         6.96085        -3.49948
| 25>    C       -8.27485         8.19211        -3.19705
| 26>    S       -6.79173         9.07620        -2.93284
| 27>    C       -3.67832         8.50814        -2.88884
| 28>    C       -2.32786         8.45730        -2.83821
| 29>    C       -1.51764         9.51573        -2.36863
| 30>    S       -2.18976        10.99295        -1.77055
| 31>    C       -0.65605        11.60612        -1.26819
| 32>    C        0.36678        10.70406        -1.59226
| 33>    C       -0.12279         9.51807        -2.22453
| 34>    C        0.77651         8.50654        -2.61339
| 35>    C        2.10854         8.68168        -2.37426
| 36>    F        2.98800         7.72706        -2.73423
| 37>    C        2.59235         9.84910        -1.74116
| 38>    F        3.91600         9.96755        -1.51780
| 39>    C        1.74748        10.84675        -1.35282
| 40>    C       -0.53559        12.83728        -0.56864
| 41>    C       -1.58211        13.63986        -0.28425
| 42>    C       -1.57145        14.85456         0.48530
| 43>    C       -0.81780        15.14943         1.55213
| 44>    C        0.20488        14.23574         2.15384
| 45>    C       -1.00222        16.43005         2.34632
| 46>    N       -1.89691        17.41023         1.79379
| 47>    C       -3.22019        17.15434         1.64347
| 48>    C       -4.09855        17.97405         1.01295
| 49>    C       -5.46285        17.67388         0.78631
| 50>    C       -6.05644        16.44154         0.74138
| 51>    C       -7.43253        16.19608         0.49693
| 52>    C       -7.76595        14.88347         0.37806
| 53>    C       -6.67534        13.99273         0.51441
| 54>    S       -5.20936        14.89248         0.84191
| 55>    C       -6.68865        12.61801         0.41488
| 56>    C       -7.82089        11.78715         0.26105
| 57>    C       -7.52101        10.46407         0.21274
| 58>    C       -6.13276        10.15621         0.31013
| 59>    S       -5.22551        11.64455         0.48454
| 60>    C       -5.67744         8.86918         0.21926
| 61>    C       -4.39306         8.25667         0.22959
| 62>    C       -3.16365         8.83490         0.56031
| 63>    O       -3.18471        10.16381         0.88381
| 64>    C       -2.40658        10.65302         1.95346
| 65>    C       -1.94675         8.09143         0.49969
| 66>    O       -0.81253         8.79586         0.79706
| 67>    C        0.40131         8.09411         0.91321
| 68>    C       -1.92820         6.75882         0.15492
| 69>    C       -3.14159         6.13086        -0.14641
| 70>    C       -4.36926         6.87166        -0.11212
| 71>    N       -5.42002         6.11566        -0.41081
| 72>    S       -4.91051         4.61096        -0.69912
| 73>    N       -3.33054         4.85144        -0.47001
| 74>    H       -7.11066         4.50424        -4.07194
| 75>    H       -1.77099         3.94999        -3.95187
| 76>    H       -9.21731         8.69583        -3.10206
| 77>    H       -4.18213         9.42487        -2.60410
| 78>    H       -1.82953         7.54542        -3.13120
| 79>    H        0.42943         7.60729        -3.09599
| 80>    H        2.14722        11.72711        -0.87674
| 81>    H        0.46524        13.12007        -0.27903
| 82>    H       -2.55538        13.36353        -0.67225
| 83>    H       -2.33855        15.55813         0.18761
| 84>    H       -0.03505        13.19713         1.94076
| 85>    H        0.24795        14.37444         3.23286
| 86>    H        1.19631        14.45033         1.75417
| 87>    H       -0.02566        16.90220         2.49220
| 88>    H       -1.37839        16.14830         3.33956
| 89>    H       -1.49820        18.11642         1.19397
| 90>    H       -3.56520        16.26073         2.14171
| 91>    H       -3.74769        18.93425         0.65603
| 92>    H       -6.10843        18.51219         0.55488
| 93>    H       -8.13175        17.00932         0.40627
| 94>    H       -8.76013        14.53014         0.17065
| 95>    H       -8.81914        12.18353         0.20242
| 96>    H       -8.25086         9.68040         0.10558
| 97>    H       -6.46381         8.13783         0.06465
| 98>    H       -1.38190        10.86608         1.64016
| 99>    H       -2.39173         9.95277         2.79250
|100>    H       -2.89296        11.58116         2.25728
|101>    H        0.34045         7.31800         1.68199
|102>    H        1.14121         8.83804         1.20436
|103>    H        0.69967         7.64389        -0.03727
|104>    H       -1.02012         6.18537         0.10217
|105> *
|106>
|107>                          ****END OF INPUT****

CARTESIAN COORDINATES (ANGSTROEM)
---------------------------------
  C     -6.410330    5.293280   -3.859500
  C     -5.045730    5.094970   -3.859750
  C     -4.107370    6.122640   -3.568770
  N     -2.810440    5.704320   -3.602270
  C     -2.708630    4.465560   -3.883730
  S     -4.198380    3.605480   -4.168710
  C     -4.541160    7.426540   -3.254740
  C     -5.927120    7.607240   -3.266430
  C     -6.853440    6.575010   -3.555280
  N     -8.161730    6.960850   -3.499480
  C     -8.274850    8.192110   -3.197050
  S     -6.791730    9.076200   -2.932840
  C     -3.678320    8.508140   -2.888840
  C     -2.327860    8.457300   -2.838210
  C     -1.517640    9.515730   -2.368630
  S     -2.189760   10.992950   -1.770550
  C     -0.656050   11.606120   -1.268190
  C      0.366780   10.704060   -1.592260
  C     -0.122790    9.518070   -2.224530
  C      0.776510    8.506540   -2.613390
  C      2.108540    8.681680   -2.374260
  F      2.988000    7.727060   -2.734230
  C      2.592350    9.849100   -1.741160
  F      3.916000    9.967550   -1.517800
  C      1.747480   10.846750   -1.352820
  C     -0.535590   12.837280   -0.568640
  C     -1.582110   13.639860   -0.284250
  C     -1.571450   14.854560    0.485300
  C     -0.817800   15.149430    1.552130
  C      0.204880   14.235740    2.153840
  C     -1.002220   16.430050    2.346320
  N     -1.896910   17.410230    1.793790
  C     -3.220190   17.154340    1.643470
  C     -4.098550   17.974050    1.012950
  C     -5.462850   17.673880    0.786310
  C     -6.056440   16.441540    0.741380
  C     -7.432530   16.196080    0.496930
  C     -7.765950   14.883470    0.378060
  C     -6.675340   13.992730    0.514410
  S     -5.209360   14.892480    0.841910
  C     -6.688650   12.618010    0.414880
  C     -7.820890   11.787150    0.261050
  C     -7.521010   10.464070    0.212740
  C     -6.132760   10.156210    0.310130
  S     -5.225510   11.644550    0.484540
  C     -5.677440    8.869180    0.219260
  C     -4.393060    8.256670    0.229590
  C     -3.163650    8.834900    0.560310
  O     -3.184710   10.163810    0.883810
  C     -2.406580   10.653020    1.953460
  C     -1.946750    8.091430    0.499690
  O     -0.812530    8.795860    0.797060
  C      0.401310    8.094110    0.913210
  C     -1.928200    6.758820    0.154920
  C     -3.141590    6.130860   -0.146410
  C     -4.369260    6.871660   -0.112120
  N     -5.420020    6.115660   -0.410810
  S     -4.910510    4.610960   -0.699120
  N     -3.330540    4.851440   -0.470010
  H     -7.110660    4.504240   -4.071940
  H     -1.770990    3.949990   -3.951870
  H     -9.217310    8.695830   -3.102060
  H     -4.182130    9.424870   -2.604100
  H     -1.829530    7.545420   -3.131200
  H      0.429430    7.607290   -3.095990
  H      2.147220   11.727110   -0.876740
  H      0.465240   13.120070   -0.279030
  H     -2.555380   13.363530   -0.672250
  H     -2.338550   15.558130    0.187610
  H     -0.035050   13.197130    1.940760
  H      0.247950   14.374440    3.232860
  H      1.196310   14.450330    1.754170
  H     -0.025660   16.902200    2.492200
  H     -1.378390   16.148300    3.339560
  H     -1.498200   18.116420    1.193970
  H     -3.565200   16.260730    2.141710
  H     -3.747690   18.934250    0.656030
  H     -6.108430   18.512190    0.554880
  H     -8.131750   17.009320    0.406270
  H     -8.760130   14.530140    0.170650
  H     -8.819140   12.183530    0.202420
  H     -8.250860    9.680400    0.105580
  H     -6.463810    8.137830    0.064650
  H     -1.381900   10.866080    1.640160
  H     -2.391730    9.952770    2.792500
  H     -2.892960   11.581160    2.257280
  H      0.340450    7.318000    1.681990
  H      1.141210    8.838040    1.204360
  H      0.699670    7.643890   -0.037270
  H     -1.020120    6.185370    0.102170

 Total Charge           Charge          ....    0
 Multiplicity           Mult            ....    1
 Number of Electrons    NEL             ....  460
 Basis Dimension        Dim             .... 1005

ORBITAL ENERGIES
----------------

  NO   OCC          E(Eh)            E(eV)
   0   2.0000     -88.996683     -2421.7229
   1   2.0000     -88.953248     -2420.5409
   2   2.0000     -88.952407     -2420.5180
   3   2.0000     -88.946908     -2420.3684
   4   2.0000     -88.931013     -2419.9359
   5   2.0000     -88.925138     -2419.7760
   6   2.0000     -24.778713      -674.2631
   7   2.0000     -24.778266      -674.2509
   8   2.0000     -19.248608      -523.7813
   9   2.0000     -19.235961      -523.4371
  10   2.0000     -14.432229      -392.7209
  11   2.0000     -14.414278      -392.2324
  12   2.0000     -14.411372      -392.1534
  13   2.0000     -14.406316      -392.0158
  14   2.0000     -14.397814      -391.7844
  15   2.0000     -10.358895      -281.8799
  16   2.0000     -10.358197      -281.8609
  17   2.0000     -10.337501      -281.2977
  18   2.0000     -10.329654      -281.0842
  19   2.0000     -10.328316      -281.0478
  20   2.0000     -10.323346      -280.9125
  21   2.0000     -10.319127      -280.7977
  22   2.0000     -10.313644      -280.6485
  23   2.0000     -10.309362      -280.5320
  24   2.0000     -10.303821      -280.3812
  25   2.0000     -10.299773      -280.2711
  26   2.0000     -10.299325      -280.2589
  27   2.0000     -10.298872      -280.2466
  28   2.0000     -10.298552      -280.2378
  29   2.0000     -10.297057      -280.1972
  30   2.0000     -10.294974      -280.1405
  31   2.0000     -10.294075      -280.1160
  32   2.0000     -10.292411      -280.0708
  33   2.0000     -10.291376      -280.0426
  34   2.0000     -10.290642      -280.0226
  35   2.0000     -10.284543      -279.8567
  36   2.0000     -10.283668      -279.8328
  37   2.0000     -10.282549      -279.8024
  38   2.0000     -10.282545      -279.8023
  39   2.0000     -10.280626      -279.7501
  40   2.0000     -10.280550      -279.7480
  41   2.0000     -10.279805      -279.7277
  42   2.0000     -10.277515      -279.6654
  43   2.0000     -10.276918      -279.6492
  44   2.0000     -10.275179      -279.6018
  45   2.0000     -10.272494      -279.5288
  46   2.0000     -10.271561      -279.5034
  47   2.0000     -10.270808      -279.4829
  48   2.0000     -10.269652      -279.4514
  49   2.0000     -10.267422      -279.3907
  50   2.0000     -10.267358      -279.3890
  51   2.0000     -10.267200      -279.3847
  52   2.0000     -10.265116      -279.3280
  53   2.0000     -10.263842      -279.2933
  54   2.0000     -10.263455      -279.2828
  55   2.0000     -10.262971      -279.2697
  56   2.0000     -10.259776      -279.1827
  57   2.0000     -10.255889      -279.0769
  58   2.0000     -10.251582      -278.9597
  59   2.0000      -8.087780      -220.0797
  60   2.0000      -8.048990      -219.0241
  61   2.0000      -8.047233      -218.9763
  62   2.0000      -8.042365      -218.8439
  63   2.0000      -8.026484      -218.4117
  64   2.0000      -8.019570      -218.2236
  65   2.0000      -6.059147      -164.8778
  66   2.0000      -6.051531      -164.6705
  67   2.0000      -6.049896      -164.6260
  68   2.0000      -6.018257      -163.7651
  69   2.0000      -6.016097      -163.7063
  70   2.0000      -6.014372      -163.6594
  71   2.0000      -6.012071      -163.5968
  72   2.0000      -6.011712      -163.5870
  73   2.0000      -6.010665      -163.5585
  74   2.0000      -6.010317      -163.5490
  75   2.0000      -6.007638      -163.4761
  76   2.0000      -6.004201      -163.3826
  77   2.0000      -5.996252      -163.1663
  78   2.0000      -5.992216      -163.0565
  79   2.0000      -5.989534      -162.9835
  80   2.0000      -5.987505      -162.9283
  81   2.0000      -5.985250      -162.8669
  82   2.0000      -5.980478      -162.7371
  83   2.0000      -1.299104       -35.3504
  84   2.0000      -1.284265       -34.9466
  85   2.0000      -1.156718       -31.4759
  86   2.0000      -1.131083       -30.7783
  87   2.0000      -1.096754       -29.8442
  88   2.0000      -1.061436       -28.8831
  89   2.0000      -1.052076       -28.6285
  90   2.0000      -1.034159       -28.1409
  91   2.0000      -0.992219       -26.9996
  92   2.0000      -0.974805       -26.5258
  93   2.0000      -0.956049       -26.0154
  94   2.0000      -0.951172       -25.8827
  95   2.0000      -0.939031       -25.5523
  96   2.0000      -0.936051       -25.4712
  97   2.0000      -0.933623       -25.4052
  98   2.0000      -0.915086       -24.9008
  99   2.0000      -0.908679       -24.7264
 100   2.0000      -0.892319       -24.2812
 101   2.0000      -0.882712       -24.0198
 102   2.0000      -0.873830       -23.7781
 103   2.0000      -0.866004       -23.5652
 104   2.0000      -0.856353       -23.3026
 105   2.0000      -0.850847       -23.1527
 106   2.0000      -0.845026       -22.9943
 107   2.0000      -0.838660       -22.8211
 108   2.0000      -0.824183       -22.4272
 109   2.0000      -0.821990       -22.3675
 110   2.0000      -0.819339       -22.2954
 111   2.0000      -0.811839       -22.0913
 112   2.0000      -0.806414       -21.9436
 113   2.0000      -0.802824       -21.8459
 114   2.0000      -0.792430       -21.5631
 115   2.0000      -0.791522       -21.5384
 116   2.0000      -0.780229       -21.2311
 117   2.0000      -0.767881       -20.8951
 118   2.0000      -0.759640       -20.6709
 119   2.0000      -0.744370       -20.2553
 120   2.0000      -0.730460       -19.8768
 121   2.0000      -0.726245       -19.7621
 122   2.0000      -0.719241       -19.5715
 123   2.0000      -0.707364       -19.2483
 124   2.0000      -0.696895       -18.9635
 125   2.0000      -0.685720       -18.6594
 126   2.0000      -0.683032       -18.5863
 127   2.0000      -0.671643       -18.2763
 128   2.0000      -0.671218       -18.2648
 129   2.0000      -0.662100       -18.0167
 130   2.0000      -0.659079       -17.9344
 131   2.0000      -0.650123       -17.6907
 132   2.0000      -0.648280       -17.6406
 133   2.0000      -0.642300       -17.4779
 134   2.0000      -0.630314       -17.1517
 135   2.0000      -0.624695       -16.9988
 136   2.0000      -0.615249       -16.7418
 137   2.0000      -0.614980       -16.7345
 138   2.0000      -0.609738       -16.5918
 139   2.0000      -0.605744       -16.4831
 140   2.0000      -0.603998       -16.4356
 141   2.0000      -0.599458       -16.3121
 142   2.0000      -0.599035       -16.3006
 143   2.0000      -0.595232       -16.1971
 144   2.0000      -0.590927       -16.0799
 145   2.0000      -0.581466       -15.8225
 146   2.0000      -0.574893       -15.6436
 147   2.0000      -0.573084       -15.5944
 148   2.0000      -0.568998       -15.4832
 149   2.0000      -0.566824       -15.4241
 150   2.0000      -0.561988       -15.2925
 151   2.0000      -0.559800       -15.2329
 152   2.0000      -0.557281       -15.1644
 153   2.0000      -0.544864       -14.8265
 154   2.0000      -0.540203       -14.6997
 155   2.0000      -0.537984       -14.6393
 156   2.0000      -0.535416       -14.5694
 157   2.0000      -0.531520       -14.4634
 158   2.0000      -0.528771       -14.3886
 159   2.0000      -0.527652       -14.3581
 160   2.0000      -0.526308       -14.3216
 161   2.0000      -0.525438       -14.2979
 162   2.0000      -0.524577       -14.2745
 163   2.0000      -0.521617       -14.1939
 164   2.0000      -0.518401       -14.1064
 165   2.0000      -0.512255       -13.9392
 166   2.0000      -0.506559       -13.7842
 167   2.0000      -0.503718       -13.7069
 168   2.0000      -0.502410       -13.6713
 169   2.0000      -0.499915       -13.6034
 170   2.0000      -0.495854       -13.4929
 171   2.0000      -0.491107       -13.3637
 172   2.0000      -0.487671       -13.2702
 173   2.0000      -0.486442       -13.2368
 174   2.0000      -0.484767       -13.1912
 175   2.0000      -0.478972       -13.0335
 176   2.0000      -0.477374       -12.9900
 177   2.0000      -0.476613       -12.9693
 178   2.0000      -0.475982       -12.9521
 179   2.0000      -0.474303       -12.9064
 180   2.0000      -0.470362       -12.7992
 181   2.0000      -0.466356       -12.6902
 182   2.0000      -0.465695       -12.6722
 183   2.0000      -0.464496       -12.6396
 184   2.0000      -0.459550       -12.5050
 185   2.0000      -0.455928       -12.4064
 186   2.0000      -0.451669       -12.2905
 187   2.0000      -0.449421       -12.2294
 188   2.0000      -0.446122       -12.1396
 189   2.0000      -0.444039       -12.0829
 190   2.0000      -0.438061       -11.9202
 191   2.0000      -0.436296       -11.8722
 192   2.0000      -0.434012       -11.8101
 193   2.0000      -0.432102       -11.7581
 194   2.0000      -0.425668       -11.5830
 195   2.0000      -0.424295       -11.5456
 196   2.0000      -0.422745       -11.5035
 197   2.0000      -0.416159       -11.3243
 198   2.0000      -0.411051       -11.1853
 199   2.0000      -0.410796       -11.1783
 200   2.0000      -0.407827       -11.0975
 201   2.0000      -0.405486       -11.0338
 202   2.0000      -0.400756       -10.9051
 203   2.0000      -0.400139       -10.8883
 204   2.0000      -0.397856       -10.8262
 205   2.0000      -0.393382       -10.7045
 206   2.0000      -0.386213       -10.5094
 207   2.0000      -0.378935       -10.3113
 208   2.0000      -0.374037       -10.1781
 209   2.0000      -0.372075       -10.1247
 210   2.0000      -0.366854        -9.9826
 211   2.0000      -0.356621        -9.7041
 212   2.0000      -0.353129        -9.6091
 213   2.0000      -0.346374        -9.4253
 214   2.0000      -0.344286        -9.3685
 215   2.0000      -0.337796        -9.1919
 216   2.0000      -0.336479        -9.1561
 217   2.0000      -0.330879        -9.0037
 218   2.0000      -0.327307        -8.9065
 219   2.0000      -0.320822        -8.7300
 220   2.0000      -0.306957        -8.3527
 221   2.0000      -0.303832        -8.2677
 222   2.0000      -0.299005        -8.1363
 223   2.0000      -0.292822        -7.9681
 224   2.0000      -0.288445        -7.8490
 225   2.0000      -0.282740        -7.6937
 226   2.0000      -0.266705        -7.2574
 227   2.0000      -0.250416        -6.8142
 228   2.0000      -0.217219        -5.9108
 229   2.0000      -0.190783        -5.1915
 230   0.0000      -0.060991        -1.6596
 231   0.0000      -0.056840        -1.5467
 232   0.0000      -0.022283        -0.6064
 233   0.0000      -0.014080        -0.3831
 234   0.0000       0.014585         0.3969

MULLIKEN ATOMIC CHARGES
-----------------------
   0 C :   -0.123033
   1 C :   -0.012206
   2 C :   -0.050785
   3 N :   -0.059806
   4 C :    0.023191
   5 S :    0.084060
   6 C :    0.144009
   7 C :   -0.137046
   8 C :    0.103455
   9 N :   -0.062068
  10 C :    0.007558
  11 S :    0.094629
  12 C :   -0.103774
  13 C :    0.012435
  14 C :   -0.085847
  15 S :    0.170635
  16 C :   -0.110824
  17 C :    0.147132
  18 C :    0.117633
  19 C :   -0.126572
  20 C :    0.217419
  21 F :   -0.186536
  22 C :    0.224110
  23 F :   -0.188211
  24 C :   -0.134773
  25 C :   -0.015552
  26 C :   -0.009767
  27 C :    0.016050
  28 C :   -0.218032
  29 C :    0.078873
  30 C :    0.185353
  31 N :   -0.156027
  32 C :    0.044571
  33 C :   -0.043210
  34 C :    0.010423
  35 C :   -0.049262
  36 C :    0.041360
  37 C :    0.016960
  38 C :   -0.051977
  39 S :    0.036163
  40 C :   -0.047971
  41 C :    0.034253
  42 C :    0.010823
  43 C :    0.024446
  44 S :    0.087506
  45 C :   -0.141820
  46 C :    0.099406
  47 C :    0.073839
  48 O :   -0.348755
  49 C :    0.195476
  50 C :    0.279072
  51 O :   -0.332609
  52 C :    0.182423
  53 C :   -0.224345
  54 C :    0.104250
  55 C :   -0.012613
  56 N :   -0.280823
  57 S :    0.467176
  58 N :   -0.273467
  59 H :   -0.030377
  60 H :    0.038587
  61 H :    0.036220
  62 H :   -0.011995
  63 H :    0.005161
  64 H :   -0.007379
  65 H :   -0.020730
  66 H :   -0.023405
  67 H :    0.007093
  68 H :    0.001589
  69 H :    0.022300
  70 H :    0.009123
  71 H :    0.031836
  72 H :    0.018945
  73 H :    0.026836
  74 H :    0.120181
  75 H :    0.032406
  76 H :   -0.027714
  77 H :   -0.016385
  78 H :   -0.018839
  79 H :   -0.022919
  80 H :   -0.023322
  81 H :   -0.021085
  82 H :   -0.000624
  83 H :    0.044807
  84 H :    0.010730
  85 H :    0.022716
  86 H :    0.025179
  87 H :    0.035558
  88 H :    0.033225
  89 H :   -0.044690
Sum of atomic charges:   -0.0000000

LOEWDIN ATOMIC CHARGES
----------------------
   0 C :   -0.046746
   1 C :   -0.177874
   2 C :   -0.042587
   3 N :   -0.082093
   4 C :   -0.100206
   5 S :    0.380780
   6 C :   -0.034389
   7 C :   -0.163921
   8 C :   -0.030546
   9 N :   -0.092618
  10 C :   -0.108665
  11 S :    0.415117
  12 C :   -0.044495
  13 C :   -0.022485
  14 C :   -0.179373
  15 S :    0.528040
  16 C :   -0.176243
  17 C :   -0.048806
  18 C :   -0.045675
  19 C :   -0.040739
  20 C :    0.051639
  21 F :   -0.064525
  22 C :    0.052852
  23 F :   -0.065962
  24 C :   -0.044808
  25 C :   -0.047657
  26 C :   -0.027706
  27 C :   -0.057971
  28 C :   -0.040846
  29 C :   -0.052154
  30 C :    0.034646
  31 N :   -0.004413
  32 C :    0.042097
  33 C :   -0.132408
  34 C :   -0.036394
  35 C :   -0.173786
  36 C :   -0.027556
  37 C :   -0.054388
  38 C :   -0.174046
  39 S :    0.361723
  40 C :   -0.202073
  41 C :   -0.032672
  42 C :   -0.048509
  43 C :   -0.140657
  44 S :    0.391656
  45 C :   -0.075258
  46 C :   -0.048687
  47 C :    0.026045
  48 O :   -0.111646
  49 C :    0.071928
  50 C :    0.048663
  51 O :   -0.090244
  52 C :    0.076363
  53 C :   -0.088989
  54 C :   -0.052643
  55 C :   -0.047056
  56 N :   -0.286635
  57 S :    0.626283
  58 N :   -0.300115
  59 H :    0.035367
  60 H :    0.019301
  61 H :    0.017322
  62 H :    0.012532
  63 H :    0.030014
  64 H :    0.042616
  65 H :    0.036299
  66 H :    0.027892
  67 H :    0.020024
  68 H :    0.025388
  69 H :    0.033707
  70 H :    0.027246
  71 H :    0.035155
  72 H :    0.031994
  73 H :    0.032703
  74 H :    0.079103
  75 H :    0.019096
  76 H :    0.021760
  77 H :    0.032219
  78 H :    0.030647
  79 H :    0.027716
  80 H :    0.027518
  81 H :    0.027708
  82 H :    0.035148
  83 H :    0.010970
  84 H :    0.013326
  85 H :    0.012521
  86 H :    0.016881
  87 H :    0.026964
  88 H :    0.015773
  89 H :    0.034522

  Mayer bond orders larger than 0.100000
B(  0-C ,  1-C ) :   1.3117 B(  0-C ,  6-C ) :   0.1103 B(  0-C ,  8-C ) :   1.3322
B(  0-C , 59-H ) :   1.0265 B(  1-C ,  2-C ) :   1.2829 B(  1-C ,  5-S ) :   1.0507
B(  2-C ,  3-N ) :   1.3076 B(  2-C ,  6-C ) :   1.3061 B(  3-N ,  4-C ) :   1.7465
B(  3-N ,  5-S ) :   0.1069 B(  4-C ,  5-S ) :   1.1142 B(  4-C , 60-H ) :   0.9639
B(  6-C ,  7-C ) :   1.3638 B(  6-C , 12-C ) :   1.1241 B(  7-C ,  8-C ) :   1.2859
B(  7-C , 11-S ) :   1.0704 B(  8-C ,  9-N ) :   1.2903 B(  9-N , 10-C ) :   1.7790
B(  9-N , 11-S ) :   0.1080 B( 10-C , 11-S ) :   1.1141 B( 10-C , 61-H ) :   0.9632
B( 12-C , 13-C ) :   1.6578 B( 12-C , 62-H ) :   0.9558 B( 13-C , 14-C ) :   1.1667
B( 13-C , 63-H ) :   0.9368 B( 14-C , 15-S ) :   1.1620 B( 14-C , 16-C ) :   0.1030
B( 14-C , 18-C ) :   1.3230 B( 15-S , 16-C ) :   1.1731 B( 16-C , 17-C ) :   1.3320
B( 16-C , 25-C ) :   1.1682 B( 17-C , 18-C ) :   1.2113 B( 17-C , 24-C ) :   1.1499
B( 18-C , 19-C ) :   1.1682 B( 19-C , 20-C ) :   1.4742 B( 19-C , 24-C ) :   0.1150
B( 19-C , 64-H ) :   1.0053 B( 20-C , 21-F ) :   1.1243 B( 20-C , 22-C ) :   1.1564
B( 22-C , 23-F ) :   1.1185 B( 22-C , 24-C ) :   1.5002 B( 24-C , 65-H ) :   1.0001
B( 25-C , 26-C ) :   1.6995 B( 25-C , 66-H ) :   0.9663 B( 26-C , 27-C ) :   1.0990
B( 26-C , 67-H ) :   0.9526 B( 27-C , 28-C ) :   1.8485 B( 27-C , 68-H ) :   0.9266
B( 28-C , 29-C ) :   1.0814 B( 28-C , 30-C ) :   0.9930 B( 29-C , 69-H ) :   0.9454
B( 29-C , 70-H ) :   0.9501 B( 29-C , 71-H ) :   0.9437 B( 30-C , 31-N ) :   1.0507
B( 30-C , 72-H ) :   0.9431 B( 30-C , 73-H ) :   0.9261 B( 31-N , 32-C ) :   1.2145
B( 31-N , 74-H ) :   0.9428 B( 32-C , 33-C ) :   1.6003 B( 32-C , 75-H ) :   0.9530
B( 33-C , 34-C ) :   1.1874 B( 33-C , 76-H ) :   0.9581 B( 34-C , 35-C ) :   1.6125
B( 34-C , 77-H ) :   0.9589 B( 35-C , 36-C ) :   1.1446 B( 35-C , 39-S ) :   1.0008
B( 36-C , 37-C ) :   1.5965 B( 36-C , 78-H ) :   0.9961 B( 37-C , 38-C ) :   1.1788
B( 37-C , 79-H ) :   0.9924 B( 38-C , 39-S ) :   1.0401 B( 38-C , 40-C ) :   1.5265
B( 40-C , 41-C ) :   1.1745 B( 40-C , 44-S ) :   1.0012 B( 41-C , 42-C ) :   1.5871
B( 41-C , 80-H ) :   0.9949 B( 42-C , 43-C ) :   1.1231 B( 42-C , 81-H ) :   1.0038
B( 43-C , 44-S ) :   1.0419 B( 43-C , 45-C ) :   1.5635 B( 45-C , 46-C ) :   1.1591
B( 45-C , 82-H ) :   0.9494 B( 46-C , 47-C ) :   1.4265 B( 46-C , 53-C ) :   0.1127
B( 46-C , 55-C ) :   1.1475 B( 47-C , 48-O ) :   1.1245 B( 47-C , 50-C ) :   1.1709
B( 48-O , 49-C ) :   0.9245 B( 49-C , 83-H ) :   0.9677 B( 49-C , 84-H ) :   0.9685
B( 49-C , 85-H ) :   0.9667 B( 50-C , 51-O ) :   1.1241 B( 50-C , 53-C ) :   1.3533
B( 51-O , 52-C ) :   0.9511 B( 52-C , 86-H ) :   0.9677 B( 52-C , 87-H ) :   0.9749
B( 52-C , 88-H ) :   0.9638 B( 53-C , 54-C ) :   1.1285 B( 53-C , 89-H ) :   1.0454
B( 54-C , 55-C ) :   1.1639 B( 54-C , 58-N ) :   1.5217 B( 55-C , 56-N ) :   1.5493
B( 56-N , 57-S ) :   1.2466 B( 56-N , 58-N ) :   0.1431 B( 57-S , 58-N ) :   1.2497

-----------------------------------------------------------------------------
         ABSORPTION SPECTRUM VIA TRANSITION ELECTRIC DIPOLE MOMENTS
-----------------------------------------------------------------------------
State   Energy  Wavelength   fosc         T2         TX        TY        TZ
        (cm-1)    (nm)                  (au**2)     (au)      (au)      (au)
-----------------------------------------------------------------------------
   0   12720.5    786.1   0.030485996   0.78899   0.18133  -0.86638   0.07415
   1   14672.7    681.5   0.612462498  13.74182  -0.57288   3.65759   0.18882
   2   17785.2    562.3   0.142330880   2.63461   0.52801   1.51509   0.24555
   3   19647.4    509.0   0.731206634  12.25209  -1.33004  -2.92135  -1.39598
   4   21824.9    458.2   0.437680325   6.60208  -1.19962  -2.21657  -0.49980
   5   24080.2    415.3   0.008727834   0.11932   0.23377   0.09846   0.23448
   6   25488.0    392.3   0.096445931   1.24573   1.10637   0.02742   0.14463
   7   26086.6    383.3   0.025396133   0.32050   0.45166  -0.26660  -0.21314
   8   26146.4    382.5   0.087781937   1.10527   0.93650   0.28879   0.38057
   9   27184.6    367.9   0.033631627   0.40729  -0.45550  -0.44351   0.05567
  10   27796.1    359.8   0.044929552   0.53214  -0.27401   0.66411   0.12653
  11   29343.6    340.8   0.017646468   0.19798   0.27748   0.32470   0.12473
  12   29776.3    335.8   0.118076535   1.30547   1.11636  -0.03562   0.24070
  13   30088.0    332.4   0.164893045   1.80420  -1.31184   0.24464  -0.15302
  14   31044.0    322.1   0.111111901   1.17831  -0.75097  -0.78344  -0.02373
  15   31458.1    317.9   0.030878284   0.32314  -0.45783   0.33656  -0.01633
  16   31975.3    312.7   0.032655588   0.33622   0.01609   0.37053   0.44572
  17   32629.9    306.5   0.145845144   1.47147  -0.03337   1.05094   0.60488
  18   32881.7    304.1   0.011843078   0.11857   0.28128   0.10734   0.16714
  19   33135.1    301.8   0.023556917   0.23405  -0.15861   0.30296   0.34221
  20   33491.5    298.6   0.152603324   1.50005  -1.04782   0.63097  -0.06328
  21   33979.6    294.3   0.029087274   0.28181   0.11583  -0.50385   0.12053
  22   34482.0    290.0   0.007106776   0.06785   0.25246   0.00968   0.06342
  23   34541.7    289.5   0.006054804   0.05771   0.22400  -0.02624   0.08273
  24   34755.1    287.7   0.030938936   0.29306   0.39884   0.30759   0.19844
  25   34985.3    285.8   0.041291014   0.38855  -0.16416   0.54201   0.26043
  26   35021.5    285.5   0.052565973   0.49413  -0.66750   0.01525   0.21986
  27   36109.6    276.9   0.079179911   0.72188  -0.76431  -0.22054  -0.29845
  28   36701.6    272.5   0.079829511   0.71607   0.79993   0.23214   0.14929
  29   37142.6    269.2   0.623824978   5.52925   1.86055  -1.29074  -0.63372
  30   37370.0    267.6   0.135820543   1.19651  -1.02659   0.30770   0.21897
  31   37586.9    266.1   0.144408919   1.26483   0.32105  -1.03544  -0.29939
  32   37914.6    263.8   0.027942072   0.24262   0.45154  -0.16103  -0.11316
  33   38106.5    262.4   0.010494775   0.09067  -0.18616   0.22631  -0.06926
  34   38196.9    261.8   0.001070881   0.00923  -0.08176   0.04399   0.02470
  35   38423.6    260.3   0.059651472   0.51109   0.70875  -0.04315  -0.08310
  36   38615.9    259.0   0.072102240   0.61469   0.52483  -0.57379  -0.10006
  37   39759.6    251.5   0.081797494   0.67729  -0.10876  -0.81573   0.00629
  38   40273.1    248.3   0.008363722   0.06837   0.22719   0.12863   0.01445

FINAL SINGLE POINT ENERGY     -4704.648157785021

DIPOLE MOMENT
-------------
                                X             Y             Z
Electronic contribution:     -2.87140     -52.73958     -33.06707
Nuclear contribution   :      3.49625      54.52956      34.23066
                        -----------------------------------------
Total Dipole Moment    :      0.62485       1.78998       1.16358
                        -----------------------------------------
Magnitude (a.u.)       :      2.22450
Magnitude (Debye)      :      5.65423

Rotational constants in cm-1:     0.001778     0.001043     0.000743
Rotational constants in MHz :    53.290778    31.266943    22.287573

                             ****ORCA TERMINATED NORMALLY****
TOTAL RUN TIME: 0 days 0 hours 10 minutes 0 seconds 85 msec
