                         Program Version 4.2.0 -  RELEASE  -
|  1> # ORCA input file
|  2> # SCF done       -189.435034392058          0.000603254212
|  3> ! CAM-B3LYP def2-SVP def2/J RIJCOSX Grid4 TightSCF
|  4> %maxcore 5000
|  5> %tddft
|  6>     Mode sTDDFT
|  7>     Ethresh 5.0
|  8>     maxcore 5000
|  9> end
| 10>
| 11> %pal
| 12>   nprocs 6
| 13>   end
| 14> * xyz 0 1
| 15>    C      -12.05590         4.68222        -1.77797
| 16>    C      -10.80472         4.65752        -2.35741
| 17>    C       -9.86118         5.71215        -2.22186
| 18>    N       -8.68867         5.48293        -2.87688
| 19>    C       -8.68123         4.36071        -3.48054
| 20>    S      -10.12610         3.39192        -3.34135
| 21>    C      -10.16852         6.86435        -1.46838
| 22>    C      -11.44145         6.86851        -0.88933
| 23>    C      -12.37424         5.81054        -1.03153
| 24>    N      -13.56054         6.01419        -0.38686
| 25>    C      -13.58189         7.13223         0.21909
| 26>    S      -12.14312         8.11867         0.09527
| 27>    C       -9.28543         7.97674        -1.28086
| 28>    C       -8.03619         8.08254        -1.78643
| 29>    C       -7.19212         9.19915        -1.59110
| 30>    S       -7.65373        10.60052        -0.67090
| 31>    C       -6.12587        11.39804        -0.95550
| 32>    C       -5.30213        10.58052        -1.74279
| 33>    C       -5.90266         9.36328        -2.08774
| 34>    S       -5.20537         8.05851        -3.04423
| 35>    C       -3.58506         8.50559        -3.57303
| 36>    O       -2.98136         7.69405        -4.22391
| 37>    C       -2.94473         9.83285        -3.25557
| 38>    O       -1.85144        10.08681        -3.69023
| 39>    S       -3.68952        11.07364        -2.24782
| 40>    C       -5.95082        12.67517        -0.39036
| 41>    C       -4.82903        13.45223        -0.48766
| 42>    C       -4.65592        14.72401         0.06258
| 43>    C       -3.47778        15.42332        -0.10761
| 44>    C       -3.12556        16.70882         0.36140
| 45>    C       -1.86863        17.11326         0.00742
| 46>    C       -1.16211        16.16560        -0.75891
| 47>    S       -2.14496        14.74131        -1.01729
| 48>    C        0.11213        16.20453        -1.29422
| 49>    C        1.10173        17.21054        -1.24032
| 50>    C        2.24999        16.88260        -1.89326
| 51>    C        2.24555        15.59654        -2.50569
| 52>    S        0.68858        14.83546        -2.21136
| 53>    C        3.30031        15.03273        -3.16731
| 54>    C        3.40651        13.74806        -3.78682
| 55>    C        4.68990        13.29649        -4.16382
| 56>    C        4.84281        12.05023        -4.71164
| 57>    C        3.72597        11.21811        -4.92162
| 58>    C        2.45191        11.65969        -4.59053
| 59>    C        2.30440        12.90987        -4.03182
| 60>    C        4.17806         9.97225        -5.49255
| 61>    C        5.57550        10.02560        -5.63869
| 62>    C        6.11004        11.35493        -5.15569
| 63>    C        7.08899        11.17209        -3.98120
| 64>    C        6.46884        10.42665        -2.80554
| 65>    C        6.80581        12.12518        -6.29310
| 66>    C        5.90256        12.33440        -7.50252
| 67>    C        6.26048         8.95745        -6.16166
| 68>    C        5.56344         7.80152        -6.55313
| 69>    C        4.16973         7.76813        -6.39874
| 70>    C        3.47462         8.83759        -5.87471
| 71>    C        6.32407         6.70154        -7.09787
| 72>    C        5.82814         5.51939        -7.50736
| 73>    C        6.58800         4.42603        -8.04900
| 74>    C        5.94195         3.24423        -8.42263
| 75>    C        6.58975         2.10719        -8.96402
| 76>    N        5.74423         1.07446        -9.25004
| 77>    C        4.53413         1.35102        -8.96747
| 78>    S        4.23272         2.93174        -8.30089
| 79>    C        7.98134         2.10115        -9.16710
| 80>    C        8.62780         3.27988        -8.79705
| 81>    C        7.98129         4.41827        -8.25421
| 82>    N        8.82728         5.45078        -7.97142
| 83>    C       10.03718         5.17470        -8.25699
| 84>    S       10.33765         3.59336        -8.92365
| 85>    C        8.73719         0.99197        -9.71188
| 86>    C        8.24454        -0.18239       -10.09366
| 87>    H      -12.76266         3.87798        -1.88774
| 88>    H       -7.84681         4.00221        -4.05056
| 89>    H      -14.42003         7.48639         0.78701
| 90>    H       -9.67949         8.78872        -0.67972
| 91>    H       -7.63571         7.27564        -2.38430
| 92>    H       -6.79935        13.05124         0.16667
| 93>    H       -3.98327        13.06890        -1.03840
| 94>    H       -5.45325        15.18155         0.63144
| 95>    H       -3.80950        17.29952         0.94546
| 96>    H       -1.43819        18.06145         0.27764
| 97>    H        0.94071        18.13882        -0.72151
| 98>    H        3.11299        17.52247        -1.95656
| 99>    H        4.20219        15.63448        -3.19060
|100>    H        5.54497        13.93631        -3.99491
|101>    H        1.58698        11.03750        -4.76182
|102>    H        1.30958        13.25118        -3.80069
|103>    H        7.42610        12.15677        -3.64958
|104>    H        7.96294        10.62275        -4.33761
|105>    H        5.60709        10.96629        -2.41899
|106>    H        7.19633        10.31991        -2.00400
|107>    H        6.14286         9.43447        -3.10939
|108>    H        7.69569        11.57010        -6.59746
|109>    H        7.13167        13.09520        -5.91095
|110>    H        6.43405        12.88413        -8.27601
|111>    H        5.01467        12.89899        -7.22643
|112>    H        5.58607        11.37897        -7.91483
|113>    H        7.33468         8.98871        -6.27776
|114>    H        3.62209         6.88749        -6.69564
|115>    H        2.40199         8.79234        -5.76191
|116>    H        7.39052         6.86028        -7.17530
|117>    H        4.76580         5.32133        -7.44189
|118>    H        3.71895         0.67056        -9.11947
|119>    H       10.85237         5.85592        -8.10884
|120>    H        9.80098         1.18394        -9.79615
|121>    H        7.19447        -0.40203       -10.02155
|122>    H        8.88827        -0.94996       -10.48833
|123> *
|124>
|125>                          ****END OF INPUT****

CARTESIAN COORDINATES (ANGSTROEM)
---------------------------------
  C    -12.055900    4.682220   -1.777970
  C    -10.804720    4.657520   -2.357410
  C     -9.861180    5.712150   -2.221860
  N     -8.688670    5.482930   -2.876880
  C     -8.681230    4.360710   -3.480540
  S    -10.126100    3.391920   -3.341350
  C    -10.168520    6.864350   -1.468380
  C    -11.441450    6.868510   -0.889330
  C    -12.374240    5.810540   -1.031530
  N    -13.560540    6.014190   -0.386860
  C    -13.581890    7.132230    0.219090
  S    -12.143120    8.118670    0.095270
  C     -9.285430    7.976740   -1.280860
  C     -8.036190    8.082540   -1.786430
  C     -7.192120    9.199150   -1.591100
  S     -7.653730   10.600520   -0.670900
  C     -6.125870   11.398040   -0.955500
  C     -5.302130   10.580520   -1.742790
  C     -5.902660    9.363280   -2.087740
  S     -5.205370    8.058510   -3.044230
  C     -3.585060    8.505590   -3.573030
  O     -2.981360    7.694050   -4.223910
  C     -2.944730    9.832850   -3.255570
  O     -1.851440   10.086810   -3.690230
  S     -3.689520   11.073640   -2.247820
  C     -5.950820   12.675170   -0.390360
  C     -4.829030   13.452230   -0.487660
  C     -4.655920   14.724010    0.062580
  C     -3.477780   15.423320   -0.107610
  C     -3.125560   16.708820    0.361400
  C     -1.868630   17.113260    0.007420
  C     -1.162110   16.165600   -0.758910
  S     -2.144960   14.741310   -1.017290
  C      0.112130   16.204530   -1.294220
  C      1.101730   17.210540   -1.240320
  C      2.249990   16.882600   -1.893260
  C      2.245550   15.596540   -2.505690
  S      0.688580   14.835460   -2.211360
  C      3.300310   15.032730   -3.167310
  C      3.406510   13.748060   -3.786820
  C      4.689900   13.296490   -4.163820
  C      4.842810   12.050230   -4.711640
  C      3.725970   11.218110   -4.921620
  C      2.451910   11.659690   -4.590530
  C      2.304400   12.909870   -4.031820
  C      4.178060    9.972250   -5.492550
  C      5.575500   10.025600   -5.638690
  C      6.110040   11.354930   -5.155690
  C      7.088990   11.172090   -3.981200
  C      6.468840   10.426650   -2.805540
  C      6.805810   12.125180   -6.293100
  C      5.902560   12.334400   -7.502520
  C      6.260480    8.957450   -6.161660
  C      5.563440    7.801520   -6.553130
  C      4.169730    7.768130   -6.398740
  C      3.474620    8.837590   -5.874710
  C      6.324070    6.701540   -7.097870
  C      5.828140    5.519390   -7.507360
  C      6.588000    4.426030   -8.049000
  C      5.941950    3.244230   -8.422630
  C      6.589750    2.107190   -8.964020
  N      5.744230    1.074460   -9.250040
  C      4.534130    1.351020   -8.967470
  S      4.232720    2.931740   -8.300890
  C      7.981340    2.101150   -9.167100
  C      8.627800    3.279880   -8.797050
  C      7.981290    4.418270   -8.254210
  N      8.827280    5.450780   -7.971420
  C     10.037180    5.174700   -8.256990
  S     10.337650    3.593360   -8.923650
  C      8.737190    0.991970   -9.711880
  C      8.244540   -0.182390  -10.093660
  H    -12.762660    3.877980   -1.887740
  H     -7.846810    4.002210   -4.050560
  H    -14.420030    7.486390    0.787010
  H     -9.679490    8.788720   -0.679720
  H     -7.635710    7.275640   -2.384300
  H     -6.799350   13.051240    0.166670
  H     -3.983270   13.068900   -1.038400
  H     -5.453250   15.181550    0.631440
  H     -3.809500   17.299520    0.945460
  H     -1.438190   18.061450    0.277640
  H      0.940710   18.138820   -0.721510
  H      3.112990   17.522470   -1.956560
  H      4.202190   15.634480   -3.190600
  H      5.544970   13.936310   -3.994910
  H      1.586980   11.037500   -4.761820
  H      1.309580   13.251180   -3.800690
  H      7.426100   12.156770   -3.649580
  H      7.962940   10.622750   -4.337610
  H      5.607090   10.966290   -2.418990
  H      7.196330   10.319910   -2.004000
  H      6.142860    9.434470   -3.109390
  H      7.695690   11.570100   -6.597460
  H      7.131670   13.095200   -5.910950
  H      6.434050   12.884130   -8.276010
  H      5.014670   12.898990   -7.226430
  H      5.586070   11.378970   -7.914830
  H      7.334680    8.988710   -6.277760
  H      3.622090    6.887490   -6.695640
  H      2.401990    8.792340   -5.761910
  H      7.390520    6.860280   -7.175300
  H      4.765800    5.321330   -7.441890
  H      3.718950    0.670560   -9.119470
  H     10.852370    5.855920   -8.108840
  H      9.800980    1.183940   -9.796150
  H      7.194470   -0.402030  -10.021550
  H      8.888270   -0.949960  -10.488330

 Total Charge           Charge          ....    0
 Multiplicity           Mult            ....    1
 Number of Electrons    NEL             ....  566
 Basis Dimension        Dim             .... 1224

ORBITAL ENERGIES
----------------

  NO   OCC          E(Eh)            E(eV)
   0   2.0000     -88.962248     -2420.7858
   1   2.0000     -88.961046     -2420.7531
   2   2.0000     -88.960911     -2420.7494
   3   2.0000     -88.960687     -2420.7434
   4   2.0000     -88.958484     -2420.6834
   5   2.0000     -88.955320     -2420.5973
   6   2.0000     -88.954620     -2420.5783
   7   2.0000     -88.941444     -2420.2197
   8   2.0000     -88.939199     -2420.1586
   9   2.0000     -19.232993      -523.3563
  10   2.0000     -19.230804      -523.2968
  11   2.0000     -14.414664      -392.2429
  12   2.0000     -14.409565      -392.1042
  13   2.0000     -14.408427      -392.0732
  14   2.0000     -14.406589      -392.0232
  15   2.0000     -10.397300      -282.9249
  16   2.0000     -10.396304      -282.8978
  17   2.0000     -10.338380      -281.3216
  18   2.0000     -10.334883      -281.2265
  19   2.0000     -10.332516      -281.1621
  20   2.0000     -10.331495      -281.1343
  21   2.0000     -10.320027      -280.8222
  22   2.0000     -10.318199      -280.7725
  23   2.0000     -10.317319      -280.7485
  24   2.0000     -10.310387      -280.5599
  25   2.0000     -10.309532      -280.5366
  26   2.0000     -10.308436      -280.5068
  27   2.0000     -10.308396      -280.5057
  28   2.0000     -10.307851      -280.4909
  29   2.0000     -10.306213      -280.4463
  30   2.0000     -10.305429      -280.4250
  31   2.0000     -10.304638      -280.4035
  32   2.0000     -10.303047      -280.3602
  33   2.0000     -10.302757      -280.3523
  34   2.0000     -10.302588      -280.3477
  35   2.0000     -10.300199      -280.2827
  36   2.0000     -10.299004      -280.2502
  37   2.0000     -10.295247      -280.1479
  38   2.0000     -10.288517      -279.9648
  39   2.0000     -10.286037      -279.8973
  40   2.0000     -10.285723      -279.8887
  41   2.0000     -10.284405      -279.8529
  42   2.0000     -10.284090      -279.8443
  43   2.0000     -10.283881      -279.8386
  44   2.0000     -10.281371      -279.7703
  45   2.0000     -10.280983      -279.7598
  46   2.0000     -10.279868      -279.7294
  47   2.0000     -10.279079      -279.7080
  48   2.0000     -10.278195      -279.6839
  49   2.0000     -10.277616      -279.6682
  50   2.0000     -10.274124      -279.5731
  51   2.0000     -10.273351      -279.5521
  52   2.0000     -10.269842      -279.4566
  53   2.0000     -10.266389      -279.3626
  54   2.0000     -10.265676      -279.3433
  55   2.0000     -10.264470      -279.3104
  56   2.0000     -10.263782      -279.2917
  57   2.0000     -10.262878      -279.2671
  58   2.0000     -10.261619      -279.2328
  59   2.0000     -10.261109      -279.2190
  60   2.0000     -10.260921      -279.2139
  61   2.0000     -10.260232      -279.1951
  62   2.0000     -10.259988      -279.1885
  63   2.0000     -10.259210      -279.1673
  64   2.0000     -10.259085      -279.1639
  65   2.0000     -10.258072      -279.1363
  66   2.0000     -10.257876      -279.1310
  67   2.0000     -10.256053      -279.0814
  68   2.0000     -10.255821      -279.0751
  69   2.0000     -10.250229      -278.9229
  70   2.0000     -10.238814      -278.6123
  71   2.0000     -10.238370      -278.6002
  72   2.0000      -8.057986      -219.2689
  73   2.0000      -8.057370      -219.2522
  74   2.0000      -8.057155      -219.2463
  75   2.0000      -8.056525      -219.2292
  76   2.0000      -8.054852      -219.1837
  77   2.0000      -8.051683      -219.0974
  78   2.0000      -8.050823      -219.0740
  79   2.0000      -8.037456      -218.7103
  80   2.0000      -8.035463      -218.6561
  81   2.0000      -6.027887      -164.0272
  82   2.0000      -6.026990      -164.0027
  83   2.0000      -6.026637      -163.9931
  84   2.0000      -6.025771      -163.9696
  85   2.0000      -6.024165      -163.9259
  86   2.0000      -6.023154      -163.8983
  87   2.0000      -6.022707      -163.8862
  88   2.0000      -6.022346      -163.8764
  89   2.0000      -6.021971      -163.8662
  90   2.0000      -6.020932      -163.8379
  91   2.0000      -6.020169      -163.8171
  92   2.0000      -6.020050      -163.8139
  93   2.0000      -6.019058      -163.7869
  94   2.0000      -6.019056      -163.7868
  95   2.0000      -6.018352      -163.7677
  96   2.0000      -6.018178      -163.7629
  97   2.0000      -6.016979      -163.7303
  98   2.0000      -6.016572      -163.7193
  99   2.0000      -6.016143      -163.7076
 100   2.0000      -6.013485      -163.6352
 101   2.0000      -6.012663      -163.6129
 102   2.0000      -6.007241      -163.4653
 103   2.0000      -6.005234      -163.4107
 104   2.0000      -6.003066      -163.3517
 105   2.0000      -6.001137      -163.2993
 106   2.0000      -5.998371      -163.2240
 107   2.0000      -5.996349      -163.1689
 108   2.0000      -1.168806       -31.8048
 109   2.0000      -1.136320       -30.9209
 110   2.0000      -1.071188       -29.1485
 111   2.0000      -1.065914       -29.0050
 112   2.0000      -1.063309       -28.9341
 113   2.0000      -1.059088       -28.8192
 114   2.0000      -1.006351       -27.3842
 115   2.0000      -0.993367       -27.0309
 116   2.0000      -0.978877       -26.6366
 117   2.0000      -0.970509       -26.4089
 118   2.0000      -0.948985       -25.8232
 119   2.0000      -0.944539       -25.7022
 120   2.0000      -0.936589       -25.4859
 121   2.0000      -0.925713       -25.1899
 122   2.0000      -0.924297       -25.1514
 123   2.0000      -0.922418       -25.1003
 124   2.0000      -0.914276       -24.8787
 125   2.0000      -0.909923       -24.7603
 126   2.0000      -0.895730       -24.3741
 127   2.0000      -0.884470       -24.0677
 128   2.0000      -0.882712       -24.0198
 129   2.0000      -0.880172       -23.9507
 130   2.0000      -0.871833       -23.7238
 131   2.0000      -0.869301       -23.6549
 132   2.0000      -0.857487       -23.3334
 133   2.0000      -0.851219       -23.1628
 134   2.0000      -0.845585       -23.0095
 135   2.0000      -0.836858       -22.7721
 136   2.0000      -0.831704       -22.6318
 137   2.0000      -0.829606       -22.5747
 138   2.0000      -0.826791       -22.4981
 139   2.0000      -0.822628       -22.3848
 140   2.0000      -0.822231       -22.3740
 141   2.0000      -0.818285       -22.2667
 142   2.0000      -0.817046       -22.2330
 143   2.0000      -0.814253       -22.1569
 144   2.0000      -0.806040       -21.9335
 145   2.0000      -0.791797       -21.5459
 146   2.0000      -0.778295       -21.1785
 147   2.0000      -0.763920       -20.7873
 148   2.0000      -0.753308       -20.4985
 149   2.0000      -0.745221       -20.2785
 150   2.0000      -0.741717       -20.1832
 151   2.0000      -0.737664       -20.0729
 152   2.0000      -0.730574       -19.8799
 153   2.0000      -0.717010       -19.5108
 154   2.0000      -0.709123       -19.2962
 155   2.0000      -0.703998       -19.1568
 156   2.0000      -0.694343       -18.8940
 157   2.0000      -0.682514       -18.5722
 158   2.0000      -0.679242       -18.4831
 159   2.0000      -0.676368       -18.4049
 160   2.0000      -0.672165       -18.2905
 161   2.0000      -0.670533       -18.2461
 162   2.0000      -0.666691       -18.1416
 163   2.0000      -0.659427       -17.9439
 164   2.0000      -0.655580       -17.8393
 165   2.0000      -0.651239       -17.7211
 166   2.0000      -0.649397       -17.6710
 167   2.0000      -0.643553       -17.5120
 168   2.0000      -0.638119       -17.3641
 169   2.0000      -0.634060       -17.2536
 170   2.0000      -0.630448       -17.1554
 171   2.0000      -0.626299       -17.0425
 172   2.0000      -0.622929       -16.9508
 173   2.0000      -0.614139       -16.7116
 174   2.0000      -0.605136       -16.4666
 175   2.0000      -0.604290       -16.4436
 176   2.0000      -0.598511       -16.2863
 177   2.0000      -0.591489       -16.0952
 178   2.0000      -0.587581       -15.9889
 179   2.0000      -0.584799       -15.9132
 180   2.0000      -0.583473       -15.8771
 181   2.0000      -0.578345       -15.7376
 182   2.0000      -0.570248       -15.5172
 183   2.0000      -0.563835       -15.3427
 184   2.0000      -0.556990       -15.1565
 185   2.0000      -0.553227       -15.0541
 186   2.0000      -0.546467       -14.8701
 187   2.0000      -0.542701       -14.7676
 188   2.0000      -0.539368       -14.6769
 189   2.0000      -0.537780       -14.6337
 190   2.0000      -0.537395       -14.6233
 191   2.0000      -0.534989       -14.5578
 192   2.0000      -0.534848       -14.5540
 193   2.0000      -0.532694       -14.4953
 194   2.0000      -0.530847       -14.4451
 195   2.0000      -0.529160       -14.3992
 196   2.0000      -0.528541       -14.3823
 197   2.0000      -0.524943       -14.2844
 198   2.0000      -0.524397       -14.2696
 199   2.0000      -0.522128       -14.2078
 200   2.0000      -0.516742       -14.0613
 201   2.0000      -0.512288       -13.9401
 202   2.0000      -0.509748       -13.8710
 203   2.0000      -0.508463       -13.8360
 204   2.0000      -0.504660       -13.7325
 205   2.0000      -0.502991       -13.6871
 206   2.0000      -0.502519       -13.6742
 207   2.0000      -0.499832       -13.6011
 208   2.0000      -0.497258       -13.5311
 209   2.0000      -0.496037       -13.4979
 210   2.0000      -0.494625       -13.4594
 211   2.0000      -0.492961       -13.4142
 212   2.0000      -0.489623       -13.3233
 213   2.0000      -0.486352       -13.2343
 214   2.0000      -0.485077       -13.1996
 215   2.0000      -0.483596       -13.1593
 216   2.0000      -0.476847       -12.9757
 217   2.0000      -0.475843       -12.9484
 218   2.0000      -0.474311       -12.9066
 219   2.0000      -0.471742       -12.8368
 220   2.0000      -0.468887       -12.7591
 221   2.0000      -0.467658       -12.7256
 222   2.0000      -0.466371       -12.6906
 223   2.0000      -0.465253       -12.6602
 224   2.0000      -0.462737       -12.5917
 225   2.0000      -0.455693       -12.4000
 226   2.0000      -0.455343       -12.3905
 227   2.0000      -0.454410       -12.3651
 228   2.0000      -0.451459       -12.2848
 229   2.0000      -0.450398       -12.2560
 230   2.0000      -0.446430       -12.1480
 231   2.0000      -0.442181       -12.0324
 232   2.0000      -0.441679       -12.0187
 233   2.0000      -0.440372       -11.9831
 234   2.0000      -0.434417       -11.8211
 235   2.0000      -0.433490       -11.7959
 236   2.0000      -0.431614       -11.7448
 237   2.0000      -0.424251       -11.5444
 238   2.0000      -0.423072       -11.5124
 239   2.0000      -0.420074       -11.4308
 240   2.0000      -0.419737       -11.4216
 241   2.0000      -0.417414       -11.3584
 242   2.0000      -0.417212       -11.3529
 243   2.0000      -0.416426       -11.3315
 244   2.0000      -0.414394       -11.2762
 245   2.0000      -0.411807       -11.2058
 246   2.0000      -0.409898       -11.1539
 247   2.0000      -0.407960       -11.1012
 248   2.0000      -0.403423       -10.9777
 249   2.0000      -0.399595       -10.8735
 250   2.0000      -0.399479       -10.8704
 251   2.0000      -0.395217       -10.7544
 252   2.0000      -0.391389       -10.6502
 253   2.0000      -0.387237       -10.5372
 254   2.0000      -0.385315       -10.4850
 255   2.0000      -0.380641       -10.3578
 256   2.0000      -0.377101       -10.2614
 257   2.0000      -0.374340       -10.1863
 258   2.0000      -0.373663       -10.1679
 259   2.0000      -0.357538        -9.7291
 260   2.0000      -0.357176        -9.7192
 261   2.0000      -0.352703        -9.5975
 262   2.0000      -0.349827        -9.5193
 263   2.0000      -0.347548        -9.4573
 264   2.0000      -0.346383        -9.4256
 265   2.0000      -0.339558        -9.2398
 266   2.0000      -0.337715        -9.1897
 267   2.0000      -0.337504        -9.1839
 268   2.0000      -0.335488        -9.1291
 269   2.0000      -0.332370        -9.0443
 270   2.0000      -0.329801        -8.9743
 271   2.0000      -0.321134        -8.7385
 272   2.0000      -0.311499        -8.4763
 273   2.0000      -0.307446        -8.3660
 274   2.0000      -0.305259        -8.3065
 275   2.0000      -0.302590        -8.2339
 276   2.0000      -0.297890        -8.1060
 277   2.0000      -0.293989        -7.9998
 278   2.0000      -0.289036        -7.8651
 279   2.0000      -0.272163        -7.4059
 280   2.0000      -0.249650        -6.7933
 281   2.0000      -0.235047        -6.3960
 282   2.0000      -0.201969        -5.4959
 283   0.0000      -0.085673        -2.3313
 284   0.0000      -0.053676        -1.4606
 285   0.0000      -0.045529        -1.2389
 286   0.0000      -0.040697        -1.1074
 287   0.0000      -0.018564        -0.5051

MULLIKEN ATOMIC CHARGES
-----------------------
   0 C :   -0.097572
   1 C :   -0.025212
   2 C :   -0.000386
   3 N :   -0.064888
   4 C :    0.017156
   5 S :    0.097420
   6 C :    0.106150
   7 C :   -0.135401
   8 C :    0.085094
   9 N :   -0.061863
  10 C :    0.012152
  11 S :    0.081347
  12 C :   -0.103926
  13 C :    0.010207
  14 C :   -0.090009
  15 S :    0.133149
  16 C :   -0.115697
  17 C :   -0.015232
  18 C :   -0.036301
  19 S :    0.080088
  20 C :    0.078679
  21 O :   -0.141411
  22 C :    0.100366
  23 O :   -0.141992
  24 S :    0.051364
  25 C :    0.034790
  26 C :   -0.030953
  27 C :   -0.006187
  28 C :   -0.015547
  29 C :    0.026079
  30 C :    0.038179
  31 C :   -0.041767
  32 S :    0.045817
  33 C :   -0.028343
  34 C :    0.028631
  35 C :    0.039025
  36 C :   -0.012973
  37 S :    0.060909
  38 C :   -0.026118
  39 C :    0.113528
  40 C :   -0.110637
  41 C :    0.020060
  42 C :    0.111602
  43 C :   -0.053797
  44 C :   -0.026783
  45 C :    0.110420
  46 C :    0.019262
  47 C :   -0.138038
  48 C :    0.069742
  49 C :    0.025129
  50 C :    0.073096
  51 C :    0.024218
  52 C :   -0.116671
  53 C :    0.132699
  54 C :   -0.012053
  55 C :   -0.047794
  56 C :    0.006576
  57 C :   -0.068683
  58 C :    0.092129
  59 C :   -0.124188
  60 C :    0.017880
  61 N :   -0.064732
  62 C :    0.021983
  63 S :    0.081622
  64 C :    0.044764
  65 C :   -0.113313
  66 C :    0.010031
  67 N :   -0.059655
  68 C :    0.019136
  69 S :    0.083355
  70 C :   -0.076218
  71 C :    0.016471
  72 H :   -0.023265
  73 H :    0.046740
  74 H :    0.043297
  75 H :   -0.020354
  76 H :    0.027259
  77 H :   -0.022240
  78 H :    0.043811
  79 H :   -0.021439
  80 H :   -0.013839
  81 H :   -0.013818
  82 H :   -0.015503
  83 H :   -0.011461
  84 H :   -0.021781
  85 H :   -0.043691
  86 H :   -0.018679
  87 H :   -0.006967
  88 H :   -0.006751
  89 H :   -0.003765
  90 H :    0.022233
  91 H :    0.006894
  92 H :    0.023424
  93 H :   -0.003778
  94 H :   -0.007285
  95 H :    0.006323
  96 H :    0.021217
  97 H :    0.023568
  98 H :   -0.038937
  99 H :   -0.030801
 100 H :   -0.026249
 101 H :   -0.011615
 102 H :   -0.026896
 103 H :    0.041234
 104 H :    0.039554
 105 H :   -0.018793
 106 H :    0.032795
 107 H :    0.013594
Sum of atomic charges:   -0.0000000

LOEWDIN ATOMIC CHARGES
----------------------
   0 C :   -0.035384
   1 C :   -0.167966
   2 C :   -0.029421
   3 N :   -0.083202
   4 C :   -0.098526
   5 S :    0.389082
   6 C :   -0.036162
   7 C :   -0.167108
   8 C :   -0.034566
   9 N :   -0.088776
  10 C :   -0.102543
  11 S :    0.380495
  12 C :   -0.040203
  13 C :   -0.029242
  14 C :   -0.194443
  15 S :    0.447748
  16 C :   -0.167510
  17 C :   -0.229915
  18 C :   -0.209879
  19 S :    0.397545
  20 C :   -0.116378
  21 O :   -0.114315
  22 C :   -0.112119
  23 O :   -0.115203
  24 S :    0.405846
  25 C :   -0.068290
  26 C :   -0.026815
  27 C :   -0.070696
  28 C :   -0.131142
  29 C :   -0.044540
  30 C :   -0.023421
  31 C :   -0.188115
  32 S :    0.377987
  33 C :   -0.168660
  34 C :   -0.043196
  35 C :   -0.020975
  36 C :   -0.152681
  37 S :    0.393785
  38 C :   -0.033646
  39 C :   -0.033802
  40 C :   -0.017836
  41 C :    0.000599
  42 C :   -0.011233
  43 C :   -0.012080
  44 C :   -0.021666
  45 C :   -0.018033
  46 C :    0.001530
  47 C :   -0.034991
  48 C :   -0.012053
  49 C :   -0.057775
  50 C :   -0.011747
  51 C :   -0.057835
  52 C :   -0.019158
  53 C :   -0.024438
  54 C :   -0.011791
  55 C :   -0.014237
  56 C :    0.004806
  57 C :   -0.041625
  58 C :   -0.034590
  59 C :   -0.164028
  60 C :   -0.027424
  61 N :   -0.081609
  62 C :   -0.103101
  63 S :    0.390161
  64 C :   -0.042018
  65 C :   -0.161516
  66 C :   -0.030604
  67 N :   -0.081953
  68 C :   -0.104897
  69 S :    0.388664
  70 C :   -0.040775
  71 C :   -0.020233
  72 H :    0.038097
  73 H :    0.022231
  74 H :    0.020299
  75 H :    0.012296
  76 H :    0.027283
  77 H :    0.027376
  78 H :    0.002048
  79 H :    0.030251
  80 H :    0.032511
  81 H :    0.032288
  82 H :    0.031600
  83 H :    0.033183
  84 H :    0.033073
  85 H :    0.022374
  86 H :    0.033959
  87 H :    0.011973
  88 H :    0.017984
  89 H :    0.019443
  90 H :    0.025731
  91 H :    0.023033
  92 H :    0.026480
  93 H :    0.019438
  94 H :    0.018033
  95 H :    0.022835
  96 H :    0.025438
  97 H :    0.026388
  98 H :    0.024759
  99 H :    0.025700
 100 H :    0.030560
 101 H :    0.026678
 102 H :    0.013861
 103 H :    0.020029
 104 H :    0.019318
 105 H :    0.017975
 106 H :    0.023080
 107 H :    0.022228

  Mayer bond orders larger than 0.100000
B(  0-C ,  1-C ) :   1.3211 B(  0-C ,  6-C ) :   0.1138 B(  0-C ,  8-C ) :   1.3498
B(  0-C , 72-H ) :   1.0240 B(  1-C ,  2-C ) :   1.2986 B(  1-C ,  5-S ) :   1.0556
B(  2-C ,  3-N ) :   1.3143 B(  2-C ,  6-C ) :   1.2950 B(  3-N ,  4-C ) :   1.7492
B(  3-N ,  5-S ) :   0.1073 B(  3-N , 76-H ) :   0.1072 B(  4-C ,  5-S ) :   1.1210
B(  4-C , 73-H ) :   0.9637 B(  6-C ,  7-C ) :   1.3634 B(  6-C , 12-C ) :   1.1157
B(  7-C ,  8-C ) :   1.2881 B(  7-C , 11-S ) :   1.0655 B(  8-C ,  9-N ) :   1.2814
B(  9-N , 10-C ) :   1.7916 B(  9-N , 11-S ) :   0.1072 B( 10-C , 11-S ) :   1.1018
B( 10-C , 74-H ) :   0.9629 B( 12-C , 13-C ) :   1.6785 B( 12-C , 75-H ) :   0.9668
B( 13-C , 14-C ) :   1.1501 B( 13-C , 76-H ) :   0.9305 B( 14-C , 15-S ) :   1.0985
B( 14-C , 18-C ) :   1.5359 B( 15-S , 16-C ) :   1.1207 B( 16-C , 17-C ) :   1.4923
B( 16-C , 25-C ) :   1.1797 B( 17-C , 18-C ) :   1.3052 B( 17-C , 24-S ) :   0.9548
B( 18-C , 19-S ) :   0.9734 B( 19-S , 20-C ) :   1.0651 B( 19-S , 21-O ) :   0.1430
B( 20-C , 21-O ) :   2.1460 B( 20-C , 22-C ) :   0.7781 B( 22-C , 23-O ) :   2.1446
B( 22-C , 24-S ) :   1.0656 B( 23-O , 24-S ) :   0.1397 B( 25-C , 26-C ) :   1.5894
B( 25-C , 77-H ) :   0.9604 B( 26-C , 27-C ) :   1.2029 B( 26-C , 78-H ) :   0.9532
B( 27-C , 28-C ) :   1.5130 B( 27-C , 79-H ) :   0.9899 B( 28-C , 29-C ) :   1.1586
B( 28-C , 32-S ) :   1.0547 B( 29-C , 30-C ) :   1.5666 B( 29-C , 80-H ) :   0.9990
B( 30-C , 31-C ) :   1.2046 B( 30-C , 81-H ) :   0.9950 B( 31-C , 32-S ) :   1.0419
B( 31-C , 33-C ) :   1.4910 B( 33-C , 34-C ) :   1.1834 B( 33-C , 37-S ) :   1.0540
B( 34-C , 35-C ) :   1.5975 B( 34-C , 82-H ) :   0.9936 B( 35-C , 36-C ) :   1.1338
B( 35-C , 83-H ) :   0.9979 B( 36-C , 37-S ) :   1.0230 B( 36-C , 38-C ) :   1.5929
B( 38-C , 39-C ) :   1.1081 B( 38-C , 84-H ) :   0.9712 B( 39-C , 40-C ) :   1.2585
B( 39-C , 44-C ) :   1.3128 B( 40-C , 41-C ) :   1.3966 B( 40-C , 85-H ) :   1.0122
B( 41-C , 42-C ) :   1.3516 B( 41-C , 47-C ) :   0.9159 B( 42-C , 43-C ) :   1.3254
B( 42-C , 45-C ) :   1.0062 B( 43-C , 44-C ) :   1.4192 B( 43-C , 86-H ) :   0.9937
B( 44-C , 87-H ) :   0.9665 B( 45-C , 46-C ) :   1.3665 B( 45-C , 55-C ) :   1.3225
B( 46-C , 47-C ) :   0.9157 B( 46-C , 52-C ) :   1.3657 B( 47-C , 48-C ) :   1.0375
B( 47-C , 50-C ) :   1.0377 B( 48-C , 49-C ) :   1.1028 B( 48-C , 88-H ) :   0.9387
B( 48-C , 89-H ) :   0.9390 B( 49-C , 90-H ) :   0.9639 B( 49-C , 91-H ) :   0.9636
B( 49-C , 92-H ) :   0.9645 B( 50-C , 51-C ) :   1.1014 B( 50-C , 93-H ) :   0.9389
B( 50-C , 94-H ) :   0.9386 B( 51-C , 95-H ) :   0.9638 B( 51-C , 96-H ) :   0.9647
B( 51-C , 97-H ) :   0.9641 B( 52-C , 53-C ) :   1.2845 B( 52-C , 98-H ) :   1.0183
B( 53-C , 54-C ) :   1.3388 B( 53-C , 56-C ) :   1.0454 B( 54-C , 55-C ) :   1.4047
B( 54-C , 99-H ) :   0.9854 B( 55-C ,100-H ) :   0.9922 B( 56-C , 57-C ) :   1.6872
B( 56-C ,101-H ) :   0.9672 B( 57-C , 58-C ) :   1.1050 B( 57-C ,102-H ) :   0.9597
B( 58-C , 59-C ) :   1.3547 B( 58-C , 64-C ) :   0.1067 B( 58-C , 66-C ) :   1.2968
B( 59-C , 60-C ) :   1.2939 B( 59-C , 63-S ) :   1.0696 B( 60-C , 61-N ) :   1.3184
B( 60-C , 64-C ) :   1.3098 B( 61-N , 62-C ) :   1.7622 B( 61-N , 63-S ) :   0.1091
B( 62-C , 63-S ) :   1.1170 B( 62-C ,103-H ) :   0.9635 B( 64-C , 65-C ) :   1.3739
B( 64-C , 70-C ) :   1.0951 B( 65-C , 66-C ) :   1.2908 B( 65-C , 69-S ) :   1.0662
B( 66-C , 67-N ) :   1.3193 B( 67-N , 68-C ) :   1.7565 B( 67-N , 69-S ) :   0.1087
B( 67-N ,101-H ) :   0.1015 B( 68-C , 69-S ) :   1.1148 B( 68-C ,104-H ) :   0.9637
B( 70-C , 71-C ) :   1.9493 B( 70-C ,105-H ) :   0.9550 B( 71-C ,106-H ) :   0.9257
B( 71-C ,107-H ) :   0.9402

-----------------------------------------------------------------------------
         ABSORPTION SPECTRUM VIA TRANSITION ELECTRIC DIPOLE MOMENTS
-----------------------------------------------------------------------------
State   Energy  Wavelength   fosc         T2         TX        TY        TZ
        (cm-1)    (nm)                  (au**2)     (au)      (au)      (au)
-----------------------------------------------------------------------------
   0   12023.5    831.7   1.231134375  33.70938  -5.44132  -1.45928   1.40427
   1   17743.3    563.6   0.139654163   2.59116  -1.19857   0.73651   0.78240
   2   20511.9    487.5   0.023443983   0.37627  -0.25386  -0.53847  -0.14791
   3   21802.1    458.7   2.024744605  30.57362  -0.24649  -5.13841  -2.02721
   4   24369.6    410.3   0.040408192   0.54588   0.56818   0.45156   0.13837
   5   24565.9    407.1   0.502968943   6.74039   1.25324  -2.04760  -0.98849
   6   26431.1    378.3   0.113109758   1.40884  -0.70072   0.81565   0.50254
   7   27169.0    368.1   0.019216455   0.23285  -0.46771  -0.08778  -0.07996
   8   28362.6    352.6   0.084382390   0.97945  -0.46378   0.84453   0.22611
   9   28979.8    345.1   0.401465683   4.56068   1.41970  -1.17399  -1.08021
  10   29660.3    337.2   0.001426587   0.01583  -0.11091  -0.03139   0.05048
  11   29868.7    334.8   0.114760876   1.26489  -1.04438  -0.14449   0.39151
  12   30438.6    328.5   0.038588745   0.41736   0.09749  -0.57701  -0.27370
  13   30608.1    326.7   0.033990054   0.36559  -0.44078  -0.41301  -0.02690
  14   30996.4    322.6   0.066908855   0.71064  -0.47832   0.57257   0.39244
  15   31610.0    316.4   0.063572076   0.66209  -0.07532   0.72350   0.36464
  16   32514.0    307.6   0.007328473   0.07420   0.14617  -0.18790  -0.13240
  17   32665.2    306.1   0.068355936   0.68892  -0.51258  -0.65268  -0.01352
  18   33093.5    302.2   0.185763196   1.84796  -0.52393  -1.23488  -0.22031
  19   33482.7    298.7   0.028940444   0.28455  -0.33730   0.33132   0.24699
  20   34147.5    292.8   0.001706037   0.01645  -0.01358   0.04991  -0.11736
  21   34217.6    292.2   0.024619578   0.23687   0.46254   0.06776  -0.13539
  22   34271.2    291.8   0.130766092   1.25615   0.92987  -0.32190  -0.53654
  23   34787.6    287.5   0.017063759   0.16148   0.32165  -0.03586  -0.23820
  24   35186.6    284.2   0.027107047   0.25362   0.44725  -0.00776  -0.23135
  25   35624.6    280.7   0.043572017   0.40265  -0.53971  -0.32563  -0.07306
  26   36021.9    277.6   0.169461082   1.54874  -0.73420   0.75979   0.65759
  27   36321.0    275.3   0.045011730   0.40798   0.18012  -0.50416  -0.34838
  28   36678.7    272.6   0.036853163   0.33078   0.52718   0.01021  -0.22969
  29   36853.8    271.3   0.060407288   0.53961   0.62682   0.35872  -0.13427
  30   37214.0    268.7   0.001548824   0.01370  -0.06177  -0.09475  -0.03012
  31   37592.2    266.0   0.008135724   0.07125   0.24689   0.09696   0.02986
  32   37658.4    265.5   0.045164385   0.39483  -0.60249  -0.09412   0.15159
  33   37999.2    263.2   0.143292802   1.24144  -1.06512  -0.15227   0.28943
  34   38198.9    261.8   0.058904285   0.50766   0.20627   0.63553   0.24740
  35   38472.4    259.9   0.032744349   0.28020  -0.00403   0.47846   0.22640
  36   38817.2    257.6   0.000126670   0.00107   0.00364   0.01431   0.02926
  37   39010.1    256.3   0.070865928   0.59805  -0.08187   0.63751   0.43003
  38   39212.8    255.0   0.005912266   0.04964   0.05467  -0.12596  -0.17545
  39   39333.2    254.2   0.070920923   0.59360  -0.40820  -0.62653  -0.18554
  40   39571.9    252.7   0.018358991   0.15273  -0.34477  -0.05574   0.17540
  41   39905.7    250.6   0.004535573   0.03742  -0.09783   0.10913   0.12624

FINAL SINGLE POINT ENERGY     -6142.545585133093

DIPOLE MOMENT
-------------
                                X             Y             Z
Electronic contribution:    -93.42483     -31.56749      16.70471
Nuclear contribution   :     93.31542      33.21798     -15.74928
                        -----------------------------------------
Total Dipole Moment    :     -0.10941       1.65050       0.95543
                        -----------------------------------------
Magnitude (a.u.)       :      1.91023
Magnitude (Debye)      :      4.85541

Rotational constants in cm-1:     0.000687     0.000275     0.000198
Rotational constants in MHz :    20.595405     8.241905     5.934574

                             ****ORCA TERMINATED NORMALLY****
TOTAL RUN TIME: 0 days 0 hours 16 minutes 7 seconds 754 msec
