                         Program Version 4.2.0 -  RELEASE  -
|  1> # ORCA input file
|  2> # SCF done       -197.983917641790          0.000547129361
|  3> ! CAM-B3LYP def2-SVP def2/J RIJCOSX Grid4 TightSCF
|  4> %maxcore 5000
|  5> %tddft
|  6>     Mode sTDDFT
|  7>     Ethresh 5.0
|  8>     maxcore 5000
|  9> end
| 10>
| 11> %pal
| 12>   nprocs 6
| 13>   end
| 14> * xyz 0 1
| 15>    C       -3.56261        -7.51562        -1.42329
| 16>    C       -3.50700        -6.16703        -1.24517
| 17>    C       -2.45521        -5.77309        -0.40078
| 18>    C       -1.72487        -6.85846         0.04907
| 19>    S       -2.32829        -8.35482        -0.56287
| 20>    C       -0.62314        -6.60773         0.91140
| 21>    C       -0.35370        -5.28989         1.24970
| 22>   Ge       -1.67449        -4.13090         0.35735
| 23>    C       -2.87475        -3.17930         1.61881
| 24>    C       -0.86933        -2.92733        -0.99959
| 25>    C        0.75267        -5.17875         2.08993
| 26>    C        1.33346        -6.39276         2.39694
| 27>    S        0.48498        -7.71473         1.62842
| 28>    C        2.47640        -6.64389         3.19845
| 29>    C        3.07009        -7.86452         3.46440
| 30>    C        4.20066        -7.76491         4.26709
| 31>    C        4.47809        -6.44924         4.62679
| 32>    S        3.33356        -5.33471         3.97084
| 33>    C        5.62000        -6.19796         5.42027
| 34>    C        6.39569        -7.30902         5.77860
| 35>   Ge        5.57499        -8.93998         5.04401
| 36>    C        4.87324       -10.17128         6.43330
| 37>    C        6.69351        -9.85687         3.68508
| 38>    C        7.49479        -6.93538         6.51890
| 39>    C        7.58649        -5.55916         6.74941
| 40>    S        6.23637        -4.71226         6.01924
| 41>    C        8.64969        -4.95672         7.44542
| 42>    C        8.91946        -3.63094         7.80701
| 43>    C        8.05650        -2.51335         7.53072
| 44>    O        6.99211        -2.57968         6.92693
| 45>    C        8.56096        -1.22262         8.04639
| 46>    C        9.80107        -1.08249         8.72820
| 47>    C       10.03704         0.21907         9.09802
| 48>    S        8.77300         1.28767         8.63347
| 49>    C        7.90614        -0.01887         7.92823
| 50>    C        6.58367         0.25316         7.28443
| 51>    F        5.57532        -0.41009         7.85802
| 52>    F        6.26985         1.56138         7.38527
| 53>    F        6.56742        -0.02743         5.97858
| 54>    C       11.22397         0.76416         9.82701
| 55>    F       12.36872         0.59523         9.16002
| 56>    F       11.09547         2.09368        10.01403
| 57>    F       11.37742         0.23448        11.04371
| 58>    C       10.69971        -2.23017         8.99129
| 59>    O       11.76814        -2.11576         9.56328
| 60>    C       10.16036        -3.48368         8.49846
| 61>    C       10.83915        -4.68117         8.66527
| 62>    S        9.94628        -6.01209         7.98481
| 63>    C       12.06527        -4.87417         9.25681
| 64>    C       13.15755        -5.11586         9.73785
| 65>    C       14.40973        -5.32648        10.27085
| 66>    S       15.37059        -4.00178        10.87526
| 67>    C       16.66974        -5.09818        11.25605
| 68>    C       16.34758        -6.40573        10.93190
| 69>    C       15.07967        -6.53352        10.37990
| 70>    C       17.86083        -4.64802        11.79669
| 71>    C       18.91297        -4.24581        12.25386
| 72>    C       20.12608        -3.80216        12.75971
| 73>    C       21.19962        -4.61206        12.91732
| 74>    C       22.46465        -4.19670        13.40668
| 75>    C       23.59839        -4.97662        13.54365
| 76>    C       24.70001        -4.28195        14.03781
| 77>    C       24.40461        -2.94842        14.28667
| 78>    S       22.77402        -2.54947        13.91132
| 79>    C       25.44543        -2.12414        14.79472
| 80>    C       26.68558        -2.70128        15.00270
| 81>   Ge       26.59215        -4.59900        14.48809
| 82>    C       26.85692        -5.85871        15.99921
| 83>    C       27.70901        -5.05455        12.91139
| 84>    C       27.61401        -1.77397        15.50459
| 85>    C       27.08084        -0.53193        15.66894
| 86>    S       25.42162        -0.45077        15.21488
| 87>    H       -4.25748        -8.08150        -2.01257
| 88>    H       -4.19639        -5.48032        -1.70488
| 89>    H       -3.69247        -2.71126         1.07956
| 90>    H       -2.32334        -2.40823         2.14777
| 91>    H       -3.28728        -3.87288         2.34456
| 92>    H       -0.21766        -3.48723        -1.66285
| 93>    H       -0.28677        -2.15252        -0.51106
| 94>    H       -1.64642        -2.45410        -1.59172
| 95>    H        1.13578        -4.24738         2.47036
| 96>    H        2.68219        -8.78921         3.07254
| 97>    H        4.27323        -9.62342         7.15301
| 98>    H        5.69335       -10.65251         6.95716
| 99>    H        4.25592       -10.93913         5.97731
|100>    H        7.05632        -9.14308         2.95237
|101>    H        6.11301       -10.61787         3.17274
|102>    H        7.54563       -10.33324         4.15990
|103>    H        8.23113        -7.62676         6.89355
|104>    H       17.02539        -7.22429        11.09663
|105>    H       14.64474        -7.46364        10.05934
|106>    H       20.19126        -2.75264        13.01997
|107>    H       21.11971        -5.65766        12.64744
|108>    H       23.61343        -6.02163        13.28486
|109>    H       26.22548        -5.58341        16.83786
|110>    H       27.89294        -5.84224        16.32295
|111>    H       26.60746        -6.86961        15.69206
|112>    H       27.52854        -4.35151        12.10453
|113>    H       27.47337        -6.05468        12.56113
|114>    H       28.76164        -5.02017        13.17433
|115>    H       28.63714        -2.01476        15.73578
|116>    H       27.56104         0.35533        16.03297
|117> *
|118>
|119>                          ****END OF INPUT****

CARTESIAN COORDINATES (ANGSTROEM)
---------------------------------
  C     -3.562610   -7.515620   -1.423290
  C     -3.507000   -6.167030   -1.245170
  C     -2.455210   -5.773090   -0.400780
  C     -1.724870   -6.858460    0.049070
  S     -2.328290   -8.354820   -0.562870
  C     -0.623140   -6.607730    0.911400
  C     -0.353700   -5.289890    1.249700
  Ge    -1.674490   -4.130900    0.357350
  C     -2.874750   -3.179300    1.618810
  C     -0.869330   -2.927330   -0.999590
  C      0.752670   -5.178750    2.089930
  C      1.333460   -6.392760    2.396940
  S      0.484980   -7.714730    1.628420
  C      2.476400   -6.643890    3.198450
  C      3.070090   -7.864520    3.464400
  C      4.200660   -7.764910    4.267090
  C      4.478090   -6.449240    4.626790
  S      3.333560   -5.334710    3.970840
  C      5.620000   -6.197960    5.420270
  C      6.395690   -7.309020    5.778600
  Ge     5.574990   -8.939980    5.044010
  C      4.873240  -10.171280    6.433300
  C      6.693510   -9.856870    3.685080
  C      7.494790   -6.935380    6.518900
  C      7.586490   -5.559160    6.749410
  S      6.236370   -4.712260    6.019240
  C      8.649690   -4.956720    7.445420
  C      8.919460   -3.630940    7.807010
  C      8.056500   -2.513350    7.530720
  O      6.992110   -2.579680    6.926930
  C      8.560960   -1.222620    8.046390
  C      9.801070   -1.082490    8.728200
  C     10.037040    0.219070    9.098020
  S      8.773000    1.287670    8.633470
  C      7.906140   -0.018870    7.928230
  C      6.583670    0.253160    7.284430
  F      5.575320   -0.410090    7.858020
  F      6.269850    1.561380    7.385270
  F      6.567420   -0.027430    5.978580
  C     11.223970    0.764160    9.827010
  F     12.368720    0.595230    9.160020
  F     11.095470    2.093680   10.014030
  F     11.377420    0.234480   11.043710
  C     10.699710   -2.230170    8.991290
  O     11.768140   -2.115760    9.563280
  C     10.160360   -3.483680    8.498460
  C     10.839150   -4.681170    8.665270
  S      9.946280   -6.012090    7.984810
  C     12.065270   -4.874170    9.256810
  C     13.157550   -5.115860    9.737850
  C     14.409730   -5.326480   10.270850
  S     15.370590   -4.001780   10.875260
  C     16.669740   -5.098180   11.256050
  C     16.347580   -6.405730   10.931900
  C     15.079670   -6.533520   10.379900
  C     17.860830   -4.648020   11.796690
  C     18.912970   -4.245810   12.253860
  C     20.126080   -3.802160   12.759710
  C     21.199620   -4.612060   12.917320
  C     22.464650   -4.196700   13.406680
  C     23.598390   -4.976620   13.543650
  C     24.700010   -4.281950   14.037810
  C     24.404610   -2.948420   14.286670
  S     22.774020   -2.549470   13.911320
  C     25.445430   -2.124140   14.794720
  C     26.685580   -2.701280   15.002700
  Ge    26.592150   -4.599000   14.488090
  C     26.856920   -5.858710   15.999210
  C     27.709010   -5.054550   12.911390
  C     27.614010   -1.773970   15.504590
  C     27.080840   -0.531930   15.668940
  S     25.421620   -0.450770   15.214880
  H     -4.257480   -8.081500   -2.012570
  H     -4.196390   -5.480320   -1.704880
  H     -3.692470   -2.711260    1.079560
  H     -2.323340   -2.408230    2.147770
  H     -3.287280   -3.872880    2.344560
  H     -0.217660   -3.487230   -1.662850
  H     -0.286770   -2.152520   -0.511060
  H     -1.646420   -2.454100   -1.591720
  H      1.135780   -4.247380    2.470360
  H      2.682190   -8.789210    3.072540
  H      4.273230   -9.623420    7.153010
  H      5.693350  -10.652510    6.957160
  H      4.255920  -10.939130    5.977310
  H      7.056320   -9.143080    2.952370
  H      6.113010  -10.617870    3.172740
  H      7.545630  -10.333240    4.159900
  H      8.231130   -7.626760    6.893550
  H     17.025390   -7.224290   11.096630
  H     14.644740   -7.463640   10.059340
  H     20.191260   -2.752640   13.019970
  H     21.119710   -5.657660   12.647440
  H     23.613430   -6.021630   13.284860
  H     26.225480   -5.583410   16.837860
  H     27.892940   -5.842240   16.322950
  H     26.607460   -6.869610   15.692060
  H     27.528540   -4.351510   12.104530
  H     27.473370   -6.054680   12.561130
  H     28.761640   -5.020170   13.174330
  H     28.637140   -2.014760   15.735780
  H     27.561040    0.355330   16.032970

 Total Charge           Charge          ....    0
 Multiplicity           Mult            ....    1
 Number of Electrons    NEL             ....  652
 Basis Dimension        Dim             .... 1248

ORBITAL ENERGIES
----------------

  NO   OCC          E(Eh)            E(eV)
   0   2.0000    -398.768779    -10851.0501
   1   2.0000    -398.767774    -10851.0228
   2   2.0000    -398.764244    -10850.9267
   3   2.0000     -88.998730     -2421.7786
   4   2.0000     -88.971488     -2421.0373
   5   2.0000     -88.956789     -2420.6373
   6   2.0000     -88.954710     -2420.5807
   7   2.0000     -88.953169     -2420.5388
   8   2.0000     -88.952995     -2420.5341
   9   2.0000     -88.952057     -2420.5085
  10   2.0000     -88.951833     -2420.5024
  11   2.0000     -88.948896     -2420.4225
  12   2.0000     -49.828326     -1355.8977
  13   2.0000     -49.827322     -1355.8704
  14   2.0000     -49.823782     -1355.7740
  15   2.0000     -44.365558     -1207.2482
  16   2.0000     -44.364833     -1207.2285
  17   2.0000     -44.364526     -1207.2201
  18   2.0000     -44.364462     -1207.2184
  19   2.0000     -44.363799     -1207.2003
  20   2.0000     -44.363500     -1207.1922
  21   2.0000     -44.360999     -1207.1242
  22   2.0000     -44.360270     -1207.1043
  23   2.0000     -44.359942     -1207.0954
  24   2.0000     -24.797365      -674.7706
  25   2.0000     -24.796502      -674.7471
  26   2.0000     -24.789542      -674.5577
  27   2.0000     -24.789424      -674.5545
  28   2.0000     -24.788586      -674.5317
  29   2.0000     -24.788413      -674.5270
  30   2.0000     -19.209900      -522.7280
  31   2.0000     -19.205002      -522.5947
  32   2.0000     -10.522270      -286.3255
  33   2.0000     -10.521234      -286.2973
  34   2.0000     -10.369040      -282.1559
  35   2.0000     -10.364977      -282.0454
  36   2.0000     -10.334614      -281.2191
  37   2.0000     -10.333865      -281.1988
  38   2.0000     -10.333647      -281.1928
  39   2.0000     -10.330948      -281.1194
  40   2.0000     -10.313894      -280.6553
  41   2.0000     -10.310746      -280.5697
  42   2.0000     -10.307979      -280.4944
  43   2.0000     -10.306566      -280.4559
  44   2.0000     -10.302214      -280.3375
  45   2.0000     -10.301411      -280.3157
  46   2.0000     -10.301128      -280.3079
  47   2.0000     -10.296772      -280.1894
  48   2.0000     -10.296434      -280.1802
  49   2.0000     -10.295636      -280.1585
  50   2.0000     -10.295458      -280.1537
  51   2.0000     -10.295275      -280.1487
  52   2.0000     -10.293807      -280.1087
  53   2.0000     -10.292380      -280.0699
  54   2.0000     -10.289415      -279.9892
  55   2.0000     -10.288376      -279.9609
  56   2.0000     -10.286310      -279.9047
  57   2.0000     -10.286226      -279.9024
  58   2.0000     -10.283855      -279.8379
  59   2.0000     -10.282553      -279.8025
  60   2.0000     -10.282333      -279.7965
  61   2.0000     -10.279911      -279.7306
  62   2.0000     -10.279239      -279.7123
  63   2.0000     -10.278971      -279.7050
  64   2.0000     -10.275107      -279.5999
  65   2.0000     -10.273231      -279.5488
  66   2.0000     -10.271179      -279.4930
  67   2.0000     -10.268402      -279.4174
  68   2.0000     -10.268065      -279.4082
  69   2.0000     -10.268001      -279.4065
  70   2.0000     -10.267128      -279.3828
  71   2.0000     -10.264617      -279.3144
  72   2.0000     -10.259393      -279.1723
  73   2.0000     -10.258391      -279.1450
  74   2.0000     -10.258206      -279.1400
  75   2.0000     -10.257715      -279.1266
  76   2.0000     -10.257486      -279.1204
  77   2.0000     -10.257112      -279.1102
  78   2.0000     -10.255985      -279.0795
  79   2.0000     -10.255724      -279.0725
  80   2.0000     -10.254328      -279.0345
  81   2.0000     -10.254270      -279.0329
  82   2.0000     -10.252938      -278.9966
  83   2.0000     -10.251279      -278.9515
  84   2.0000      -8.093701      -220.2408
  85   2.0000      -8.066971      -219.5134
  86   2.0000      -8.052190      -219.1112
  87   2.0000      -8.048597      -219.0135
  88   2.0000      -8.048332      -219.0062
  89   2.0000      -8.047896      -218.9944
  90   2.0000      -8.047729      -218.9898
  91   2.0000      -8.047178      -218.9749
  92   2.0000      -8.044615      -218.9051
  93   2.0000      -6.288183      -171.1102
  94   2.0000      -6.287225      -171.0841
  95   2.0000      -6.283664      -170.9872
  96   2.0000      -6.062820      -164.9777
  97   2.0000      -6.058371      -164.8567
  98   2.0000      -6.056372      -164.8023
  99   2.0000      -6.036424      -164.2595
 100   2.0000      -6.032153      -164.1432
 101   2.0000      -6.028719      -164.0498
 102   2.0000      -6.021537      -163.8544
 103   2.0000      -6.017728      -163.7507
 104   2.0000      -6.017568      -163.7464
 105   2.0000      -6.017290      -163.7388
 106   2.0000      -6.017102      -163.7337
 107   2.0000      -6.017086      -163.7332
 108   2.0000      -6.016424      -163.7152
 109   2.0000      -6.014183      -163.6542
 110   2.0000      -6.013866      -163.6456
 111   2.0000      -6.013813      -163.6442
 112   2.0000      -6.013592      -163.6381
 113   2.0000      -6.012892      -163.6191
 114   2.0000      -6.012705      -163.6140
 115   2.0000      -6.012477      -163.6078
 116   2.0000      -6.010804      -163.5623
 117   2.0000      -6.010406      -163.5515
 118   2.0000      -6.010248      -163.5472
 119   2.0000      -6.009995      -163.5403
 120   2.0000      -6.009653      -163.5310
 121   2.0000      -6.009245      -163.5199
 122   2.0000      -6.007002      -163.4588
 123   2.0000      -4.464406      -121.4827
 124   2.0000      -4.463403      -121.4554
 125   2.0000      -4.463343      -121.4537
 126   2.0000      -4.462363      -121.4271
 127   2.0000      -4.462348      -121.4267
 128   2.0000      -4.461445      -121.4021
 129   2.0000      -4.459853      -121.3588
 130   2.0000      -4.458828      -121.3309
 131   2.0000      -4.457854      -121.3044
 132   2.0000      -1.384588       -37.6766
 133   2.0000      -1.383619       -37.6502
 134   2.0000      -1.288492       -35.0616
 135   2.0000      -1.287455       -35.0334
 136   2.0000      -1.286514       -35.0078
 137   2.0000      -1.286157       -34.9981
 138   2.0000      -1.286146       -34.9978
 139   2.0000      -1.285535       -34.9812
 140   2.0000      -1.285390       -34.9772
 141   2.0000      -1.285227       -34.9728
 142   2.0000      -1.285214       -34.9725
 143   2.0000      -1.284690       -34.9582
 144   2.0000      -1.284415       -34.9507
 145   2.0000      -1.284200       -34.9449
 146   2.0000      -1.283894       -34.9365
 147   2.0000      -1.283714       -34.9316
 148   2.0000      -1.283411       -34.9234
 149   2.0000      -1.281967       -34.8841
 150   2.0000      -1.281648       -34.8754
 151   2.0000      -1.280685       -34.8492
 152   2.0000      -1.280138       -34.8343
 153   2.0000      -1.129036       -30.7226
 154   2.0000      -1.122296       -30.5392
 155   2.0000      -1.020974       -27.7821
 156   2.0000      -1.003707       -27.3122
 157   2.0000      -0.991859       -26.9898
 158   2.0000      -0.988876       -26.9087
 159   2.0000      -0.983590       -26.7648
 160   2.0000      -0.982418       -26.7329
 161   2.0000      -0.967498       -26.3270
 162   2.0000      -0.963745       -26.2248
 163   2.0000      -0.953504       -25.9462
 164   2.0000      -0.910561       -24.7776
 165   2.0000      -0.903607       -24.5884
 166   2.0000      -0.896456       -24.3938
 167   2.0000      -0.892686       -24.2912
 168   2.0000      -0.878837       -23.9144
 169   2.0000      -0.868269       -23.6268
 170   2.0000      -0.856397       -23.3037
 171   2.0000      -0.851794       -23.1785
 172   2.0000      -0.842631       -22.9292
 173   2.0000      -0.835774       -22.7426
 174   2.0000      -0.834183       -22.6993
 175   2.0000      -0.831840       -22.6355
 176   2.0000      -0.828418       -22.5424
 177   2.0000      -0.821904       -22.3651
 178   2.0000      -0.816780       -22.2257
 179   2.0000      -0.812287       -22.1034
 180   2.0000      -0.809782       -22.0353
 181   2.0000      -0.806907       -21.9571
 182   2.0000      -0.800960       -21.7952
 183   2.0000      -0.796078       -21.6624
 184   2.0000      -0.786751       -21.4086
 185   2.0000      -0.785387       -21.3715
 186   2.0000      -0.781992       -21.2791
 187   2.0000      -0.777619       -21.1601
 188   2.0000      -0.765507       -20.8305
 189   2.0000      -0.764014       -20.7899
 190   2.0000      -0.763317       -20.7709
 191   2.0000      -0.760053       -20.6821
 192   2.0000      -0.753898       -20.5146
 193   2.0000      -0.739820       -20.1315
 194   2.0000      -0.734837       -19.9959
 195   2.0000      -0.720088       -19.5946
 196   2.0000      -0.710540       -19.3348
 197   2.0000      -0.708119       -19.2689
 198   2.0000      -0.705282       -19.1917
 199   2.0000      -0.683851       -18.6085
 200   2.0000      -0.673473       -18.3261
 201   2.0000      -0.670404       -18.2426
 202   2.0000      -0.666603       -18.1392
 203   2.0000      -0.665668       -18.1138
 204   2.0000      -0.665266       -18.1028
 205   2.0000      -0.662827       -18.0364
 206   2.0000      -0.661429       -17.9984
 207   2.0000      -0.655240       -17.8300
 208   2.0000      -0.652355       -17.7515
 209   2.0000      -0.641847       -17.4655
 210   2.0000      -0.630633       -17.1604
 211   2.0000      -0.626167       -17.0389
 212   2.0000      -0.617832       -16.8121
 213   2.0000      -0.611330       -16.6351
 214   2.0000      -0.610864       -16.6224
 215   2.0000      -0.609750       -16.5922
 216   2.0000      -0.604083       -16.4379
 217   2.0000      -0.603567       -16.4239
 218   2.0000      -0.598169       -16.2770
 219   2.0000      -0.595943       -16.2164
 220   2.0000      -0.594424       -16.1751
 221   2.0000      -0.586853       -15.9691
 222   2.0000      -0.582933       -15.8624
 223   2.0000      -0.571581       -15.5535
 224   2.0000      -0.563432       -15.3318
 225   2.0000      -0.555060       -15.1040
 226   2.0000      -0.552541       -15.0354
 227   2.0000      -0.549767       -14.9599
 228   2.0000      -0.546346       -14.8668
 229   2.0000      -0.543803       -14.7976
 230   2.0000      -0.542940       -14.7741
 231   2.0000      -0.537217       -14.6184
 232   2.0000      -0.536941       -14.6109
 233   2.0000      -0.536267       -14.5926
 234   2.0000      -0.532140       -14.4803
 235   2.0000      -0.527304       -14.3487
 236   2.0000      -0.522858       -14.2277
 237   2.0000      -0.516998       -14.0682
 238   2.0000      -0.516039       -14.0421
 239   2.0000      -0.509534       -13.8651
 240   2.0000      -0.508129       -13.8269
 241   2.0000      -0.504493       -13.7280
 242   2.0000      -0.503832       -13.7100
 243   2.0000      -0.501324       -13.6417
 244   2.0000      -0.499593       -13.5946
 245   2.0000      -0.498563       -13.5666
 246   2.0000      -0.497899       -13.5485
 247   2.0000      -0.495541       -13.4843
 248   2.0000      -0.494818       -13.4647
 249   2.0000      -0.493455       -13.4276
 250   2.0000      -0.490801       -13.3554
 251   2.0000      -0.489733       -13.3263
 252   2.0000      -0.487806       -13.2739
 253   2.0000      -0.485820       -13.2198
 254   2.0000      -0.485647       -13.2151
 255   2.0000      -0.484563       -13.1856
 256   2.0000      -0.484289       -13.1782
 257   2.0000      -0.482782       -13.1372
 258   2.0000      -0.481905       -13.1133
 259   2.0000      -0.481419       -13.1001
 260   2.0000      -0.480982       -13.0882
 261   2.0000      -0.480414       -13.0727
 262   2.0000      -0.479019       -13.0348
 263   2.0000      -0.476248       -12.9594
 264   2.0000      -0.474252       -12.9051
 265   2.0000      -0.473388       -12.8815
 266   2.0000      -0.473321       -12.8797
 267   2.0000      -0.472820       -12.8661
 268   2.0000      -0.471595       -12.8327
 269   2.0000      -0.470596       -12.8056
 270   2.0000      -0.470554       -12.8044
 271   2.0000      -0.469408       -12.7732
 272   2.0000      -0.467144       -12.7116
 273   2.0000      -0.462751       -12.5921
 274   2.0000      -0.460630       -12.5344
 275   2.0000      -0.460255       -12.5242
 276   2.0000      -0.457990       -12.4626
 277   2.0000      -0.455976       -12.4077
 278   2.0000      -0.455709       -12.4005
 279   2.0000      -0.451815       -12.2945
 280   2.0000      -0.450598       -12.2614
 281   2.0000      -0.446323       -12.1451
 282   2.0000      -0.438982       -11.9453
 283   2.0000      -0.437862       -11.9148
 284   2.0000      -0.436193       -11.8694
 285   2.0000      -0.434900       -11.8342
 286   2.0000      -0.428318       -11.6551
 287   2.0000      -0.425589       -11.5809
 288   2.0000      -0.424990       -11.5646
 289   2.0000      -0.423454       -11.5228
 290   2.0000      -0.416211       -11.3257
 291   2.0000      -0.410313       -11.1652
 292   2.0000      -0.405312       -11.0291
 293   2.0000      -0.403759       -10.9868
 294   2.0000      -0.386217       -10.5095
 295   2.0000      -0.378651       -10.3036
 296   2.0000      -0.375680       -10.2228
 297   2.0000      -0.374438       -10.1890
 298   2.0000      -0.370841       -10.0911
 299   2.0000      -0.369389       -10.0516
 300   2.0000      -0.365907        -9.9568
 301   2.0000      -0.364418        -9.9163
 302   2.0000      -0.361084        -9.8256
 303   2.0000      -0.360149        -9.8001
 304   2.0000      -0.359806        -9.7908
 305   2.0000      -0.356247        -9.6940
 306   2.0000      -0.351756        -9.5718
 307   2.0000      -0.344154        -9.3649
 308   2.0000      -0.339328        -9.2336
 309   2.0000      -0.337669        -9.1884
 310   2.0000      -0.335677        -9.1342
 311   2.0000      -0.328813        -8.9475
 312   2.0000      -0.324476        -8.8294
 313   2.0000      -0.322000        -8.7621
 314   2.0000      -0.319929        -8.7057
 315   2.0000      -0.319695        -8.6994
 316   2.0000      -0.317589        -8.6420
 317   2.0000      -0.316676        -8.6172
 318   2.0000      -0.314507        -8.5582
 319   2.0000      -0.312675        -8.5083
 320   2.0000      -0.311104        -8.4656
 321   2.0000      -0.301803        -8.2125
 322   2.0000      -0.274781        -7.4772
 323   2.0000      -0.254585        -6.9276
 324   2.0000      -0.229200        -6.2369
 325   2.0000      -0.216000        -5.8777
 326   0.0000      -0.072290        -1.9671
 327   0.0000      -0.066661        -1.8139
 328   0.0000      -0.044606        -1.2138
 329   0.0000      -0.038466        -1.0467
 330   0.0000      -0.021102        -0.5742

MULLIKEN ATOMIC CHARGES
-----------------------
   0 C :   -0.079875
   1 C :    0.018413
   2 C :   -0.103142
   3 C :   -0.128930
   4 S :    0.128723
   5 C :   -0.074385
   6 C :   -0.093873
   7 Ge:    0.449713
   8 C :   -0.192269
   9 C :   -0.194095
  10 C :   -0.058619
  11 C :   -0.043822
  12 S :    0.128606
  13 C :   -0.029559
  14 C :   -0.069283
  15 C :   -0.080466
  16 C :   -0.097422
  17 S :    0.147278
  18 C :   -0.065876
  19 C :   -0.069955
  20 Ge:    0.444892
  21 C :   -0.194419
  22 C :   -0.192268
  23 C :   -0.066291
  24 C :   -0.082242
  25 S :    0.210566
  26 C :   -0.075201
  27 C :   -0.005726
  28 C :    0.128708
  29 O :   -0.194685
  30 C :    0.072038
  31 C :    0.050346
  32 C :   -0.345338
  33 S :    0.272997
  34 C :   -0.351172
  35 C :    0.572088
  36 F :   -0.147437
  37 F :   -0.172727
  38 F :   -0.146818
  39 C :    0.564550
  40 F :   -0.144584
  41 F :   -0.170986
  42 F :   -0.144965
  43 C :    0.104170
  44 O :   -0.135978
  45 C :    0.068887
  46 C :   -0.184220
  47 S :    0.166232
  48 C :   -0.002755
  49 C :    0.049672
  50 C :   -0.183559
  51 S :    0.220686
  52 C :   -0.138542
  53 C :    0.044467
  54 C :    0.055283
  55 C :    0.054995
  56 C :   -0.024036
  57 C :   -0.102643
  58 C :    0.043893
  59 C :   -0.062861
  60 C :   -0.020661
  61 C :   -0.093905
  62 C :   -0.077076
  63 S :    0.128774
  64 C :   -0.125188
  65 C :   -0.102781
  66 Ge:    0.448181
  67 C :   -0.192391
  68 C :   -0.194034
  69 C :    0.018790
  70 C :   -0.078294
  71 S :    0.136645
  72 H :    0.021617
  73 H :   -0.018513
  74 H :    0.042012
  75 H :    0.044002
  76 H :    0.056288
  77 H :    0.055524
  78 H :    0.043852
  79 H :    0.042329
  80 H :   -0.017150
  81 H :   -0.018826
  82 H :    0.057320
  83 H :    0.042930
  84 H :    0.044489
  85 H :    0.057451
  86 H :    0.044557
  87 H :    0.042483
  88 H :   -0.008393
  89 H :   -0.009843
  90 H :   -0.009396
  91 H :    0.029503
  92 H :   -0.000865
  93 H :   -0.024532
  94 H :    0.055823
  95 H :    0.042499
  96 H :    0.042273
  97 H :    0.056773
  98 H :    0.041836
  99 H :    0.043503
 100 H :   -0.017223
 101 H :    0.023436
Sum of atomic charges:   -0.0000000

LOEWDIN ATOMIC CHARGES
----------------------
   0 C :   -0.190750
   1 C :   -0.064397
   2 C :   -0.174920
   3 C :   -0.198042
   4 S :    0.427208
   5 C :   -0.188407
   6 C :   -0.170778
   7 Ge:    0.514019
   8 C :   -0.201883
   9 C :   -0.202210
  10 C :   -0.060132
  11 C :   -0.189029
  12 S :    0.430378
  13 C :   -0.174110
  14 C :   -0.071649
  15 C :   -0.157677
  16 C :   -0.200349
  17 S :    0.439884
  18 C :   -0.184018
  19 C :   -0.174352
  20 Ge:    0.512250
  21 C :   -0.201914
  22 C :   -0.201665
  23 C :   -0.046176
  24 C :   -0.215256
  25 S :    0.510967
  26 C :   -0.108219
  27 C :   -0.117997
  28 C :    0.074569
  29 O :   -0.172364
  30 C :   -0.061081
  31 C :   -0.062560
  32 C :   -0.209887
  33 S :    0.552307
  34 C :   -0.209822
  35 C :    0.145981
  36 F :   -0.046193
  37 F :   -0.073035
  38 F :   -0.045655
  39 C :    0.145698
  40 F :   -0.044430
  41 F :   -0.072419
  42 F :   -0.044723
  43 C :    0.069860
  44 O :   -0.132503
  45 C :   -0.085477
  46 C :   -0.141862
  47 S :    0.470665
  48 C :   -0.053087
  49 C :   -0.013883
  50 C :   -0.196403
  51 S :    0.486011
  52 C :   -0.174017
  53 C :   -0.044861
  54 C :   -0.027639
  55 C :   -0.070577
  56 C :   -0.014422
  57 C :   -0.066351
  58 C :   -0.004562
  59 C :   -0.180019
  60 C :   -0.045309
  61 C :   -0.176148
  62 C :   -0.180108
  63 S :    0.432705
  64 C :   -0.200026
  65 C :   -0.171455
  66 Ge:    0.513197
  67 C :   -0.202123
  68 C :   -0.202207
  69 C :   -0.064564
  70 C :   -0.186840
  71 S :    0.433260
  72 H :    0.020390
  73 H :    0.027388
  74 H :    0.035192
  75 H :    0.036000
  76 H :    0.040819
  77 H :    0.040759
  78 H :    0.035931
  79 H :    0.035137
  80 H :    0.024348
  81 H :    0.022923
  82 H :    0.041502
  83 H :    0.035554
  84 H :    0.036186
  85 H :    0.041353
  86 H :    0.036230
  87 H :    0.035485
  88 H :    0.020228
  89 H :    0.034575
  90 H :    0.034964
  91 H :    0.036431
  92 H :    0.039784
  93 H :    0.027893
  94 H :    0.040697
  95 H :    0.035462
  96 H :    0.035335
  97 H :    0.040966
  98 H :    0.035219
  99 H :    0.035569
 100 H :    0.027842
 101 H :    0.021421

  Mayer bond orders larger than 0.100000
B(  0-C ,  1-C ) :   1.5608 B(  0-C ,  4-S ) :   1.1501 B(  0-C , 72-H ) :   0.9715
B(  1-C ,  2-C ) :   1.2484 B(  1-C , 73-H ) :   0.9974 B(  2-C ,  3-C ) :   1.5465
B(  2-C ,  7-Ge) :   0.8856 B(  3-C ,  4-S ) :   1.1175 B(  3-C ,  5-C ) :   1.1481
B(  5-C ,  6-C ) :   1.5393 B(  5-C , 12-S ) :   1.1022 B(  6-C ,  7-Ge) :   0.8816
B(  6-C , 10-C ) :   1.2530 B(  7-Ge,  8-C ) :   1.0116 B(  7-Ge,  9-C ) :   1.0096
B(  8-C , 74-H ) :   0.9610 B(  8-C , 75-H ) :   0.9610 B(  8-C , 76-H ) :   0.9592
B(  9-C , 77-H ) :   0.9601 B(  9-C , 78-H ) :   0.9611 B(  9-C , 79-H ) :   0.9609
B( 10-C , 11-C ) :   1.4851 B( 10-C , 80-H ) :   0.9959 B( 11-C , 12-S ) :   1.1091
B( 11-C , 13-C ) :   1.1599 B( 13-C , 14-C ) :   1.4706 B( 13-C , 17-S ) :   1.1233
B( 14-C , 15-C ) :   1.2645 B( 14-C , 81-H ) :   0.9952 B( 15-C , 16-C ) :   1.5059
B( 15-C , 20-Ge) :   0.8844 B( 16-C , 17-S ) :   1.0905 B( 16-C , 18-C ) :   1.1721
B( 18-C , 19-C ) :   1.4321 B( 18-C , 25-S ) :   1.1088 B( 19-C , 20-Ge) :   0.8818
B( 19-C , 23-C ) :   1.3530 B( 20-Ge, 21-C ) :   1.0107 B( 20-Ge, 22-C ) :   1.0131
B( 21-C , 82-H ) :   0.9595 B( 21-C , 83-H ) :   0.9609 B( 21-C , 84-H ) :   0.9611
B( 22-C , 85-H ) :   0.9588 B( 22-C , 86-H ) :   0.9608 B( 22-C , 87-H ) :   0.9607
B( 23-C , 24-C ) :   1.3646 B( 23-C , 88-H ) :   0.9848 B( 24-C , 25-S ) :   1.1010
B( 24-C , 26-C ) :   1.2535 B( 26-C , 27-C ) :   1.4246 B( 26-C , 47-S ) :   1.1302
B( 27-C , 28-C ) :   1.0397 B( 27-C , 45-C ) :   1.1422 B( 28-C , 29-O ) :   2.0702
B( 28-C , 30-C ) :   0.9605 B( 30-C , 31-C ) :   1.2223 B( 30-C , 34-C ) :   1.5727
B( 31-C , 32-C ) :   1.5855 B( 31-C , 43-C ) :   0.9287 B( 32-C , 33-S ) :   1.1835
B( 32-C , 39-C ) :   0.9312 B( 33-S , 34-C ) :   1.1862 B( 34-C , 35-C ) :   0.9335
B( 35-C , 36-F ) :   1.1840 B( 35-C , 37-F ) :   1.1412 B( 35-C , 38-F ) :   1.1836
B( 39-C , 40-F ) :   1.1875 B( 39-C , 41-F ) :   1.1452 B( 39-C , 42-F ) :   1.1872
B( 43-C , 44-O ) :   2.2184 B( 43-C , 45-C ) :   0.9847 B( 45-C , 46-C ) :   1.5039
B( 46-C , 47-S ) :   1.0958 B( 46-C , 48-C ) :   1.0097 B( 48-C , 49-C ) :   2.2684
B( 49-C , 50-C ) :   1.0113 B( 50-C , 51-S ) :   1.1026 B( 50-C , 52-C ) :   0.1058
B( 50-C , 54-C ) :   1.4643 B( 51-S , 52-C ) :   1.1235 B( 52-C , 53-C ) :   1.4754
B( 52-C , 55-C ) :   0.9726 B( 53-C , 54-C ) :   1.2894 B( 53-C , 89-H ) :   1.0008
B( 54-C , 90-H ) :   1.0000 B( 55-C , 56-C ) :   2.2741 B( 56-C , 57-C ) :   1.0375
B( 57-C , 58-C ) :   1.6741 B( 57-C , 91-H ) :   0.9461 B( 58-C , 59-C ) :   1.1634
B( 58-C , 92-H ) :   0.9791 B( 59-C , 60-C ) :   1.4581 B( 59-C , 63-S ) :   1.0950
B( 60-C , 61-C ) :   1.2490 B( 60-C , 93-H ) :   1.0047 B( 61-C , 62-C ) :   1.5287
B( 61-C , 66-Ge) :   0.8823 B( 62-C , 63-S ) :   1.1161 B( 62-C , 64-C ) :   1.1519
B( 64-C , 65-C ) :   1.5421 B( 64-C , 71-S ) :   1.1178 B( 65-C , 66-Ge) :   0.8870
B( 65-C , 69-C ) :   1.2505 B( 66-Ge, 67-C ) :   1.0098 B( 66-Ge, 68-C ) :   1.0106
B( 67-C , 94-H ) :   0.9599 B( 67-C , 95-H ) :   0.9609 B( 67-C , 96-H ) :   0.9612
B( 68-C , 97-H ) :   0.9594 B( 68-C , 98-H ) :   0.9613 B( 68-C , 99-H ) :   0.9607
B( 69-C , 70-C ) :   1.5577 B( 69-C ,100-H ) :   0.9976 B( 70-C , 71-S ) :   1.1564
B( 70-C ,101-H ) :   0.9716

-----------------------------------------------------------------------------
         ABSORPTION SPECTRUM VIA TRANSITION ELECTRIC DIPOLE MOMENTS
-----------------------------------------------------------------------------
State   Energy  Wavelength   fosc         T2         TX        TY        TZ
        (cm-1)    (nm)                  (au**2)     (au)      (au)      (au)
-----------------------------------------------------------------------------
   0   17080.6    585.5   2.369093101  45.66202   5.70904   1.27338   3.38340
   1   18664.2    535.8   0.311332618   5.49151   1.86599  -1.39561   0.24869
   2   22056.7    453.4   0.497931995   7.43197   2.54803   0.49631   0.83258
   3   24003.3    416.6   0.892651996  12.24296  -2.96751  -0.05987  -1.85290
   4   24908.0    401.5   0.085083151   1.12456   0.70735   0.72505   0.31388
   5   26015.6    384.4   0.190193463   2.40678   0.84110   1.30191   0.06608
   6   27672.7    361.4   0.000188589   0.00224   0.03743  -0.02333  -0.01726
   7   28021.1    356.9   0.020826924   0.24469   0.11563   0.43382   0.20766
   8   28388.0    352.3   0.218211031   2.53056   1.34690   0.31134   0.78708
   9   28989.6    345.0   0.061505506   0.69847   0.25090  -0.79593   0.04478
  10   29696.2    336.7   0.002357723   0.02614  -0.06936   0.14088   0.03849
  11   30579.3    327.0   0.004319373   0.04650   0.09613   0.18708  -0.04757
  12   31259.9    319.9   0.010159214   0.10699  -0.00485  -0.32447   0.04105
  13   32173.0    310.8   0.005640300   0.05771   0.15455  -0.18206   0.02618
  14   33214.4    301.1   0.074010909   0.73358  -0.72962  -0.15600  -0.42059
  15   33533.4    298.2   0.032635577   0.32040  -0.33525   0.43653  -0.13209
  16   34210.7    292.3   0.034508953   0.33208  -0.49919   0.19551  -0.21134
  17   34941.7    286.2   0.002821659   0.02658  -0.03809   0.15374  -0.03869
  18   35398.9    282.5   0.008343395   0.07759  -0.14115   0.22575   0.08191
  19   35834.7    279.1   0.018465883   0.16965   0.36875  -0.14332   0.11458
  20   36179.3    276.4   0.000332418   0.00302  -0.05287  -0.01081  -0.01060
  21   37369.4    267.6   0.029807480   0.26259   0.36094   0.20442   0.30089
  22   37401.5    267.4   0.000980590   0.00863  -0.08115  -0.03922  -0.02251
  23   37598.8    266.0   0.041436425   0.36281  -0.40460  -0.27447  -0.35182
  24   38040.0    262.9   0.006059713   0.05244  -0.18419   0.11523  -0.07239
  25   38157.9    262.1   0.002117032   0.01826  -0.11538   0.03440  -0.06140
  26   38628.1    258.9   0.030002542   0.25570  -0.42476   0.18244  -0.20493
  27   38745.2    258.1   0.013397426   0.11384   0.07243   0.32033   0.07731
  28   39128.6    255.6   0.004378820   0.03684   0.08541  -0.16298   0.05465
  29   39236.5    254.9   0.009122308   0.07654  -0.19514  -0.14258  -0.13465
  30   39446.9    253.5   0.010119092   0.08445  -0.03817  -0.28198  -0.05899
  31   39676.2    252.0   0.009120171   0.07567  -0.06252   0.26736  -0.01682
  32   39754.6    251.5   0.047873390   0.39644  -0.08652  -0.61057  -0.12712
  33   40186.1    248.8   0.021431867   0.17557  -0.13871  -0.37246  -0.13270

FINAL SINGLE POINT ENERGY    -12558.911438765956

DIPOLE MOMENT
-------------
                                X             Y             Z
Electronic contribution:    -43.55212      32.00126     -10.59785
Nuclear contribution   :     44.66608     -34.23580      10.17221
                        -----------------------------------------
Total Dipole Moment    :      1.11396      -2.23454      -0.42564
                        -----------------------------------------
Magnitude (a.u.)       :      2.53283
Magnitude (Debye)      :      6.43795

Rotational constants in cm-1:     0.001437     0.000114     0.000107
Rotational constants in MHz :    43.094985     3.414835     3.207067

                             ****ORCA TERMINATED NORMALLY****
TOTAL RUN TIME: 0 days 0 hours 9 minutes 57 seconds 339 msec
