                         Program Version 4.2.0 -  RELEASE  -
|  1> # ORCA input file
|  2> # SCF done       -165.477747539123          0.000726209369
|  3> ! CAM-B3LYP def2-SVP def2/J RIJCOSX Grid4 TightSCF
|  4> %maxcore 5000
|  5> %tddft
|  6>     Mode sTDDFT
|  7>     Ethresh 5.0
|  8>     maxcore 5000
|  9> end
| 10>
| 11> %pal
| 12>   nprocs 6
| 13>   end
| 14> * xyz 0 1
| 15>    C       -2.36743        -4.00187         6.11049
| 16>    C       -2.51225        -3.84299         4.75755
| 17>    F       -3.59436        -4.33859         4.13879
| 18>    C       -1.56134        -3.17208         3.97067
| 19>    F       -1.78213        -3.05812         2.63733
| 20>    C       -0.39572        -2.61094         4.48085
| 21>    C       -0.23588        -2.76101         5.87307
| 22>    C       -1.20957        -3.44939         6.66706
| 23>    N       -0.77256        -3.42150         7.93529
| 24>    N        0.35500        -2.77235         7.88114
| 25>    N        0.72892        -2.35400         6.70733
| 26>    C        1.15071        -2.51708         9.04153
| 27>    N        0.45139        -1.97470         3.60588
| 28>    C        1.67084        -1.39342         3.74063
| 29>    S        2.58028        -1.35598         5.20676
| 30>    C        3.85309        -0.50919         4.37826
| 31>    N        4.97715        -0.16375         5.12506
| 32>    O        5.88212         0.43122         4.56539
| 33>    O        4.97156        -0.48938         6.30416
| 34>    C        3.58563        -0.26627         3.06010
| 35>    C        2.33159        -0.76856         2.65939
| 36>    C        1.79738        -0.66453         1.33589
| 37>    C        2.40214        -0.02544         0.29899
| 38>    C        1.84291         0.03702        -0.99214
| 39>    C        2.41379         0.67341        -2.06381
| 40>    C        3.62936         1.40177        -2.14303
| 41>    C        3.90110         1.90735        -3.37510
| 42>    C        2.92034         1.61135        -4.35188
| 43>    S        1.63036         0.66531        -3.63840
| 44>    C        2.92106         1.97183        -5.68142
| 45>    C        3.89382         2.72992        -6.37672
| 46>    C        3.62467         2.91173        -7.69666
| 47>    C        2.41468         2.30628        -8.13073
| 48>    S        1.63274         1.49312        -6.77127
| 49>    C        1.90988         2.31917        -9.39310
| 50>    N        0.71444         1.75841        -9.73444
| 51>    C        0.25579         1.55005       -10.99510
| 52>    S       -1.45856         1.51570       -11.28070
| 53>    C       -1.15530         1.31339       -12.98010
| 54>    N       -2.26303         1.17843       -13.81741
| 55>    O       -2.06228         1.03454       -15.01055
| 56>    O       -3.36100         1.21562       -13.28203
| 57>    C        0.17752         1.27747       -13.29497
| 58>    C        1.01042         1.39337       -12.16755
| 59>    C        2.44048         1.22886       -12.15935
| 60>    C        3.25779         1.35958       -13.21751
| 61>    C        4.68242         1.15886       -13.12623
| 62>    C        5.49733         1.24958       -14.24430
| 63>    F        4.94137         1.52418       -15.43880
| 64>    C        6.89460         1.06624       -14.20581
| 65>    F        7.57313         1.17725       -15.35989
| 66>    C        7.57113         0.78399       -13.05009
| 67>    C        6.79002         0.68677       -11.89317
| 68>    C        5.37203         0.87010       -11.92244
| 69>    N        4.93225         0.72020       -10.66274
| 70>    N        6.00895         0.46629        -9.96798
| 71>    N        7.13483         0.43174       -10.62136
| 72>    C        5.95196         0.22166        -8.55979
| 73>    H       -3.10093        -4.51611         6.70479
| 74>    H        0.63870        -1.81170         9.69723
| 75>    H        2.09916        -2.09742         8.71322
| 76>    H        1.31068        -3.44677         9.58618
| 77>    H        0.09320        -1.95766         2.65565
| 78>    H        4.27702         0.25123         2.42217
| 79>    H        0.83949        -1.12821         1.13530
| 80>    H        3.35291         0.45909         0.45610
| 81>    H        0.89415        -0.45797        -1.15201
| 82>    H        4.26914         1.53504        -1.28973
| 83>    H        4.77787         2.48410        -3.60961
| 84>    H        4.76258         3.12041        -5.87783
| 85>    H        4.24417         3.46457        -8.38039
| 86>    H        2.45817         2.80768       -10.18310
| 87>    H        0.08814         1.53356        -8.96927
| 88>    H        0.52497         1.13117       -14.30113
| 89>    H        2.87931         0.94434       -11.21416
| 90>    H        2.87976         1.64196       -14.18931
| 91>    H        8.63785         0.64530       -13.03513
| 92>    H        6.97235         0.13779        -8.19292
| 93>    H        5.40913        -0.70482        -8.36476
| 94>    H        5.43084         1.04204        -8.06307
| 95> *
| 96>
| 97>                          ****END OF INPUT****

CARTESIAN COORDINATES (ANGSTROEM)
---------------------------------
  C     -2.367430   -4.001870    6.110490
  C     -2.512250   -3.842990    4.757550
  F     -3.594360   -4.338590    4.138790
  C     -1.561340   -3.172080    3.970670
  F     -1.782130   -3.058120    2.637330
  C     -0.395720   -2.610940    4.480850
  C     -0.235880   -2.761010    5.873070
  C     -1.209570   -3.449390    6.667060
  N     -0.772560   -3.421500    7.935290
  N      0.355000   -2.772350    7.881140
  N      0.728920   -2.354000    6.707330
  C      1.150710   -2.517080    9.041530
  N      0.451390   -1.974700    3.605880
  C      1.670840   -1.393420    3.740630
  S      2.580280   -1.355980    5.206760
  C      3.853090   -0.509190    4.378260
  N      4.977150   -0.163750    5.125060
  O      5.882120    0.431220    4.565390
  O      4.971560   -0.489380    6.304160
  C      3.585630   -0.266270    3.060100
  C      2.331590   -0.768560    2.659390
  C      1.797380   -0.664530    1.335890
  C      2.402140   -0.025440    0.298990
  C      1.842910    0.037020   -0.992140
  C      2.413790    0.673410   -2.063810
  C      3.629360    1.401770   -2.143030
  C      3.901100    1.907350   -3.375100
  C      2.920340    1.611350   -4.351880
  S      1.630360    0.665310   -3.638400
  C      2.921060    1.971830   -5.681420
  C      3.893820    2.729920   -6.376720
  C      3.624670    2.911730   -7.696660
  C      2.414680    2.306280   -8.130730
  S      1.632740    1.493120   -6.771270
  C      1.909880    2.319170   -9.393100
  N      0.714440    1.758410   -9.734440
  C      0.255790    1.550050  -10.995100
  S     -1.458560    1.515700  -11.280700
  C     -1.155300    1.313390  -12.980100
  N     -2.263030    1.178430  -13.817410
  O     -2.062280    1.034540  -15.010550
  O     -3.361000    1.215620  -13.282030
  C      0.177520    1.277470  -13.294970
  C      1.010420    1.393370  -12.167550
  C      2.440480    1.228860  -12.159350
  C      3.257790    1.359580  -13.217510
  C      4.682420    1.158860  -13.126230
  C      5.497330    1.249580  -14.244300
  F      4.941370    1.524180  -15.438800
  C      6.894600    1.066240  -14.205810
  F      7.573130    1.177250  -15.359890
  C      7.571130    0.783990  -13.050090
  C      6.790020    0.686770  -11.893170
  C      5.372030    0.870100  -11.922440
  N      4.932250    0.720200  -10.662740
  N      6.008950    0.466290   -9.967980
  N      7.134830    0.431740  -10.621360
  C      5.951960    0.221660   -8.559790
  H     -3.100930   -4.516110    6.704790
  H      0.638700   -1.811700    9.697230
  H      2.099160   -2.097420    8.713220
  H      1.310680   -3.446770    9.586180
  H      0.093200   -1.957660    2.655650
  H      4.277020    0.251230    2.422170
  H      0.839490   -1.128210    1.135300
  H      3.352910    0.459090    0.456100
  H      0.894150   -0.457970   -1.152010
  H      4.269140    1.535040   -1.289730
  H      4.777870    2.484100   -3.609610
  H      4.762580    3.120410   -5.877830
  H      4.244170    3.464570   -8.380390
  H      2.458170    2.807680  -10.183100
  H      0.088140    1.533560   -8.969270
  H      0.524970    1.131170  -14.301130
  H      2.879310    0.944340  -11.214160
  H      2.879760    1.641960  -14.189310
  H      8.637850    0.645300  -13.035130
  H      6.972350    0.137790   -8.192920
  H      5.409130   -0.704820   -8.364760
  H      5.430840    1.042040   -8.063070

 Total Charge           Charge          ....    0
 Multiplicity           Mult            ....    1
 Number of Electrons    NEL             ....  440
 Basis Dimension        Dim             ....  938

ORBITAL ENERGIES
----------------

  NO   OCC          E(Eh)            E(eV)
   0   2.0000     -88.981562     -2421.3114
   1   2.0000     -88.971036     -2421.0250
   2   2.0000     -88.954573     -2420.5770
   3   2.0000     -88.945079     -2420.3186
   4   2.0000     -24.807882      -675.0568
   5   2.0000     -24.794222      -674.6851
   6   2.0000     -24.791831      -674.6200
   7   2.0000     -24.786245      -674.4680
   8   2.0000     -19.231757      -523.3227
   9   2.0000     -19.231518      -523.3162
  10   2.0000     -19.226156      -523.1703
  11   2.0000     -19.226075      -523.1681
  12   2.0000     -14.643433      -398.4681
  13   2.0000     -14.637441      -398.3050
  14   2.0000     -14.556149      -396.0930
  15   2.0000     -14.548076      -395.8733
  16   2.0000     -14.488551      -394.2535
  17   2.0000     -14.485655      -394.1747
  18   2.0000     -14.458236      -393.4286
  19   2.0000     -14.451277      -393.2392
  20   2.0000     -14.449521      -393.1915
  21   2.0000     -14.448915      -393.1750
  22   2.0000     -10.380191      -282.4594
  23   2.0000     -10.375286      -282.3259
  24   2.0000     -10.370965      -282.2083
  25   2.0000     -10.370432      -282.1938
  26   2.0000     -10.367918      -282.1254
  27   2.0000     -10.365744      -282.0662
  28   2.0000     -10.361237      -281.9436
  29   2.0000     -10.339293      -281.3465
  30   2.0000     -10.336791      -281.2784
  31   2.0000     -10.330279      -281.1012
  32   2.0000     -10.326610      -281.0014
  33   2.0000     -10.324272      -280.9377
  34   2.0000     -10.324143      -280.9342
  35   2.0000     -10.322321      -280.8846
  36   2.0000     -10.318636      -280.7844
  37   2.0000     -10.313151      -280.6351
  38   2.0000     -10.312544      -280.6186
  39   2.0000     -10.311897      -280.6010
  40   2.0000     -10.311696      -280.5955
  41   2.0000     -10.310000      -280.5494
  42   2.0000     -10.306583      -280.4564
  43   2.0000     -10.303990      -280.3858
  44   2.0000     -10.297808      -280.2176
  45   2.0000     -10.297786      -280.2170
  46   2.0000     -10.297285      -280.2034
  47   2.0000     -10.294402      -280.1249
  48   2.0000     -10.293381      -280.0971
  49   2.0000     -10.292093      -280.0621
  50   2.0000     -10.291939      -280.0579
  51   2.0000     -10.291367      -280.0423
  52   2.0000     -10.288759      -279.9714
  53   2.0000     -10.287609      -279.9401
  54   2.0000     -10.284480      -279.8549
  55   2.0000     -10.283653      -279.8324
  56   2.0000     -10.282911      -279.8122
  57   2.0000     -10.281583      -279.7761
  58   2.0000      -8.077465      -219.7990
  59   2.0000      -8.065484      -219.4730
  60   2.0000      -8.050993      -219.0787
  61   2.0000      -8.041677      -218.8251
  62   2.0000      -6.047152      -164.5514
  63   2.0000      -6.042792      -164.4327
  64   2.0000      -6.038765      -164.3231
  65   2.0000      -6.035187      -164.2258
  66   2.0000      -6.030724      -164.1043
  67   2.0000      -6.026718      -163.9953
  68   2.0000      -6.020855      -163.8358
  69   2.0000      -6.016929      -163.7290
  70   2.0000      -6.011575      -163.5833
  71   2.0000      -6.011497      -163.5812
  72   2.0000      -6.007510      -163.4727
  73   2.0000      -6.002341      -163.3320
  74   2.0000      -1.322649       -35.9911
  75   2.0000      -1.311860       -35.6975
  76   2.0000      -1.311709       -35.6934
  77   2.0000      -1.305640       -35.5283
  78   2.0000      -1.305023       -35.5115
  79   2.0000      -1.294920       -35.2366
  80   2.0000      -1.234909       -33.6036
  81   2.0000      -1.225526       -33.3483
  82   2.0000      -1.130837       -30.7716
  83   2.0000      -1.124394       -30.5963
  84   2.0000      -1.092607       -29.7313
  85   2.0000      -1.092340       -29.7241
  86   2.0000      -1.006019       -27.3752
  87   2.0000      -1.005096       -27.3500
  88   2.0000      -1.002010       -27.2661
  89   2.0000      -0.998913       -27.1818
  90   2.0000      -0.996469       -27.1153
  91   2.0000      -0.988785       -26.9062
  92   2.0000      -0.986120       -26.8337
  93   2.0000      -0.975899       -26.5556
  94   2.0000      -0.935492       -25.4560
  95   2.0000      -0.930877       -25.3305
  96   2.0000      -0.919534       -25.0218
  97   2.0000      -0.914608       -24.8878
  98   2.0000      -0.900589       -24.5063
  99   2.0000      -0.892376       -24.2828
 100   2.0000      -0.880378       -23.9563
 101   2.0000      -0.871411       -23.7123
 102   2.0000      -0.859390       -23.3852
 103   2.0000      -0.855753       -23.2862
 104   2.0000      -0.850709       -23.1490
 105   2.0000      -0.834424       -22.7058
 106   2.0000      -0.828036       -22.5320
 107   2.0000      -0.827218       -22.5097
 108   2.0000      -0.822040       -22.3688
 109   2.0000      -0.813623       -22.1398
 110   2.0000      -0.795149       -21.6371
 111   2.0000      -0.783826       -21.3290
 112   2.0000      -0.776527       -21.1304
 113   2.0000      -0.753710       -20.5095
 114   2.0000      -0.749533       -20.3958
 115   2.0000      -0.744195       -20.2506
 116   2.0000      -0.735670       -20.0186
 117   2.0000      -0.733783       -19.9672
 118   2.0000      -0.710913       -19.3449
 119   2.0000      -0.707291       -19.2464
 120   2.0000      -0.695468       -18.9246
 121   2.0000      -0.692470       -18.8431
 122   2.0000      -0.682640       -18.5756
 123   2.0000      -0.675408       -18.3788
 124   2.0000      -0.666972       -18.1492
 125   2.0000      -0.661291       -17.9946
 126   2.0000      -0.656239       -17.8572
 127   2.0000      -0.649790       -17.6817
 128   2.0000      -0.643515       -17.5109
 129   2.0000      -0.641127       -17.4459
 130   2.0000      -0.637392       -17.3443
 131   2.0000      -0.633620       -17.2417
 132   2.0000      -0.631985       -17.1972
 133   2.0000      -0.627997       -17.0887
 134   2.0000      -0.626183       -17.0393
 135   2.0000      -0.624515       -16.9939
 136   2.0000      -0.622580       -16.9413
 137   2.0000      -0.620493       -16.8845
 138   2.0000      -0.619440       -16.8558
 139   2.0000      -0.618610       -16.8332
 140   2.0000      -0.617924       -16.8146
 141   2.0000      -0.616582       -16.7780
 142   2.0000      -0.610603       -16.6154
 143   2.0000      -0.593972       -16.1628
 144   2.0000      -0.588829       -16.0229
 145   2.0000      -0.588728       -16.0201
 146   2.0000      -0.585986       -15.9455
 147   2.0000      -0.583412       -15.8754
 148   2.0000      -0.578175       -15.7329
 149   2.0000      -0.575901       -15.6711
 150   2.0000      -0.569724       -15.5030
 151   2.0000      -0.568228       -15.4623
 152   2.0000      -0.565353       -15.3840
 153   2.0000      -0.561186       -15.2707
 154   2.0000      -0.557521       -15.1709
 155   2.0000      -0.550842       -14.9892
 156   2.0000      -0.550051       -14.9676
 157   2.0000      -0.547678       -14.9031
 158   2.0000      -0.537960       -14.6386
 159   2.0000      -0.537716       -14.6320
 160   2.0000      -0.533785       -14.5250
 161   2.0000      -0.532327       -14.4854
 162   2.0000      -0.529555       -14.4099
 163   2.0000      -0.525297       -14.2941
 164   2.0000      -0.520329       -14.1589
 165   2.0000      -0.515770       -14.0348
 166   2.0000      -0.514283       -13.9944
 167   2.0000      -0.513224       -13.9655
 168   2.0000      -0.510479       -13.8908
 169   2.0000      -0.509188       -13.8557
 170   2.0000      -0.507738       -13.8162
 171   2.0000      -0.501098       -13.6356
 172   2.0000      -0.499569       -13.5940
 173   2.0000      -0.496842       -13.5198
 174   2.0000      -0.494021       -13.4430
 175   2.0000      -0.489774       -13.3274
 176   2.0000      -0.485612       -13.2142
 177   2.0000      -0.478252       -13.0139
 178   2.0000      -0.476547       -12.9675
 179   2.0000      -0.473737       -12.8910
 180   2.0000      -0.472012       -12.8441
 181   2.0000      -0.464671       -12.6444
 182   2.0000      -0.462597       -12.5879
 183   2.0000      -0.458875       -12.4866
 184   2.0000      -0.455772       -12.4022
 185   2.0000      -0.454261       -12.3611
 186   2.0000      -0.452995       -12.3266
 187   2.0000      -0.443028       -12.0554
 188   2.0000      -0.440642       -11.9905
 189   2.0000      -0.436513       -11.8781
 190   2.0000      -0.429063       -11.6754
 191   2.0000      -0.425487       -11.5781
 192   2.0000      -0.414289       -11.2734
 193   2.0000      -0.412527       -11.2254
 194   2.0000      -0.407905       -11.0997
 195   2.0000      -0.405671       -11.0389
 196   2.0000      -0.398415       -10.8414
 197   2.0000      -0.396602       -10.7921
 198   2.0000      -0.384701       -10.4682
 199   2.0000      -0.381866       -10.3911
 200   2.0000      -0.381119       -10.3708
 201   2.0000      -0.379073       -10.3151
 202   2.0000      -0.376625       -10.2485
 203   2.0000      -0.371184       -10.1004
 204   2.0000      -0.367104        -9.9894
 205   2.0000      -0.363411        -9.8889
 206   2.0000      -0.360130        -9.7996
 207   2.0000      -0.355082        -9.6623
 208   2.0000      -0.347041        -9.4435
 209   2.0000      -0.344998        -9.3879
 210   2.0000      -0.336930        -9.1683
 211   2.0000      -0.333922        -9.0865
 212   2.0000      -0.329665        -8.9706
 213   2.0000      -0.326416        -8.8822
 214   2.0000      -0.319249        -8.6872
 215   2.0000      -0.313313        -8.5257
 216   2.0000      -0.290073        -7.8933
 217   2.0000      -0.270626        -7.3641
 218   2.0000      -0.256331        -6.9751
 219   2.0000      -0.209645        -5.7047
 220   0.0000      -0.077958        -2.1213
 221   0.0000      -0.050866        -1.3841
 222   0.0000      -0.049783        -1.3547
 223   0.0000      -0.045342        -1.2338
 224   0.0000      -0.024564        -0.6684

MULLIKEN ATOMIC CHARGES
-----------------------
   0 C :   -0.189643
   1 C :    0.277498
   2 F :   -0.180168
   3 C :    0.113721
   4 F :   -0.194885
   5 C :    0.027807
   6 C :   -0.053820
   7 C :    0.066576
   8 N :   -0.053714
   9 N :   -0.068521
  10 N :   -0.090322
  11 C :    0.140967
  12 N :    0.031339
  13 C :   -0.088235
  14 S :    0.164806
  15 C :    0.004459
  16 N :    0.273011
  17 O :   -0.260914
  18 O :   -0.279824
  19 C :    0.011476
  20 C :    0.125625
  21 C :   -0.051328
  22 C :    0.009474
  23 C :    0.026348
  24 C :   -0.043607
  25 C :    0.022188
  26 C :    0.021135
  27 C :   -0.054264
  28 S :    0.079348
  29 C :   -0.053760
  30 C :    0.012166
  31 C :    0.032724
  32 C :   -0.062834
  33 S :    0.048001
  34 C :    0.045854
  35 N :   -0.038206
  36 C :   -0.107631
  37 S :    0.172849
  38 C :   -0.016145
  39 N :    0.280762
  40 O :   -0.252720
  41 O :   -0.270830
  42 C :    0.007598
  43 C :    0.107485
  44 C :   -0.048619
  45 C :   -0.047096
  46 C :    0.023721
  47 C :    0.145419
  48 F :   -0.178848
  49 C :    0.257564
  50 F :   -0.182935
  51 C :   -0.146335
  52 C :    0.031094
  53 C :   -0.018270
  54 N :   -0.092406
  55 N :   -0.074995
  56 N :   -0.043657
  57 C :    0.154331
  58 H :   -0.015538
  59 H :    0.058450
  60 H :    0.066621
  61 H :    0.057082
  62 H :    0.131518
  63 H :   -0.002042
  64 H :   -0.035090
  65 H :   -0.017442
  66 H :   -0.023290
  67 H :   -0.012074
  68 H :   -0.016103
  69 H :   -0.011771
  70 H :   -0.004830
  71 H :    0.037099
  72 H :    0.145247
  73 H :    0.013422
  74 H :    0.036236
  75 H :   -0.016488
  76 H :   -0.010050
  77 H :    0.049630
  78 H :    0.054988
  79 H :    0.043611
Sum of atomic charges:    0.0000000

LOEWDIN ATOMIC CHARGES
----------------------
   0 C :   -0.069155
   1 C :    0.070700
   2 F :   -0.053120
   3 C :    0.023760
   4 F :   -0.069114
   5 C :    0.000528
   6 C :   -0.075686
   7 C :   -0.041573
   8 N :   -0.092126
   9 N :    0.159397
  10 N :   -0.104831
  11 C :    0.035819
  12 N :    0.038313
  13 C :   -0.101702
  14 S :    0.497802
  15 C :   -0.222535
  16 N :    0.274426
  17 O :   -0.227414
  18 O :   -0.246541
  19 C :   -0.001113
  20 C :   -0.105958
  21 C :   -0.039295
  22 C :   -0.021471
  23 C :   -0.059820
  24 C :   -0.145836
  25 C :   -0.042256
  26 C :   -0.026562
  27 C :   -0.189488
  28 S :    0.361054
  29 C :   -0.176276
  30 C :   -0.049895
  31 C :   -0.029482
  32 C :   -0.194592
  33 S :    0.337050
  34 C :    0.009889
  35 N :    0.039569
  36 C :   -0.104913
  37 S :    0.448506
  38 C :   -0.209699
  39 N :    0.274100
  40 O :   -0.218854
  41 O :   -0.236446
  42 C :    0.008255
  43 C :   -0.102432
  44 C :   -0.017173
  45 C :   -0.028932
  46 C :   -0.051848
  47 C :    0.061819
  48 F :   -0.055362
  49 C :    0.061960
  50 F :   -0.057463
  51 C :   -0.047831
  52 C :   -0.057072
  53 C :   -0.046252
  54 N :   -0.102008
  55 N :    0.156159
  56 N :   -0.085937
  57 C :    0.030718
  58 H :    0.046912
  59 H :    0.043299
  60 H :    0.047943
  61 H :    0.043686
  62 H :    0.091322
  63 H :    0.038664
  64 H :    0.021307
  65 H :    0.024873
  66 H :    0.027449
  67 H :    0.031570
  68 H :    0.031332
  69 H :    0.031560
  70 H :    0.034329
  71 H :    0.042466
  72 H :    0.087209
  73 H :    0.046447
  74 H :    0.030636
  75 H :    0.028235
  76 H :    0.047063
  77 H :    0.041852
  78 H :    0.042505
  79 H :    0.037583

  Mayer bond orders larger than 0.100000
B(  0-C ,  1-C ) :   1.4008 B(  0-C ,  5-C ) :   0.1197 B(  0-C ,  7-C ) :   1.1243
B(  0-C , 58-H ) :   1.0716 B(  1-C ,  2-F ) :   1.1118 B(  1-C ,  3-C ) :   1.1934
B(  3-C ,  4-F ) :   1.0957 B(  3-C ,  5-C ) :   1.3767 B(  5-C ,  6-C ) :   1.2182
B(  5-C , 12-N ) :   1.1930 B(  6-C ,  7-C ) :   1.2391 B(  6-C , 10-N ) :   1.4141
B(  7-C ,  8-N ) :   1.4661 B(  8-N ,  9-N ) :   1.2322 B(  8-N , 10-N ) :   0.1605
B(  9-N , 10-N ) :   1.2609 B(  9-N , 11-C ) :   0.9491 B( 11-C , 59-H ) :   0.9695
B( 11-C , 60-H ) :   0.9669 B( 11-C , 61-H ) :   0.9687 B( 12-N , 13-C ) :   1.2064
B( 12-N , 62-H ) :   0.8659 B( 13-C , 14-S ) :   1.1476 B( 13-C , 20-C ) :   1.3368
B( 14-S , 15-C ) :   1.0512 B( 15-C , 16-N ) :   0.9878 B( 15-C , 19-C ) :   1.4804
B( 16-N , 17-O ) :   1.5220 B( 16-N , 18-O ) :   1.4994 B( 17-O , 18-O ) :   0.2501
B( 19-C , 20-C ) :   1.2485 B( 19-C , 63-H ) :   0.9975 B( 20-C , 21-C ) :   1.0528
B( 21-C , 22-C ) :   1.6823 B( 21-C , 64-H ) :   0.9755 B( 22-C , 23-C ) :   1.1798
B( 22-C , 65-H ) :   0.9729 B( 23-C , 24-C ) :   1.5477 B( 23-C , 66-H ) :   0.9697
B( 24-C , 25-C ) :   1.1496 B( 24-C , 28-S ) :   1.0297 B( 25-C , 26-C ) :   1.6142
B( 25-C , 67-H ) :   0.9892 B( 26-C , 27-C ) :   1.1832 B( 26-C , 68-H ) :   0.9916
B( 27-C , 28-S ) :   1.0402 B( 27-C , 29-C ) :   1.5282 B( 29-C , 30-C ) :   1.1830
B( 29-C , 33-S ) :   1.0411 B( 30-C , 31-C ) :   1.5907 B( 30-C , 69-H ) :   0.9935
B( 31-C , 32-C ) :   1.1437 B( 31-C , 70-H ) :   0.9977 B( 32-C , 33-S ) :   1.0040
B( 32-C , 34-C ) :   1.6267 B( 34-C , 35-N ) :   1.1440 B( 34-C , 71-H ) :   0.9541
B( 35-N , 36-C ) :   1.1927 B( 35-N , 72-H ) :   0.9049 B( 36-C , 37-S ) :   1.1336
B( 36-C , 43-C ) :   1.3707 B( 37-S , 38-C ) :   1.0780 B( 38-C , 39-N ) :   0.9776
B( 38-C , 42-C ) :   1.4836 B( 39-N , 40-O ) :   1.5308 B( 39-N , 41-O ) :   1.5032
B( 40-O , 41-O ) :   0.2560 B( 42-C , 43-C ) :   1.2404 B( 42-C , 73-H ) :   1.0038
B( 43-C , 44-C ) :   1.0416 B( 44-C , 45-C ) :   1.7081 B( 44-C , 74-H ) :   0.9408
B( 45-C , 46-C ) :   1.1007 B( 45-C , 75-H ) :   0.9810 B( 46-C , 47-C ) :   1.3912
B( 46-C , 51-C ) :   0.1309 B( 46-C , 53-C ) :   1.1577 B( 47-C , 48-F ) :   1.1486
B( 47-C , 49-C ) :   1.1680 B( 49-C , 50-F ) :   1.1054 B( 49-C , 51-C ) :   1.4435
B( 51-C , 52-C ) :   1.1436 B( 51-C , 76-H ) :   1.0453 B( 52-C , 53-C ) :   1.2369
B( 52-C , 56-N ) :   1.4603 B( 53-C , 54-N ) :   1.4459 B( 54-N , 55-N ) :   1.2059
B( 54-N , 56-N ) :   0.1619 B( 55-N , 56-N ) :   1.2566 B( 55-N , 57-C ) :   0.9494
B( 57-C , 77-H ) :   0.9622 B( 57-C , 78-H ) :   0.9662 B( 57-C , 79-H ) :   0.9641

-----------------------------------------------------------------------------
         ABSORPTION SPECTRUM VIA TRANSITION ELECTRIC DIPOLE MOMENTS
-----------------------------------------------------------------------------
State   Energy  Wavelength   fosc         T2         TX        TY        TZ
        (cm-1)    (nm)                  (au**2)     (au)      (au)      (au)
-----------------------------------------------------------------------------
   0   15261.3    655.3   2.087501449  45.03084   0.19613  -1.31343   6.57779
   1   21678.3    461.3   0.198629631   3.01644  -1.55648  -0.75586   0.14996
   2   21881.7    457.0   0.085954881   1.29320   1.06728  -0.26539   0.28927
   3   22518.8    444.1   0.146765413   2.14562  -0.86199  -0.82573   0.84898
   4   24760.6    403.9   0.159160566   2.11617  -1.07544  -0.97958  -0.00581
   5   27373.8    365.3   0.021322199   0.25643   0.12083   0.39442  -0.29371
   6   28309.7    353.2   0.042722237   0.49682   0.57430   0.15409  -0.37849
   7   29709.6    336.6   0.416159241   4.61146   1.98733   0.78573   0.21120
   8   29963.2    333.7   0.023964371   0.26330   0.39798  -0.31416   0.07883
   9   30368.0    329.3   0.174397182   1.89060  -1.34772   0.22950  -0.14689
  10   30473.6    328.2   0.153870755   1.66229   1.27465  -0.17795   0.07676
  11   32629.5    306.5   0.082803163   0.83543  -0.53555  -0.31353  -0.67105
  12   33001.5    303.0   0.380995667   3.80068   1.89711   0.20672  -0.39864
  13   34136.3    292.9   0.062919286   0.60680   0.58092   0.22346  -0.46840
  14   35066.5    285.2   0.032970640   0.30954   0.47075   0.19538  -0.22307
  15   35756.4    279.7   0.099500062   0.91611   0.38147   0.44841  -0.75466
  16   36440.7    274.4   0.012290031   0.11103  -0.02646   0.13396  -0.30395
  17   36647.2    272.9   0.031632709   0.28417   0.09150  -0.00184   0.52516
  18   36811.7    271.7   0.068820377   0.61547   0.75648  -0.14797   0.14599
  19   37075.3    269.7   0.092047449   0.81734  -0.78957   0.06911  -0.43490
  20   37263.0    268.4   0.041297184   0.36485  -0.60269   0.01176  -0.03840
  21   37690.7    265.3   0.243586733   2.12762   0.54478  -0.21417   1.33603
  22   39173.9    255.3   0.116727355   0.98096   0.52733   0.20066  -0.81402

FINAL SINGLE POINT ENERGY     -4221.646395263413

DIPOLE MOMENT
-------------
                                X             Y             Z
Electronic contribution:    -17.54505      -8.86599     -18.40481
Nuclear contribution   :     18.31391       8.80899      21.00611
                        -----------------------------------------
Total Dipole Moment    :      0.76886      -0.05700       2.60131
                        -----------------------------------------
Magnitude (a.u.)       :      2.71315
Magnitude (Debye)      :      6.89629

Rotational constants in cm-1:     0.002123     0.000291     0.000264
Rotational constants in MHz :    63.649381     8.730290     7.903331

                             ****ORCA TERMINATED NORMALLY****
TOTAL RUN TIME: 0 days 0 hours 6 minutes 9 seconds 972 msec
