                         Program Version 4.2.0 -  RELEASE  -
|  1> # ORCA input file
|  2> # SCF done       -187.708587318013          0.000773523314
|  3> ! CAM-B3LYP def2-SVP def2/J RIJCOSX Grid4 TightSCF
|  4> %maxcore 5000
|  5> %tddft
|  6>     Mode sTDDFT
|  7>     Ethresh 5.0
|  8>     maxcore 5000
|  9> end
| 10>
| 11> %pal
| 12>   nprocs 6
| 13>   end
| 14> * xyz 0 1
| 15>    C       -0.46706         0.51522        -2.04944
| 16>    C       -0.64891        -0.78949        -2.39808
| 17>    C        0.28996        -1.64521        -1.80052
| 18>    C        1.17891        -0.95004        -0.99801
| 19>    S        0.86023         0.74516        -0.98012
| 20>    C        2.18731        -1.69251        -0.32793
| 21>    C        2.20188        -3.06963        -0.51209
| 22>   Ge        0.73765        -3.56232        -1.73763
| 23>    C        1.41467        -4.29445        -3.45322
| 24>    C       -0.65742        -4.68564        -0.88671
| 25>    C        3.24112        -3.67909         0.18118
| 26>    C        4.02313        -2.79064         0.89575
| 27>    S        3.44029        -1.15173         0.71358
| 28>    C        5.19205        -3.06440         1.67718
| 29>    C        5.46899        -2.14391         2.79371
| 30>    C        6.71203        -1.52025         2.92141
| 31>    C        6.96680        -0.59524         3.92444
| 32>    C        5.96499        -0.26702         4.83486
| 33>    C        4.71815        -0.87585         4.73129
| 34>    C        4.48283        -1.79902         3.71912
| 35>    F        3.28782        -2.39539         3.66291
| 36>    F        3.75551        -0.57736         5.60493
| 37>    F        6.20068         0.62038         5.79984
| 38>    F        8.16503        -0.01620         4.01590
| 39>    F        7.68665        -1.80562         2.05213
| 40>    C        6.04965        -4.10179         1.40209
| 41>    C        6.00012        -4.80077         0.10846
| 42>    C        5.96261        -4.10039        -1.10312
| 43>    C        5.89804        -4.75181        -2.32657
| 44>    C        5.89709        -6.14433        -2.37486
| 45>    C        5.96595        -6.86719        -1.18847
| 46>    C        6.01692        -6.19632         0.02829
| 47>    F        6.04825        -6.92228         1.15197
| 48>    F        5.97044        -8.20115        -1.21856
| 49>    F        5.83023        -6.77626        -3.54660
| 50>    F        5.83950        -4.04846        -3.45916
| 51>    F        5.99385        -2.76573        -1.09841
| 52>    C        7.00963        -4.56772         2.36783
| 53>    N        8.19194        -5.14896         2.02134
| 54>    C        8.87034        -5.52662         3.14327
| 55>    C        8.08597        -5.18835         4.24428
| 56>    C        6.93273        -4.58424         3.76037
| 57>    C       10.11355        -6.14197         3.11444
| 58>    C       11.19901        -6.68440         3.11413
| 59>    C       12.43899        -7.32318         3.14602
| 60>    C       13.25109        -7.43145         2.02723
| 61>    C       14.48228        -8.08390         2.06905
| 62>    C       14.96680        -8.68755         3.21953
| 63>    C       14.16573        -8.60187         4.39359
| 64>    C       12.90346        -7.90557         4.36067
| 65>    N       12.26088        -7.87277         5.51900
| 66>   Se       13.21811        -8.71357         6.71998
| 67>    N       14.49089        -9.07929         5.58484
| 68>    C       16.19466        -9.43760         3.23149
| 69>    N       16.29260       -10.57834         3.88572
| 70>    C       17.52774       -11.05012         3.62292
| 71>    C       18.27609       -10.12525         2.74494
| 72>    C       19.62156       -10.65865         2.47012
| 73>    O       20.50039       -10.18537         1.78201
| 74>    C       19.62809       -11.92282         3.22785
| 75>    C       18.33066       -12.12291         3.90940
| 76>    N       18.33601       -13.28380         4.61228
| 77>    C       19.52486       -13.79667         4.41656
| 78>    C       20.38461       -12.99759         3.56657
| 79>    C       17.43777        -9.07316         2.50410
| 80>    C       17.66781        -7.82884         1.81916
| 81>    C       18.75735        -7.58031         1.09215
| 82>    H       -1.03793         1.36950        -2.35716
| 83>    H       -1.43025        -1.12295        -3.05834
| 84>    H        0.61516        -4.33190        -4.18653
| 85>    H        1.79445        -5.30136        -3.30816
| 86>    H        2.21397        -3.67128        -3.84232
| 87>    H       -0.96652        -4.24936         0.05780
| 88>    H       -0.27398        -5.68424        -0.70157
| 89>    H       -1.52392        -4.76308        -1.53608
| 90>    H        3.39697        -4.74368         0.20317
| 91>    H        8.54300        -5.24506         1.08254
| 92>    H        8.34087        -5.37427         5.26797
| 93>    H        6.10470        -4.23748         4.34571
| 94>    H       12.91256        -7.00486         1.09452
| 95>    H       15.04844        -8.17138         1.15360
| 96>    H       19.79205       -14.73599         4.86938
| 97>    H       21.39133       -13.24224         3.29065
| 98>    H       16.90700        -7.06888         1.94553
| 99>    H       19.53081        -8.31897         0.96327
|100>    H       18.90342        -6.62834         0.61062
|101> *
|102>
|103>                          ****END OF INPUT****

CARTESIAN COORDINATES (ANGSTROEM)
---------------------------------
  C     -0.467060    0.515220   -2.049440
  C     -0.648910   -0.789490   -2.398080
  C      0.289960   -1.645210   -1.800520
  C      1.178910   -0.950040   -0.998010
  S      0.860230    0.745160   -0.980120
  C      2.187310   -1.692510   -0.327930
  C      2.201880   -3.069630   -0.512090
  Ge     0.737650   -3.562320   -1.737630
  C      1.414670   -4.294450   -3.453220
  C     -0.657420   -4.685640   -0.886710
  C      3.241120   -3.679090    0.181180
  C      4.023130   -2.790640    0.895750
  S      3.440290   -1.151730    0.713580
  C      5.192050   -3.064400    1.677180
  C      5.468990   -2.143910    2.793710
  C      6.712030   -1.520250    2.921410
  C      6.966800   -0.595240    3.924440
  C      5.964990   -0.267020    4.834860
  C      4.718150   -0.875850    4.731290
  C      4.482830   -1.799020    3.719120
  F      3.287820   -2.395390    3.662910
  F      3.755510   -0.577360    5.604930
  F      6.200680    0.620380    5.799840
  F      8.165030   -0.016200    4.015900
  F      7.686650   -1.805620    2.052130
  C      6.049650   -4.101790    1.402090
  C      6.000120   -4.800770    0.108460
  C      5.962610   -4.100390   -1.103120
  C      5.898040   -4.751810   -2.326570
  C      5.897090   -6.144330   -2.374860
  C      5.965950   -6.867190   -1.188470
  C      6.016920   -6.196320    0.028290
  F      6.048250   -6.922280    1.151970
  F      5.970440   -8.201150   -1.218560
  F      5.830230   -6.776260   -3.546600
  F      5.839500   -4.048460   -3.459160
  F      5.993850   -2.765730   -1.098410
  C      7.009630   -4.567720    2.367830
  N      8.191940   -5.148960    2.021340
  C      8.870340   -5.526620    3.143270
  C      8.085970   -5.188350    4.244280
  C      6.932730   -4.584240    3.760370
  C     10.113550   -6.141970    3.114440
  C     11.199010   -6.684400    3.114130
  C     12.438990   -7.323180    3.146020
  C     13.251090   -7.431450    2.027230
  C     14.482280   -8.083900    2.069050
  C     14.966800   -8.687550    3.219530
  C     14.165730   -8.601870    4.393590
  C     12.903460   -7.905570    4.360670
  N     12.260880   -7.872770    5.519000
  Se    13.218110   -8.713570    6.719980
  N     14.490890   -9.079290    5.584840
  C     16.194660   -9.437600    3.231490
  N     16.292600  -10.578340    3.885720
  C     17.527740  -11.050120    3.622920
  C     18.276090  -10.125250    2.744940
  C     19.621560  -10.658650    2.470120
  O     20.500390  -10.185370    1.782010
  C     19.628090  -11.922820    3.227850
  C     18.330660  -12.122910    3.909400
  N     18.336010  -13.283800    4.612280
  C     19.524860  -13.796670    4.416560
  C     20.384610  -12.997590    3.566570
  C     17.437770   -9.073160    2.504100
  C     17.667810   -7.828840    1.819160
  C     18.757350   -7.580310    1.092150
  H     -1.037930    1.369500   -2.357160
  H     -1.430250   -1.122950   -3.058340
  H      0.615160   -4.331900   -4.186530
  H      1.794450   -5.301360   -3.308160
  H      2.213970   -3.671280   -3.842320
  H     -0.966520   -4.249360    0.057800
  H     -0.273980   -5.684240   -0.701570
  H     -1.523920   -4.763080   -1.536080
  H      3.396970   -4.743680    0.203170
  H      8.543000   -5.245060    1.082540
  H      8.340870   -5.374270    5.267970
  H      6.104700   -4.237480    4.345710
  H     12.912560   -7.004860    1.094520
  H     15.048440   -8.171380    1.153600
  H     19.792050  -14.735990    4.869380
  H     21.391330  -13.242240    3.290650
  H     16.907000   -7.068880    1.945530
  H     19.530810   -8.318970    0.963270
  H     18.903420   -6.628340    0.610620

 Total Charge           Charge          ....    0
 Multiplicity           Mult            ....    1
 Number of Electrons    NEL             ....  532
 Basis Dimension        Dim             .... 1077

ORBITAL ENERGIES
----------------

  NO   OCC          E(Eh)            E(eV)
   0   2.0000    -453.973989    -12353.2603
   1   2.0000    -398.772667    -10851.1559
   2   2.0000     -88.961738     -2420.7720
   3   2.0000     -88.956887     -2420.6400
   4   2.0000     -58.187996     -1583.3759
   5   2.0000     -52.258653     -1422.0302
   6   2.0000     -52.256322     -1421.9668
   7   2.0000     -52.255871     -1421.9545
   8   2.0000     -49.832183     -1356.0026
   9   2.0000     -44.369421     -1207.3533
  10   2.0000     -44.368673     -1207.3330
  11   2.0000     -44.368322     -1207.3234
  12   2.0000     -24.817202      -675.3104
  13   2.0000     -24.812269      -675.1762
  14   2.0000     -24.811513      -675.1556
  15   2.0000     -24.811188      -675.1467
  16   2.0000     -24.810696      -675.1334
  17   2.0000     -24.809787      -675.1086
  18   2.0000     -24.806758      -675.0262
  19   2.0000     -24.805636      -674.9957
  20   2.0000     -24.805257      -674.9854
  21   2.0000     -24.805042      -674.9795
  22   2.0000     -19.204395      -522.5782
  23   2.0000     -14.472003      -393.8032
  24   2.0000     -14.430912      -392.6851
  25   2.0000     -14.427514      -392.5926
  26   2.0000     -14.399249      -391.8235
  27   2.0000     -14.397793      -391.7839
  28   2.0000     -10.399474      -282.9841
  29   2.0000     -10.394662      -282.8531
  30   2.0000     -10.393732      -282.8278
  31   2.0000     -10.393439      -282.8199
  32   2.0000     -10.393090      -282.8103
  33   2.0000     -10.392322      -282.7895
  34   2.0000     -10.388327      -282.6808
  35   2.0000     -10.388165      -282.6763
  36   2.0000     -10.386247      -282.6242
  37   2.0000     -10.385907      -282.6149
  38   2.0000     -10.364256      -282.0257
  39   2.0000     -10.335439      -281.2416
  40   2.0000     -10.326064      -280.9865
  41   2.0000     -10.323293      -280.9111
  42   2.0000     -10.323045      -280.9043
  43   2.0000     -10.321890      -280.8729
  44   2.0000     -10.318856      -280.7904
  45   2.0000     -10.318634      -280.7843
  46   2.0000     -10.316929      -280.7379
  47   2.0000     -10.315662      -280.7034
  48   2.0000     -10.314798      -280.6799
  49   2.0000     -10.314227      -280.6644
  50   2.0000     -10.313883      -280.6550
  51   2.0000     -10.311541      -280.5913
  52   2.0000     -10.306692      -280.4593
  53   2.0000     -10.303034      -280.3598
  54   2.0000     -10.300133      -280.2809
  55   2.0000     -10.299643      -280.2675
  56   2.0000     -10.297702      -280.2147
  57   2.0000     -10.296623      -280.1854
  58   2.0000     -10.293338      -280.0960
  59   2.0000     -10.290477      -280.0181
  60   2.0000     -10.283838      -279.8375
  61   2.0000     -10.282463      -279.8000
  62   2.0000     -10.280842      -279.7559
  63   2.0000     -10.280510      -279.7469
  64   2.0000     -10.279365      -279.7157
  65   2.0000     -10.279175      -279.7106
  66   2.0000     -10.276883      -279.6482
  67   2.0000     -10.271900      -279.5126
  68   2.0000     -10.268364      -279.4164
  69   2.0000     -10.266987      -279.3789
  70   2.0000     -10.265656      -279.3427
  71   2.0000     -10.262212      -279.2490
  72   2.0000     -10.262079      -279.2454
  73   2.0000     -10.261581      -279.2318
  74   2.0000     -10.260709      -279.2081
  75   2.0000      -8.057009      -219.2424
  76   2.0000      -8.052671      -219.1243
  77   2.0000      -7.963901      -216.7088
  78   2.0000      -6.292056      -171.2156
  79   2.0000      -6.026109      -163.9788
  80   2.0000      -6.022219      -163.8729
  81   2.0000      -6.021881      -163.8637
  82   2.0000      -6.019287      -163.7931
  83   2.0000      -6.017656      -163.7488
  84   2.0000      -6.015060      -163.6781
  85   2.0000      -5.914034      -160.9290
  86   2.0000      -5.907347      -160.7471
  87   2.0000      -5.903843      -160.6517
  88   2.0000      -4.468320      -121.5892
  89   2.0000      -4.467195      -121.5586
  90   2.0000      -4.466193      -121.5313
  91   2.0000      -2.268073       -61.7174
  92   2.0000      -2.267531       -61.7027
  93   2.0000      -2.263127       -61.5828
  94   2.0000      -2.258050       -61.4447
  95   2.0000      -2.257835       -61.4388
  96   2.0000      -1.343294       -36.5529
  97   2.0000      -1.337208       -36.3873
  98   2.0000      -1.335093       -36.3297
  99   2.0000      -1.329410       -36.1751
 100   2.0000      -1.329281       -36.1716
 101   2.0000      -1.323988       -36.0276
 102   2.0000      -1.319493       -35.9052
 103   2.0000      -1.316084       -35.8125
 104   2.0000      -1.314039       -35.7568
 105   2.0000      -1.310340       -35.6562
 106   2.0000      -1.292330       -35.1661
 107   2.0000      -1.290403       -35.1136
 108   2.0000      -1.289985       -35.1023
 109   2.0000      -1.289047       -35.0768
 110   2.0000      -1.288553       -35.0633
 111   2.0000      -1.118557       -30.4375
 112   2.0000      -1.090906       -29.6851
 113   2.0000      -1.086989       -29.5785
 114   2.0000      -1.069283       -29.0967
 115   2.0000      -1.051093       -28.6017
 116   2.0000      -1.007540       -27.4165
 117   2.0000      -0.999678       -27.2026
 118   2.0000      -0.992558       -27.0089
 119   2.0000      -0.971112       -26.4253
 120   2.0000      -0.966126       -26.2896
 121   2.0000      -0.962601       -26.1937
 122   2.0000      -0.942800       -25.6549
 123   2.0000      -0.925417       -25.1819
 124   2.0000      -0.902246       -24.5514
 125   2.0000      -0.899325       -24.4719
 126   2.0000      -0.885696       -24.1010
 127   2.0000      -0.879447       -23.9310
 128   2.0000      -0.870178       -23.6787
 129   2.0000      -0.868191       -23.6247
 130   2.0000      -0.863964       -23.5096
 131   2.0000      -0.863408       -23.4945
 132   2.0000      -0.851732       -23.1768
 133   2.0000      -0.847111       -23.0511
 134   2.0000      -0.842024       -22.9126
 135   2.0000      -0.837021       -22.7765
 136   2.0000      -0.822435       -22.3796
 137   2.0000      -0.818578       -22.2746
 138   2.0000      -0.813988       -22.1497
 139   2.0000      -0.790394       -21.5077
 140   2.0000      -0.787491       -21.4287
 141   2.0000      -0.771430       -20.9917
 142   2.0000      -0.767886       -20.8952
 143   2.0000      -0.764244       -20.7961
 144   2.0000      -0.753133       -20.4938
 145   2.0000      -0.751261       -20.4429
 146   2.0000      -0.748579       -20.3699
 147   2.0000      -0.744383       -20.2557
 148   2.0000      -0.735512       -20.0143
 149   2.0000      -0.720687       -19.6109
 150   2.0000      -0.709360       -19.3027
 151   2.0000      -0.696723       -18.9588
 152   2.0000      -0.692602       -18.8467
 153   2.0000      -0.692347       -18.8397
 154   2.0000      -0.689067       -18.7505
 155   2.0000      -0.684487       -18.6259
 156   2.0000      -0.681095       -18.5335
 157   2.0000      -0.680092       -18.5062
 158   2.0000      -0.677513       -18.4361
 159   2.0000      -0.670775       -18.2527
 160   2.0000      -0.665609       -18.1121
 161   2.0000      -0.662081       -18.0161
 162   2.0000      -0.656771       -17.8716
 163   2.0000      -0.651827       -17.7371
 164   2.0000      -0.636128       -17.3099
 165   2.0000      -0.633672       -17.2431
 166   2.0000      -0.632949       -17.2234
 167   2.0000      -0.629118       -17.1192
 168   2.0000      -0.628144       -17.0927
 169   2.0000      -0.624544       -16.9947
 170   2.0000      -0.619607       -16.8604
 171   2.0000      -0.618028       -16.8174
 172   2.0000      -0.615455       -16.7474
 173   2.0000      -0.611539       -16.6408
 174   2.0000      -0.610615       -16.6157
 175   2.0000      -0.606598       -16.5064
 176   2.0000      -0.602716       -16.4007
 177   2.0000      -0.601192       -16.3593
 178   2.0000      -0.592069       -16.1110
 179   2.0000      -0.589309       -16.0359
 180   2.0000      -0.588671       -16.0185
 181   2.0000      -0.585053       -15.9201
 182   2.0000      -0.582749       -15.8574
 183   2.0000      -0.577916       -15.7259
 184   2.0000      -0.573036       -15.5931
 185   2.0000      -0.568721       -15.4757
 186   2.0000      -0.567463       -15.4414
 187   2.0000      -0.563987       -15.3469
 188   2.0000      -0.557326       -15.1656
 189   2.0000      -0.556530       -15.1440
 190   2.0000      -0.552727       -15.0405
 191   2.0000      -0.551433       -15.0053
 192   2.0000      -0.547921       -14.9097
 193   2.0000      -0.545590       -14.8463
 194   2.0000      -0.538686       -14.6584
 195   2.0000      -0.534940       -14.5565
 196   2.0000      -0.532653       -14.4942
 197   2.0000      -0.531582       -14.4651
 198   2.0000      -0.530404       -14.4330
 199   2.0000      -0.527619       -14.3572
 200   2.0000      -0.527116       -14.3436
 201   2.0000      -0.525724       -14.3057
 202   2.0000      -0.525277       -14.2935
 203   2.0000      -0.521130       -14.1807
 204   2.0000      -0.519633       -14.1399
 205   2.0000      -0.516766       -14.0619
 206   2.0000      -0.512100       -13.9350
 207   2.0000      -0.502979       -13.6868
 208   2.0000      -0.498957       -13.5773
 209   2.0000      -0.498073       -13.5533
 210   2.0000      -0.496481       -13.5099
 211   2.0000      -0.494390       -13.4530
 212   2.0000      -0.493742       -13.4354
 213   2.0000      -0.489757       -13.3270
 214   2.0000      -0.489014       -13.3067
 215   2.0000      -0.487649       -13.2696
 216   2.0000      -0.486563       -13.2401
 217   2.0000      -0.483977       -13.1697
 218   2.0000      -0.479770       -13.0552
 219   2.0000      -0.477137       -12.9836
 220   2.0000      -0.474750       -12.9186
 221   2.0000      -0.472228       -12.8500
 222   2.0000      -0.471752       -12.8370
 223   2.0000      -0.470264       -12.7965
 224   2.0000      -0.466837       -12.7033
 225   2.0000      -0.465121       -12.6566
 226   2.0000      -0.462488       -12.5849
 227   2.0000      -0.460280       -12.5248
 228   2.0000      -0.458776       -12.4839
 229   2.0000      -0.453633       -12.3440
 230   2.0000      -0.453596       -12.3430
 231   2.0000      -0.450693       -12.2640
 232   2.0000      -0.448930       -12.2160
 233   2.0000      -0.440020       -11.9735
 234   2.0000      -0.439065       -11.9476
 235   2.0000      -0.435236       -11.8434
 236   2.0000      -0.432248       -11.7621
 237   2.0000      -0.427142       -11.6231
 238   2.0000      -0.417216       -11.3530
 239   2.0000      -0.399530       -10.8718
 240   2.0000      -0.389844       -10.6082
 241   2.0000      -0.387654       -10.5486
 242   2.0000      -0.383984       -10.4487
 243   2.0000      -0.377133       -10.2623
 244   2.0000      -0.374416       -10.1884
 245   2.0000      -0.366199        -9.9648
 246   2.0000      -0.363072        -9.8797
 247   2.0000      -0.356940        -9.7128
 248   2.0000      -0.352544        -9.5932
 249   2.0000      -0.346720        -9.4347
 250   2.0000      -0.344380        -9.3711
 251   2.0000      -0.339467        -9.2374
 252   2.0000      -0.336071        -9.1450
 253   2.0000      -0.335550        -9.1308
 254   2.0000      -0.334332        -9.0976
 255   2.0000      -0.327403        -8.9091
 256   2.0000      -0.325622        -8.8606
 257   2.0000      -0.325076        -8.8458
 258   2.0000      -0.321465        -8.7475
 259   2.0000      -0.320500        -8.7212
 260   2.0000      -0.319441        -8.6924
 261   2.0000      -0.318335        -8.6623
 262   2.0000      -0.297878        -8.1057
 263   2.0000      -0.290590        -7.9074
 264   2.0000      -0.264832        -7.2064
 265   2.0000      -0.234481        -6.3806
 266   0.0000      -0.106748        -2.9048
 267   0.0000      -0.069121        -1.8809
 268   0.0000      -0.056997        -1.5510
 269   0.0000      -0.037894        -1.0311
 270   0.0000      -0.018750        -0.5102

MULLIKEN ATOMIC CHARGES
-----------------------
   0 C :   -0.075302
   1 C :    0.017085
   2 C :   -0.104317
   3 C :   -0.126433
   4 S :    0.139212
   5 C :   -0.069683
   6 C :   -0.106223
   7 Ge:    0.451582
   8 C :   -0.195278
   9 C :   -0.194053
  10 C :    0.005451
  11 C :   -0.163331
  12 S :    0.155058
  13 C :    0.117257
  14 C :   -0.230019
  15 C :    0.246420
  16 C :    0.166478
  17 C :    0.131135
  18 C :    0.169025
  19 C :    0.202061
  20 F :   -0.155851
  21 F :   -0.157203
  22 F :   -0.152415
  23 F :   -0.156571
  24 F :   -0.158273
  25 C :    0.096754
  26 C :   -0.223528
  27 C :    0.234346
  28 C :    0.160881
  29 C :    0.135386
  30 C :    0.165207
  31 C :    0.178203
  32 F :   -0.155635
  33 F :   -0.157022
  34 F :   -0.152586
  35 F :   -0.157290
  36 F :   -0.151506
  37 C :   -0.010357
  38 N :   -0.031165
  39 C :   -0.017786
  40 C :   -0.004609
  41 C :   -0.003686
  42 C :    0.072615
  43 C :   -0.029309
  44 C :    0.014985
  45 C :   -0.029343
  46 C :   -0.013296
  47 C :    0.025291
  48 C :    0.022767
  49 C :   -0.001151
  50 N :   -0.258364
  51 Se:    0.529823
  52 N :   -0.230806
  53 C :   -0.005231
  54 N :   -0.013438
  55 C :    0.073407
  56 C :   -0.167003
  57 C :    0.217344
  58 O :   -0.141053
  59 C :   -0.021109
  60 C :   -0.029136
  61 N :   -0.056443
  62 C :    0.087326
  63 C :   -0.094154
  64 C :    0.034778
  65 C :   -0.069759
  66 C :    0.014335
  67 H :    0.024424
  68 H :   -0.015919
  69 H :    0.046280
  70 H :    0.041337
  71 H :    0.059151
  72 H :    0.058149
  73 H :    0.044220
  74 H :    0.045218
  75 H :   -0.018410
  76 H :    0.127066
  77 H :   -0.019107
  78 H :   -0.026681
  79 H :   -0.018236
  80 H :   -0.000793
  81 H :    0.005691
  82 H :   -0.008106
  83 H :   -0.008004
  84 H :    0.046235
  85 H :    0.022990
Sum of atomic charges:    0.0000000

LOEWDIN ATOMIC CHARGES
----------------------
   0 C :   -0.185592
   1 C :   -0.064281
   2 C :   -0.169983
   3 C :   -0.200924
   4 S :    0.435939
   5 C :   -0.180328
   6 C :   -0.173684
   7 Ge:    0.513411
   8 C :   -0.202090
   9 C :   -0.201273
  10 C :   -0.046420
  11 C :   -0.184127
  12 S :    0.448270
  13 C :   -0.019490
  14 C :   -0.087561
  15 C :    0.073726
  16 C :    0.026864
  17 C :    0.042332
  18 C :    0.024926
  19 C :    0.057419
  20 F :   -0.036780
  21 F :   -0.037353
  22 F :   -0.030698
  23 F :   -0.037130
  24 F :   -0.034214
  25 C :   -0.030662
  26 C :   -0.083637
  27 C :    0.069130
  28 C :    0.025419
  29 C :    0.038566
  30 C :    0.022671
  31 C :    0.054583
  32 F :   -0.035542
  33 F :   -0.037124
  34 F :   -0.031465
  35 F :   -0.036817
  36 F :   -0.028086
  37 C :   -0.012720
  38 N :    0.111781
  39 C :   -0.033216
  40 C :   -0.030080
  41 C :   -0.058787
  42 C :   -0.023856
  43 C :   -0.021994
  44 C :   -0.021800
  45 C :   -0.014655
  46 C :    0.007422
  47 C :   -0.048702
  48 C :   -0.031947
  49 C :   -0.037980
  50 N :   -0.243145
  51 Se:    0.581656
  52 N :   -0.228724
  53 C :    0.078584
  54 N :   -0.081615
  55 C :    0.049115
  56 C :   -0.047686
  57 C :    0.068612
  58 O :   -0.141479
  59 C :   -0.039175
  60 C :    0.021640
  61 N :   -0.095843
  62 C :    0.070020
  63 C :   -0.038251
  64 C :   -0.022560
  65 C :   -0.049901
  66 C :    0.004954
  67 H :    0.022032
  68 H :    0.028473
  69 H :    0.036842
  70 H :    0.034848
  71 H :    0.041645
  72 H :    0.042034
  73 H :    0.036225
  74 H :    0.036447
  75 H :    0.028620
  76 H :    0.092408
  77 H :    0.033337
  78 H :    0.026754
  79 H :    0.036325
  80 H :    0.038340
  81 H :    0.022155
  82 H :    0.033113
  83 H :    0.028279
  84 H :    0.028272
  85 H :    0.026191

  Mayer bond orders larger than 0.100000
B(  0-C ,  1-C ) :   1.5554 B(  0-C ,  4-S ) :   1.1582 B(  0-C , 67-H ) :   0.9718
B(  1-C ,  2-C ) :   1.2506 B(  1-C , 68-H ) :   0.9984 B(  2-C ,  3-C ) :   1.5394
B(  2-C ,  7-Ge) :   0.8862 B(  3-C ,  4-S ) :   1.1179 B(  3-C ,  5-C ) :   1.1508
B(  5-C ,  6-C ) :   1.5151 B(  5-C , 11-C ) :   0.1056 B(  5-C , 12-S ) :   1.1243
B(  6-C ,  7-Ge) :   0.8764 B(  6-C , 10-C ) :   1.2629 B(  7-Ge,  8-C ) :   1.0134
B(  7-Ge,  9-C ) :   1.0125 B(  8-C , 69-H ) :   0.9609 B(  8-C , 70-H ) :   0.9602
B(  8-C , 71-H ) :   0.9578 B(  9-C , 72-H ) :   0.9595 B(  9-C , 73-H ) :   0.9602
B(  9-C , 74-H ) :   0.9610 B( 10-C , 11-C ) :   1.4735 B( 10-C , 75-H ) :   0.9989
B( 11-C , 12-S ) :   1.1091 B( 11-C , 13-C ) :   1.0922 B( 13-C , 14-C ) :   0.9473
B( 13-C , 25-C ) :   1.7236 B( 14-C , 15-C ) :   1.3268 B( 14-C , 17-C ) :   0.1107
B( 14-C , 19-C ) :   1.3210 B( 15-C , 16-C ) :   1.2996 B( 15-C , 24-F ) :   1.1567
B( 16-C , 17-C ) :   1.2704 B( 16-C , 23-F ) :   1.1765 B( 17-C , 18-C ) :   1.2807
B( 17-C , 22-F ) :   1.1773 B( 18-C , 19-C ) :   1.2704 B( 18-C , 21-F ) :   1.1736
B( 19-C , 20-F ) :   1.1817 B( 25-C , 26-C ) :   0.9415 B( 25-C , 37-C ) :   1.0340
B( 26-C , 27-C ) :   1.3228 B( 26-C , 29-C ) :   0.1105 B( 26-C , 31-C ) :   1.3186
B( 27-C , 28-C ) :   1.2962 B( 27-C , 36-F ) :   1.1654 B( 28-C , 29-C ) :   1.2652
B( 28-C , 35-F ) :   1.1755 B( 29-C , 30-C ) :   1.2817 B( 29-C , 34-F ) :   1.1805
B( 30-C , 31-C ) :   1.2699 B( 30-C , 33-F ) :   1.1736 B( 31-C , 32-F ) :   1.1767
B( 37-C , 38-N ) :   1.2439 B( 37-C , 39-C ) :   0.1328 B( 37-C , 41-C ) :   1.4147
B( 38-N , 39-C ) :   1.2346 B( 38-N , 76-H ) :   0.9307 B( 39-C , 40-C ) :   1.4273
B( 39-C , 42-C ) :   0.8039 B( 40-C , 41-C ) :   1.3151 B( 40-C , 77-H ) :   1.0204
B( 41-C , 78-H ) :   1.0073 B( 42-C , 43-C ) :   2.2566 B( 43-C , 44-C ) :   0.9270
B( 44-C , 45-C ) :   1.4731 B( 44-C , 47-C ) :   0.1153 B( 44-C , 49-C ) :   1.1638
B( 45-C , 46-C ) :   1.1906 B( 45-C , 79-H ) :   1.0061 B( 46-C , 47-C ) :   1.4821
B( 46-C , 80-H ) :   0.9970 B( 47-C , 48-C ) :   1.1799 B( 47-C , 53-C ) :   0.9939
B( 48-C , 49-C ) :   1.1189 B( 48-C , 52-N ) :   1.6324 B( 49-C , 50-N ) :   1.6315
B( 50-N , 51-Se) :   1.2424 B( 50-N , 52-N ) :   0.1273 B( 51-Se, 52-N ) :   1.2491
B( 53-C , 54-N ) :   1.6476 B( 53-C , 55-C ) :   0.1330 B( 53-C , 64-C ) :   1.0411
B( 54-N , 55-C ) :   1.3348 B( 55-C , 56-C ) :   1.0430 B( 55-C , 60-C ) :   1.4324
B( 56-C , 57-C ) :   0.8884 B( 56-C , 64-C ) :   1.5849 B( 57-C , 58-O ) :   2.2070
B( 57-C , 59-C ) :   0.9265 B( 59-C , 60-C ) :   1.0650 B( 59-C , 63-C ) :   1.6060
B( 60-C , 61-N ) :   1.3036 B( 61-N , 62-C ) :   1.6653 B( 62-C , 63-C ) :   1.0704
B( 62-C , 81-H ) :   0.9891 B( 63-C , 82-H ) :   1.0101 B( 64-C , 65-C ) :   1.0948
B( 65-C , 66-C ) :   1.9231 B( 65-C , 83-H ) :   0.9558 B( 66-C , 84-H ) :   0.9327
B( 66-C , 85-H ) :   0.9454

-----------------------------------------------------------------------------
         ABSORPTION SPECTRUM VIA TRANSITION ELECTRIC DIPOLE MOMENTS
-----------------------------------------------------------------------------
State   Energy  Wavelength   fosc         T2         TX        TY        TZ
        (cm-1)    (nm)                  (au**2)     (au)      (au)      (au)
-----------------------------------------------------------------------------
   0   16163.9    618.7   1.351536435  27.52685   4.36114  -2.84327   0.65047
   1   20519.8    487.3   0.140819094   2.25925   1.01067  -1.03289   0.41344
   2   21611.8    462.7   0.291975674   4.44766  -1.68896   1.09718  -0.62551
   3   21994.8    454.7   0.004404453   0.06592   0.18374  -0.17928  -0.00474
   4   23361.5    428.1   0.232841658   3.28122  -1.25084   1.30926  -0.04965
   5   23880.0    418.8   0.031684413   0.43680  -0.62274   0.21932   0.03003
   6   25169.1    397.3   0.014741119   0.19281  -0.28812   0.32401   0.06944
   7   26350.7    379.5   0.001581482   0.01976   0.09339   0.05209  -0.09123
   8   27610.7    362.2   0.002929235   0.03493   0.06904   0.07531   0.15649
   9   28136.0    355.4   0.051562653   0.60332  -0.61102   0.47586  -0.05948
  10   29193.5    342.5   0.027679917   0.31214   0.37116  -0.41404  -0.05435
  11   30211.5    331.0   0.000038141   0.00042  -0.01837  -0.00476  -0.00746
  12   30349.6    329.5   0.242152961   2.62671  -1.18762   0.43452  -1.01364
  13   30658.3    326.2   0.108957987   1.17000  -0.20484   0.35405  -1.00134
  14   31076.4    321.8   0.005610991   0.05944   0.03618  -0.23701   0.04425
  15   31189.2    320.6   0.010167539   0.10732  -0.31839   0.07050   0.03132
  16   31935.7    313.1   0.052106730   0.53715   0.69980   0.02967  -0.21573
  17   31996.7    312.5   0.015632486   0.16084   0.35698   0.07896  -0.16484
  18   33150.5    301.7   0.312043505   3.09885  -1.43292   0.53977  -0.86848
  19   33596.2    297.7   0.103740941   1.01657   0.46354  -0.80472   0.39258
  20   34304.2    291.5   0.012637977   0.12128  -0.14427   0.31191  -0.05643
  21   35464.4    282.0   0.201191243   1.86764  -0.52582   1.25981   0.06338
  22   35584.2    281.0   0.253392904   2.34430  -1.03787   0.65490  -0.91555
  23   35809.8    279.3   0.125089234   1.14999   0.03919  -1.07162  -0.00883
  24   35959.5    278.1   0.097706223   0.89451   0.44386  -0.65630   0.51650
  25   36166.3    276.5   0.007280501   0.06627  -0.12607   0.21450  -0.06611
  26   36754.3    272.1   0.059428597   0.53231  -0.36180   0.52092  -0.36063
  27   36925.4    270.8   0.044576622   0.39743  -0.61540   0.07815   0.11224
  28   37228.3    268.6   0.069627310   0.61572   0.27424   0.19048  -0.71009
  29   37531.7    266.4   0.094333189   0.82745   0.33361   0.67128   0.51530
  30   37929.3    263.6   0.025913546   0.22492  -0.20163  -0.00806   0.42919
  31   38421.7    260.3   0.015113027   0.12949   0.03534  -0.26202  -0.24411
  32   38570.3    259.3   0.013219634   0.11283   0.09525   0.25751   0.19352
  33   38777.9    257.9   0.198233266   1.68294  -1.05743   0.70876   0.24991
  34   38919.7    256.9   0.083195418   0.70373  -0.35180   0.71396  -0.26500
  35   39393.1    253.9   0.040527652   0.33869   0.27213  -0.40369  -0.31887
  36   39491.2    253.2   0.116785644   0.97356  -0.33160  -0.31044   0.87592
  37   39755.2    251.5   0.056617154   0.46885  -0.22473  -0.58457   0.27681
  38   39845.0    251.0   0.047806093   0.39499   0.41779  -0.46533   0.06252

FINAL SINGLE POINT ENERGY     -8420.244414413708

DIPOLE MOMENT
-------------
                                X             Y             Z
Electronic contribution:    -29.11946       9.89505      42.66968
Nuclear contribution   :     27.07557      -9.26166     -43.85801
                        -----------------------------------------
Total Dipole Moment    :     -2.04389       0.63339      -1.18833
                        -----------------------------------------
Magnitude (a.u.)       :      2.44761
Magnitude (Debye)      :      6.22132

Rotational constants in cm-1:     0.001796     0.000294     0.000272
Rotational constants in MHz :    53.856153     8.816021     8.139780

                             ****ORCA TERMINATED NORMALLY****
TOTAL RUN TIME: 0 days 0 hours 8 minutes 51 seconds 635 msec
