                         Program Version 4.2.0 -  RELEASE  -
|  1> # ORCA input file
|  2> # SCF done       -140.610905646053          0.000391093915
|  3> ! CAM-B3LYP def2-SVP def2/J RIJCOSX Grid4 TightSCF
|  4> %maxcore 5000
|  5> %tddft
|  6>     Mode sTDDFT
|  7>     Ethresh 5.0
|  8>     maxcore 5000
|  9> end
| 10>
| 11> %pal
| 12>   nprocs 6
| 13>   end
| 14> * xyz 0 1
| 15>    C        2.96226         1.44089         1.87213
| 16>    S        1.64273         2.37146         1.29630
| 17>    C        2.63057         3.02252         0.02714
| 18>    C        3.91231         2.52344         0.06573
| 19>    C        4.09612         1.61069         1.13353
| 20>    C        5.39468         0.89747         1.39567
| 21>    C        5.69826         0.86520         2.86405
| 22>    C        5.94991        -0.23122         3.55313
| 23>    C        6.53088         1.59161         0.63330
| 24>    C        6.13188         1.83966        -0.81642
| 25>    C        5.01028         2.87294        -0.88335
| 26>    C        2.02220         3.94510        -0.89611
| 27>    N        0.70309         4.12678        -0.76363
| 28>    C        0.12494         4.95055        -1.61583
| 29>    C        0.82790         5.60629        -2.61292
| 30>    C        2.20763         5.37113        -2.66786
| 31>    N        2.79097         4.54003        -1.79936
| 32>    C        3.05490         6.01059        -3.64937
| 33>    C        4.39169         5.85270        -3.61775
| 34>    C        5.33707         6.38000        -4.53685
| 35>    S        4.86882         7.00034        -6.09356
| 36>    C        6.51712         7.16321        -6.56016
| 37>    C        7.39049         6.76806        -5.59861
| 38>    C        8.87527         6.81454        -5.73906
| 39>    C        6.72298         6.33531        -4.41172
| 40>    C        7.40761         5.93148        -3.21664
| 41>    C        6.96273         6.20387        -1.96552
| 42>    C        7.55829         5.76669        -0.75224
| 43>    C        8.42777         4.72351        -0.62317
| 44>    C        8.93682         4.29020         0.61064
| 45>    C        9.67071         3.14433         0.78748
| 46>    C       10.17973         2.63581         2.00669
| 47>    C       10.82048         1.44043         1.89196
| 48>    C       10.85237         0.93120         0.57351
| 49>    S       10.05707         2.03691        -0.52307
| 50>    C       11.39110        -0.26380         0.14114
| 51>    C       12.05814        -1.24454         0.90990
| 52>    C       12.45523        -2.33031         0.19398
| 53>    C       12.12245        -2.27493        -1.18505
| 54>    S       11.29224        -0.76990        -1.53589
| 55>    C       12.38948        -3.24525        -2.11247
| 56>    C       12.06443        -3.23179        -3.48020
| 57>    S       11.24934        -1.92292        -4.32082
| 58>    C       11.26815        -2.72003        -5.84394
| 59>    C       11.87203        -3.95099        -5.73922
| 60>    C       12.31478        -4.22670        -4.41028
| 61>    O       12.89780        -5.44183        -4.33659
| 62>    C       12.83216        -5.94394        -5.59962
| 63>    N       13.37294        -7.23114        -5.82295
| 64>    O       13.30263        -7.65827        -6.96091
| 65>    O       13.86278        -7.81561        -4.88046
| 66>    C       12.22882        -5.10127        -6.49486
| 67>    H        2.83541         0.80949         2.72968
| 68>    H        5.30506        -0.13279         1.02849
| 69>    H        5.71321         1.83362         3.34739
| 70>    H        5.93818        -1.20559         3.09209
| 71>    H        6.17566        -0.20660         4.60590
| 72>    H        7.42523         0.96731         0.68305
| 73>    H        6.75986         2.54666         1.11182
| 74>    H        5.79738         0.90191        -1.26515
| 75>    H        6.99305         2.19632        -1.38346
| 76>    H        4.60632         2.95214        -1.89379
| 77>    H        5.40421         3.85949        -0.61790
| 78>    H       -0.94272         5.08401        -1.49033
| 79>    H        0.34340         6.27233        -3.30828
| 80>    H        2.57478         6.62788        -4.39595
| 81>    H        4.79558         5.24083        -2.82209
| 82>    H        6.74550         7.55054        -7.53386
| 83>    H        9.15318         7.23640        -6.70123
| 84>    H        9.29422         5.81128        -5.66424
| 85>    H        9.31152         7.42270        -4.94775
| 86>    H        8.35824         5.43399        -3.35245
| 87>    H        6.09702         6.84531        -1.86061
| 88>    H        7.23983         6.27530         0.14946
| 89>    H        8.71660         4.15519        -1.49749
| 90>    H        8.71274         4.87623         1.49299
| 91>    H       10.04904         3.16920         2.93176
| 92>    H       11.26137         0.90877         2.71573
| 93>    H       12.22550        -1.12184         1.96479
| 94>    H       12.97505        -3.17696         0.60594
| 95>    H       12.90236        -4.13558        -1.77296
| 96>    H       10.84236        -2.24397        -6.70209
| 97>    H       12.07317        -5.29600        -7.53554
| 98> *
| 99>
|100>                          ****END OF INPUT****

CARTESIAN COORDINATES (ANGSTROEM)
---------------------------------
  C      2.962260    1.440890    1.872130
  S      1.642730    2.371460    1.296300
  C      2.630570    3.022520    0.027140
  C      3.912310    2.523440    0.065730
  C      4.096120    1.610690    1.133530
  C      5.394680    0.897470    1.395670
  C      5.698260    0.865200    2.864050
  C      5.949910   -0.231220    3.553130
  C      6.530880    1.591610    0.633300
  C      6.131880    1.839660   -0.816420
  C      5.010280    2.872940   -0.883350
  C      2.022200    3.945100   -0.896110
  N      0.703090    4.126780   -0.763630
  C      0.124940    4.950550   -1.615830
  C      0.827900    5.606290   -2.612920
  C      2.207630    5.371130   -2.667860
  N      2.790970    4.540030   -1.799360
  C      3.054900    6.010590   -3.649370
  C      4.391690    5.852700   -3.617750
  C      5.337070    6.380000   -4.536850
  S      4.868820    7.000340   -6.093560
  C      6.517120    7.163210   -6.560160
  C      7.390490    6.768060   -5.598610
  C      8.875270    6.814540   -5.739060
  C      6.722980    6.335310   -4.411720
  C      7.407610    5.931480   -3.216640
  C      6.962730    6.203870   -1.965520
  C      7.558290    5.766690   -0.752240
  C      8.427770    4.723510   -0.623170
  C      8.936820    4.290200    0.610640
  C      9.670710    3.144330    0.787480
  C     10.179730    2.635810    2.006690
  C     10.820480    1.440430    1.891960
  C     10.852370    0.931200    0.573510
  S     10.057070    2.036910   -0.523070
  C     11.391100   -0.263800    0.141140
  C     12.058140   -1.244540    0.909900
  C     12.455230   -2.330310    0.193980
  C     12.122450   -2.274930   -1.185050
  S     11.292240   -0.769900   -1.535890
  C     12.389480   -3.245250   -2.112470
  C     12.064430   -3.231790   -3.480200
  S     11.249340   -1.922920   -4.320820
  C     11.268150   -2.720030   -5.843940
  C     11.872030   -3.950990   -5.739220
  C     12.314780   -4.226700   -4.410280
  O     12.897800   -5.441830   -4.336590
  C     12.832160   -5.943940   -5.599620
  N     13.372940   -7.231140   -5.822950
  O     13.302630   -7.658270   -6.960910
  O     13.862780   -7.815610   -4.880460
  C     12.228820   -5.101270   -6.494860
  H      2.835410    0.809490    2.729680
  H      5.305060   -0.132790    1.028490
  H      5.713210    1.833620    3.347390
  H      5.938180   -1.205590    3.092090
  H      6.175660   -0.206600    4.605900
  H      7.425230    0.967310    0.683050
  H      6.759860    2.546660    1.111820
  H      5.797380    0.901910   -1.265150
  H      6.993050    2.196320   -1.383460
  H      4.606320    2.952140   -1.893790
  H      5.404210    3.859490   -0.617900
  H     -0.942720    5.084010   -1.490330
  H      0.343400    6.272330   -3.308280
  H      2.574780    6.627880   -4.395950
  H      4.795580    5.240830   -2.822090
  H      6.745500    7.550540   -7.533860
  H      9.153180    7.236400   -6.701230
  H      9.294220    5.811280   -5.664240
  H      9.311520    7.422700   -4.947750
  H      8.358240    5.433990   -3.352450
  H      6.097020    6.845310   -1.860610
  H      7.239830    6.275300    0.149460
  H      8.716600    4.155190   -1.497490
  H      8.712740    4.876230    1.492990
  H     10.049040    3.169200    2.931760
  H     11.261370    0.908770    2.715730
  H     12.225500   -1.121840    1.964790
  H     12.975050   -3.176960    0.605940
  H     12.902360   -4.135580   -1.772960
  H     10.842360   -2.243970   -6.702090
  H     12.073170   -5.296000   -7.535540

 Total Charge           Charge          ....    0
 Multiplicity           Mult            ....    1
 Number of Electrons    NEL             ....  402
 Basis Dimension        Dim             ....  903

ORBITAL ENERGIES
----------------

  NO   OCC          E(Eh)            E(eV)
   0   2.0000     -88.974548     -2421.1205
   1   2.0000     -88.949310     -2420.4338
   2   2.0000     -88.948448     -2420.4103
   3   2.0000     -88.948184     -2420.4031
   4   2.0000     -88.930126     -2419.9118
   5   2.0000     -19.307584      -525.3861
   6   2.0000     -19.242087      -523.6038
   7   2.0000     -19.239648      -523.5374
   8   2.0000     -14.653581      -398.7442
   9   2.0000     -14.391170      -391.6036
  10   2.0000     -14.391029      -391.5998
  11   2.0000     -10.385307      -282.5986
  12   2.0000     -10.344235      -281.4809
  13   2.0000     -10.331779      -281.1420
  14   2.0000     -10.316483      -280.7258
  15   2.0000     -10.314848      -280.6813
  16   2.0000     -10.314412      -280.6694
  17   2.0000     -10.312496      -280.6173
  18   2.0000     -10.311203      -280.5821
  19   2.0000     -10.310836      -280.5721
  20   2.0000     -10.310255      -280.5563
  21   2.0000     -10.309047      -280.5234
  22   2.0000     -10.307321      -280.4765
  23   2.0000     -10.296415      -280.1797
  24   2.0000     -10.294942      -280.1396
  25   2.0000     -10.291026      -280.0331
  26   2.0000     -10.290574      -280.0207
  27   2.0000     -10.289116      -279.9811
  28   2.0000     -10.287830      -279.9461
  29   2.0000     -10.287707      -279.9427
  30   2.0000     -10.286855      -279.9196
  31   2.0000     -10.281376      -279.7705
  32   2.0000     -10.278364      -279.6885
  33   2.0000     -10.277101      -279.6541
  34   2.0000     -10.276859      -279.6475
  35   2.0000     -10.276653      -279.6419
  36   2.0000     -10.276541      -279.6389
  37   2.0000     -10.275700      -279.6160
  38   2.0000     -10.274872      -279.5935
  39   2.0000     -10.268866      -279.4300
  40   2.0000     -10.268147      -279.4105
  41   2.0000     -10.267962      -279.4055
  42   2.0000     -10.267689      -279.3980
  43   2.0000     -10.264972      -279.3241
  44   2.0000     -10.260476      -279.2017
  45   2.0000     -10.258342      -279.1437
  46   2.0000     -10.257339      -279.1164
  47   2.0000     -10.252244      -278.9777
  48   2.0000     -10.247736      -278.8551
  49   2.0000     -10.245543      -278.7954
  50   2.0000     -10.244197      -278.7588
  51   2.0000     -10.244033      -278.7543
  52   2.0000      -8.069137      -219.5724
  53   2.0000      -8.045525      -218.9299
  54   2.0000      -8.044391      -218.8990
  55   2.0000      -8.044077      -218.8905
  56   2.0000      -8.025439      -218.3833
  57   2.0000      -6.038468      -164.3151
  58   2.0000      -6.034046      -164.1947
  59   2.0000      -6.031549      -164.1268
  60   2.0000      -6.015311      -163.6849
  61   2.0000      -6.013801      -163.6438
  62   2.0000      -6.013615      -163.6388
  63   2.0000      -6.011218      -163.5736
  64   2.0000      -6.009866      -163.5368
  65   2.0000      -6.009444      -163.5253
  66   2.0000      -6.006662      -163.4496
  67   2.0000      -6.006353      -163.4412
  68   2.0000      -6.004989      -163.4040
  69   2.0000      -5.994612      -163.1217
  70   2.0000      -5.990406      -163.0072
  71   2.0000      -5.987877      -162.9384
  72   2.0000      -1.324773       -36.0489
  73   2.0000      -1.227397       -33.3992
  74   2.0000      -1.140931       -31.0463
  75   2.0000      -1.067872       -29.0583
  76   2.0000      -1.000479       -27.2244
  77   2.0000      -0.993100       -27.0236
  78   2.0000      -0.982006       -26.7217
  79   2.0000      -0.974870       -26.5276
  80   2.0000      -0.967705       -26.3326
  81   2.0000      -0.963732       -26.2245
  82   2.0000      -0.933960       -25.4143
  83   2.0000      -0.918291       -24.9880
  84   2.0000      -0.905543       -24.6411
  85   2.0000      -0.900430       -24.5020
  86   2.0000      -0.893860       -24.3232
  87   2.0000      -0.887513       -24.1505
  88   2.0000      -0.875259       -23.8170
  89   2.0000      -0.872322       -23.7371
  90   2.0000      -0.860143       -23.4057
  91   2.0000      -0.855987       -23.2926
  92   2.0000      -0.847452       -23.0604
  93   2.0000      -0.835922       -22.7466
  94   2.0000      -0.829476       -22.5712
  95   2.0000      -0.819884       -22.3102
  96   2.0000      -0.809753       -22.0345
  97   2.0000      -0.802376       -21.8337
  98   2.0000      -0.798395       -21.7254
  99   2.0000      -0.783105       -21.3094
 100   2.0000      -0.774811       -21.0837
 101   2.0000      -0.770238       -20.9592
 102   2.0000      -0.761306       -20.7162
 103   2.0000      -0.737948       -20.0806
 104   2.0000      -0.729040       -19.8382
 105   2.0000      -0.718262       -19.5449
 106   2.0000      -0.707262       -19.2456
 107   2.0000      -0.705182       -19.1890
 108   2.0000      -0.699502       -19.0344
 109   2.0000      -0.686904       -18.6916
 110   2.0000      -0.675610       -18.3843
 111   2.0000      -0.672834       -18.3087
 112   2.0000      -0.651603       -17.7310
 113   2.0000      -0.645183       -17.5563
 114   2.0000      -0.642465       -17.4824
 115   2.0000      -0.638678       -17.3793
 116   2.0000      -0.638045       -17.3621
 117   2.0000      -0.635984       -17.3060
 118   2.0000      -0.629538       -17.1306
 119   2.0000      -0.625708       -17.0264
 120   2.0000      -0.622423       -16.9370
 121   2.0000      -0.620622       -16.8880
 122   2.0000      -0.608546       -16.5594
 123   2.0000      -0.606883       -16.5141
 124   2.0000      -0.599821       -16.3220
 125   2.0000      -0.594288       -16.1714
 126   2.0000      -0.587491       -15.9864
 127   2.0000      -0.583079       -15.8664
 128   2.0000      -0.574173       -15.6240
 129   2.0000      -0.570333       -15.5195
 130   2.0000      -0.565672       -15.3927
 131   2.0000      -0.564392       -15.3579
 132   2.0000      -0.555728       -15.1221
 133   2.0000      -0.553066       -15.0497
 134   2.0000      -0.550865       -14.9898
 135   2.0000      -0.541446       -14.7335
 136   2.0000      -0.525955       -14.3120
 137   2.0000      -0.524700       -14.2778
 138   2.0000      -0.519529       -14.1371
 139   2.0000      -0.517782       -14.0896
 140   2.0000      -0.512932       -13.9576
 141   2.0000      -0.512120       -13.9355
 142   2.0000      -0.508409       -13.8345
 143   2.0000      -0.505061       -13.7434
 144   2.0000      -0.503761       -13.7080
 145   2.0000      -0.501915       -13.6578
 146   2.0000      -0.498547       -13.5662
 147   2.0000      -0.496285       -13.5046
 148   2.0000      -0.492834       -13.4107
 149   2.0000      -0.489941       -13.3320
 150   2.0000      -0.489068       -13.3082
 151   2.0000      -0.485673       -13.2158
 152   2.0000      -0.481924       -13.1138
 153   2.0000      -0.474647       -12.9158
 154   2.0000      -0.473214       -12.8768
 155   2.0000      -0.467890       -12.7319
 156   2.0000      -0.467442       -12.7198
 157   2.0000      -0.460245       -12.5239
 158   2.0000      -0.457665       -12.4537
 159   2.0000      -0.456121       -12.4117
 160   2.0000      -0.454713       -12.3734
 161   2.0000      -0.452646       -12.3171
 162   2.0000      -0.449382       -12.2283
 163   2.0000      -0.444398       -12.0927
 164   2.0000      -0.443840       -12.0775
 165   2.0000      -0.442373       -12.0376
 166   2.0000      -0.439364       -11.9557
 167   2.0000      -0.431398       -11.7389
 168   2.0000      -0.430048       -11.7022
 169   2.0000      -0.427776       -11.6404
 170   2.0000      -0.422120       -11.4865
 171   2.0000      -0.416910       -11.3447
 172   2.0000      -0.413325       -11.2471
 173   2.0000      -0.406613       -11.0645
 174   2.0000      -0.404062       -10.9951
 175   2.0000      -0.399110       -10.8603
 176   2.0000      -0.396492       -10.7891
 177   2.0000      -0.394244       -10.7279
 178   2.0000      -0.391695       -10.6586
 179   2.0000      -0.387817       -10.5530
 180   2.0000      -0.383309       -10.4304
 181   2.0000      -0.381152       -10.3717
 182   2.0000      -0.380031       -10.3412
 183   2.0000      -0.377305       -10.2670
 184   2.0000      -0.369476       -10.0540
 185   2.0000      -0.363211        -9.8835
 186   2.0000      -0.357108        -9.7174
 187   2.0000      -0.350957        -9.5500
 188   2.0000      -0.344322        -9.3695
 189   2.0000      -0.341191        -9.2843
 190   2.0000      -0.331624        -9.0239
 191   2.0000      -0.327908        -8.9228
 192   2.0000      -0.321164        -8.7393
 193   2.0000      -0.313453        -8.5295
 194   2.0000      -0.307964        -8.3801
 195   2.0000      -0.296798        -8.0763
 196   2.0000      -0.285081        -7.7574
 197   2.0000      -0.276678        -7.5288
 198   2.0000      -0.266115        -7.2414
 199   2.0000      -0.255228        -6.9451
 200   2.0000      -0.209898        -5.7116
 201   0.0000      -0.086289        -2.3480
 202   0.0000      -0.060099        -1.6354
 203   0.0000      -0.040423        -1.1000
 204   0.0000      -0.017065        -0.4644
 205   0.0000      -0.004889        -0.1330

MULLIKEN ATOMIC CHARGES
-----------------------
   0 C :   -0.129277
   1 S :    0.157554
   2 C :   -0.116597
   3 C :   -0.081709
   4 C :   -0.029995
   5 C :    0.075520
   6 C :   -0.020154
   7 C :   -0.028313
   8 C :    0.033825
   9 C :    0.063398
  10 C :    0.138402
  11 C :   -0.076704
  12 N :   -0.091424
  13 C :    0.084363
  14 C :   -0.061895
  15 C :    0.072778
  16 N :   -0.082955
  17 C :   -0.039644
  18 C :    0.019849
  19 C :   -0.115419
  20 S :    0.110282
  21 C :   -0.123163
  22 C :   -0.067586
  23 C :    0.117503
  24 C :    0.106834
  25 C :   -0.031861
  26 C :   -0.000656
  27 C :    0.005537
  28 C :    0.007045
  29 C :   -0.002601
  30 C :   -0.029624
  31 C :    0.044033
  32 C :    0.028999
  33 C :   -0.049371
  34 S :    0.070512
  35 C :   -0.037419
  36 C :    0.028300
  37 C :    0.035554
  38 C :   -0.024473
  39 S :    0.060693
  40 C :   -0.014160
  41 C :   -0.189846
  42 S :    0.140296
  43 C :   -0.133156
  44 C :    0.127450
  45 C :    0.194504
  46 O :   -0.186140
  47 C :    0.235429
  48 N :    0.273574
  49 O :   -0.251605
  50 O :   -0.230513
  51 C :   -0.072287
  52 H :    0.008211
  53 H :   -0.003397
  54 H :   -0.008876
  55 H :    0.008773
  56 H :    0.012126
  57 H :   -0.000008
  58 H :   -0.005859
  59 H :   -0.005909
  60 H :   -0.020028
  61 H :    0.025182
  62 H :    0.017205
  63 H :    0.001720
  64 H :   -0.014296
  65 H :   -0.024588
  66 H :    0.026533
  67 H :    0.013492
  68 H :    0.007425
  69 H :    0.027695
  70 H :    0.030257
  71 H :   -0.007940
  72 H :    0.012755
  73 H :   -0.010216
  74 H :    0.007485
  75 H :   -0.013705
  76 H :   -0.011536
  77 H :   -0.012622
  78 H :   -0.012100
  79 H :   -0.008935
  80 H :    0.003915
  81 H :    0.031300
  82 H :    0.012250
Sum of atomic charges:   -0.0000000

LOEWDIN ATOMIC CHARGES
----------------------
   0 C :   -0.182937
   1 S :    0.460779
   2 C :   -0.208824
   3 C :   -0.031058
   4 C :   -0.069910
   5 C :   -0.024554
   6 C :   -0.006437
   7 C :   -0.069595
   8 C :   -0.022660
   9 C :   -0.029713
  10 C :   -0.028883
  11 C :    0.021168
  12 N :   -0.113461
  13 C :    0.050134
  14 C :   -0.082248
  15 C :    0.040297
  16 N :   -0.094426
  17 C :   -0.062309
  18 C :    0.000883
  19 C :   -0.172476
  20 S :    0.427678
  21 C :   -0.185816
  22 C :   -0.059525
  23 C :   -0.044182
  24 C :   -0.051746
  25 C :   -0.015023
  26 C :   -0.024155
  27 C :   -0.026353
  28 C :   -0.023529
  29 C :   -0.051091
  30 C :   -0.142498
  31 C :   -0.029417
  32 C :   -0.030253
  33 C :   -0.175215
  34 S :    0.375234
  35 C :   -0.179296
  36 C :   -0.034153
  37 C :   -0.031214
  38 C :   -0.150863
  39 S :    0.361188
  40 C :   -0.071412
  41 C :   -0.203179
  42 S :    0.472420
  43 C :   -0.191707
  44 C :   -0.084344
  45 C :    0.019271
  46 O :    0.000535
  47 C :    0.024813
  48 N :    0.272288
  49 O :   -0.212067
  50 O :   -0.192882
  51 C :   -0.009040
  52 H :    0.019872
  53 H :    0.031462
  54 H :    0.022413
  55 H :    0.019015
  56 H :    0.020142
  57 H :    0.019943
  58 H :    0.018021
  59 H :    0.019963
  60 H :    0.014825
  61 H :    0.031417
  62 H :    0.031824
  63 H :    0.024676
  64 H :    0.029848
  65 H :    0.020413
  66 H :    0.042982
  67 H :    0.021031
  68 H :    0.032462
  69 H :    0.034710
  70 H :    0.036609
  71 H :    0.026108
  72 H :    0.035270
  73 H :    0.029231
  74 H :    0.020044
  75 H :    0.033386
  76 H :    0.034671
  77 H :    0.032614
  78 H :    0.032718
  79 H :    0.034973
  80 H :    0.046073
  81 H :    0.028355
  82 H :    0.046695

  Mayer bond orders larger than 0.100000
B(  0-C ,  1-S ) :   1.1692 B(  0-C ,  4-C ) :   1.5604 B(  0-C , 52-H ) :   0.9636
B(  1-S ,  2-C ) :   1.1402 B(  2-C ,  3-C ) :   1.5517 B(  2-C , 11-C ) :   1.0235
B(  3-C ,  4-C ) :   1.3115 B(  3-C , 10-C ) :   1.0569 B(  4-C ,  5-C ) :   0.9429
B(  5-C ,  6-C ) :   1.0182 B(  5-C ,  8-C ) :   1.0593 B(  5-C , 53-H ) :   0.8951
B(  6-C ,  7-C ) :   2.0069 B(  6-C , 54-H ) :   0.9628 B(  7-C , 55-H ) :   0.9573
B(  7-C , 56-H ) :   0.9503 B(  8-C ,  9-C ) :   1.0723 B(  8-C , 57-H ) :   0.9296
B(  8-C , 58-H ) :   0.9355 B(  9-C , 10-C ) :   1.0731 B(  9-C , 59-H ) :   0.9362
B(  9-C , 60-H ) :   0.9246 B( 10-C , 61-H ) :   0.8990 B( 10-C , 62-H ) :   0.9048
B( 11-C , 12-N ) :   1.5763 B( 11-C , 16-N ) :   1.5683 B( 12-N , 13-C ) :   1.5543
B( 13-C , 14-C ) :   1.3675 B( 13-C , 63-H ) :   0.9789 B( 14-C , 15-C ) :   1.3295
B( 14-C , 64-H ) :   0.9765 B( 15-C , 16-N ) :   1.4904 B( 15-C , 17-C ) :   1.0775
B( 17-C , 18-C ) :   1.6929 B( 17-C , 65-H ) :   0.9800 B( 18-C , 19-C ) :   1.1293
B( 18-C , 66-H ) :   0.9610 B( 19-C , 20-S ) :   1.1227 B( 19-C , 24-C ) :   1.4452
B( 20-S , 21-C ) :   1.1395 B( 21-C , 22-C ) :   1.6021 B( 21-C , 67-H ) :   0.9653
B( 22-C , 23-C ) :   1.0958 B( 22-C , 24-C ) :   1.2231 B( 23-C , 68-H ) :   0.9513
B( 23-C , 69-H ) :   0.9431 B( 23-C , 70-H ) :   0.9451 B( 24-C , 25-C ) :   1.1062
B( 25-C , 26-C ) :   1.6963 B( 25-C , 71-H ) :   0.9474 B( 26-C , 27-C ) :   1.1356
B( 26-C , 72-H ) :   0.9716 B( 27-C , 28-C ) :   1.6466 B( 27-C , 73-H ) :   0.9752
B( 28-C , 29-C ) :   1.1670 B( 28-C , 74-H ) :   0.9587 B( 29-C , 30-C ) :   1.5603
B( 29-C , 75-H ) :   0.9817 B( 30-C , 31-C ) :   1.1433 B( 30-C , 34-S ) :   1.0268
B( 31-C , 32-C ) :   1.5882 B( 31-C , 76-H ) :   0.9995 B( 32-C , 33-C ) :   1.1879
B( 32-C , 77-H ) :   0.9935 B( 33-C , 34-S ) :   1.0465 B( 33-C , 35-C ) :   1.5141
B( 35-C , 36-C ) :   1.1844 B( 35-C , 39-S ) :   1.0380 B( 36-C , 37-C ) :   1.5958
B( 36-C , 78-H ) :   0.9928 B( 37-C , 38-C ) :   1.1384 B( 37-C , 79-H ) :   0.9999
B( 38-C , 39-S ) :   1.0335 B( 38-C , 40-C ) :   1.5722 B( 40-C , 41-C ) :   1.1728
B( 40-C , 80-H ) :   0.9734 B( 41-C , 42-S ) :   1.1077 B( 41-C , 43-C ) :   0.1087
B( 41-C , 45-C ) :   1.4433 B( 42-S , 43-C ) :   1.1863 B( 43-C , 44-C ) :   1.4152
B( 43-C , 81-H ) :   0.9760 B( 44-C , 45-C ) :   1.2300 B( 44-C , 51-C ) :   1.0590
B( 45-C , 46-O ) :   1.1198 B( 46-O , 47-C ) :   1.1225 B( 47-C , 48-N ) :   0.9176
B( 47-C , 51-C ) :   1.5757 B( 48-N , 49-O ) :   1.5317 B( 48-N , 50-O ) :   1.5140
B( 49-O , 50-O ) :   0.2796 B( 51-C , 82-H ) :   1.0261

-----------------------------------------------------------------------------
         ABSORPTION SPECTRUM VIA TRANSITION ELECTRIC DIPOLE MOMENTS
-----------------------------------------------------------------------------
State   Energy  Wavelength   fosc         T2         TX        TY        TZ
        (cm-1)    (nm)                  (au**2)     (au)      (au)      (au)
-----------------------------------------------------------------------------
   0   13812.0    724.0   1.160034423  27.64969  -2.71233   4.38325   1.03926
   1   18889.5    529.4   0.165068914   2.87687  -1.10786   0.93897  -0.87628
   2   22271.2    449.0   0.059629088   0.88144  -0.60238   0.62436  -0.35881
   3   24116.8    414.6   0.552250764   7.53863  -1.54260  -1.19273  -1.93298
   4   25614.8    390.4   0.071166336   0.91466   0.36972  -0.12176   0.87358
   5   26796.1    373.2   0.027804644   0.34160   0.13187   0.42758   0.37602
   6   29385.0    340.3   0.637178234   7.13857  -0.09874   0.72271  -2.57031
   7   30064.1    332.6   0.008522514   0.09332  -0.21139   0.10515  -0.19387
   8   30467.5    328.2   0.075140224   0.81192   0.23860   0.63171   0.59660
   9   30885.3    323.8   0.110781726   1.18084   0.64110   0.34917  -0.80493
  10   31192.4    320.6   0.008461853   0.08931   0.17573  -0.07303  -0.23042
  11   31433.7    318.1   0.107395465   1.12478  -0.72338  -0.22032   0.74361
  12   32112.8    311.4   0.047422931   0.48617  -0.39744  -0.37314   0.43472
  13   32221.2    310.4   0.057566014   0.58817  -0.56694   0.51427  -0.04763
  14   32525.1    307.5   0.075161828   0.76077   0.58308  -0.03654  -0.64765
  15   32788.8    305.0   0.000004625   0.00005  -0.00268   0.00610   0.00141
  16   33182.6    301.4   0.208841381   2.07196   0.82921   0.40815  -1.10353
  17   34469.1    290.1   0.016631880   0.15885  -0.14038   0.25185   0.27517
  18   35260.5    283.6   0.090629635   0.84617  -0.06829  -0.90118   0.17139
  19   35928.1    278.3   0.032307001   0.29603  -0.13798  -0.52088   0.07536
  20   36266.3    275.7   0.233188167   2.11679   0.39675   0.32584  -1.36133
  21   36656.3    272.8   0.028966437   0.26015   0.19878  -0.09243  -0.46053
  22   36699.3    272.5   0.305567556   2.74110  -0.62249   1.52997   0.11315
  23   37074.3    269.7   0.023935786   0.21254  -0.17258  -0.12207   0.40971
  24   37358.4    267.7   0.063623173   0.56066  -0.04047  -0.55564   0.50029
  25   37587.2    266.0   0.087029429   0.76226   0.49006  -0.58147   0.42895
  26   37912.6    263.8   0.031708304   0.27534  -0.12584   0.46402  -0.21020
  27   38120.2    262.3   0.136297084   1.17708   0.06172  -0.80028   0.72995
  28   38423.0    260.3   0.045476076   0.38964   0.31411  -0.53334  -0.08082
  29   38623.3    258.9   0.102905354   0.87713  -0.77960   0.41381  -0.31324
  30   38896.1    257.1   0.118748898   1.00508  -0.29807   0.77159   0.56646

FINAL SINGLE POINT ENERGY     -3958.600652825623

DIPOLE MOMENT
-------------
                                X             Y             Z
Electronic contribution:     16.82224     -34.80850     -22.77093
Nuclear contribution   :    -16.40860      37.13137      22.95556
                        -----------------------------------------
Total Dipole Moment    :      0.41365       2.32287       0.18463
                        -----------------------------------------
Magnitude (a.u.)       :      2.36663
Magnitude (Debye)      :      6.01549

Rotational constants in cm-1:     0.001806     0.000641     0.000579
Rotational constants in MHz :    54.155395    19.209007    17.351380

                             ****ORCA TERMINATED NORMALLY****
TOTAL RUN TIME: 0 days 0 hours 6 minutes 42 seconds 923 msec
