                         Program Version 4.2.0 -  RELEASE  -
|  1> # ORCA input file
|  2> # SCF done       -197.705421125745          0.000547735343
|  3> ! CAM-B3LYP def2-SVP def2/J RIJCOSX Grid4 TightSCF
|  4> %maxcore 5000
|  5> %tddft
|  6>     Mode sTDDFT
|  7>     Ethresh 5.0
|  8>     maxcore 5000
|  9> end
| 10>
| 11> %pal
| 12>   nprocs 6
| 13>   end
| 14> * xyz 0 1
| 15>    C        2.55481        -1.09377        -4.48424
| 16>    S        1.59350        -1.97360        -3.38477
| 17>    C        3.25416        -1.91462        -5.34270
| 18>    C        4.17335        -1.52709        -6.34242
| 19>    C        4.84508        -2.46516        -7.07813
| 20>    O        5.75942        -2.15395        -8.04432
| 21>    C        5.99255        -0.79916        -8.33922
| 22>    C        4.62737        -3.86076        -6.81065
| 23>    O        5.28133        -4.89368        -7.39791
| 24>    C        5.93238        -4.75658        -8.64260
| 25>    C        3.72380        -4.24058        -5.84385
| 26>    C        2.98285        -3.30165        -5.11574
| 27>    C        2.03759        -3.50068        -4.09509
| 28>    C        1.43405        -4.68427        -3.59302
| 29>    C        1.21318        -5.86534        -4.34575
| 30>    C        0.70608        -7.07646        -3.74456
| 31>    N        0.58014        -8.17899        -4.48426
| 32>    C        0.84936        -8.13771        -5.77382
| 33>    C        1.23274        -6.90793        -6.38977
| 34>    N        1.41582        -5.82688        -5.66991
| 35>    C        1.43322        -6.83450        -7.79003
| 36>    N        1.60424        -6.80883        -8.92290
| 37>    C        0.73553        -9.32064        -6.53883
| 38>    N        0.65005       -10.26396        -7.18542
| 39>    C        0.34194        -7.15668        -2.36123
| 40>    C        0.38999        -5.91547        -1.67268
| 41>    C        0.91691        -4.71700        -2.27612
| 42>    N        0.85997        -3.67657        -1.44835
| 43>    S        0.19101        -4.13770        -0.05735
| 44>    N       -0.04260        -5.68562        -0.44123
| 45>    C       -0.00420        -8.40083        -1.82229
| 46>    C       -0.20797        -8.79407        -0.51217
| 47>    C       -0.44151       -10.13349        -0.11701
| 48>    C       -0.49092       -10.33534         1.23529
| 49>    C       -0.29548        -9.15524         1.97111
| 50>    S       -0.10761        -7.78201         0.90263
| 51>    C       -0.21793        -8.91731         3.33611
| 52>    C       -0.36419        -9.75799         4.45628
| 53>    C       -0.20379        -9.11586         5.65057
| 54>    C        0.08984        -7.72821         5.54914
| 55>    S        0.12575        -7.28667         3.84801
| 56>    C        0.38267        -6.87996         6.58422
| 57>    C        0.76436        -5.50426         6.50552
| 58>    C        0.56357        -4.72589         5.35032
| 59>    C        1.07809        -3.46068         5.27819
| 60>    C        1.77632        -2.89638         6.36120
| 61>    C        1.92130        -3.62453         7.53850
| 62>    C        1.41861        -4.90625         7.60131
| 63>    C        2.20064        -1.56827         5.98325
| 64>    C        1.76587        -1.31589         4.66729
| 65>    C        1.07379        -2.52692         4.08891
| 66>    C        1.93015        -3.20520         2.99086
| 67>    C        2.29157        -2.33141         1.79649
| 68>    C       -0.34204        -2.22047         3.58303
| 69>    C       -1.23646        -1.65446         4.68005
| 70>    C        1.99104        -0.09458         4.08669
| 71>    C        2.71613         0.89380         4.77408
| 72>    C        3.16179         0.61779         6.07433
| 73>    C        2.89686        -0.59100         6.68439
| 74>    C        2.98473         2.12353         4.07257
| 75>    C        3.73995         3.15912         4.49332
| 76>    C        4.04045         4.32238         3.72646
| 77>    S        4.47765         5.77423         4.58072
| 78>    C        4.04925         4.55372         2.34967
| 79>    C        3.86569         3.63129         1.29305
| 80>    C        3.91880         4.05053        -0.00537
| 81>    O        3.75755         3.25353        -1.09324
| 82>    C        3.49328         1.88789        -0.88924
| 83>    C        4.16951         5.43600        -0.32414
| 84>    O        4.16914         5.70749        -1.65447
| 85>    C        4.41988         7.02906        -2.06057
| 86>    C        4.40233         6.33567         0.67215
| 87>    C        4.36399         5.91412         2.02527
| 88>    C        4.61148         6.67943         3.14147
| 89>    H        2.57352        -0.02258        -4.44355
| 90>    H        4.34050        -0.47267        -6.48934
| 91>    H        5.07952        -0.29838        -8.67584
| 92>    H        6.72314        -0.79917        -9.14673
| 93>    H        6.40539        -0.26533        -7.47727
| 94>    H        6.86621        -4.19752        -8.55260
| 95>    H        5.28931        -4.27529        -9.38163
| 96>    H        6.14716        -5.77653        -8.96134
| 97>    H        3.61255        -5.29543        -5.66668
| 98>    H       -0.05075        -9.19757        -2.55561
| 99>    H       -0.55056       -10.91626        -0.84750
|100>    H       -0.64662       -11.29241         1.70139
|101>    H       -0.57941       -10.80725         4.35621
|102>    H       -0.27777        -9.59894         6.60938
|103>    H        0.40296        -7.32706         7.57096
|104>    H       -0.01764        -5.10699         4.52873
|105>    H        2.43211        -3.19750         8.38888
|106>    H        1.55241        -5.48634         8.50350
|107>    H        1.38471        -4.08673         2.64507
|108>    H        2.85543        -3.55434         3.45666
|109>    H        1.40775        -1.91474         1.32058
|110>    H        2.81720        -2.92993         1.05584
|111>    H        2.94774        -1.51937         2.09848
|112>    H       -0.78113        -3.14023         3.19056
|113>    H       -0.28314        -1.50211         2.76439
|114>    H       -1.33572        -2.36400         5.49850
|115>    H       -2.22749        -1.44260         4.28548
|116>    H       -0.81848        -0.73160         5.07658
|117>    H        1.61888         0.12380         3.09650
|118>    H        3.71334         1.37003         6.61689
|119>    H        3.23113        -0.77566         7.69473
|120>    H        2.51788         2.19232         3.10039
|121>    H        4.13894         3.16240         5.49915
|122>    H        3.72351         2.59091         1.52553
|123>    H        3.38697         1.45459        -1.88213
|124>    H        2.56415         1.73703        -0.32988
|125>    H        4.31616         1.39040        -0.36543
|126>    H        3.67000         7.72084        -1.66254
|127>    H        4.36169         7.01992        -3.14765
|128>    H        5.41709         7.36158        -1.75334
|129>    H        4.62461         7.37020         0.46761
|130>    H        4.86049         7.72067         3.18713
|131> *
|132>
|133>                          ****END OF INPUT****

CARTESIAN COORDINATES (ANGSTROEM)
---------------------------------
  C      2.554810   -1.093770   -4.484240
  S      1.593500   -1.973600   -3.384770
  C      3.254160   -1.914620   -5.342700
  C      4.173350   -1.527090   -6.342420
  C      4.845080   -2.465160   -7.078130
  O      5.759420   -2.153950   -8.044320
  C      5.992550   -0.799160   -8.339220
  C      4.627370   -3.860760   -6.810650
  O      5.281330   -4.893680   -7.397910
  C      5.932380   -4.756580   -8.642600
  C      3.723800   -4.240580   -5.843850
  C      2.982850   -3.301650   -5.115740
  C      2.037590   -3.500680   -4.095090
  C      1.434050   -4.684270   -3.593020
  C      1.213180   -5.865340   -4.345750
  C      0.706080   -7.076460   -3.744560
  N      0.580140   -8.178990   -4.484260
  C      0.849360   -8.137710   -5.773820
  C      1.232740   -6.907930   -6.389770
  N      1.415820   -5.826880   -5.669910
  C      1.433220   -6.834500   -7.790030
  N      1.604240   -6.808830   -8.922900
  C      0.735530   -9.320640   -6.538830
  N      0.650050  -10.263960   -7.185420
  C      0.341940   -7.156680   -2.361230
  C      0.389990   -5.915470   -1.672680
  C      0.916910   -4.717000   -2.276120
  N      0.859970   -3.676570   -1.448350
  S      0.191010   -4.137700   -0.057350
  N     -0.042600   -5.685620   -0.441230
  C     -0.004200   -8.400830   -1.822290
  C     -0.207970   -8.794070   -0.512170
  C     -0.441510  -10.133490   -0.117010
  C     -0.490920  -10.335340    1.235290
  C     -0.295480   -9.155240    1.971110
  S     -0.107610   -7.782010    0.902630
  C     -0.217930   -8.917310    3.336110
  C     -0.364190   -9.757990    4.456280
  C     -0.203790   -9.115860    5.650570
  C      0.089840   -7.728210    5.549140
  S      0.125750   -7.286670    3.848010
  C      0.382670   -6.879960    6.584220
  C      0.764360   -5.504260    6.505520
  C      0.563570   -4.725890    5.350320
  C      1.078090   -3.460680    5.278190
  C      1.776320   -2.896380    6.361200
  C      1.921300   -3.624530    7.538500
  C      1.418610   -4.906250    7.601310
  C      2.200640   -1.568270    5.983250
  C      1.765870   -1.315890    4.667290
  C      1.073790   -2.526920    4.088910
  C      1.930150   -3.205200    2.990860
  C      2.291570   -2.331410    1.796490
  C     -0.342040   -2.220470    3.583030
  C     -1.236460   -1.654460    4.680050
  C      1.991040   -0.094580    4.086690
  C      2.716130    0.893800    4.774080
  C      3.161790    0.617790    6.074330
  C      2.896860   -0.591000    6.684390
  C      2.984730    2.123530    4.072570
  C      3.739950    3.159120    4.493320
  C      4.040450    4.322380    3.726460
  S      4.477650    5.774230    4.580720
  C      4.049250    4.553720    2.349670
  C      3.865690    3.631290    1.293050
  C      3.918800    4.050530   -0.005370
  O      3.757550    3.253530   -1.093240
  C      3.493280    1.887890   -0.889240
  C      4.169510    5.436000   -0.324140
  O      4.169140    5.707490   -1.654470
  C      4.419880    7.029060   -2.060570
  C      4.402330    6.335670    0.672150
  C      4.363990    5.914120    2.025270
  C      4.611480    6.679430    3.141470
  H      2.573520   -0.022580   -4.443550
  H      4.340500   -0.472670   -6.489340
  H      5.079520   -0.298380   -8.675840
  H      6.723140   -0.799170   -9.146730
  H      6.405390   -0.265330   -7.477270
  H      6.866210   -4.197520   -8.552600
  H      5.289310   -4.275290   -9.381630
  H      6.147160   -5.776530   -8.961340
  H      3.612550   -5.295430   -5.666680
  H     -0.050750   -9.197570   -2.555610
  H     -0.550560  -10.916260   -0.847500
  H     -0.646620  -11.292410    1.701390
  H     -0.579410  -10.807250    4.356210
  H     -0.277770   -9.598940    6.609380
  H      0.402960   -7.327060    7.570960
  H     -0.017640   -5.106990    4.528730
  H      2.432110   -3.197500    8.388880
  H      1.552410   -5.486340    8.503500
  H      1.384710   -4.086730    2.645070
  H      2.855430   -3.554340    3.456660
  H      1.407750   -1.914740    1.320580
  H      2.817200   -2.929930    1.055840
  H      2.947740   -1.519370    2.098480
  H     -0.781130   -3.140230    3.190560
  H     -0.283140   -1.502110    2.764390
  H     -1.335720   -2.364000    5.498500
  H     -2.227490   -1.442600    4.285480
  H     -0.818480   -0.731600    5.076580
  H      1.618880    0.123800    3.096500
  H      3.713340    1.370030    6.616890
  H      3.231130   -0.775660    7.694730
  H      2.517880    2.192320    3.100390
  H      4.138940    3.162400    5.499150
  H      3.723510    2.590910    1.525530
  H      3.386970    1.454590   -1.882130
  H      2.564150    1.737030   -0.329880
  H      4.316160    1.390400   -0.365430
  H      3.670000    7.720840   -1.662540
  H      4.361690    7.019920   -3.147650
  H      5.417090    7.361580   -1.753340
  H      4.624610    7.370200    0.467610
  H      4.860490    7.720670    3.187130

 Total Charge           Charge          ....    0
 Multiplicity           Mult            ....    1
 Number of Electrons    NEL             ....  550
 Basis Dimension        Dim             .... 1266

ORBITAL ENERGIES
----------------

  NO   OCC          E(Eh)            E(eV)
   0   2.0000     -89.029234     -2422.6086
   1   2.0000     -88.950403     -2420.4635
   2   2.0000     -88.950014     -2420.4529
   3   2.0000     -88.949489     -2420.4386
   4   2.0000     -88.944495     -2420.3028
   5   2.0000     -19.244580      -523.6716
   6   2.0000     -19.240836      -523.5698
   7   2.0000     -19.240001      -523.5470
   8   2.0000     -19.226506      -523.1798
   9   2.0000     -14.443730      -393.0339
  10   2.0000     -14.442259      -392.9938
  11   2.0000     -14.437304      -392.8590
  12   2.0000     -14.436709      -392.8428
  13   2.0000     -14.410524      -392.1303
  14   2.0000     -14.410047      -392.1173
  15   2.0000     -10.358489      -281.8688
  16   2.0000     -10.356180      -281.8060
  17   2.0000     -10.331394      -281.1315
  18   2.0000     -10.330278      -281.1011
  19   2.0000     -10.329519      -281.0805
  20   2.0000     -10.328701      -281.0582
  21   2.0000     -10.328640      -281.0566
  22   2.0000     -10.328052      -281.0406
  23   2.0000     -10.326908      -281.0095
  24   2.0000     -10.323921      -280.9282
  25   2.0000     -10.322375      -280.8861
  26   2.0000     -10.318704      -280.7862
  27   2.0000     -10.318518      -280.7812
  28   2.0000     -10.317791      -280.7614
  29   2.0000     -10.313158      -280.6353
  30   2.0000     -10.311240      -280.5831
  31   2.0000     -10.304946      -280.4118
  32   2.0000     -10.304879      -280.4100
  33   2.0000     -10.302306      -280.3400
  34   2.0000     -10.300061      -280.2789
  35   2.0000     -10.298684      -280.2414
  36   2.0000     -10.294934      -280.1394
  37   2.0000     -10.294515      -280.1280
  38   2.0000     -10.292183      -280.0646
  39   2.0000     -10.291094      -280.0349
  40   2.0000     -10.290993      -280.0322
  41   2.0000     -10.288966      -279.9770
  42   2.0000     -10.287365      -279.9334
  43   2.0000     -10.283741      -279.8348
  44   2.0000     -10.283401      -279.8256
  45   2.0000     -10.282897      -279.8118
  46   2.0000     -10.281709      -279.7795
  47   2.0000     -10.280959      -279.7591
  48   2.0000     -10.278955      -279.7046
  49   2.0000     -10.275634      -279.6142
  50   2.0000     -10.275569      -279.6125
  51   2.0000     -10.275226      -279.6031
  52   2.0000     -10.274198      -279.5751
  53   2.0000     -10.273189      -279.5477
  54   2.0000     -10.270822      -279.4833
  55   2.0000     -10.270668      -279.4791
  56   2.0000     -10.270106      -279.4638
  57   2.0000     -10.270004      -279.4610
  58   2.0000     -10.268911      -279.4313
  59   2.0000     -10.268846      -279.4295
  60   2.0000     -10.268531      -279.4209
  61   2.0000     -10.267320      -279.3880
  62   2.0000     -10.267081      -279.3815
  63   2.0000     -10.266757      -279.3726
  64   2.0000     -10.265556      -279.3400
  65   2.0000     -10.264998      -279.3248
  66   2.0000     -10.264877      -279.3215
  67   2.0000     -10.264854      -279.3209
  68   2.0000     -10.263116      -279.2736
  69   2.0000     -10.262810      -279.2652
  70   2.0000     -10.261653      -279.2338
  71   2.0000     -10.254318      -279.0342
  72   2.0000     -10.250572      -278.9323
  73   2.0000     -10.247293      -278.8430
  74   2.0000      -8.119743      -220.9494
  75   2.0000      -8.046271      -218.9502
  76   2.0000      -8.045637      -218.9329
  77   2.0000      -8.043806      -218.8831
  78   2.0000      -8.039282      -218.7600
  79   2.0000      -6.091087      -165.7469
  80   2.0000      -6.083401      -165.5378
  81   2.0000      -6.082031      -165.5005
  82   2.0000      -6.016011      -163.7040
  83   2.0000      -6.014664      -163.6673
  84   2.0000      -6.012970      -163.6212
  85   2.0000      -6.011761      -163.5883
  86   2.0000      -6.010457      -163.5528
  87   2.0000      -6.009026      -163.5139
  88   2.0000      -6.008462      -163.4986
  89   2.0000      -6.008390      -163.4966
  90   2.0000      -6.007368      -163.4688
  91   2.0000      -6.006772      -163.4526
  92   2.0000      -6.004624      -163.3941
  93   2.0000      -6.000478      -163.2813
  94   2.0000      -1.155956       -31.4552
  95   2.0000      -1.151967       -31.3466
  96   2.0000      -1.134243       -30.8643
  97   2.0000      -1.128634       -30.7117
  98   2.0000      -1.125332       -30.6218
  99   2.0000      -1.098945       -29.9038
 100   2.0000      -1.025513       -27.9056
 101   2.0000      -1.000355       -27.2210
 102   2.0000      -0.995134       -27.0790
 103   2.0000      -0.990780       -26.9605
 104   2.0000      -0.987599       -26.8739
 105   2.0000      -0.983903       -26.7734
 106   2.0000      -0.980673       -26.6855
 107   2.0000      -0.978936       -26.6382
 108   2.0000      -0.972127       -26.4529
 109   2.0000      -0.955475       -25.9998
 110   2.0000      -0.945762       -25.7355
 111   2.0000      -0.921694       -25.0806
 112   2.0000      -0.915682       -24.9170
 113   2.0000      -0.913189       -24.8491
 114   2.0000      -0.897940       -24.4342
 115   2.0000      -0.891498       -24.2589
 116   2.0000      -0.888497       -24.1772
 117   2.0000      -0.882053       -24.0019
 118   2.0000      -0.867134       -23.5959
 119   2.0000      -0.854147       -23.2425
 120   2.0000      -0.850747       -23.1500
 121   2.0000      -0.841086       -22.8871
 122   2.0000      -0.839180       -22.8353
 123   2.0000      -0.838693       -22.8220
 124   2.0000      -0.836304       -22.7570
 125   2.0000      -0.831977       -22.6392
 126   2.0000      -0.830232       -22.5918
 127   2.0000      -0.829430       -22.5699
 128   2.0000      -0.822891       -22.3920
 129   2.0000      -0.819722       -22.3058
 130   2.0000      -0.808707       -22.0060
 131   2.0000      -0.801970       -21.8227
 132   2.0000      -0.791425       -21.5358
 133   2.0000      -0.785962       -21.3871
 134   2.0000      -0.781499       -21.2657
 135   2.0000      -0.774454       -21.0740
 136   2.0000      -0.767909       -20.8959
 137   2.0000      -0.765249       -20.8235
 138   2.0000      -0.757630       -20.6162
 139   2.0000      -0.748009       -20.3544
 140   2.0000      -0.734809       -19.9952
 141   2.0000      -0.721775       -19.6405
 142   2.0000      -0.715528       -19.4705
 143   2.0000      -0.709666       -19.3110
 144   2.0000      -0.698825       -19.0160
 145   2.0000      -0.691340       -18.8123
 146   2.0000      -0.689111       -18.7517
 147   2.0000      -0.687536       -18.7088
 148   2.0000      -0.682556       -18.5733
 149   2.0000      -0.680478       -18.5167
 150   2.0000      -0.673405       -18.3243
 151   2.0000      -0.670620       -18.2485
 152   2.0000      -0.666382       -18.1332
 153   2.0000      -0.659486       -17.9455
 154   2.0000      -0.652856       -17.7651
 155   2.0000      -0.652195       -17.7471
 156   2.0000      -0.643805       -17.5188
 157   2.0000      -0.641355       -17.4521
 158   2.0000      -0.636479       -17.3195
 159   2.0000      -0.629816       -17.1382
 160   2.0000      -0.620049       -16.8724
 161   2.0000      -0.615451       -16.7473
 162   2.0000      -0.612001       -16.6534
 163   2.0000      -0.607753       -16.5378
 164   2.0000      -0.605470       -16.4757
 165   2.0000      -0.601647       -16.3716
 166   2.0000      -0.600506       -16.3406
 167   2.0000      -0.592196       -16.1145
 168   2.0000      -0.591099       -16.0846
 169   2.0000      -0.587262       -15.9802
 170   2.0000      -0.580859       -15.8060
 171   2.0000      -0.576623       -15.6907
 172   2.0000      -0.572771       -15.5859
 173   2.0000      -0.566425       -15.4132
 174   2.0000      -0.563286       -15.3278
 175   2.0000      -0.561210       -15.2713
 176   2.0000      -0.557291       -15.1647
 177   2.0000      -0.556746       -15.1498
 178   2.0000      -0.550204       -14.9718
 179   2.0000      -0.545789       -14.8517
 180   2.0000      -0.541479       -14.7344
 181   2.0000      -0.541301       -14.7296
 182   2.0000      -0.540773       -14.7152
 183   2.0000      -0.537646       -14.6301
 184   2.0000      -0.532958       -14.5025
 185   2.0000      -0.532023       -14.4771
 186   2.0000      -0.530398       -14.4329
 187   2.0000      -0.527908       -14.3651
 188   2.0000      -0.527259       -14.3474
 189   2.0000      -0.524867       -14.2824
 190   2.0000      -0.522814       -14.2265
 191   2.0000      -0.521022       -14.1777
 192   2.0000      -0.518741       -14.1157
 193   2.0000      -0.514637       -14.0040
 194   2.0000      -0.512420       -13.9437
 195   2.0000      -0.510639       -13.8952
 196   2.0000      -0.502279       -13.6677
 197   2.0000      -0.501528       -13.6473
 198   2.0000      -0.498763       -13.5720
 199   2.0000      -0.497725       -13.5438
 200   2.0000      -0.492144       -13.3919
 201   2.0000      -0.490800       -13.3553
 202   2.0000      -0.486595       -13.2409
 203   2.0000      -0.484486       -13.1835
 204   2.0000      -0.483765       -13.1639
 205   2.0000      -0.479607       -13.0508
 206   2.0000      -0.478928       -13.0323
 207   2.0000      -0.477791       -13.0013
 208   2.0000      -0.475036       -12.9264
 209   2.0000      -0.473403       -12.8820
 210   2.0000      -0.472981       -12.8705
 211   2.0000      -0.468591       -12.7510
 212   2.0000      -0.468473       -12.7478
 213   2.0000      -0.464124       -12.6295
 214   2.0000      -0.462672       -12.5899
 215   2.0000      -0.460588       -12.5332
 216   2.0000      -0.458129       -12.4663
 217   2.0000      -0.456554       -12.4235
 218   2.0000      -0.450261       -12.2522
 219   2.0000      -0.449623       -12.2349
 220   2.0000      -0.448994       -12.2177
 221   2.0000      -0.445086       -12.1114
 222   2.0000      -0.443478       -12.0676
 223   2.0000      -0.441718       -12.0197
 224   2.0000      -0.439284       -11.9535
 225   2.0000      -0.438241       -11.9251
 226   2.0000      -0.437085       -11.8937
 227   2.0000      -0.436422       -11.8757
 228   2.0000      -0.432400       -11.7662
 229   2.0000      -0.429122       -11.6770
 230   2.0000      -0.427206       -11.6249
 231   2.0000      -0.425487       -11.5781
 232   2.0000      -0.425067       -11.5667
 233   2.0000      -0.422428       -11.4949
 234   2.0000      -0.421958       -11.4821
 235   2.0000      -0.421558       -11.4712
 236   2.0000      -0.419652       -11.4193
 237   2.0000      -0.416362       -11.3298
 238   2.0000      -0.414547       -11.2804
 239   2.0000      -0.409870       -11.1531
 240   2.0000      -0.405458       -11.0331
 241   2.0000      -0.404785       -11.0147
 242   2.0000      -0.403199       -10.9716
 243   2.0000      -0.400628       -10.9017
 244   2.0000      -0.400404       -10.8956
 245   2.0000      -0.398324       -10.8389
 246   2.0000      -0.398195       -10.8354
 247   2.0000      -0.396679       -10.7942
 248   2.0000      -0.391750       -10.6601
 249   2.0000      -0.388490       -10.5713
 250   2.0000      -0.384883       -10.4732
 251   2.0000      -0.382416       -10.4061
 252   2.0000      -0.380464       -10.3530
 253   2.0000      -0.377019       -10.2592
 254   2.0000      -0.372164       -10.1271
 255   2.0000      -0.363016        -9.8782
 256   2.0000      -0.358485        -9.7549
 257   2.0000      -0.355720        -9.6796
 258   2.0000      -0.347699        -9.4614
 259   2.0000      -0.341577        -9.2948
 260   2.0000      -0.340838        -9.2747
 261   2.0000      -0.338209        -9.2031
 262   2.0000      -0.332845        -9.0572
 263   2.0000      -0.330117        -8.9829
 264   2.0000      -0.321047        -8.7361
 265   2.0000      -0.320557        -8.7228
 266   2.0000      -0.314351        -8.5539
 267   2.0000      -0.313863        -8.5407
 268   2.0000      -0.291072        -7.9205
 269   2.0000      -0.273320        -7.4374
 270   2.0000      -0.271012        -7.3746
 271   2.0000      -0.266981        -7.2649
 272   2.0000      -0.245827        -6.6893
 273   2.0000      -0.227585        -6.1929
 274   2.0000      -0.198400        -5.3987
 275   0.0000      -0.113505        -3.0886
 276   0.0000      -0.065564        -1.7841
 277   0.0000      -0.036749        -1.0000
 278   0.0000      -0.033403        -0.9090
 279   0.0000      -0.020893        -0.5685

MULLIKEN ATOMIC CHARGES
-----------------------
   0 C :   -0.122516
   1 S :    0.178643
   2 C :    0.089837
   3 C :   -0.145863
   4 C :    0.190517
   5 O :   -0.327908
   6 C :    0.181703
   7 C :    0.159317
   8 O :   -0.306812
   9 C :    0.207316
  10 C :   -0.080908
  11 C :    0.213650
  12 C :   -0.259468
  13 C :    0.139869
  14 C :   -0.103562
  15 C :   -0.051806
  16 N :    0.048704
  17 C :   -0.145846
  18 C :   -0.139524
  19 N :    0.040174
  20 C :   -0.199314
  21 N :    0.223956
  22 C :   -0.214614
  23 N :    0.219714
  24 C :    0.109630
  25 C :    0.029670
  26 C :   -0.013941
  27 N :   -0.309981
  28 S :    0.510185
  29 N :   -0.311629
  30 C :   -0.112667
  31 C :    0.017663
  32 C :    0.017762
  33 C :    0.044162
  34 C :   -0.030416
  35 S :    0.103595
  36 C :   -0.032504
  37 C :    0.030415
  38 C :    0.040657
  39 C :   -0.016756
  40 S :    0.048382
  41 C :   -0.011237
  42 C :    0.097110
  43 C :   -0.096496
  44 C :    0.003488
  45 C :    0.108240
  46 C :   -0.047510
  47 C :   -0.009884
  48 C :    0.095965
  49 C :    0.031321
  50 C :   -0.138622
  51 C :    0.080373
  52 C :    0.017770
  53 C :    0.052077
  54 C :    0.026411
  55 C :   -0.120486
  56 C :    0.131033
  57 C :   -0.017168
  58 C :   -0.043042
  59 C :   -0.034990
  60 C :    0.061546
  61 C :   -0.167945
  62 S :    0.130962
  63 C :    0.155965
  64 C :   -0.183435
  65 C :    0.220322
  66 O :   -0.296968
  67 C :    0.183091
  68 C :    0.213362
  69 O :   -0.296358
  70 C :    0.179238
  71 C :   -0.157463
  72 C :    0.103963
  73 C :   -0.137242
  74 H :    0.010759
  75 H :   -0.046078
  76 H :    0.025347
  77 H :    0.036796
  78 H :    0.023996
  79 H :    0.019152
  80 H :    0.017129
  81 H :    0.026594
  82 H :   -0.041016
  83 H :    0.001763
  84 H :   -0.004332
  85 H :   -0.015122
  86 H :   -0.010168
  87 H :   -0.008388
  88 H :   -0.016904
  89 H :   -0.013352
  90 H :   -0.034463
  91 H :   -0.027980
  92 H :   -0.010346
  93 H :    0.007322
  94 H :    0.000339
  95 H :    0.018284
  96 H :    0.025258
  97 H :   -0.004659
  98 H :    0.003754
  99 H :    0.020796
 100 H :    0.009164
 101 H :    0.021699
 102 H :   -0.044272
 103 H :   -0.030817
 104 H :   -0.038329
 105 H :   -0.022424
 106 H :   -0.021191
 107 H :   -0.045506
 108 H :    0.030088
 109 H :    0.017254
 110 H :    0.027215
 111 H :    0.020798
 112 H :    0.037195
 113 H :    0.019612
 114 H :   -0.045801
 115 H :    0.007959
Sum of atomic charges:   -0.0000000

LOEWDIN ATOMIC CHARGES
----------------------
   0 C :   -0.198278
   1 S :    0.502166
   2 C :   -0.056418
   3 C :   -0.075602
   4 C :    0.032646
   5 O :   -0.100365
   6 C :    0.077244
   7 C :    0.046426
   8 O :   -0.101396
   9 C :    0.077594
  10 C :   -0.037528
  11 C :   -0.032695
  12 C :   -0.183287
  13 C :   -0.062157
  14 C :   -0.013463
  15 C :   -0.009076
  16 N :   -0.002861
  17 C :   -0.046066
  18 C :   -0.033530
  19 N :    0.004617
  20 C :   -0.031738
  21 N :   -0.019733
  22 C :   -0.037260
  23 N :   -0.023951
  24 C :   -0.040184
  25 C :   -0.039500
  26 C :   -0.044179
  27 N :   -0.306398
  28 S :    0.661689
  29 N :   -0.286873
  30 C :   -0.041629
  31 C :   -0.134976
  32 C :   -0.034096
  33 C :   -0.027593
  34 C :   -0.197532
  35 S :    0.436751
  36 C :   -0.162242
  37 C :   -0.041524
  38 C :   -0.017822
  39 C :   -0.153685
  40 S :    0.399204
  41 C :   -0.024800
  42 C :   -0.035753
  43 C :   -0.030234
  44 C :    0.006052
  45 C :   -0.008332
  46 C :   -0.022803
  47 C :   -0.010589
  48 C :   -0.024449
  49 C :    0.004466
  50 C :   -0.034638
  51 C :   -0.010252
  52 C :   -0.066507
  53 C :   -0.016474
  54 C :   -0.055823
  55 C :   -0.026064
  56 C :   -0.017820
  57 C :   -0.018161
  58 C :   -0.015240
  59 C :   -0.037362
  60 C :   -0.034302
  61 C :   -0.192133
  62 S :    0.459102
  63 C :   -0.043164
  64 C :   -0.085378
  65 C :    0.048652
  66 O :   -0.090417
  67 C :    0.076920
  68 C :    0.043114
  69 O :   -0.091469
  70 C :    0.076293
  71 C :   -0.081436
  72 C :   -0.050718
  73 C :   -0.207547
  74 H :    0.019247
  75 H :    0.028121
  76 H :    0.016452
  77 H :    0.028452
  78 H :    0.015735
  79 H :    0.011245
  80 H :    0.014928
  81 H :    0.022274
  82 H :    0.026940
  83 H :    0.040263
  84 H :    0.035153
  85 H :    0.031291
  86 H :    0.033895
  87 H :    0.034504
  88 H :    0.034618
  89 H :    0.006171
  90 H :    0.027342
  91 H :    0.026368
  92 H :    0.009457
  93 H :    0.028548
  94 H :    0.009206
  95 H :    0.025488
  96 H :    0.026235
  97 H :    0.017460
  98 H :    0.018718
  99 H :    0.025286
 100 H :    0.023954
 101 H :    0.026269
 102 H :    0.021671
 103 H :    0.024833
 104 H :    0.026311
 105 H :    0.025052
 106 H :    0.023966
 107 H :    0.025774
 108 H :    0.026580
 109 H :    0.013530
 110 H :    0.016627
 111 H :    0.014428
 112 H :    0.028538
 113 H :    0.014015
 114 H :    0.027936
 115 H :    0.019683

  Mayer bond orders larger than 0.100000
B(  0-C ,  1-S ) :   1.1883 B(  0-C ,  2-C ) :   1.4062 B(  0-C , 12-C ) :   0.1032
B(  0-C , 74-H ) :   0.9685 B(  1-S , 12-C ) :   1.1648 B(  2-C ,  3-C ) :   1.1258
B(  2-C , 11-C ) :   1.2095 B(  3-C ,  4-C ) :   1.4604 B(  3-C , 75-H ) :   1.0049
B(  4-C ,  5-O ) :   1.1264 B(  4-C ,  7-C ) :   1.1564 B(  5-O ,  6-C ) :   0.9652
B(  6-C , 76-H ) :   0.9680 B(  6-C , 77-H ) :   0.9780 B(  6-C , 78-H ) :   0.9679
B(  7-C ,  8-O ) :   1.1810 B(  7-C , 10-C ) :   1.5295 B(  8-O ,  9-C ) :   0.9390
B(  9-C , 79-H ) :   0.9736 B(  9-C , 80-H ) :   0.9748 B(  9-C , 81-H ) :   0.9780
B( 10-C , 11-C ) :   1.1817 B( 10-C , 82-H ) :   0.9912 B( 11-C , 12-C ) :   1.3144
B( 12-C , 13-C ) :   1.1787 B( 13-C , 14-C ) :   1.2490 B( 13-C , 26-C ) :   1.1996
B( 14-C , 15-C ) :   1.0931 B( 14-C , 19-N ) :   1.4627 B( 15-C , 16-N ) :   1.4964
B( 15-C , 24-C ) :   1.1809 B( 16-N , 17-C ) :   1.6909 B( 17-C , 18-C ) :   1.2237
B( 17-C , 22-C ) :   1.1599 B( 18-C , 19-N ) :   1.7097 B( 18-C , 20-C ) :   1.1543
B( 20-C , 21-N ) :   3.0487 B( 22-C , 23-N ) :   3.0440 B( 24-C , 25-C ) :   1.1296
B( 24-C , 30-C ) :   1.3140 B( 25-C , 26-C ) :   1.1123 B( 25-C , 29-N ) :   1.4991
B( 26-C , 27-N ) :   1.5139 B( 27-N , 28-S ) :   1.2373 B( 27-N , 29-N ) :   0.1374
B( 28-S , 29-N ) :   1.2509 B( 30-C , 31-C ) :   1.4161 B( 30-C , 83-H ) :   0.9453
B( 31-C , 32-C ) :   1.1881 B( 31-C , 35-S ) :   1.0783 B( 32-C , 33-C ) :   1.5373
B( 32-C , 84-H ) :   1.0009 B( 33-C , 34-C ) :   1.2198 B( 33-C , 85-H ) :   0.9956
B( 34-C , 35-S ) :   1.0249 B( 34-C , 36-C ) :   1.4450 B( 36-C , 37-C ) :   1.2063
B( 36-C , 40-S ) :   1.0637 B( 37-C , 38-C ) :   1.5723 B( 37-C , 86-H ) :   0.9954
B( 38-C , 39-C ) :   1.1471 B( 38-C , 87-H ) :   0.9982 B( 39-C , 40-S ) :   1.0224
B( 39-C , 41-C ) :   1.5817 B( 41-C , 42-C ) :   1.1066 B( 41-C , 88-H ) :   0.9723
B( 42-C , 43-C ) :   1.2720 B( 42-C , 47-C ) :   1.3126 B( 43-C , 44-C ) :   1.4433
B( 43-C , 89-H ) :   0.9610 B( 44-C , 45-C ) :   1.3653 B( 44-C , 50-C ) :   0.9271
B( 45-C , 46-C ) :   1.3240 B( 45-C , 48-C ) :   1.0008 B( 46-C , 47-C ) :   1.4015
B( 46-C , 90-H ) :   0.9904 B( 47-C , 91-H ) :   0.9905 B( 48-C , 49-C ) :   1.3836
B( 48-C , 58-C ) :   1.3207 B( 49-C , 50-C ) :   0.9199 B( 49-C , 55-C ) :   1.3872
B( 50-C , 51-C ) :   1.0116 B( 50-C , 53-C ) :   1.0330 B( 51-C , 52-C ) :   1.1151
B( 51-C , 92-H ) :   0.9338 B( 51-C , 93-H ) :   0.9364 B( 52-C , 94-H ) :   0.9593
B( 52-C , 95-H ) :   0.9583 B( 52-C , 96-H ) :   0.9548 B( 53-C , 54-C ) :   1.1053
B( 53-C , 97-H ) :   0.9387 B( 53-C , 98-H ) :   0.9368 B( 54-C , 99-H ) :   0.9634
B( 54-C ,100-H ) :   0.9645 B( 54-C ,101-H ) :   0.9649 B( 55-C , 56-C ) :   1.2776
B( 55-C ,102-H ) :   1.0052 B( 56-C , 57-C ) :   1.3461 B( 56-C , 59-C ) :   1.0786
B( 57-C , 58-C ) :   1.4037 B( 57-C ,103-H ) :   0.9836 B( 58-C ,104-H ) :   0.9891
B( 59-C , 60-C ) :   1.6936 B( 59-C ,105-H ) :   0.9784 B( 60-C , 61-C ) :   1.1174
B( 60-C ,106-H ) :   0.9459 B( 61-C , 62-S ) :   1.1525 B( 61-C , 63-C ) :   1.3879
B( 61-C , 73-C ) :   0.1040 B( 62-S , 73-C ) :   1.1831 B( 63-C , 64-C ) :   1.1323
B( 63-C , 72-C ) :   1.2092 B( 64-C , 65-C ) :   1.4993 B( 64-C ,107-H ) :   0.9946
B( 65-C , 66-O ) :   1.1793 B( 65-C , 68-C ) :   1.1769 B( 66-O , 67-C ) :   0.9695
B( 67-C ,108-H ) :   0.9768 B( 67-C ,109-H ) :   0.9671 B( 67-C ,110-H ) :   0.9666
B( 68-C , 69-O ) :   1.1824 B( 68-C , 71-C ) :   1.5029 B( 69-O , 70-C ) :   0.9728
B( 70-C ,111-H ) :   0.9675 B( 70-C ,112-H ) :   0.9789 B( 70-C ,113-H ) :   0.9680
B( 71-C , 72-C ) :   1.1063 B( 71-C ,114-H ) :   1.0138 B( 72-C , 73-C ) :   1.4393
B( 73-C ,115-H ) :   0.9694

-----------------------------------------------------------------------------
         ABSORPTION SPECTRUM VIA TRANSITION ELECTRIC DIPOLE MOMENTS
-----------------------------------------------------------------------------
State   Energy  Wavelength   fosc         T2         TX        TY        TZ
        (cm-1)    (nm)                  (au**2)     (au)      (au)      (au)
-----------------------------------------------------------------------------
   0    4063.8   2460.7   0.169670499  13.74498   0.69750   0.90678  -3.52650
   1   13126.6    761.8   0.250258178   6.27641  -1.04685  -2.05548  -0.97752
   2   14581.1    685.8   0.434285833   9.80529   0.35543   1.58491   2.67713
   3   15828.8    631.8   0.131426688   2.73344  -0.05138  -0.87052   1.40463
   4   18604.9    537.5   0.043389725   0.76778   0.23452  -0.46914  -0.70192
   5   20342.4    491.6   0.095716774   1.54903  -0.50919  -1.12879  -0.12488
   6   20781.1    481.2   0.046818644   0.74169  -0.19409  -0.62182  -0.56335
   7   21141.0    473.0   0.089360949   1.39154   0.20661   0.94894   0.66960
   8   23470.7    426.1   1.446259943  20.28600   1.52387   3.94508  -1.54925
   9   23911.1    418.2   0.328855317   4.52773   0.51854   1.80633  -0.99801
  10   25244.9    396.1   0.044561795   0.58112   0.21915   0.43400  -0.58714
  11   25493.9    392.3   0.003122333   0.04032  -0.04558  -0.10098  -0.16747
  12   25971.7    385.0   0.087642572   1.11094  -0.36539  -0.15652  -0.97618
  13   26391.6    378.9   0.018566396   0.23160  -0.17855  -0.28756   0.34209
  14   26550.0    376.6   0.025747343   0.31926  -0.17641  -0.36117   0.39711
  15   27235.6    367.2   0.010514159   0.12709   0.20015  -0.18829  -0.22711
  16   28367.0    352.5   0.192729523   2.23671   0.45988   1.26765  -0.64674
  17   28784.3    347.4   0.014361436   0.16425  -0.14927  -0.27552   0.25703
  18   28899.6    346.0   0.012906464   0.14703  -0.03340  -0.01013  -0.38185
  19   29487.8    339.1   0.053389849   0.59606   0.42284   0.61897  -0.18480
  20   29957.0    333.8   0.040778735   0.44814  -0.02530  -0.08148  -0.66397
  21   30526.1    327.6   0.041209627   0.44443   0.04643   0.66450  -0.02674
  22   31073.2    321.8   0.151476055   1.60485   0.09034  -0.83012  -0.95267
  23   31465.2    317.8   0.079828465   0.83522   0.13938   0.82796   0.36093
  24   31829.5    314.2   0.223947089   2.31628   0.13459   1.13239   1.00790
  25   31918.6    313.3   0.005254738   0.05420  -0.03666   0.19985  -0.11363
  26   32390.2    308.7   0.010696141   0.10872  -0.13077   0.23009   0.19665
  27   32662.9    306.2   0.197089638   1.98648  -0.19591  -0.13243   1.38945
  28   33165.1    301.5   0.006743266   0.06694  -0.04074  -0.25042   0.05065
  29   33439.6    299.0   0.094154348   0.92695  -0.17031  -0.53141  -0.78456
  30   33644.9    297.2   0.031921330   0.31235   0.20682   0.08346  -0.51245
  31   33676.6    296.9   0.045135800   0.44123  -0.00704  -0.54068  -0.38582
  32   33824.4    295.6   0.024302336   0.23653   0.15450   0.22395  -0.40313
  33   34338.1    291.2   0.219747679   2.10680  -0.32247   0.26222   1.39070
  34   34637.1    288.7   0.020878316   0.19844  -0.44421   0.03341   0.00155
  35   34721.2    288.0   0.110307117   1.04589  -0.30445   0.72608   0.65269
  36   35338.6    283.0   0.103444732   0.96368   0.22560   0.93847   0.17908
  37   35883.5    278.7   0.007006487   0.06428  -0.10383  -0.22223  -0.06413
  38   35949.2    278.2   0.032172257   0.29462   0.18697   0.47609  -0.18166
  39   36050.8    277.4   0.033469106   0.30564  -0.06971  -0.18332   0.51688
  40   36230.4    276.0   0.028044601   0.25483   0.00293   0.37282   0.34034
  41   36600.1    273.2   0.002142057   0.01927   0.10024  -0.01437  -0.09494
  42   36767.2    272.0   0.001272292   0.01139  -0.00974  -0.05839  -0.08882
  43   37020.1    270.1   0.067213130   0.59771   0.16461   0.30500  -0.69108
  44   37155.6    269.1   0.004569966   0.04049  -0.06866  -0.17061  -0.08166
  45   37330.8    267.9   0.006025216   0.05313  -0.01234  -0.16516   0.16033
  46   37621.2    265.8   0.102697295   0.89867  -0.32207  -0.37860  -0.80722
  47   37734.5    265.0   0.097463473   0.85031  -0.01806   0.37776   0.84100
  48   37829.1    264.3   0.040196543   0.34982   0.36414   0.46440  -0.03939
  49   38117.6    262.3   0.087390030   0.75477   0.13306  -0.31663  -0.79800
  50   38428.8    260.2   0.021937781   0.18794   0.14430   0.33670   0.23184
  51   38579.9    259.2   0.020790358   0.17741   0.05442   0.23151   0.34763
  52   38825.5    257.6   0.006645407   0.05635  -0.04070  -0.17198  -0.15847
  53   38997.7    256.4   0.108587255   0.91668  -0.11156   0.86357   0.39809
  54   39328.1    254.3   0.175055958   1.46538  -0.61955   0.07295   1.03741
  55   39783.9    251.4   0.010944135   0.09056   0.05801  -0.13214   0.26408
  56   39975.3    250.2   0.105383003   0.86787   0.09285  -0.36593  -0.85167

FINAL SINGLE POINT ENERGY     -4889.503661429587

DIPOLE MOMENT
-------------
                                X             Y             Z
Electronic contribution:    -20.55173     -50.66883     -23.45633
Nuclear contribution   :     21.20957      52.72185      26.74740
                        -----------------------------------------
Total Dipole Moment    :      0.65784       2.05303       3.29107
                        -----------------------------------------
Magnitude (a.u.)       :      3.93431
Magnitude (Debye)      :     10.00022

Rotational constants in cm-1:     0.000739     0.000564     0.000332
Rotational constants in MHz :    22.169214    16.911761     9.966149

                             ****ORCA TERMINATED NORMALLY****
TOTAL RUN TIME: 0 days 0 hours 15 minutes 28 seconds 132 msec
