                         Program Version 4.2.0 -  RELEASE  -
|  1> # ORCA input file
|  2> # SCF done       -144.928565942954          0.000358770322
|  3> ! CAM-B3LYP def2-SVP def2/J RIJCOSX Grid4 TightSCF
|  4> %maxcore 5000
|  5> %tddft
|  6>     Mode sTDDFT
|  7>     Ethresh 5.0
|  8>     maxcore 5000
|  9> end
| 10>
| 11> %pal
| 12>   nprocs 6
| 13>   end
| 14> * xyz 0 1
| 15>    C       -1.31459        -0.74889        -0.73120
| 16>    C       -2.50805        -0.46466        -1.35810
| 17>    C       -3.44470        -1.55209        -1.26353
| 18>    N       -4.70369        -1.48522        -1.72080
| 19>    C       -5.05370        -0.39233        -2.32874
| 20>    C       -4.20088         0.72204        -2.53314
| 21>    C       -2.93043         0.70203        -2.03770
| 22>    C       -2.91127        -2.64525        -0.57850
| 23>    S       -1.30336        -2.30717        -0.03926
| 24>    C       -3.53686        -3.88877        -0.31868
| 25>    O       -3.11513        -4.62127         0.74660
| 26>    C       -4.55523        -4.57106        -0.95455
| 27>    C       -5.43492        -4.59521        -2.13020
| 28>    O       -5.54384        -3.86194        -3.07490
| 29>    N       -6.15664        -5.78203        -1.96713
| 30>    C       -5.80691        -6.55403        -0.86361
| 31>    O       -6.29596        -7.61666        -0.57373
| 32>    C       -4.75460        -5.76879        -0.21983
| 33>    C       -3.84827        -5.77261         0.82574
| 34>    C       -3.59356        -6.71392         1.84472
| 35>    C       -2.66467        -6.49163         2.82074
| 36>    C       -2.31631        -7.39599         3.83123
| 37>    C       -1.37788        -7.10292         4.79349
| 38>    C       -0.87626        -7.94323         5.81603
| 39>    C        0.07862        -7.36481         6.59991
| 40>    C        0.36849        -6.02847         6.25008
| 41>    S       -0.60166        -5.53175         4.88399
| 42>    C        1.26001        -5.13859         6.82044
| 43>    C        2.19009        -5.33533         7.86365
| 44>    C        2.93432        -4.22863         8.14882
| 45>    C        2.61937        -3.09657         7.35681
| 46>    S        1.34330        -3.49521         6.22971
| 47>    C        3.18401        -1.84404         7.40774
| 48>    C        2.74354        -0.78738         6.59790
| 49>    O        1.69781        -0.99156         5.74335
| 50>    C        3.14276         0.53722         6.47279
| 51>    C        4.07949         1.54317         6.96241
| 52>    O        4.96519         1.48233         7.77752
| 53>    N        3.72713         2.69318         6.24975
| 54>    C        2.66860         2.54047         5.35885
| 55>    O        2.21994         3.41016         4.65474
| 56>    C        2.29170         1.13454         5.51189
| 57>    C        1.40178         0.16407         5.08523
| 58>    C        0.30316         0.22889         4.19559
| 59>    C       -0.50032        -0.84265         3.96108
| 60>    C       -1.68704        -0.90189         3.19494
| 61>    C       -2.35942         0.02564         2.38664
| 62>    C       -3.62756        -0.47843         1.92188
| 63>    N       -4.48400         0.23497         1.16243
| 64>    C       -4.11822         1.43458         0.82370
| 65>    C       -2.87902         2.01541         1.17637
| 66>    C       -1.99614         1.31704         1.95370
| 67>    C       -3.87666        -1.77075         2.34700
| 68>    S       -2.61559        -2.37432         3.30511
| 69>    H       -0.44712        -0.12425        -0.64849
| 70>    H       -6.07358        -0.36299        -2.68656
| 71>    H       -4.57682         1.58295        -3.06392
| 72>    H       -2.25518         1.53889        -2.14436
| 73>    H       -6.85538        -6.07857        -2.63339
| 74>    H       -4.17459        -7.62299         1.80843
| 75>    H       -2.14209        -5.54250         2.81048
| 76>    H       -2.78409        -8.37064         3.85118
| 77>    H       -1.22968        -8.95245         5.93384
| 78>    H        0.57289        -7.85728         7.41822
| 79>    H        2.29429        -6.28087         8.36540
| 80>    H        3.69789        -4.18409         8.90491
| 81>    H        3.98767        -1.63728         8.09613
| 82>    H        4.20751         3.57252         6.37502
| 83>    H        0.13059         1.20114         3.76612
| 84>    H       -0.24106        -1.76913         4.45978
| 85>    H       -4.82791         1.99272         0.22702
| 86>    H       -2.64066         3.00744         0.82649
| 87>    H       -1.04285         1.74534         2.21823
| 88>    H       -4.74735        -2.35750         2.13558
| 89> *
| 90>
| 91>                          ****END OF INPUT****

CARTESIAN COORDINATES (ANGSTROEM)
---------------------------------
  C     -1.314590   -0.748890   -0.731200
  C     -2.508050   -0.464660   -1.358100
  C     -3.444700   -1.552090   -1.263530
  N     -4.703690   -1.485220   -1.720800
  C     -5.053700   -0.392330   -2.328740
  C     -4.200880    0.722040   -2.533140
  C     -2.930430    0.702030   -2.037700
  C     -2.911270   -2.645250   -0.578500
  S     -1.303360   -2.307170   -0.039260
  C     -3.536860   -3.888770   -0.318680
  O     -3.115130   -4.621270    0.746600
  C     -4.555230   -4.571060   -0.954550
  C     -5.434920   -4.595210   -2.130200
  O     -5.543840   -3.861940   -3.074900
  N     -6.156640   -5.782030   -1.967130
  C     -5.806910   -6.554030   -0.863610
  O     -6.295960   -7.616660   -0.573730
  C     -4.754600   -5.768790   -0.219830
  C     -3.848270   -5.772610    0.825740
  C     -3.593560   -6.713920    1.844720
  C     -2.664670   -6.491630    2.820740
  C     -2.316310   -7.395990    3.831230
  C     -1.377880   -7.102920    4.793490
  C     -0.876260   -7.943230    5.816030
  C      0.078620   -7.364810    6.599910
  C      0.368490   -6.028470    6.250080
  S     -0.601660   -5.531750    4.883990
  C      1.260010   -5.138590    6.820440
  C      2.190090   -5.335330    7.863650
  C      2.934320   -4.228630    8.148820
  C      2.619370   -3.096570    7.356810
  S      1.343300   -3.495210    6.229710
  C      3.184010   -1.844040    7.407740
  C      2.743540   -0.787380    6.597900
  O      1.697810   -0.991560    5.743350
  C      3.142760    0.537220    6.472790
  C      4.079490    1.543170    6.962410
  O      4.965190    1.482330    7.777520
  N      3.727130    2.693180    6.249750
  C      2.668600    2.540470    5.358850
  O      2.219940    3.410160    4.654740
  C      2.291700    1.134540    5.511890
  C      1.401780    0.164070    5.085230
  C      0.303160    0.228890    4.195590
  C     -0.500320   -0.842650    3.961080
  C     -1.687040   -0.901890    3.194940
  C     -2.359420    0.025640    2.386640
  C     -3.627560   -0.478430    1.921880
  N     -4.484000    0.234970    1.162430
  C     -4.118220    1.434580    0.823700
  C     -2.879020    2.015410    1.176370
  C     -1.996140    1.317040    1.953700
  C     -3.876660   -1.770750    2.347000
  S     -2.615590   -2.374320    3.305110
  H     -0.447120   -0.124250   -0.648490
  H     -6.073580   -0.362990   -2.686560
  H     -4.576820    1.582950   -3.063920
  H     -2.255180    1.538890   -2.144360
  H     -6.855380   -6.078570   -2.633390
  H     -4.174590   -7.622990    1.808430
  H     -2.142090   -5.542500    2.810480
  H     -2.784090   -8.370640    3.851180
  H     -1.229680   -8.952450    5.933840
  H      0.572890   -7.857280    7.418220
  H      2.294290   -6.280870    8.365400
  H      3.697890   -4.184090    8.904910
  H      3.987670   -1.637280    8.096130
  H      4.207510    3.572520    6.375020
  H      0.130590    1.201140    3.766120
  H     -0.241060   -1.769130    4.459780
  H     -4.827910    1.992720    0.227020
  H     -2.640660    3.007440    0.826490
  H     -1.042850    1.745340    2.218230
  H     -4.747350   -2.357500    2.135580

 Total Charge           Charge          ....    0
 Multiplicity           Mult            ....    1
 Number of Electrons    NEL             ....  400
 Basis Dimension        Dim             ....  872

ORBITAL ENERGIES
----------------

  NO   OCC          E(Eh)            E(eV)
   0   2.0000     -88.976263     -2421.1672
   1   2.0000     -88.973918     -2421.1034
   2   2.0000     -88.952663     -2420.5250
   3   2.0000     -88.951269     -2420.4871
   4   2.0000     -19.303226      -525.2675
   5   2.0000     -19.303051      -525.2627
   6   2.0000     -19.200961      -522.4847
   7   2.0000     -19.199571      -522.4469
   8   2.0000     -19.196208      -522.3554
   9   2.0000     -19.190758      -522.2071
  10   2.0000     -14.444182      -393.0462
  11   2.0000     -14.438460      -392.8905
  12   2.0000     -14.402326      -391.9072
  13   2.0000     -14.396698      -391.7541
  14   2.0000     -10.390222      -282.7323
  15   2.0000     -10.389120      -282.7023
  16   2.0000     -10.385717      -282.6097
  17   2.0000     -10.381924      -282.5065
  18   2.0000     -10.358182      -281.8605
  19   2.0000     -10.354805      -281.7686
  20   2.0000     -10.354112      -281.7497
  21   2.0000     -10.350014      -281.6382
  22   2.0000     -10.320827      -280.8440
  23   2.0000     -10.319615      -280.8110
  24   2.0000     -10.316182      -280.7176
  25   2.0000     -10.312852      -280.6270
  26   2.0000     -10.308782      -280.5162
  27   2.0000     -10.306459      -280.4530
  28   2.0000     -10.306342      -280.4498
  29   2.0000     -10.305832      -280.4359
  30   2.0000     -10.305307      -280.4217
  31   2.0000     -10.305171      -280.4180
  32   2.0000     -10.302731      -280.3516
  33   2.0000     -10.297337      -280.2048
  34   2.0000     -10.297309      -280.2040
  35   2.0000     -10.296144      -280.1723
  36   2.0000     -10.295981      -280.1679
  37   2.0000     -10.295138      -280.1450
  38   2.0000     -10.294823      -280.1364
  39   2.0000     -10.292667      -280.0777
  40   2.0000     -10.291201      -280.0378
  41   2.0000     -10.289316      -279.9865
  42   2.0000     -10.289151      -279.9820
  43   2.0000     -10.288910      -279.9755
  44   2.0000     -10.288316      -279.9593
  45   2.0000     -10.287023      -279.9241
  46   2.0000     -10.286648      -279.9139
  47   2.0000     -10.284862      -279.8653
  48   2.0000     -10.281794      -279.7819
  49   2.0000     -10.280891      -279.7573
  50   2.0000     -10.280204      -279.7386
  51   2.0000     -10.279881      -279.7298
  52   2.0000     -10.279110      -279.7088
  53   2.0000     -10.277895      -279.6757
  54   2.0000      -8.070583      -219.6117
  55   2.0000      -8.068612      -219.5581
  56   2.0000      -8.049063      -219.0261
  57   2.0000      -8.046722      -218.9624
  58   2.0000      -6.039583      -164.3454
  59   2.0000      -6.037394      -164.2858
  60   2.0000      -6.035213      -164.2265
  61   2.0000      -6.033756      -164.1868
  62   2.0000      -6.033229      -164.1725
  63   2.0000      -6.031951      -164.1377
  64   2.0000      -6.018738      -163.7782
  65   2.0000      -6.016612      -163.7203
  66   2.0000      -6.014789      -163.6707
  67   2.0000      -6.012195      -163.6002
  68   2.0000      -6.009973      -163.5397
  69   2.0000      -6.007690      -163.4776
  70   2.0000      -1.220014       -33.1983
  71   2.0000      -1.218500       -33.1571
  72   2.0000      -1.144296       -31.1379
  73   2.0000      -1.138937       -30.9921
  74   2.0000      -1.123470       -30.5712
  75   2.0000      -1.117627       -30.4122
  76   2.0000      -1.044024       -28.4093
  77   2.0000      -1.038596       -28.2616
  78   2.0000      -1.031977       -28.0815
  79   2.0000      -1.026134       -27.9225
  80   2.0000      -1.004069       -27.3221
  81   2.0000      -0.982399       -26.7324
  82   2.0000      -0.980089       -26.6696
  83   2.0000      -0.975972       -26.5576
  84   2.0000      -0.928292       -25.2601
  85   2.0000      -0.923935       -25.1416
  86   2.0000      -0.913735       -24.8640
  87   2.0000      -0.911177       -24.7944
  88   2.0000      -0.903396       -24.5827
  89   2.0000      -0.901546       -24.5323
  90   2.0000      -0.891115       -24.2485
  91   2.0000      -0.880233       -23.9524
  92   2.0000      -0.862177       -23.4610
  93   2.0000      -0.847393       -23.0587
  94   2.0000      -0.841324       -22.8936
  95   2.0000      -0.837458       -22.7884
  96   2.0000      -0.836881       -22.7727
  97   2.0000      -0.826919       -22.5016
  98   2.0000      -0.812884       -22.1197
  99   2.0000      -0.795999       -21.6602
 100   2.0000      -0.777724       -21.1629
 101   2.0000      -0.763011       -20.7626
 102   2.0000      -0.756820       -20.5941
 103   2.0000      -0.753618       -20.5070
 104   2.0000      -0.750716       -20.4280
 105   2.0000      -0.739292       -20.1172
 106   2.0000      -0.727370       -19.7927
 107   2.0000      -0.724554       -19.7161
 108   2.0000      -0.721657       -19.6373
 109   2.0000      -0.703241       -19.1362
 110   2.0000      -0.693266       -18.8647
 111   2.0000      -0.691238       -18.8095
 112   2.0000      -0.684758       -18.6332
 113   2.0000      -0.677940       -18.4477
 114   2.0000      -0.677329       -18.4311
 115   2.0000      -0.662271       -18.0213
 116   2.0000      -0.651566       -17.7300
 117   2.0000      -0.645213       -17.5571
 118   2.0000      -0.631229       -17.1766
 119   2.0000      -0.626202       -17.0398
 120   2.0000      -0.620465       -16.8837
 121   2.0000      -0.612224       -16.6595
 122   2.0000      -0.603666       -16.4266
 123   2.0000      -0.597594       -16.2614
 124   2.0000      -0.586294       -15.9539
 125   2.0000      -0.582704       -15.8562
 126   2.0000      -0.582090       -15.8395
 127   2.0000      -0.578308       -15.7366
 128   2.0000      -0.577383       -15.7114
 129   2.0000      -0.577120       -15.7042
 130   2.0000      -0.574081       -15.6216
 131   2.0000      -0.571610       -15.5543
 132   2.0000      -0.563420       -15.3314
 133   2.0000      -0.561143       -15.2695
 134   2.0000      -0.557361       -15.1666
 135   2.0000      -0.556899       -15.1540
 136   2.0000      -0.546744       -14.8777
 137   2.0000      -0.543375       -14.7860
 138   2.0000      -0.536915       -14.6102
 139   2.0000      -0.535358       -14.5678
 140   2.0000      -0.533709       -14.5230
 141   2.0000      -0.526644       -14.3307
 142   2.0000      -0.524308       -14.2671
 143   2.0000      -0.520222       -14.1560
 144   2.0000      -0.514148       -13.9907
 145   2.0000      -0.511258       -13.9120
 146   2.0000      -0.506473       -13.7818
 147   2.0000      -0.505231       -13.7480
 148   2.0000      -0.504434       -13.7263
 149   2.0000      -0.501484       -13.6461
 150   2.0000      -0.499966       -13.6048
 151   2.0000      -0.498990       -13.5782
 152   2.0000      -0.496016       -13.4973
 153   2.0000      -0.491143       -13.3647
 154   2.0000      -0.490012       -13.3339
 155   2.0000      -0.486577       -13.2404
 156   2.0000      -0.484284       -13.1780
 157   2.0000      -0.483668       -13.1613
 158   2.0000      -0.475506       -12.9392
 159   2.0000      -0.473475       -12.8839
 160   2.0000      -0.470736       -12.8094
 161   2.0000      -0.467335       -12.7168
 162   2.0000      -0.465593       -12.6694
 163   2.0000      -0.462736       -12.5917
 164   2.0000      -0.460102       -12.5200
 165   2.0000      -0.457623       -12.4526
 166   2.0000      -0.453124       -12.3301
 167   2.0000      -0.452366       -12.3095
 168   2.0000      -0.448279       -12.1983
 169   2.0000      -0.440607       -11.9895
 170   2.0000      -0.433343       -11.7919
 171   2.0000      -0.430630       -11.7180
 172   2.0000      -0.427885       -11.6433
 173   2.0000      -0.424060       -11.5393
 174   2.0000      -0.423145       -11.5143
 175   2.0000      -0.408836       -11.1250
 176   2.0000      -0.401533       -10.9263
 177   2.0000      -0.396872       -10.7994
 178   2.0000      -0.382091       -10.3972
 179   2.0000      -0.376738       -10.2516
 180   2.0000      -0.370609       -10.0848
 181   2.0000      -0.362224        -9.8566
 182   2.0000      -0.359590        -9.7849
 183   2.0000      -0.355112        -9.6631
 184   2.0000      -0.352818        -9.6007
 185   2.0000      -0.348109        -9.4725
 186   2.0000      -0.346841        -9.4380
 187   2.0000      -0.345412        -9.3991
 188   2.0000      -0.335641        -9.1332
 189   2.0000      -0.333348        -9.0709
 190   2.0000      -0.329065        -8.9543
 191   2.0000      -0.327834        -8.9208
 192   2.0000      -0.324889        -8.8407
 193   2.0000      -0.319270        -8.6878
 194   2.0000      -0.315744        -8.5918
 195   2.0000      -0.313716        -8.5367
 196   2.0000      -0.292420        -7.9572
 197   2.0000      -0.267565        -7.2808
 198   2.0000      -0.243923        -6.6375
 199   2.0000      -0.212308        -5.7772
 200   0.0000      -0.097890        -2.6637
 201   0.0000      -0.064553        -1.7566
 202   0.0000      -0.053237        -1.4487
 203   0.0000      -0.037932        -1.0322
 204   0.0000      -0.017219        -0.4686

MULLIKEN ATOMIC CHARGES
-----------------------
   0 C :   -0.125381
   1 C :    0.068262
   2 C :    0.056481
   3 N :    0.009934
   4 C :    0.040989
   5 C :   -0.009270
   6 C :    0.047632
   7 C :   -0.200831
   8 S :    0.204934
   9 C :    0.100008
  10 O :   -0.230036
  11 C :   -0.043255
  12 C :    0.153973
  13 O :   -0.126625
  14 N :   -0.169122
  15 C :    0.155901
  16 O :   -0.152251
  17 C :   -0.037197
  18 C :    0.083196
  19 C :   -0.030105
  20 C :    0.011862
  21 C :    0.002620
  22 C :   -0.019277
  23 C :    0.040964
  24 C :    0.029036
  25 C :   -0.039706
  26 S :    0.065841
  27 C :   -0.036828
  28 C :    0.034978
  29 C :    0.023528
  30 C :    0.002093
  31 S :    0.082116
  32 C :   -0.042316
  33 C :    0.093777
  34 O :   -0.252418
  35 C :   -0.028072
  36 C :    0.153634
  37 O :   -0.150348
  38 N :   -0.168339
  39 C :    0.157970
  40 O :   -0.155345
  41 C :   -0.040216
  42 C :    0.092469
  43 C :   -0.049096
  44 C :    0.087281
  45 C :   -0.179973
  46 C :    0.147521
  47 C :   -0.018875
  48 N :   -0.030917
  49 C :    0.030925
  50 C :   -0.003596
  51 C :    0.006650
  52 C :   -0.080491
  53 S :    0.177396
  54 H :    0.022511
  55 H :    0.004456
  56 H :   -0.005017
  57 H :   -0.016132
  58 H :    0.133321
  59 H :    0.010325
  60 H :    0.014025
  61 H :   -0.009150
  62 H :   -0.007225
  63 H :   -0.008811
  64 H :   -0.011442
  65 H :   -0.004845
  66 H :    0.006626
  67 H :    0.134422
  68 H :   -0.005354
  69 H :   -0.005225
  70 H :    0.001307
  71 H :   -0.007700
  72 H :   -0.011574
  73 H :    0.023399
Sum of atomic charges:   -0.0000000

LOEWDIN ATOMIC CHARGES
----------------------
   0 C :   -0.179660
   1 C :   -0.073286
   2 C :   -0.016188
   3 N :   -0.042473
   4 C :    0.040854
   5 C :   -0.051436
   6 C :    0.017533
   7 C :   -0.217743
   8 S :    0.519280
   9 C :    0.058526
  10 O :    0.000423
  11 C :   -0.094259
  12 C :    0.085489
  13 O :   -0.146458
  14 N :   -0.008806
  15 C :    0.079750
  16 O :   -0.171034
  17 C :   -0.095055
  18 C :    0.057729
  19 C :   -0.034905
  20 C :   -0.020848
  21 C :   -0.048448
  22 C :   -0.139726
  23 C :   -0.027966
  24 C :   -0.029647
  25 C :   -0.168336
  26 S :    0.376283
  27 C :   -0.188061
  28 C :   -0.024436
  29 C :   -0.036239
  30 C :   -0.129571
  31 S :    0.400465
  32 C :   -0.080470
  33 C :    0.065944
  34 O :   -0.005231
  35 C :   -0.104225
  36 C :    0.082593
  37 O :   -0.168163
  38 N :   -0.009622
  39 C :    0.082364
  40 O :   -0.172479
  41 C :   -0.101939
  42 C :    0.071061
  43 C :   -0.059644
  44 C :   -0.020207
  45 C :   -0.193467
  46 C :   -0.060645
  47 C :   -0.042222
  48 N :   -0.060766
  49 C :    0.025357
  50 C :   -0.048997
  51 C :    0.012650
  52 C :   -0.181672
  53 S :    0.513528
  54 H :    0.025291
  55 H :    0.024205
  56 H :    0.031555
  57 H :    0.031404
  58 H :    0.091606
  59 H :    0.045447
  60 H :    0.018847
  61 H :    0.035553
  62 H :    0.035870
  63 H :    0.033986
  64 H :    0.032836
  65 H :    0.035890
  66 H :    0.049363
  67 H :    0.092226
  68 H :    0.038078
  69 H :    0.026879
  70 H :    0.019831
  71 H :    0.031875
  72 H :    0.032012
  73 H :    0.031745

  Mayer bond orders larger than 0.100000
B(  0-C ,  1-C ) :   1.3926 B(  0-C ,  7-C ) :   0.1288 B(  0-C ,  8-S ) :   1.2061
B(  0-C , 54-H ) :   0.9704 B(  1-C ,  2-C ) :   1.1868 B(  1-C ,  6-C ) :   1.1843
B(  2-C ,  3-N ) :   1.4302 B(  2-C ,  7-C ) :   1.3743 B(  3-N ,  4-C ) :   1.6980
B(  4-C ,  5-C ) :   1.1753 B(  4-C , 55-H ) :   0.9775 B(  5-C ,  6-C ) :   1.5849
B(  5-C , 56-H ) :   0.9736 B(  6-C , 57-H ) :   0.9897 B(  7-C ,  8-S ) :   1.1808
B(  7-C ,  9-C ) :   1.0988 B(  9-C , 10-O ) :   1.1687 B(  9-C , 11-C ) :   1.4813
B( 10-O , 18-C ) :   1.1176 B( 11-C , 12-C ) :   0.8662 B( 11-C , 17-C ) :   1.2557
B( 12-C , 13-O ) :   2.2736 B( 12-C , 14-N ) :   1.0666 B( 14-N , 15-C ) :   1.0872
B( 14-N , 58-H ) :   0.9154 B( 15-C , 16-O ) :   2.2622 B( 15-C , 17-C ) :   0.8817
B( 17-C , 18-C ) :   1.3828 B( 18-C , 19-C ) :   1.1973 B( 19-C , 20-C ) :   1.5730
B( 19-C , 59-H ) :   0.9700 B( 20-C , 21-C ) :   1.1573 B( 20-C , 60-H ) :   0.9737
B( 21-C , 22-C ) :   1.5395 B( 21-C , 61-H ) :   0.9876 B( 22-C , 23-C ) :   1.1557
B( 22-C , 26-S ) :   1.0375 B( 23-C , 24-C ) :   1.5739 B( 23-C , 62-H ) :   0.9987
B( 24-C , 25-C ) :   1.1984 B( 24-C , 63-H ) :   0.9954 B( 25-C , 26-S ) :   1.0557
B( 25-C , 27-C ) :   1.4889 B( 27-C , 28-C ) :   1.2005 B( 27-C , 31-S ) :   1.0253
B( 28-C , 29-C ) :   1.5770 B( 28-C , 64-H ) :   0.9955 B( 29-C , 30-C ) :   1.1508
B( 29-C , 65-H ) :   1.0018 B( 30-C , 31-S ) :   1.0651 B( 30-C , 32-C ) :   1.5091
B( 32-C , 33-C ) :   1.2370 B( 32-C , 66-H ) :   0.9683 B( 33-C , 34-O ) :   1.1040
B( 33-C , 35-C ) :   1.3521 B( 34-O , 42-C ) :   1.1253 B( 35-C , 36-C ) :   0.8955
B( 35-C , 41-C ) :   1.2833 B( 36-C , 37-O ) :   2.2654 B( 36-C , 38-N ) :   1.0661
B( 38-N , 39-C ) :   1.0861 B( 38-N , 67-H ) :   0.9148 B( 39-C , 40-O ) :   2.2555
B( 39-C , 41-C ) :   0.8837 B( 41-C , 42-C ) :   1.3746 B( 42-C , 43-C ) :   1.2199
B( 43-C , 44-C ) :   1.5936 B( 43-C , 68-H ) :   0.9553 B( 44-C , 45-C ) :   1.1608
B( 44-C , 69-H ) :   0.9535 B( 45-C , 46-C ) :   1.3061 B( 45-C , 52-C ) :   0.1066
B( 45-C , 53-S ) :   1.1750 B( 46-C , 47-C ) :   1.1863 B( 46-C , 51-C ) :   1.2148
B( 47-C , 48-N ) :   1.3410 B( 47-C , 52-C ) :   1.4046 B( 48-N , 49-C ) :   1.7153
B( 49-C , 50-C ) :   1.1847 B( 49-C , 70-H ) :   0.9732 B( 50-C , 51-C ) :   1.5766
B( 50-C , 71-H ) :   0.9727 B( 51-C , 72-H ) :   0.9911 B( 52-C , 53-S ) :   1.2236
B( 52-C , 73-H ) :   0.9624

-----------------------------------------------------------------------------
         ABSORPTION SPECTRUM VIA TRANSITION ELECTRIC DIPOLE MOMENTS
-----------------------------------------------------------------------------
State   Energy  Wavelength   fosc         T2         TX        TY        TZ
        (cm-1)    (nm)                  (au**2)     (au)      (au)      (au)
-----------------------------------------------------------------------------
   0   10593.8    943.9   0.366291034  11.38280  -1.73872  -2.26196  -1.80088
   1   16366.8    611.0   0.022205101   0.44665   0.29764   0.51753  -0.30036
   2   18608.2    537.4   0.935363186  16.54820  -2.61197   0.74431  -3.02849
   3   20591.0    485.6   0.310876057   4.97033  -0.28975  -2.12219   0.61862
   4   21808.4    458.5   0.043160631   0.65154   0.38895  -0.33851   0.62102
   5   22919.1    436.3   0.550591258   7.90873   1.96988   0.34771   1.97671
   6   23867.5    419.0   0.754817446  10.41143  -1.62481  -2.78644   0.08485
   7   25394.4    393.8   0.078929309   1.02324   0.73311   0.69495  -0.05318
   8   27109.1    368.9   0.115589858   1.40372  -0.92446   0.25422  -0.69604
   9   27622.0    362.0   0.222511755   2.65200   1.08178  -0.51030   1.10515
  10   28472.2    351.2   0.162471815   1.87859  -0.72361  -1.10838   0.35563
  11   30135.8    331.8   0.087706855   0.95813   0.64875   0.56601   0.46571
  12   30349.6    329.5   0.072473117   0.78614   0.60593   0.55721   0.32941
  13   30640.9    326.4   0.044859990   0.48198   0.51827   0.45390   0.08577
  14   31050.0    322.1   0.027946729   0.29631   0.18508   0.47220   0.19770
  15   31277.4    319.7   0.071536492   0.75296   0.47598  -0.36426   0.62747
  16   31872.7    313.7   0.040084740   0.41403  -0.01563  -0.47461   0.43421
  17   32051.7    312.0   0.080182605   0.82358   0.60020   0.52430   0.43410
  18   32731.6    305.5   0.034781839   0.34983  -0.47477   0.04126  -0.35032
  19   33212.2    301.1   0.003927973   0.03894   0.01730   0.16586   0.10548
  20   33241.3    300.8   0.000984486   0.00975  -0.03917   0.08784  -0.02237
  21   33497.5    298.5   0.004796967   0.04714   0.12504  -0.17010   0.05075
  22   33781.5    296.0   0.044491607   0.43359  -0.21372   0.21474  -0.58463
  23   34323.3    291.3   0.001301275   0.01248   0.03504   0.09859  -0.03916
  24   34527.3    289.6   0.058329303   0.55616   0.56210  -0.17662   0.45717
  25   35110.7    284.8   0.032595813   0.30563   0.29031   0.46035   0.09713
  26   35521.7    281.5   0.015413082   0.14285  -0.30213  -0.20691  -0.09354
  27   35974.3    278.0   0.001473308   0.01348   0.07531  -0.05355   0.07031
  28   36003.0    277.8   0.000445069   0.00407  -0.01242   0.04848   0.03956
  29   36298.1    275.5   0.038932175   0.35310  -0.27503  -0.52661   0.01194
  30   36591.6    273.3   0.013342764   0.12004  -0.17443  -0.26768  -0.13403
  31   36952.7    270.6   0.038848703   0.34610  -0.52722  -0.19659  -0.17174
  32   37006.3    270.2   0.006576350   0.05850   0.16604   0.17395   0.02601
  33   37316.9    268.0   0.065482849   0.57769   0.28137  -0.55478   0.43674
  34   37439.7    267.1   0.002305065   0.02027  -0.01261  -0.13503  -0.04333
  35   37572.7    266.2   0.190365697   1.66799  -0.26111   0.89264  -0.89610
  36   38178.1    261.9   0.012612805   0.10876   0.21878   0.13218   0.20839
  37   38717.3    258.3   0.005435632   0.04622  -0.03239   0.17145  -0.12559
  38   38784.6    257.8   0.036680591   0.31135  -0.06427   0.48456  -0.26911
  39   39466.1    253.4   0.018114168   0.15110  -0.06281  -0.34417   0.16941
  40   40057.8    249.6   0.002908561   0.02390  -0.14792  -0.00299  -0.04489

FINAL SINGLE POINT ENERGY     -3796.177779980596

DIPOLE MOMENT
-------------
                                X             Y             Z
Electronic contribution:      3.44883      -3.16457       0.44642
Nuclear contribution   :     -2.74585       2.69245       0.22407
                        -----------------------------------------
Total Dipole Moment    :      0.70298      -0.47212       0.67050
                        -----------------------------------------
Magnitude (a.u.)       :      1.08011
Magnitude (Debye)      :      2.74543

Rotational constants in cm-1:     0.002145     0.001076     0.000750
Rotational constants in MHz :    64.298224    32.253636    22.488955

                             ****ORCA TERMINATED NORMALLY****
TOTAL RUN TIME: 0 days 0 hours 7 minutes 44 seconds 992 msec
