                         Program Version 4.2.0 -  RELEASE  -
|  1> # ORCA input file
|  2> # SCF done       -179.252351578501          0.000881355773
|  3> ! CAM-B3LYP def2-SVP def2/J RIJCOSX Grid4 TightSCF
|  4> %maxcore 5000
|  5> %tddft
|  6>     Mode sTDDFT
|  7>     Ethresh 5.0
|  8>     maxcore 5000
|  9> end
| 10>
| 11> %pal
| 12>   nprocs 6
| 13>   end
| 14> * xyz 0 1
| 15>    C       -2.28077        -8.50124        -3.72228
| 16>    S       -2.23584        -8.16692        -2.04641
| 17>    C       -2.47517        -6.47045        -2.29285
| 18>    C       -2.58922        -6.18611        -3.64142
| 19>    C       -2.47773        -7.36125        -4.45944
| 20>    N       -2.56949        -7.29010        -5.81930
| 21>    C       -2.76209        -6.11050        -6.32318
| 22>    O       -2.88132        -5.93056        -7.63169
| 23>    C       -2.80152        -7.10190        -8.44023
| 24>    C       -3.04165        -6.69654        -9.88260
| 25>    C       -2.86006        -4.91215        -5.48732
| 26>    O       -3.03480        -3.75887        -6.11472
| 27>    C       -3.12304        -2.60321        -5.28162
| 28>    C       -3.23017        -1.38328        -6.17771
| 29>    N       -2.77668        -4.96149        -4.19362
| 30>    C       -2.50910        -5.62238        -1.13391
| 31>    N       -2.72348        -4.31450        -1.27963
| 32>    C       -2.73116        -3.59462        -0.17303
| 33>    C       -2.52547        -4.13938         1.08423
| 34>    C       -2.31062        -5.52245         1.14066
| 35>    N       -2.30714        -6.24786         0.02353
| 36>    C       -2.05953        -6.21969         2.38371
| 37>    C       -1.92050        -7.55502         2.38913
| 38>    N       -1.65291        -8.30246         3.50195
| 39>    C       -1.40579        -9.63844         3.54926
| 40>    S       -1.71769       -10.46799         5.04384
| 41>    C       -1.26925       -11.96891         4.29473
| 42>    N       -1.29456       -13.12013         5.08879
| 43>    O       -0.97939       -14.17424         4.56993
| 44>    O       -1.62986       -12.97242         6.25266
| 45>    C       -0.90794       -11.83072         2.98440
| 46>    C       -0.95621       -10.49401         2.52971
| 47>    C       -0.50837       -10.06957         1.23569
| 48>    C       -0.35865       -10.88174         0.15759
| 49>    C        0.07606       -10.40079        -1.09217
| 50>    C        0.20744       -11.16668        -2.22005
| 51>    C        0.57729       -10.71672        -3.51298
| 52>    C        0.64295       -11.70165        -4.44920
| 53>    C        0.34259       -12.99020        -3.94685
| 54>    S       -0.06210       -12.90440        -2.25251
| 55>    C        0.38212       -14.19078        -4.63463
| 56>    C        0.70528       -14.39459        -5.99384
| 57>    C        0.70902       -15.70458        -6.37213
| 58>    C        0.38891       -16.60563        -5.32867
| 59>    S        0.06195       -15.72464        -3.85629
| 60>    C        0.33568       -17.98843        -5.34731
| 61>    C        0.62916       -18.74618        -6.47678
| 62>    C        0.63046       -20.12685        -6.52768
| 63>    C        0.95325       -20.93569        -7.67436
| 64>    C        1.27842       -20.49857        -8.93953
| 65>    C        1.58353       -21.35158       -10.01778
| 66>    N        1.84058       -21.98802       -10.93920
| 67>    C        1.35262       -19.15368        -9.34886
| 68>    N        1.43631       -18.08390        -9.76276
| 69>    C        0.87524       -22.33755        -7.26689
| 70>    C        0.49714       -22.39241        -5.90365
| 71>    C        0.32294       -21.01582        -5.39074
| 72>    O       -0.00469       -20.70830        -4.26158
| 73>    C        0.34264       -23.57457        -5.22372
| 74>    C        0.57524       -24.76473        -5.92250
| 75>    C        0.95308       -24.70059        -7.28332
| 76>    C        1.10723       -23.50278        -7.97196
| 77>    S        1.19440       -26.28569        -7.95513
| 78>    C        0.79058       -27.00186        -6.41756
| 79>    C        0.48936       -26.10359        -5.45066
| 80>   Br        0.80514       -28.86910        -6.23449
| 81>    H       -2.16977        -9.50439        -4.08083
| 82>    H       -3.55026        -7.82355        -8.09426
| 83>    H       -1.81250        -7.55610        -8.30954
| 84>    H       -4.02490        -6.24571        -9.98479
| 85>    H       -2.98229        -7.57106       -10.52380
| 86>    H       -2.29516        -5.97217       -10.19639
| 87>    H       -2.23591        -2.56020        -4.63993
| 88>    H       -3.99774        -2.70415        -4.62909
| 89>    H       -2.35244        -1.30705        -6.81375
| 90>    H       -3.30694        -0.48774        -5.56823
| 91>    H       -4.10986        -1.45997        -6.81085
| 92>    H       -2.90810        -2.53458        -0.30694
| 93>    H       -2.53009        -3.53337         1.97544
| 94>    H       -1.97058        -5.62690         3.28249
| 95>    H       -2.04695        -8.09207         1.46192
| 96>    H       -1.74176        -7.83240         4.39513
| 97>    H       -0.58216       -12.66550         2.39158
| 98>    H       -0.25091        -9.02646         1.12210
| 99>    H       -0.61303       -11.93071         0.22072
|100>    H        0.30300        -9.34694        -1.17911
|101>    H        0.77613        -9.67735        -3.70529
|102>    H        0.90629       -11.54143        -5.47889
|103>    H        0.92877       -13.57795        -6.65638
|104>    H        0.93602       -16.03628        -7.36933
|105>    H        0.07045       -18.50250        -4.43517
|106>    H        0.89062       -18.21465        -7.37964
|107>    H        0.05382       -23.58241        -4.18437
|108>    H        1.39786       -23.50912        -9.00903
|109>    H        0.21827       -26.37116        -4.44568
|110> *
|111>
|112>                          ****END OF INPUT****

CARTESIAN COORDINATES (ANGSTROEM)
---------------------------------
  C     -2.280770   -8.501240   -3.722280
  S     -2.235840   -8.166920   -2.046410
  C     -2.475170   -6.470450   -2.292850
  C     -2.589220   -6.186110   -3.641420
  C     -2.477730   -7.361250   -4.459440
  N     -2.569490   -7.290100   -5.819300
  C     -2.762090   -6.110500   -6.323180
  O     -2.881320   -5.930560   -7.631690
  C     -2.801520   -7.101900   -8.440230
  C     -3.041650   -6.696540   -9.882600
  C     -2.860060   -4.912150   -5.487320
  O     -3.034800   -3.758870   -6.114720
  C     -3.123040   -2.603210   -5.281620
  C     -3.230170   -1.383280   -6.177710
  N     -2.776680   -4.961490   -4.193620
  C     -2.509100   -5.622380   -1.133910
  N     -2.723480   -4.314500   -1.279630
  C     -2.731160   -3.594620   -0.173030
  C     -2.525470   -4.139380    1.084230
  C     -2.310620   -5.522450    1.140660
  N     -2.307140   -6.247860    0.023530
  C     -2.059530   -6.219690    2.383710
  C     -1.920500   -7.555020    2.389130
  N     -1.652910   -8.302460    3.501950
  C     -1.405790   -9.638440    3.549260
  S     -1.717690  -10.467990    5.043840
  C     -1.269250  -11.968910    4.294730
  N     -1.294560  -13.120130    5.088790
  O     -0.979390  -14.174240    4.569930
  O     -1.629860  -12.972420    6.252660
  C     -0.907940  -11.830720    2.984400
  C     -0.956210  -10.494010    2.529710
  C     -0.508370  -10.069570    1.235690
  C     -0.358650  -10.881740    0.157590
  C      0.076060  -10.400790   -1.092170
  C      0.207440  -11.166680   -2.220050
  C      0.577290  -10.716720   -3.512980
  C      0.642950  -11.701650   -4.449200
  C      0.342590  -12.990200   -3.946850
  S     -0.062100  -12.904400   -2.252510
  C      0.382120  -14.190780   -4.634630
  C      0.705280  -14.394590   -5.993840
  C      0.709020  -15.704580   -6.372130
  C      0.388910  -16.605630   -5.328670
  S      0.061950  -15.724640   -3.856290
  C      0.335680  -17.988430   -5.347310
  C      0.629160  -18.746180   -6.476780
  C      0.630460  -20.126850   -6.527680
  C      0.953250  -20.935690   -7.674360
  C      1.278420  -20.498570   -8.939530
  C      1.583530  -21.351580  -10.017780
  N      1.840580  -21.988020  -10.939200
  C      1.352620  -19.153680   -9.348860
  N      1.436310  -18.083900   -9.762760
  C      0.875240  -22.337550   -7.266890
  C      0.497140  -22.392410   -5.903650
  C      0.322940  -21.015820   -5.390740
  O     -0.004690  -20.708300   -4.261580
  C      0.342640  -23.574570   -5.223720
  C      0.575240  -24.764730   -5.922500
  C      0.953080  -24.700590   -7.283320
  C      1.107230  -23.502780   -7.971960
  S      1.194400  -26.285690   -7.955130
  C      0.790580  -27.001860   -6.417560
  C      0.489360  -26.103590   -5.450660
  Br     0.805140  -28.869100   -6.234490
  H     -2.169770   -9.504390   -4.080830
  H     -3.550260   -7.823550   -8.094260
  H     -1.812500   -7.556100   -8.309540
  H     -4.024900   -6.245710   -9.984790
  H     -2.982290   -7.571060  -10.523800
  H     -2.295160   -5.972170  -10.196390
  H     -2.235910   -2.560200   -4.639930
  H     -3.997740   -2.704150   -4.629090
  H     -2.352440   -1.307050   -6.813750
  H     -3.306940   -0.487740   -5.568230
  H     -4.109860   -1.459970   -6.810850
  H     -2.908100   -2.534580   -0.306940
  H     -2.530090   -3.533370    1.975440
  H     -1.970580   -5.626900    3.282490
  H     -2.046950   -8.092070    1.461920
  H     -1.741760   -7.832400    4.395130
  H     -0.582160  -12.665500    2.391580
  H     -0.250910   -9.026460    1.122100
  H     -0.613030  -11.930710    0.220720
  H      0.303000   -9.346940   -1.179110
  H      0.776130   -9.677350   -3.705290
  H      0.906290  -11.541430   -5.478890
  H      0.928770  -13.577950   -6.656380
  H      0.936020  -16.036280   -7.369330
  H      0.070450  -18.502500   -4.435170
  H      0.890620  -18.214650   -7.379640
  H      0.053820  -23.582410   -4.184370
  H      1.397860  -23.509120   -9.009030
  H      0.218270  -26.371160   -4.445680

 Total Charge           Charge          ....    0
 Multiplicity           Mult            ....    1
 Number of Electrons    NEL             ....  522
 Basis Dimension        Dim             .... 1107

ORBITAL ENERGIES
----------------

  NO   OCC          E(Eh)            E(eV)
   0   2.0000    -482.875559    -13139.7120
   1   2.0000     -88.992410     -2421.6066
   2   2.0000     -88.964700     -2420.8525
   3   2.0000     -88.964339     -2420.8427
   4   2.0000     -88.963090     -2420.8088
   5   2.0000     -88.959195     -2420.7028
   6   2.0000     -62.553252     -1702.1605
   7   2.0000     -56.387191     -1534.3735
   8   2.0000     -56.384500     -1534.3002
   9   2.0000     -56.384459     -1534.2991
  10   2.0000     -19.258997      -524.0639
  11   2.0000     -19.258676      -524.0552
  12   2.0000     -19.242134      -523.6051
  13   2.0000     -19.241663      -523.5923
  14   2.0000     -19.197542      -522.3917
  15   2.0000     -14.653781      -398.7496
  16   2.0000     -14.496374      -394.4664
  17   2.0000     -14.413305      -392.2060
  18   2.0000     -14.410435      -392.1279
  19   2.0000     -14.408354      -392.0713
  20   2.0000     -14.402651      -391.9161
  21   2.0000     -14.402225      -391.9045
  22   2.0000     -14.396842      -391.7580
  23   2.0000     -10.381608      -282.4979
  24   2.0000     -10.379052      -282.4284
  25   2.0000     -10.378714      -282.4192
  26   2.0000     -10.350025      -281.6385
  27   2.0000     -10.349768      -281.6315
  28   2.0000     -10.347822      -281.5785
  29   2.0000     -10.346800      -281.5507
  30   2.0000     -10.341282      -281.4006
  31   2.0000     -10.336670      -281.2751
  32   2.0000     -10.334841      -281.2253
  33   2.0000     -10.327157      -281.0162
  34   2.0000     -10.323097      -280.9058
  35   2.0000     -10.322924      -280.9010
  36   2.0000     -10.322706      -280.8951
  37   2.0000     -10.321053      -280.8501
  38   2.0000     -10.320940      -280.8471
  39   2.0000     -10.320220      -280.8275
  40   2.0000     -10.318963      -280.7933
  41   2.0000     -10.317501      -280.7535
  42   2.0000     -10.311311      -280.5850
  43   2.0000     -10.310761      -280.5701
  44   2.0000     -10.309685      -280.5408
  45   2.0000     -10.306807      -280.4625
  46   2.0000     -10.306709      -280.4598
  47   2.0000     -10.306189      -280.4456
  48   2.0000     -10.305987      -280.4402
  49   2.0000     -10.303754      -280.3794
  50   2.0000     -10.303615      -280.3756
  51   2.0000     -10.303507      -280.3727
  52   2.0000     -10.301379      -280.3148
  53   2.0000     -10.296389      -280.1790
  54   2.0000     -10.296345      -280.1778
  55   2.0000     -10.294226      -280.1201
  56   2.0000     -10.293406      -280.0978
  57   2.0000     -10.292103      -280.0623
  58   2.0000     -10.292042      -280.0607
  59   2.0000     -10.290209      -280.0108
  60   2.0000     -10.289860      -280.0013
  61   2.0000     -10.285838      -279.8919
  62   2.0000     -10.285611      -279.8857
  63   2.0000     -10.285072      -279.8710
  64   2.0000     -10.283299      -279.8228
  65   2.0000     -10.275736      -279.6170
  66   2.0000     -10.273833      -279.5652
  67   2.0000     -10.273236      -279.5490
  68   2.0000     -10.262243      -279.2498
  69   2.0000     -10.260938      -279.2143
  70   2.0000      -8.782661      -238.9884
  71   2.0000      -8.088411      -220.0968
  72   2.0000      -8.060644      -219.3413
  73   2.0000      -8.059066      -219.2983
  74   2.0000      -8.058781      -219.2906
  75   2.0000      -8.055603      -219.2041
  76   2.0000      -6.618902      -180.1095
  77   2.0000      -6.604416      -179.7153
  78   2.0000      -6.604249      -179.7108
  79   2.0000      -6.058136      -164.8502
  80   2.0000      -6.053720      -164.7301
  81   2.0000      -6.049677      -164.6201
  82   2.0000      -6.030307      -164.0930
  83   2.0000      -6.028749      -164.0506
  84   2.0000      -6.027865      -164.0266
  85   2.0000      -6.026350      -163.9853
  86   2.0000      -6.025234      -163.9549
  87   2.0000      -6.024507      -163.9352
  88   2.0000      -6.023605      -163.9106
  89   2.0000      -6.021686      -163.8584
  90   2.0000      -6.021592      -163.8558
  91   2.0000      -6.021119      -163.8430
  92   2.0000      -6.020293      -163.8205
  93   2.0000      -6.016760      -163.7244
  94   2.0000      -2.734773       -74.4169
  95   2.0000      -2.730722       -74.3067
  96   2.0000      -2.730587       -74.3031
  97   2.0000      -2.719079       -73.9899
  98   2.0000      -2.719053       -73.9892
  99   2.0000      -1.322979       -36.0001
 100   2.0000      -1.188584       -32.3430
 101   2.0000      -1.165620       -31.7181
 102   2.0000      -1.142252       -31.0823
 103   2.0000      -1.111274       -30.2393
 104   2.0000      -1.099960       -29.9314
 105   2.0000      -1.084972       -29.5236
 106   2.0000      -1.061942       -28.8969
 107   2.0000      -1.012845       -27.5609
 108   2.0000      -1.011924       -27.5359
 109   2.0000      -1.007903       -27.4264
 110   2.0000      -0.998681       -27.1755
 111   2.0000      -0.992787       -27.0151
 112   2.0000      -0.989028       -26.9128
 113   2.0000      -0.983082       -26.7510
 114   2.0000      -0.978837       -26.6355
 115   2.0000      -0.972869       -26.4731
 116   2.0000      -0.972044       -26.4507
 117   2.0000      -0.936467       -25.4826
 118   2.0000      -0.928928       -25.2774
 119   2.0000      -0.915745       -24.9187
 120   2.0000      -0.908584       -24.7238
 121   2.0000      -0.898679       -24.4543
 122   2.0000      -0.893633       -24.3170
 123   2.0000      -0.888670       -24.1819
 124   2.0000      -0.877839       -23.8872
 125   2.0000      -0.872067       -23.7301
 126   2.0000      -0.870758       -23.6945
 127   2.0000      -0.860936       -23.4273
 128   2.0000      -0.858586       -23.3633
 129   2.0000      -0.852933       -23.2095
 130   2.0000      -0.847833       -23.0707
 131   2.0000      -0.840984       -22.8843
 132   2.0000      -0.823234       -22.4013
 133   2.0000      -0.819134       -22.2898
 134   2.0000      -0.818403       -22.2699
 135   2.0000      -0.814972       -22.1765
 136   2.0000      -0.798893       -21.7390
 137   2.0000      -0.784706       -21.3529
 138   2.0000      -0.770764       -20.9735
 139   2.0000      -0.767517       -20.8852
 140   2.0000      -0.755274       -20.5520
 141   2.0000      -0.748603       -20.3705
 142   2.0000      -0.742414       -20.2021
 143   2.0000      -0.729308       -19.8455
 144   2.0000      -0.720175       -19.5970
 145   2.0000      -0.712402       -19.3855
 146   2.0000      -0.707265       -19.2457
 147   2.0000      -0.694566       -18.9001
 148   2.0000      -0.686908       -18.6917
 149   2.0000      -0.683404       -18.5964
 150   2.0000      -0.679475       -18.4894
 151   2.0000      -0.674634       -18.3577
 152   2.0000      -0.671262       -18.2660
 153   2.0000      -0.664115       -18.0715
 154   2.0000      -0.659547       -17.9472
 155   2.0000      -0.656234       -17.8570
 156   2.0000      -0.646638       -17.5959
 157   2.0000      -0.642993       -17.4967
 158   2.0000      -0.641369       -17.4525
 159   2.0000      -0.638852       -17.3840
 160   2.0000      -0.635162       -17.2836
 161   2.0000      -0.633300       -17.2330
 162   2.0000      -0.629024       -17.1166
 163   2.0000      -0.617983       -16.8162
 164   2.0000      -0.615888       -16.7592
 165   2.0000      -0.614673       -16.7261
 166   2.0000      -0.609915       -16.5966
 167   2.0000      -0.606921       -16.5152
 168   2.0000      -0.597811       -16.2673
 169   2.0000      -0.593386       -16.1468
 170   2.0000      -0.588265       -16.0075
 171   2.0000      -0.585198       -15.9240
 172   2.0000      -0.583808       -15.8862
 173   2.0000      -0.579383       -15.7658
 174   2.0000      -0.573093       -15.5947
 175   2.0000      -0.570019       -15.5110
 176   2.0000      -0.567668       -15.4470
 177   2.0000      -0.558883       -15.2080
 178   2.0000      -0.550884       -14.9903
 179   2.0000      -0.544181       -14.8079
 180   2.0000      -0.542489       -14.7619
 181   2.0000      -0.536545       -14.6001
 182   2.0000      -0.534530       -14.5453
 183   2.0000      -0.532929       -14.5017
 184   2.0000      -0.531785       -14.4706
 185   2.0000      -0.523478       -14.2446
 186   2.0000      -0.521675       -14.1955
 187   2.0000      -0.519981       -14.1494
 188   2.0000      -0.516402       -14.0520
 189   2.0000      -0.514870       -14.0103
 190   2.0000      -0.512810       -13.9543
 191   2.0000      -0.511007       -13.9052
 192   2.0000      -0.510043       -13.8790
 193   2.0000      -0.506996       -13.7960
 194   2.0000      -0.504543       -13.7293
 195   2.0000      -0.495101       -13.4724
 196   2.0000      -0.494201       -13.4479
 197   2.0000      -0.492645       -13.4055
 198   2.0000      -0.490173       -13.3383
 199   2.0000      -0.488431       -13.2909
 200   2.0000      -0.483956       -13.1691
 201   2.0000      -0.482643       -13.1334
 202   2.0000      -0.480206       -13.0671
 203   2.0000      -0.480011       -13.0618
 204   2.0000      -0.478825       -13.0295
 205   2.0000      -0.476818       -12.9749
 206   2.0000      -0.474554       -12.9133
 207   2.0000      -0.472286       -12.8516
 208   2.0000      -0.472182       -12.8487
 209   2.0000      -0.470412       -12.8006
 210   2.0000      -0.469141       -12.7660
 211   2.0000      -0.467104       -12.7106
 212   2.0000      -0.466837       -12.7033
 213   2.0000      -0.458560       -12.4781
 214   2.0000      -0.456984       -12.4352
 215   2.0000      -0.447143       -12.1674
 216   2.0000      -0.442907       -12.0521
 217   2.0000      -0.440354       -11.9826
 218   2.0000      -0.438538       -11.9332
 219   2.0000      -0.434651       -11.8275
 220   2.0000      -0.434154       -11.8139
 221   2.0000      -0.432156       -11.7596
 222   2.0000      -0.430279       -11.7085
 223   2.0000      -0.428435       -11.6583
 224   2.0000      -0.425377       -11.5751
 225   2.0000      -0.423858       -11.5338
 226   2.0000      -0.420056       -11.4303
 227   2.0000      -0.417509       -11.3610
 228   2.0000      -0.415319       -11.3014
 229   2.0000      -0.412423       -11.2226
 230   2.0000      -0.411870       -11.2076
 231   2.0000      -0.409331       -11.1385
 232   2.0000      -0.408398       -11.1131
 233   2.0000      -0.394051       -10.7227
 234   2.0000      -0.393425       -10.7056
 235   2.0000      -0.392287       -10.6747
 236   2.0000      -0.389647       -10.6028
 237   2.0000      -0.389049       -10.5866
 238   2.0000      -0.382547       -10.4096
 239   2.0000      -0.382208       -10.4004
 240   2.0000      -0.376624       -10.2485
 241   2.0000      -0.375749       -10.2246
 242   2.0000      -0.370478       -10.0812
 243   2.0000      -0.368987       -10.0406
 244   2.0000      -0.366440        -9.9713
 245   2.0000      -0.365158        -9.9364
 246   2.0000      -0.354696        -9.6518
 247   2.0000      -0.350056        -9.5255
 248   2.0000      -0.346792        -9.4367
 249   2.0000      -0.337607        -9.1868
 250   2.0000      -0.333643        -9.0789
 251   2.0000      -0.326655        -8.8887
 252   2.0000      -0.317949        -8.6518
 253   2.0000      -0.317354        -8.6356
 254   2.0000      -0.301703        -8.2098
 255   2.0000      -0.296979        -8.0812
 256   2.0000      -0.289374        -7.8743
 257   2.0000      -0.281253        -7.6533
 258   2.0000      -0.276083        -7.5126
 259   2.0000      -0.269684        -7.3385
 260   2.0000      -0.224861        -6.1188
 261   0.0000      -0.107479        -2.9246
 262   0.0000      -0.064178        -1.7464
 263   0.0000      -0.059323        -1.6143
 264   0.0000      -0.046929        -1.2770
 265   0.0000      -0.041653        -1.1334

MULLIKEN ATOMIC CHARGES
-----------------------
   0 C :   -0.166058
   1 S :    0.157992
   2 C :   -0.136366
   3 C :    0.028863
   4 C :    0.064930
   5 N :   -0.054650
   6 C :    0.084034
   7 O :   -0.272593
   8 C :    0.169007
   9 C :    0.014774
  10 C :    0.086914
  11 O :   -0.269191
  12 C :    0.164177
  13 C :    0.016008
  14 N :   -0.015818
  15 C :   -0.092343
  16 N :   -0.039270
  17 C :    0.080445
  18 C :   -0.057900
  19 C :    0.067173
  20 N :   -0.107492
  21 C :   -0.051169
  22 C :    0.095124
  23 N :   -0.016786
  24 C :   -0.102044
  25 S :    0.172722
  26 C :   -0.009744
  27 N :    0.279209
  28 O :   -0.245052
  29 O :   -0.265416
  30 C :    0.007922
  31 C :    0.102840
  32 C :   -0.033471
  33 C :   -0.008588
  34 C :    0.010622
  35 C :   -0.043462
  36 C :    0.050952
  37 C :    0.020033
  38 C :   -0.027257
  39 S :    0.093603
  40 C :   -0.068539
  41 C :    0.035543
  42 C :    0.017038
  43 C :   -0.028599
  44 S :    0.130502
  45 C :    0.021343
  46 C :   -0.029706
  47 C :   -0.091529
  48 C :    0.331072
  49 C :   -0.367027
  50 C :   -0.187752
  51 N :    0.137098
  52 C :   -0.190439
  53 N :    0.124948
  54 C :    0.010464
  55 C :   -0.012869
  56 C :    0.136570
  57 O :   -0.161709
  58 C :   -0.075045
  59 C :    0.117565
  60 C :   -0.094457
  61 C :   -0.022382
  62 S :    0.179142
  63 C :   -0.124041
  64 C :    0.038450
  65 Br:    0.014002
  66 H :    0.012520
  67 H :    0.020349
  68 H :    0.012918
  69 H :    0.026294
  70 H :    0.019982
  71 H :    0.026582
  72 H :    0.025093
  73 H :    0.022531
  74 H :    0.024637
  75 H :    0.017810
  76 H :    0.026024
  77 H :    0.002518
  78 H :   -0.014008
  79 H :   -0.026042
  80 H :    0.050203
  81 H :    0.137923
  82 H :    0.014579
  83 H :    0.011133
  84 H :    0.006507
  85 H :    0.002275
  86 H :    0.005799
  87 H :   -0.003275
  88 H :   -0.003999
  89 H :    0.016905
  90 H :    0.011120
  91 H :   -0.006584
  92 H :   -0.015001
  93 H :   -0.010742
  94 H :   -0.006366
Sum of atomic charges:    0.0000000

LOEWDIN ATOMIC CHARGES
----------------------
   0 C :   -0.196726
   1 S :    0.502305
   2 C :   -0.220098
   3 C :   -0.035276
   4 C :   -0.062329
   5 N :   -0.101823
   6 C :    0.041366
   7 O :   -0.071019
   8 C :    0.088785
   9 C :   -0.062097
  10 C :    0.045075
  11 O :   -0.067969
  12 C :    0.089955
  13 C :   -0.063169
  14 N :   -0.081803
  15 C :    0.020349
  16 N :   -0.088709
  17 C :    0.052768
  18 C :   -0.084611
  19 C :    0.041766
  20 N :   -0.121169
  21 C :   -0.101570
  22 C :    0.062717
  23 N :    0.038424
  24 C :   -0.095916
  25 S :    0.451651
  26 C :   -0.206901
  27 N :    0.273770
  28 O :   -0.211903
  29 O :   -0.230677
  30 C :    0.009223
  31 C :   -0.105920
  32 C :   -0.004056
  33 C :   -0.037910
  34 C :   -0.027257
  35 C :   -0.160012
  36 C :   -0.011287
  37 C :   -0.038111
  38 C :   -0.147933
  39 S :    0.385732
  40 C :   -0.197303
  41 C :   -0.005355
  42 C :   -0.043297
  43 C :   -0.103071
  44 S :    0.408601
  45 C :   -0.072160
  46 C :    0.057287
  47 C :   -0.112241
  48 C :    0.076061
  49 C :   -0.160872
  50 C :   -0.019603
  51 N :   -0.069506
  52 C :   -0.015823
  53 N :   -0.077031
  54 C :   -0.018846
  55 C :   -0.048154
  56 C :    0.080924
  57 O :   -0.156495
  58 C :    0.017312
  59 C :   -0.035610
  60 C :   -0.146246
  61 C :   -0.013084
  62 S :    0.426762
  63 C :   -0.274837
  64 C :   -0.070667
  65 Br:    0.129393
  66 H :    0.024532
  67 H :    0.018764
  68 H :    0.016904
  69 H :    0.030063
  70 H :    0.032543
  71 H :    0.029875
  72 H :    0.020881
  73 H :    0.021243
  74 H :    0.029030
  75 H :    0.031802
  76 H :    0.029568
  77 H :    0.025052
  78 H :    0.029975
  79 H :    0.024914
  80 H :    0.037597
  81 H :    0.094742
  82 H :    0.046699
  83 H :    0.036027
  84 H :    0.023649
  85 H :    0.031973
  86 H :    0.039373
  87 H :    0.035787
  88 H :    0.036399
  89 H :    0.041963
  90 H :    0.034047
  91 H :    0.036370
  92 H :    0.039033
  93 H :    0.039876
  94 H :    0.037546

  Mayer bond orders larger than 0.100000
B(  0-C ,  1-S ) :   1.1776 B(  0-C ,  2-C ) :   0.1239 B(  0-C ,  4-C ) :   1.4403
B(  0-C , 66-H ) :   0.9774 B(  1-S ,  2-C ) :   1.1724 B(  2-C ,  3-C ) :   1.4028
B(  2-C , 15-C ) :   1.0222 B(  3-C ,  4-C ) :   1.2105 B(  3-C , 14-N ) :   1.3764
B(  4-C ,  5-N ) :   1.2981 B(  5-N ,  6-C ) :   1.6824 B(  6-C ,  7-O ) :   1.2700
B(  6-C , 10-C ) :   1.0401 B(  7-O ,  8-C ) :   0.9062 B(  8-C ,  9-C ) :   1.0932
B(  8-C , 67-H ) :   0.9560 B(  8-C , 68-H ) :   0.9576 B(  9-C , 69-H ) :   0.9694
B(  9-C , 70-H ) :   0.9613 B(  9-C , 71-H ) :   0.9684 B( 10-C , 11-O ) :   1.2792
B( 10-C , 14-N ) :   1.6615 B( 11-O , 12-C ) :   0.8994 B( 12-C , 13-C ) :   1.0880
B( 12-C , 72-H ) :   0.9569 B( 12-C , 73-H ) :   0.9592 B( 13-C , 74-H ) :   0.9691
B( 13-C , 75-H ) :   0.9615 B( 13-C , 76-H ) :   0.9681 B( 15-C , 16-N ) :   1.6049
B( 15-C , 20-N ) :   1.5870 B( 16-N , 17-C ) :   1.5380 B( 17-C , 18-C ) :   1.3762
B( 17-C , 77-H ) :   0.9790 B( 18-C , 19-C ) :   1.3276 B( 18-C , 78-H ) :   0.9757
B( 19-C , 20-N ) :   1.5025 B( 19-C , 21-C ) :   1.0973 B( 21-C , 22-C ) :   1.7028
B( 21-C , 79-H ) :   0.9721 B( 22-C , 23-N ) :   1.1302 B( 22-C , 80-H ) :   0.9325
B( 23-N , 24-C ) :   1.1958 B( 23-N , 81-H ) :   0.9118 B( 24-C , 25-S ) :   1.1408
B( 24-C , 31-C ) :   1.3644 B( 25-S , 26-C ) :   1.0752 B( 26-C , 27-N ) :   0.9693
B( 26-C , 30-C ) :   1.5061 B( 27-N , 28-O ) :   1.5361 B( 27-N , 29-O ) :   1.5084
B( 28-O , 29-O ) :   0.2599 B( 30-C , 31-C ) :   1.2236 B( 30-C , 82-H ) :   0.9994
B( 31-C , 32-C ) :   1.0608 B( 32-C , 33-C ) :   1.6657 B( 32-C , 83-H ) :   0.9789
B( 33-C , 34-C ) :   1.1451 B( 33-C , 84-H ) :   0.9717 B( 34-C , 35-C ) :   1.5719
B( 34-C , 85-H ) :   0.9772 B( 35-C , 36-C ) :   1.1378 B( 35-C , 39-S ) :   1.0203
B( 36-C , 37-C ) :   1.5808 B( 36-C , 86-H ) :   0.9997 B( 37-C , 38-C ) :   1.1913
B( 37-C , 87-H ) :   0.9954 B( 38-C , 39-S ) :   1.0771 B( 38-C , 40-C ) :   1.4741
B( 40-C , 41-C ) :   1.2091 B( 40-C , 44-S ) :   1.0425 B( 41-C , 42-C ) :   1.5655
B( 41-C , 88-H ) :   0.9932 B( 42-C , 43-C ) :   1.1884 B( 42-C , 89-H ) :   0.9882
B( 43-C , 44-S ) :   1.0986 B( 43-C , 45-C ) :   1.3858 B( 45-C , 46-C ) :   1.3045
B( 45-C , 90-H ) :   0.9651 B( 46-C , 47-C ) :   1.4668 B( 46-C , 91-H ) :   0.9463
B( 47-C , 48-C ) :   1.1157 B( 47-C , 56-C ) :   0.9631 B( 48-C , 49-C ) :   1.5774
B( 48-C , 54-C ) :   0.9916 B( 49-C , 50-C ) :   1.1490 B( 49-C , 52-C ) :   1.1552
B( 50-C , 51-N ) :   2.9618 B( 52-C , 53-N ) :   2.9719 B( 54-C , 55-C ) :   1.2757
B( 54-C , 61-C ) :   1.4206 B( 55-C , 56-C ) :   0.9351 B( 55-C , 58-C ) :   1.4340
B( 56-C , 57-O ) :   2.1917 B( 58-C , 59-C ) :   1.2391 B( 58-C , 92-H ) :   1.0152
B( 59-C , 60-C ) :   1.3147 B( 59-C , 64-C ) :   1.1614 B( 60-C , 61-C ) :   1.3227
B( 60-C , 62-S ) :   1.0827 B( 61-C , 93-H ) :   0.9782 B( 62-S , 63-C ) :   1.0856
B( 63-C , 64-C ) :   1.6208 B( 63-C , 65-Br) :   1.0125 B( 64-C , 94-H ) :   0.9996

-----------------------------------------------------------------------------
         ABSORPTION SPECTRUM VIA TRANSITION ELECTRIC DIPOLE MOMENTS
-----------------------------------------------------------------------------
State   Energy  Wavelength   fosc         T2         TX        TY        TZ
        (cm-1)    (nm)                  (au**2)     (au)      (au)      (au)
-----------------------------------------------------------------------------
   0   12379.4    807.8   1.930196327  51.33072   0.81481  -5.85196  -4.05232
   1   21736.0    460.1   0.007691372   0.11649  -0.04815  -0.33118   0.06705
   2   21953.0    455.5   0.016160883   0.24235  -0.19234  -0.35740   0.27861
   3   22341.8    447.6   0.125927222   1.85557  -0.19383   1.21242  -0.58995
   4   23078.3    433.3   0.013191135   0.18817  -0.26580   0.28554   0.18970
   5   24520.4    407.8   0.032394051   0.43492   0.33688   0.08281  -0.56087
   6   25552.7    391.3   0.172280508   2.21960   0.34116   1.34951  -0.53107
   7   26228.9    381.3   0.011030992   0.13846   0.06283  -0.00096   0.36675
   8   26606.0    375.9   0.006316218   0.07815  -0.03851  -0.05622  -0.27113
   9   26989.0    370.5   0.000185343   0.00226  -0.00335   0.03517  -0.03182
  10   28070.2    356.2   0.162592564   1.90691  -0.04416  -1.09990   0.83378
  11   28820.5    347.0   0.088984307   1.01645  -0.05708  -0.69406   0.72903
  12   29216.0    342.3   0.645037865   7.26842  -0.29779   1.85965  -1.92911
  13   30459.8    328.3   0.029157471   0.31514   0.15194   0.53999  -0.02138
  14   31372.8    318.7   0.115150689   1.20834  -0.03076  -1.09545   0.08587
  15   31472.3    317.7   0.027293291   0.28550  -0.09193  -0.20538  -0.48463
  16   31694.7    315.5   0.000807693   0.00839   0.01006  -0.08575   0.03058
  17   31876.2    313.7   0.345626388   3.56957  -0.14658   1.00283   1.59449
  18   32309.6    309.5   0.635277189   6.47302  -0.14507  -2.33750   0.99401
  19   32820.9    304.7   0.140348122   1.40777   0.19143   0.79692  -0.85793
  20   32858.3    304.3   0.010685246   0.10706   0.00132  -0.27045   0.18416
  21   33747.3    296.3   0.001962721   0.01915   0.10946  -0.06160  -0.05806
  22   33801.0    295.8   0.000989496   0.00964  -0.05089   0.00668  -0.08369
  23   33859.3    295.3   0.047875331   0.46549   0.10650   0.52879  -0.41776
  24   34194.7    292.4   0.280601896   2.70151   0.11762  -0.87295   1.38767
  25   34527.7    289.6   0.165581902   1.57878  -0.39187   1.19302   0.04377
  26   34781.5    287.5   0.076696168   0.72594  -0.05747   0.29412  -0.79758
  27   34954.8    286.1   0.089647744   0.84432  -0.02454   0.17116   0.90245
  28   35589.1    281.0   0.022437542   0.20756   0.04046  -0.38809   0.23517
  29   35675.8    280.3   0.031065545   0.28667  -0.13809  -0.09921   0.50770
  30   35976.4    278.0   0.009359896   0.08565   0.00359  -0.17925   0.23131
  31   36169.0    276.5   0.062665140   0.57038  -0.23734  -0.19254   0.69064
  32   36387.2    274.8   0.008305038   0.07514   0.06273  -0.20660  -0.16888
  33   36550.2    273.6   0.214516038   1.93217   0.01082   0.84976  -1.09998
  34   36727.7    272.3   0.004592322   0.04116  -0.18042  -0.07327   0.05696
  35   37137.5    269.3   0.072658636   0.64409  -0.07576   0.70120  -0.38298
  36   37723.6    265.1   0.027747024   0.24215  -0.11574   0.37212  -0.30047
  37   37870.0    264.1   0.042873982   0.37271   0.10831   0.51650  -0.30694
  38   38233.3    261.6   0.002181108   0.01878   0.12114   0.00882  -0.06347
  39   38713.2    258.3   0.314824216   2.67723   0.51966   0.07915  -1.54949
  40   39197.0    255.1   0.015198580   0.12765  -0.06731  -0.01524   0.35056
  41   39572.2    252.7   0.015938974   0.13260  -0.07404  -0.18541   0.30453
  42   39699.0    251.9   0.014765275   0.12244  -0.00823   0.03883  -0.34766
  43   39905.1    250.6   0.026680094   0.22011   0.12251  -0.06906  -0.44758
  44   40177.8    248.9   0.005468632   0.04481   0.04680   0.01203  -0.20609
  45   40250.9    248.4   0.330832519   2.70588  -0.07841  -0.02879   1.64283

FINAL SINGLE POINT ENERGY     -7183.469919179056

DIPOLE MOMENT
-------------
                                X             Y             Z
Electronic contribution:     31.24509    -250.29934      -7.23024
Nuclear contribution   :    -31.86538     256.03743       9.60268
                        -----------------------------------------
Total Dipole Moment    :     -0.62029       5.73809       2.37244
                        -----------------------------------------
Magnitude (a.u.)       :      6.24010
Magnitude (Debye)      :     15.86109

Rotational constants in cm-1:     0.001131     0.000236     0.000198
Rotational constants in MHz :    33.917092     7.074154     5.934136

                             ****ORCA TERMINATED NORMALLY****
TOTAL RUN TIME: 0 days 0 hours 10 minutes 20 seconds 468 msec
