                         Program Version 4.2.0 -  RELEASE  -
|  1> # ORCA input file
|  2> # SCF done       -168.845342995046          0.000643977895
|  3> ! CAM-B3LYP def2-SVP def2/J RIJCOSX Grid4 TightSCF
|  4> %maxcore 5000
|  5> %tddft
|  6>     Mode sTDDFT
|  7>     Ethresh 5.0
|  8>     maxcore 5000
|  9> end
| 10>
| 11> %pal
| 12>   nprocs 6
| 13>   end
| 14> * xyz 0 1
| 15>    C       -0.36672        -0.76230        -0.35727
| 16>    S       -0.24208         0.87843         0.15362
| 17>    C       -1.27135         1.42753        -1.13219
| 18>    C       -1.68205         0.35524        -1.91414
| 19>    C       -1.15654        -0.89756        -1.46059
| 20>    O       -1.47019        -2.02839        -2.12706
| 21>    C       -0.92635        -3.23180        -1.63937
| 22>    C       -2.51352         0.43275        -3.03832
| 23>    N       -3.19383         0.47403        -3.96361
| 24>    C       -1.55136         2.81674        -1.23750
| 25>    C       -2.34715         3.38785        -2.17137
| 26>    C       -2.59558         4.77988        -2.27112
| 27>    S       -1.86677         5.93002        -1.18991
| 28>    C       -2.64094         7.26630        -1.99990
| 29>    C       -3.44047         6.81818        -3.04132
| 30>    C       -3.40470         5.42150        -3.19761
| 31>    C       -4.19037         4.69782        -4.24666
| 32>    C       -4.72826         5.66330        -5.30064
| 33>    C       -5.36618         6.90090        -4.64777
| 34>    N       -6.45402         6.61951        -3.72751
| 35>    C       -4.28741         7.69793        -3.90640
| 36>    C       -2.34487         8.56789        -1.50199
| 37>    C       -2.59619         9.76255        -2.07903
| 38>    C       -2.19182        10.99087        -1.46293
| 39>    C       -2.32913        12.21835        -1.98938
| 40>    C       -2.97408        12.49768        -3.31345
| 41>    C       -1.77711        13.42165        -1.26428
| 42>    N       -2.78881        14.41547        -1.00471
| 43>    C       -2.79115        15.65748        -1.50682
| 44>    C       -3.75656        16.59326        -1.27479
| 45>    C       -3.68241        17.89339        -1.79300
| 46>    C       -4.58704        18.89724        -1.55078
| 47>    C       -4.53072        20.22484        -2.03092
| 48>    C       -5.55131        21.02014        -1.60202
| 49>    C       -6.47409        20.36234        -0.75995
| 50>    S       -6.01232        18.69744        -0.53351
| 51>    C       -7.59851        20.90756        -0.15846
| 52>    C       -8.06200        22.23262        -0.24832
| 53>    C       -9.19724        22.46865         0.47543
| 54>    C       -9.68628        21.34123         1.16455
| 55>    S       -8.65348        19.96530         0.87656
| 56>    C      -10.81017        21.30217         1.97487
| 57>    C      -11.28319        20.15801         2.59347
| 58>    C      -12.38102        20.04589         3.43041
| 59>    C      -13.03285        18.73493         3.60251
| 60>    O      -12.61011        17.65074         3.25197
| 61>    C      -14.33402        19.02401         4.24568
| 62>    C      -15.36116        18.17563         4.53428
| 63>    C      -16.54257        18.69400         5.11446
| 64>    C      -16.63143        20.08980         5.38228
| 65>    C      -17.81375        20.60241         5.94966
| 66>    C      -18.84627        19.75239         6.23239
| 67>    C      -18.77823        18.37711         5.97873
| 68>    C      -17.63683        17.86338         5.42710
| 69>    F      -19.97986        20.24223         6.77570
| 70>    C      -15.54310        20.94431         5.08194
| 71>    C      -14.41070        20.41799         4.52588
| 72>    C      -13.14274        21.03629         4.12996
| 73>    C      -12.71528        22.27857         4.54997
| 74>    C      -11.39416        22.74756         4.43010
| 75>    N      -10.32382        23.16640         4.40940
| 76>    C      -13.52114        23.18887         5.25649
| 77>    N      -14.13673        23.98557         5.81164
| 78>    H        0.15399        -1.51788         0.19429
| 79>    H       -1.28826        -4.01220        -2.30558
| 80>    H       -1.26468        -3.43474        -0.61831
| 81>    H        0.16788        -3.20986        -1.66005
| 82>    H       -1.07291         3.44541        -0.49675
| 83>    H       -2.83724         2.76619        -2.90531
| 84>    H       -5.02013         4.16590        -3.76769
| 85>    H       -3.56849         3.93906        -4.72653
| 86>    H       -5.46226         5.14872        -5.92443
| 87>    H       -3.91261         5.99438        -5.94636
| 88>    H       -5.78670         7.53643        -5.43800
| 89>    H       -6.11378         6.09594        -2.92829
| 90>    H       -7.17245         6.06725        -4.18234
| 91>    H       -4.78127         8.45291        -3.29140
| 92>    H       -3.65258         8.20752        -4.63735
| 93>    H       -1.81473         8.56647        -0.55618
| 94>    H       -3.07260         9.82268        -3.04194
| 95>    H       -1.70747        10.89228        -0.49898
| 96>    H       -3.90106        11.93974        -3.42526
| 97>    H       -2.30906        12.20900        -4.12822
| 98>    H       -3.19680        13.55724        -3.41693
| 99>    H       -0.99789        13.88893        -1.87530
|100>    H       -1.32603        13.10692        -0.31612
|101>    H       -3.57842        14.12535        -0.44650
|102>    H       -1.93527        15.91024        -2.12007
|103>    H       -4.60592        16.34260        -0.65441
|104>    H       -2.83796        18.13963        -2.42459
|105>    H       -3.73418        20.55402        -2.67510
|106>    H       -5.66196        22.05622        -1.86566
|107>    H       -7.55592        22.97835        -0.83465
|108>    H       -9.69210        23.42117         0.53881
|109>    H      -11.34692        22.23350         2.08408
|110>    H      -10.81431        19.21465         2.32909
|111>    H      -15.27841        17.12032         4.32083
|112>    H      -17.90010        21.65683         6.16134
|113>    H      -19.62456        17.75458         6.22264
|114>    H      -17.56042        16.80603         5.22136
|115>    H      -15.64119        21.99744         5.29237
|116> *
|117>
|118>                          ****END OF INPUT****

CARTESIAN COORDINATES (ANGSTROEM)
---------------------------------
  C     -0.366720   -0.762300   -0.357270
  S     -0.242080    0.878430    0.153620
  C     -1.271350    1.427530   -1.132190
  C     -1.682050    0.355240   -1.914140
  C     -1.156540   -0.897560   -1.460590
  O     -1.470190   -2.028390   -2.127060
  C     -0.926350   -3.231800   -1.639370
  C     -2.513520    0.432750   -3.038320
  N     -3.193830    0.474030   -3.963610
  C     -1.551360    2.816740   -1.237500
  C     -2.347150    3.387850   -2.171370
  C     -2.595580    4.779880   -2.271120
  S     -1.866770    5.930020   -1.189910
  C     -2.640940    7.266300   -1.999900
  C     -3.440470    6.818180   -3.041320
  C     -3.404700    5.421500   -3.197610
  C     -4.190370    4.697820   -4.246660
  C     -4.728260    5.663300   -5.300640
  C     -5.366180    6.900900   -4.647770
  N     -6.454020    6.619510   -3.727510
  C     -4.287410    7.697930   -3.906400
  C     -2.344870    8.567890   -1.501990
  C     -2.596190    9.762550   -2.079030
  C     -2.191820   10.990870   -1.462930
  C     -2.329130   12.218350   -1.989380
  C     -2.974080   12.497680   -3.313450
  C     -1.777110   13.421650   -1.264280
  N     -2.788810   14.415470   -1.004710
  C     -2.791150   15.657480   -1.506820
  C     -3.756560   16.593260   -1.274790
  C     -3.682410   17.893390   -1.793000
  C     -4.587040   18.897240   -1.550780
  C     -4.530720   20.224840   -2.030920
  C     -5.551310   21.020140   -1.602020
  C     -6.474090   20.362340   -0.759950
  S     -6.012320   18.697440   -0.533510
  C     -7.598510   20.907560   -0.158460
  C     -8.062000   22.232620   -0.248320
  C     -9.197240   22.468650    0.475430
  C     -9.686280   21.341230    1.164550
  S     -8.653480   19.965300    0.876560
  C    -10.810170   21.302170    1.974870
  C    -11.283190   20.158010    2.593470
  C    -12.381020   20.045890    3.430410
  C    -13.032850   18.734930    3.602510
  O    -12.610110   17.650740    3.251970
  C    -14.334020   19.024010    4.245680
  C    -15.361160   18.175630    4.534280
  C    -16.542570   18.694000    5.114460
  C    -16.631430   20.089800    5.382280
  C    -17.813750   20.602410    5.949660
  C    -18.846270   19.752390    6.232390
  C    -18.778230   18.377110    5.978730
  C    -17.636830   17.863380    5.427100
  F    -19.979860   20.242230    6.775700
  C    -15.543100   20.944310    5.081940
  C    -14.410700   20.417990    4.525880
  C    -13.142740   21.036290    4.129960
  C    -12.715280   22.278570    4.549970
  C    -11.394160   22.747560    4.430100
  N    -10.323820   23.166400    4.409400
  C    -13.521140   23.188870    5.256490
  N    -14.136730   23.985570    5.811640
  H      0.153990   -1.517880    0.194290
  H     -1.288260   -4.012200   -2.305580
  H     -1.264680   -3.434740   -0.618310
  H      0.167880   -3.209860   -1.660050
  H     -1.072910    3.445410   -0.496750
  H     -2.837240    2.766190   -2.905310
  H     -5.020130    4.165900   -3.767690
  H     -3.568490    3.939060   -4.726530
  H     -5.462260    5.148720   -5.924430
  H     -3.912610    5.994380   -5.946360
  H     -5.786700    7.536430   -5.438000
  H     -6.113780    6.095940   -2.928290
  H     -7.172450    6.067250   -4.182340
  H     -4.781270    8.452910   -3.291400
  H     -3.652580    8.207520   -4.637350
  H     -1.814730    8.566470   -0.556180
  H     -3.072600    9.822680   -3.041940
  H     -1.707470   10.892280   -0.498980
  H     -3.901060   11.939740   -3.425260
  H     -2.309060   12.209000   -4.128220
  H     -3.196800   13.557240   -3.416930
  H     -0.997890   13.888930   -1.875300
  H     -1.326030   13.106920   -0.316120
  H     -3.578420   14.125350   -0.446500
  H     -1.935270   15.910240   -2.120070
  H     -4.605920   16.342600   -0.654410
  H     -2.837960   18.139630   -2.424590
  H     -3.734180   20.554020   -2.675100
  H     -5.661960   22.056220   -1.865660
  H     -7.555920   22.978350   -0.834650
  H     -9.692100   23.421170    0.538810
  H    -11.346920   22.233500    2.084080
  H    -10.814310   19.214650    2.329090
  H    -15.278410   17.120320    4.320830
  H    -17.900100   21.656830    6.161340
  H    -19.624560   17.754580    6.222640
  H    -17.560420   16.806030    5.221360
  H    -15.641190   21.997440    5.292370

 Total Charge           Charge          ....    0
 Multiplicity           Mult            ....    1
 Number of Electrons    NEL             ....  468
 Basis Dimension        Dim             .... 1088

ORBITAL ENERGIES
----------------

  NO   OCC          E(Eh)            E(eV)
   0   2.0000     -88.968205     -2420.9479
   1   2.0000     -88.956216     -2420.6217
   2   2.0000     -88.955569     -2420.6041
   3   2.0000     -88.946929     -2420.3690
   4   2.0000     -24.763850      -673.8586
   5   2.0000     -19.259217      -524.0699
   6   2.0000     -19.176461      -521.8180
   7   2.0000     -14.470657      -393.7666
   8   2.0000     -14.401601      -391.8875
   9   2.0000     -14.383611      -391.3980
  10   2.0000     -14.381407      -391.3380
  11   2.0000     -14.379036      -391.2735
  12   2.0000     -10.351955      -281.6910
  13   2.0000     -10.350301      -281.6460
  14   2.0000     -10.345340      -281.5110
  15   2.0000     -10.335767      -281.2505
  16   2.0000     -10.331431      -281.1325
  17   2.0000     -10.328389      -281.0497
  18   2.0000     -10.328332      -281.0482
  19   2.0000     -10.327288      -281.0198
  20   2.0000     -10.312030      -280.6046
  21   2.0000     -10.309599      -280.5385
  22   2.0000     -10.307517      -280.4818
  23   2.0000     -10.306028      -280.4413
  24   2.0000     -10.305274      -280.4208
  25   2.0000     -10.304502      -280.3997
  26   2.0000     -10.304341      -280.3954
  27   2.0000     -10.303736      -280.3789
  28   2.0000     -10.302268      -280.3390
  29   2.0000     -10.301302      -280.3127
  30   2.0000     -10.299445      -280.2622
  31   2.0000     -10.295690      -280.1600
  32   2.0000     -10.295107      -280.1441
  33   2.0000     -10.294045      -280.1152
  34   2.0000     -10.293523      -280.1010
  35   2.0000     -10.292208      -280.0652
  36   2.0000     -10.290821      -280.0275
  37   2.0000     -10.290186      -280.0102
  38   2.0000     -10.288398      -279.9615
  39   2.0000     -10.286247      -279.9030
  40   2.0000     -10.283975      -279.8412
  41   2.0000     -10.283766      -279.8355
  42   2.0000     -10.283333      -279.8237
  43   2.0000     -10.283202      -279.8202
  44   2.0000     -10.282824      -279.8099
  45   2.0000     -10.281871      -279.7839
  46   2.0000     -10.281741      -279.7804
  47   2.0000     -10.279621      -279.7227
  48   2.0000     -10.279085      -279.7081
  49   2.0000     -10.275048      -279.5983
  50   2.0000     -10.274391      -279.5804
  51   2.0000     -10.274047      -279.5710
  52   2.0000     -10.273842      -279.5655
  53   2.0000     -10.273176      -279.5473
  54   2.0000     -10.273127      -279.5460
  55   2.0000     -10.271111      -279.4911
  56   2.0000     -10.270438      -279.4728
  57   2.0000     -10.267878      -279.4032
  58   2.0000     -10.265337      -279.3340
  59   2.0000     -10.264408      -279.3088
  60   2.0000     -10.259500      -279.1752
  61   2.0000     -10.259200      -279.1670
  62   2.0000     -10.252998      -278.9983
  63   2.0000      -8.064014      -219.4330
  64   2.0000      -8.052408      -219.1172
  65   2.0000      -8.051299      -219.0870
  66   2.0000      -8.043014      -218.8615
  67   2.0000      -6.033386      -164.1768
  68   2.0000      -6.029176      -164.0622
  69   2.0000      -6.025996      -163.9757
  70   2.0000      -6.021999      -163.8669
  71   2.0000      -6.020376      -163.8228
  72   2.0000      -6.018045      -163.7593
  73   2.0000      -6.016628      -163.7208
  74   2.0000      -6.013543      -163.6368
  75   2.0000      -6.013436      -163.6339
  76   2.0000      -6.012543      -163.6096
  77   2.0000      -6.008588      -163.5020
  78   2.0000      -6.004311      -163.3856
  79   2.0000      -1.277596       -34.7651
  80   2.0000      -1.165119       -31.7045
  81   2.0000      -1.090205       -29.6660
  82   2.0000      -1.069331       -29.0980
  83   2.0000      -1.002726       -27.2856
  84   2.0000      -1.000404       -27.2224
  85   2.0000      -0.997171       -27.1344
  86   2.0000      -0.984420       -26.7874
  87   2.0000      -0.979241       -26.6465
  88   2.0000      -0.976169       -26.5629
  89   2.0000      -0.973582       -26.4925
  90   2.0000      -0.970054       -26.3965
  91   2.0000      -0.959358       -26.1055
  92   2.0000      -0.945960       -25.7409
  93   2.0000      -0.937185       -25.5021
  94   2.0000      -0.918623       -24.9970
  95   2.0000      -0.910098       -24.7650
  96   2.0000      -0.900520       -24.5044
  97   2.0000      -0.895800       -24.3760
  98   2.0000      -0.885566       -24.0975
  99   2.0000      -0.878915       -23.9165
 100   2.0000      -0.866469       -23.5778
 101   2.0000      -0.866330       -23.5740
 102   2.0000      -0.860797       -23.4235
 103   2.0000      -0.855779       -23.2869
 104   2.0000      -0.852173       -23.1888
 105   2.0000      -0.844995       -22.9935
 106   2.0000      -0.829088       -22.5606
 107   2.0000      -0.827416       -22.5151
 108   2.0000      -0.822737       -22.3878
 109   2.0000      -0.817222       -22.2377
 110   2.0000      -0.807690       -21.9784
 111   2.0000      -0.802008       -21.8237
 112   2.0000      -0.800494       -21.7826
 113   2.0000      -0.791631       -21.5414
 114   2.0000      -0.781976       -21.2787
 115   2.0000      -0.764621       -20.8064
 116   2.0000      -0.755400       -20.5555
 117   2.0000      -0.734674       -19.9915
 118   2.0000      -0.728398       -19.8207
 119   2.0000      -0.726004       -19.7556
 120   2.0000      -0.719189       -19.5701
 121   2.0000      -0.709254       -19.2998
 122   2.0000      -0.700404       -19.0590
 123   2.0000      -0.692109       -18.8333
 124   2.0000      -0.685128       -18.6433
 125   2.0000      -0.682634       -18.5754
 126   2.0000      -0.680531       -18.5182
 127   2.0000      -0.663618       -18.0580
 128   2.0000      -0.659590       -17.9484
 129   2.0000      -0.649299       -17.6683
 130   2.0000      -0.647483       -17.6189
 131   2.0000      -0.646793       -17.6001
 132   2.0000      -0.641521       -17.4567
 133   2.0000      -0.634939       -17.2776
 134   2.0000      -0.629630       -17.1331
 135   2.0000      -0.621409       -16.9094
 136   2.0000      -0.617637       -16.8068
 137   2.0000      -0.611291       -16.6341
 138   2.0000      -0.605276       -16.4704
 139   2.0000      -0.604113       -16.4388
 140   2.0000      -0.601999       -16.3812
 141   2.0000      -0.597357       -16.2549
 142   2.0000      -0.593384       -16.1468
 143   2.0000      -0.593127       -16.1398
 144   2.0000      -0.588499       -16.0139
 145   2.0000      -0.574242       -15.6259
 146   2.0000      -0.572240       -15.5715
 147   2.0000      -0.566078       -15.4038
 148   2.0000      -0.564859       -15.3706
 149   2.0000      -0.558963       -15.2102
 150   2.0000      -0.554517       -15.0892
 151   2.0000      -0.553948       -15.0737
 152   2.0000      -0.551735       -15.0135
 153   2.0000      -0.546318       -14.8661
 154   2.0000      -0.540074       -14.6962
 155   2.0000      -0.535795       -14.5797
 156   2.0000      -0.535484       -14.5712
 157   2.0000      -0.530665       -14.4401
 158   2.0000      -0.529531       -14.4093
 159   2.0000      -0.525010       -14.2862
 160   2.0000      -0.520103       -14.1527
 161   2.0000      -0.516996       -14.0682
 162   2.0000      -0.510226       -13.8840
 163   2.0000      -0.505904       -13.7664
 164   2.0000      -0.504446       -13.7267
 165   2.0000      -0.502796       -13.6818
 166   2.0000      -0.502190       -13.6653
 167   2.0000      -0.500895       -13.6300
 168   2.0000      -0.499694       -13.5974
 169   2.0000      -0.499542       -13.5932
 170   2.0000      -0.497900       -13.5485
 171   2.0000      -0.493924       -13.4404
 172   2.0000      -0.493065       -13.4170
 173   2.0000      -0.492146       -13.3920
 174   2.0000      -0.487607       -13.2685
 175   2.0000      -0.485163       -13.2020
 176   2.0000      -0.482642       -13.1334
 177   2.0000      -0.481349       -13.0982
 178   2.0000      -0.475224       -12.9315
 179   2.0000      -0.474169       -12.9028
 180   2.0000      -0.471741       -12.8367
 181   2.0000      -0.469913       -12.7870
 182   2.0000      -0.468709       -12.7542
 183   2.0000      -0.464896       -12.6505
 184   2.0000      -0.463692       -12.6177
 185   2.0000      -0.459782       -12.5113
 186   2.0000      -0.456797       -12.4301
 187   2.0000      -0.455460       -12.3937
 188   2.0000      -0.454638       -12.3713
 189   2.0000      -0.453224       -12.3328
 190   2.0000      -0.452210       -12.3053
 191   2.0000      -0.450322       -12.2539
 192   2.0000      -0.440584       -11.9889
 193   2.0000      -0.436853       -11.8874
 194   2.0000      -0.435608       -11.8535
 195   2.0000      -0.432465       -11.7680
 196   2.0000      -0.431406       -11.7392
 197   2.0000      -0.430181       -11.7058
 198   2.0000      -0.429767       -11.6946
 199   2.0000      -0.427803       -11.6411
 200   2.0000      -0.423945       -11.5361
 201   2.0000      -0.419921       -11.4266
 202   2.0000      -0.418276       -11.3819
 203   2.0000      -0.414359       -11.2753
 204   2.0000      -0.413041       -11.2394
 205   2.0000      -0.412810       -11.2331
 206   2.0000      -0.411024       -11.1845
 207   2.0000      -0.406691       -11.0666
 208   2.0000      -0.400992       -10.9115
 209   2.0000      -0.400725       -10.9043
 210   2.0000      -0.398191       -10.8353
 211   2.0000      -0.396711       -10.7951
 212   2.0000      -0.392810       -10.6889
 213   2.0000      -0.392318       -10.6755
 214   2.0000      -0.387773       -10.5518
 215   2.0000      -0.384991       -10.4761
 216   2.0000      -0.380820       -10.3626
 217   2.0000      -0.370804       -10.0901
 218   2.0000      -0.355874        -9.6838
 219   2.0000      -0.348541        -9.4843
 220   2.0000      -0.341683        -9.2977
 221   2.0000      -0.340977        -9.2785
 222   2.0000      -0.324350        -8.8260
 223   2.0000      -0.317323        -8.6348
 224   2.0000      -0.315816        -8.5938
 225   2.0000      -0.308547        -8.3960
 226   2.0000      -0.305403        -8.3104
 227   2.0000      -0.302162        -8.2222
 228   2.0000      -0.294428        -8.0118
 229   2.0000      -0.286077        -7.7846
 230   2.0000      -0.275056        -7.4846
 231   2.0000      -0.265058        -7.2126
 232   2.0000      -0.245767        -6.6877
 233   2.0000      -0.208239        -5.6665
 234   0.0000      -0.091112        -2.4793
 235   0.0000      -0.066579        -1.8117
 236   0.0000      -0.040048        -1.0898
 237   0.0000      -0.022439        -0.6106
 238   0.0000      -0.016312        -0.4439

MULLIKEN ATOMIC CHARGES
-----------------------
   0 C :   -0.228416
   1 S :    0.134139
   2 C :   -0.061734
   3 C :   -0.126949
   4 C :    0.272866
   5 O :   -0.288529
   6 C :    0.177056
   7 C :   -0.185070
   8 N :    0.116988
   9 C :    0.036829
  10 C :   -0.018639
  11 C :   -0.092536
  12 S :    0.104568
  13 C :   -0.121848
  14 C :   -0.087596
  15 C :   -0.091734
  16 C :    0.094553
  17 C :    0.071022
  18 C :   -0.019798
  19 N :   -0.184508
  20 C :    0.138727
  21 C :    0.051678
  22 C :   -0.013942
  23 C :    0.015591
  24 C :   -0.223771
  25 C :    0.093043
  26 C :    0.221871
  27 N :   -0.135128
  28 C :    0.071302
  29 C :   -0.035003
  30 C :    0.014781
  31 C :   -0.055719
  32 C :    0.057652
  33 C :    0.004909
  34 C :   -0.019279
  35 S :    0.095900
  36 C :   -0.073409
  37 C :    0.040152
  38 C :    0.023672
  39 C :   -0.010474
  40 S :    0.106477
  41 C :   -0.009641
  42 C :    0.026377
  43 C :   -0.146306
  44 C :    0.137288
  45 O :   -0.169320
  46 C :    0.008228
  47 C :   -0.096332
  48 C :    0.105766
  49 C :    0.104283
  50 C :   -0.103076
  51 C :    0.301415
  52 C :   -0.035440
  53 C :   -0.016135
  54 F :   -0.200020
  55 C :   -0.098031
  56 C :    0.042651
  57 C :    0.295525
  58 C :   -0.361698
  59 C :   -0.224101
  60 N :    0.149430
  61 C :   -0.177510
  62 N :    0.123376
  63 H :    0.020647
  64 H :    0.046321
  65 H :    0.024627
  66 H :    0.025527
  67 H :   -0.018254
  68 H :    0.007022
  69 H :    0.013739
  70 H :    0.037755
  71 H :   -0.002471
  72 H :   -0.001584
  73 H :   -0.009237
  74 H :    0.094741
  75 H :    0.091911
  76 H :    0.024360
  77 H :    0.023292
  78 H :   -0.020624
  79 H :   -0.016249
  80 H :   -0.030003
  81 H :    0.038024
  82 H :    0.034764
  83 H :    0.007923
  84 H :    0.024616
  85 H :    0.014092
  86 H :    0.131990
  87 H :    0.012821
  88 H :   -0.003605
  89 H :   -0.010811
  90 H :   -0.009880
  91 H :   -0.011586
  92 H :   -0.010306
  93 H :   -0.004948
  94 H :    0.003991
  95 H :    0.006116
  96 H :   -0.022160
  97 H :   -0.006778
  98 H :   -0.005256
  99 H :   -0.016350
 100 H :   -0.010602
Sum of atomic charges:   -0.0000000

LOEWDIN ATOMIC CHARGES
----------------------
   0 C :   -0.258565
   1 S :    0.452198
   2 C :   -0.128079
   3 C :   -0.136661
   4 C :    0.037034
   5 O :   -0.089474
   6 C :    0.081627
   7 C :   -0.022417
   8 N :   -0.071561
   9 C :   -0.063610
  10 C :   -0.011593
  11 C :   -0.178825
  12 S :    0.427852
  13 C :   -0.168574
  14 C :   -0.055208
  15 C :   -0.048798
  16 C :   -0.031094
  17 C :   -0.039036
  18 C :    0.013741
  19 N :   -0.102114
  20 C :   -0.029713
  21 C :   -0.031239
  22 C :   -0.033540
  23 C :   -0.038000
  24 C :   -0.055316
  25 C :   -0.055240
  26 C :    0.048549
  27 N :    0.027477
  28 C :    0.069910
  29 C :   -0.128407
  30 C :    0.002541
  31 C :   -0.190699
  32 C :   -0.005580
  33 C :   -0.059293
  34 C :   -0.135389
  35 S :    0.388621
  36 C :   -0.212831
  37 C :   -0.006560
  38 C :   -0.052392
  39 C :   -0.097576
  40 S :    0.401697
  41 C :   -0.081160
  42 C :    0.049929
  43 C :   -0.122299
  44 C :    0.074338
  45 O :   -0.172539
  46 C :   -0.053492
  47 C :    0.021959
  48 C :   -0.021968
  49 C :    0.000693
  50 C :   -0.044590
  51 C :    0.088017
  52 C :   -0.046116
  53 C :    0.000096
  54 F :   -0.073732
  55 C :    0.001517
  56 C :   -0.012094
  57 C :    0.066680
  58 C :   -0.166748
  59 C :   -0.024200
  60 N :   -0.073847
  61 C :   -0.019655
  62 N :   -0.079426
  63 H :    0.022969
  64 H :    0.032641
  65 H :    0.016626
  66 H :    0.016721
  67 H :    0.021473
  68 H :    0.040756
  69 H :    0.029833
  70 H :    0.040313
  71 H :    0.022409
  72 H :    0.023117
  73 H :    0.020468
  74 H :    0.050909
  75 H :    0.054551
  76 H :    0.034877
  77 H :    0.032025
  78 H :    0.026698
  79 H :    0.025725
  80 H :    0.024478
  81 H :    0.038001
  82 H :    0.040260
  83 H :    0.027617
  84 H :    0.033877
  85 H :    0.028280
  86 H :    0.088704
  87 H :    0.032406
  88 H :    0.022950
  89 H :    0.035621
  90 H :    0.035085
  91 H :    0.032339
  92 H :    0.033302
  93 H :    0.037255
  94 H :    0.036569
  95 H :    0.031797
  96 H :    0.035253
  97 H :    0.041211
  98 H :    0.038003
  99 H :    0.032557
 100 H :    0.037101

  Mayer bond orders larger than 0.100000
B(  0-C ,  1-S ) :   1.0922 B(  0-C ,  4-C ) :   1.4942 B(  0-C , 63-H ) :   0.9741
B(  1-S ,  2-C ) :   1.1542 B(  2-C ,  3-C ) :   1.4830 B(  2-C ,  9-C ) :   1.1596
B(  3-C ,  4-C ) :   1.2370 B(  3-C ,  7-C ) :   1.1517 B(  4-C ,  5-O ) :   1.2232
B(  5-O ,  6-C ) :   0.9544 B(  6-C , 64-H ) :   0.9808 B(  6-C , 65-H ) :   0.9688
B(  6-C , 66-H ) :   0.9684 B(  7-C ,  8-N ) :   2.9530 B(  9-C , 10-C ) :   1.6571
B(  9-C , 67-H ) :   0.9454 B( 10-C , 11-C ) :   1.1757 B( 10-C , 68-H ) :   0.9539
B( 11-C , 12-S ) :   1.1040 B( 11-C , 13-C ) :   0.1009 B( 11-C , 15-C ) :   1.4762
B( 12-S , 13-C ) :   1.1191 B( 13-C , 14-C ) :   1.4936 B( 13-C , 21-C ) :   1.1026
B( 14-C , 15-C ) :   1.3172 B( 14-C , 20-C ) :   1.0554 B( 15-C , 16-C ) :   1.0519
B( 16-C , 17-C ) :   1.0705 B( 16-C , 69-H ) :   0.9113 B( 16-C , 70-H ) :   0.9104
B( 17-C , 18-C ) :   1.0227 B( 17-C , 71-H ) :   0.9286 B( 17-C , 72-H ) :   0.9360
B( 18-C , 19-N ) :   1.1043 B( 18-C , 20-C ) :   1.0448 B( 18-C , 73-H ) :   0.9183
B( 19-N , 74-H ) :   0.9732 B( 19-N , 75-H ) :   0.9730 B( 20-C , 76-H ) :   0.9044
B( 20-C , 77-H ) :   0.9029 B( 21-C , 22-C ) :   1.7016 B( 21-C , 78-H ) :   0.9551
B( 22-C , 23-C ) :   1.1105 B( 22-C , 79-H ) :   0.9643 B( 23-C , 24-C ) :   1.7590
B( 23-C , 80-H ) :   0.9757 B( 24-C , 25-C ) :   1.0662 B( 24-C , 26-C ) :   1.0562
B( 25-C , 81-H ) :   0.9478 B( 25-C , 82-H ) :   0.9455 B( 25-C , 83-H ) :   0.9519
B( 26-C , 27-N ) :   0.9754 B( 26-C , 84-H ) :   0.9272 B( 26-C , 85-H ) :   0.9366
B( 27-N , 28-C ) :   1.2879 B( 27-N , 86-H ) :   0.9362 B( 28-C , 29-C ) :   1.5276
B( 28-C , 87-H ) :   0.9668 B( 29-C , 30-C ) :   1.2212 B( 29-C , 88-H ) :   0.9660
B( 30-C , 31-C ) :   1.5315 B( 30-C , 89-H ) :   0.9779 B( 31-C , 32-C ) :   1.1779
B( 31-C , 35-S ) :   1.0116 B( 32-C , 33-C ) :   1.5477 B( 32-C , 90-H ) :   0.9982
B( 33-C , 34-C ) :   1.2248 B( 33-C , 91-H ) :   0.9944 B( 34-C , 35-S ) :   1.1010
B( 34-C , 36-C ) :   1.4224 B( 36-C , 37-C ) :   1.2553 B( 36-C , 40-S ) :   1.0374
B( 37-C , 38-C ) :   1.5021 B( 37-C , 92-H ) :   0.9939 B( 38-C , 39-C ) :   1.2198
B( 38-C , 93-H ) :   1.0010 B( 39-C , 40-S ) :   1.1015 B( 39-C , 41-C ) :   1.4359
B( 41-C , 42-C ) :   1.2903 B( 41-C , 94-H ) :   0.9619 B( 42-C , 43-C ) :   1.4513
B( 42-C , 95-H ) :   0.9427 B( 43-C , 44-C ) :   0.9826 B( 43-C , 57-C ) :   1.1259
B( 44-C , 45-O ) :   2.2400 B( 44-C , 46-C ) :   0.9134 B( 46-C , 47-C ) :   1.4859
B( 46-C , 56-C ) :   1.2176 B( 47-C , 48-C ) :   1.1756 B( 47-C , 96-H ) :   1.0151
B( 48-C , 49-C ) :   1.2646 B( 48-C , 53-C ) :   1.2397 B( 49-C , 50-C ) :   1.2050
B( 49-C , 55-C ) :   1.1886 B( 50-C , 51-C ) :   1.4380 B( 50-C , 97-H ) :   1.0069
B( 51-C , 52-C ) :   1.2614 B( 51-C , 54-F ) :   1.0773 B( 52-C , 53-C ) :   1.4525
B( 52-C , 98-H ) :   0.9927 B( 53-C , 99-H ) :   0.9965 B( 55-C , 56-C ) :   1.4765
B( 55-C ,100-H ) :   0.9926 B( 56-C , 57-C ) :   0.9825 B( 57-C , 58-C ) :   1.5670
B( 58-C , 59-C ) :   1.1719 B( 58-C , 61-C ) :   1.1426 B( 59-C , 60-N ) :   3.0114
B( 61-C , 62-N ) :   2.9660

-----------------------------------------------------------------------------
         ABSORPTION SPECTRUM VIA TRANSITION ELECTRIC DIPOLE MOMENTS
-----------------------------------------------------------------------------
State   Energy  Wavelength   fosc         T2         TX        TY        TZ
        (cm-1)    (nm)                  (au**2)     (au)      (au)      (au)
-----------------------------------------------------------------------------
   0   11865.6    842.8   1.546909260  42.91916  -5.23876   2.44983   3.07780
   1   21865.8    457.3   0.105689373   1.59126   0.52464  -1.09237   0.35035
   2   23021.2    434.4   0.795592966  11.37727   0.19263  -3.33224   0.48614
   3   23504.5    425.5   0.498981609   6.98891   0.71473  -2.46560   0.63157
   4   24156.4    414.0   0.453267058   6.17729   0.01079   2.48423  -0.07597
   5   25445.1    393.0   0.050442200   0.65263   0.20229  -0.72431   0.29510
   6   25730.8    388.6   0.044721405   0.57219  -0.51350   0.54219  -0.12053
   7   27211.5    367.5   0.153610272   1.85842  -0.39902  -1.19810   0.51358
   8   27474.2    364.0   0.125129662   1.49938  -0.33150  -1.12764   0.34339
   9   28871.2    346.4   0.059038192   0.67320   0.57833   0.57710  -0.07543
  10   30898.2    323.6   0.059327570   0.63212   0.26682   0.68458  -0.30376
  11   32015.3    312.4   0.080776267   0.83062   0.32684   0.70262  -0.47971
  12   32234.3    310.2   0.206434527   2.10834  -0.90416  -1.11132   0.23622
  13   32462.1    308.1   0.016867665   0.17106   0.19330  -0.33050   0.15644
  14   33039.9    302.7   0.010401594   0.10364  -0.23586  -0.02644   0.21751
  15   33325.9    300.1   0.013490271   0.13326   0.03198   0.14257   0.33454
  16   33674.4    297.0   0.071670562   0.70067   0.72761   0.40738  -0.07287
  17   34157.3    292.8   0.324100375   3.12371   1.46437   0.77012  -0.62148
  18   34216.9    292.3   0.075651234   0.72787  -0.77637  -0.26368  -0.23576
  19   34525.5    289.6   0.173958357   1.65875  -0.57365  -1.01986  -0.53812
  20   35106.1    284.9   0.088988235   0.83450   0.25537  -0.83170   0.27851
  21   35855.8    278.9   0.042976778   0.39459  -0.31121  -0.50718  -0.20128
  22   36312.8    275.4   0.074603029   0.67635   0.46119  -0.11352   0.67139
  23   36459.5    274.3   0.014281087   0.12895   0.16848  -0.12401   0.29187
  24   37255.0    268.4   0.040987959   0.36220   0.27683   0.25237   0.47104
  25   37442.3    267.1   0.007686662   0.06759   0.07476  -0.24875  -0.01101
  26   37814.3    264.5   0.181284116   1.57826  -1.07947  -0.61543   0.18507
  27   38145.9    262.2   0.095760578   0.82645   0.10353   0.90303   0.01614
  28   38416.2    260.3   0.122045012   1.04588   0.62637   0.77648   0.22500
  29   38527.8    259.6   0.029517426   0.25222   0.18568   0.46241  -0.06264
  30   39061.0    256.0   0.000221003   0.00186   0.02185  -0.00610   0.03672
  31   39696.2    251.9   0.012564168   0.10420   0.00328   0.32267   0.00828
  32   39936.5    250.4   0.013883653   0.11445  -0.13775   0.30665   0.03798
  33   40288.2    248.2   0.152226082   1.24391   0.13072  -1.10357  -0.09467

FINAL SINGLE POINT ENERGY     -4079.352640212759

DIPOLE MOMENT
-------------
                                X             Y             Z
Electronic contribution:    -59.16319      66.11866      57.39244
Nuclear contribution   :     65.60828     -71.18904     -61.33329
                        -----------------------------------------
Total Dipole Moment    :      6.44509      -5.07038      -3.94084
                        -----------------------------------------
Magnitude (a.u.)       :      9.09825
Magnitude (Debye)      :     23.12592

Rotational constants in cm-1:     0.001206     0.000192     0.000171
Rotational constants in MHz :    36.166801     5.742502     5.125197

                             ****ORCA TERMINATED NORMALLY****
TOTAL RUN TIME: 0 days 0 hours 12 minutes 45 seconds 290 msec
