                         Program Version 4.2.0 -  RELEASE  -
|  1> # ORCA input file
|  2> # SCF done       -165.331808516235          0.000728070985
|  3> ! CAM-B3LYP def2-SVP def2/J RIJCOSX Grid4 TightSCF
|  4> %maxcore 5000
|  5> %tddft
|  6>     Mode sTDDFT
|  7>     Ethresh 5.0
|  8>     maxcore 5000
|  9> end
| 10>
| 11> %pal
| 12>   nprocs 6
| 13>   end
| 14> * xyz 0 1
| 15>    C        1.48502         6.06173         0.22744
| 16>    S        0.99691         7.08273        -1.06867
| 17>    C       -0.67442         6.65045        -0.86676
| 18>    C       -0.81884         5.75052         0.17526
| 19>    C        0.42730         5.41533         0.79980
| 20>    O        0.44039         4.55554         1.83594
| 21>    C        1.69460         4.23774         2.39440
| 22>    C       -2.03499         5.22176         0.63601
| 23>    N       -3.01008         4.78054         1.04865
| 24>    C       -1.63971         7.22657        -1.74733
| 25>    C       -2.92027         6.84906        -1.89648
| 26>    C       -3.77708         7.49437        -2.87582
| 27>    N       -4.89173         6.85077        -3.22408
| 28>    C       -5.62881         7.40114        -4.17261
| 29>    C       -5.28726         8.59519        -4.78557
| 30>    C       -4.12960         9.23035        -4.31734
| 31>    N       -3.38288         8.66377        -3.36867
| 32>    C       -3.68831        10.51193        -4.82634
| 33>    C       -2.79718        11.24030        -4.13459
| 34>    N       -2.31060        12.45036        -4.53870
| 35>    C       -1.50734        13.30119        -3.84437
| 36>    S       -1.41895        14.94389        -4.40760
| 37>    C       -0.42107        15.35210        -3.04744
| 38>    N        0.04330        16.66725        -2.95718
| 39>    O        0.74369        16.95813        -2.00574
| 40>    O       -0.29510        17.42682        -3.85033
| 41>    C       -0.18557        14.28971        -2.21924
| 42>    C       -0.77799        13.09067        -2.66657
| 43>    C       -0.58510        11.83062        -1.99163
| 44>    C       -0.47780        11.71806        -0.64577
| 45>    C       -0.29516        10.48795         0.02092
| 46>    C       -0.34544        10.33693         1.38003
| 47>    C       -0.22260         9.12906         2.11494
| 48>    C       -0.36984         9.27385         3.45886
| 49>    C       -0.61681        10.60645         3.86785
| 50>    S       -0.63683        11.67272         2.48791
| 51>    C       -0.84652        11.06841         5.15120
| 52>    C       -0.88682        10.31783         6.34738
| 53>    C       -1.17293        11.05773         7.45569
| 54>    C       -1.37400        12.43473         7.19282
| 55>    S       -1.17278        12.75379         5.48709
| 56>    C       -1.69958        13.45866         8.06331
| 57>    C       -1.89482        13.26809         9.42887
| 58>    C       -2.25224        14.25822        10.32218
| 59>    C       -2.46617        14.09294        11.73756
| 60>    C       -2.31793        12.93907        12.47422
| 61>    C       -2.53034        12.85459        13.86435
| 62>    N       -2.68372        12.71627        14.99461
| 63>    C       -1.93167        11.68471        11.96435
| 64>    N       -1.62369        10.62918        11.62743
| 65>    C       -2.87036        15.38820        12.28109
| 66>    C       -2.88930        16.33534        11.22875
| 67>    C       -2.49802        15.67036         9.96722
| 68>    O       -2.40860        16.19845         8.87654
| 69>    C       -3.23582        17.64970        11.41983
| 70>    C       -3.58404        18.05139        12.71445
| 71>    C       -3.56433        17.09853        13.75905
| 72>    C       -3.21150        15.76795        13.56504
| 73>    S       -4.03299        17.80408        15.27693
| 74>    C       -4.24565        19.34870        14.49652
| 75>    C       -3.98017        19.33932        13.16898
| 76>   Br       -4.79974        20.82792        15.50876
| 77>    H        2.52448         6.00283         0.47767
| 78>    H        1.49047         3.53309         3.19755
| 79>    H        2.18475         5.12784         2.80191
| 80>    H        2.35061         3.77007         1.65365
| 81>    H       -1.27472         8.02351        -2.38296
| 82>    H       -3.35721         6.02823        -1.35051
| 83>    H       -6.52419         6.85805        -4.44708
| 84>    H       -5.89143         9.02881        -5.56551
| 85>    H       -4.11019        10.85457        -5.75991
| 86>    H       -2.45534        10.87300        -3.18113
| 87>    H       -2.69601        12.81956        -5.40037
| 88>    H        0.43139        14.36875        -1.34265
| 89>    H       -0.50472        10.94243        -2.60288
| 90>    H       -0.59089        12.59814        -0.02624
| 91>    H       -0.13434         9.60167        -0.57698
| 92>    H       -0.04075         8.19107         1.62247
| 93>    H       -0.31797         8.46425         4.16412
| 94>    H       -0.71142         9.25728         6.36182
| 95>    H       -1.24594        10.64501         8.44580
| 96>    H       -1.81753        14.45376         7.66006
| 97>    H       -1.76543        12.26854         9.81639
| 98>    H       -3.24063        18.34681        10.59659
| 99>    H       -3.21367        15.08175        14.39516
|100>    H       -4.06017        20.20311        12.53451
|101> *
|102>
|103>                          ****END OF INPUT****

CARTESIAN COORDINATES (ANGSTROEM)
---------------------------------
  C      1.485020    6.061730    0.227440
  S      0.996910    7.082730   -1.068670
  C     -0.674420    6.650450   -0.866760
  C     -0.818840    5.750520    0.175260
  C      0.427300    5.415330    0.799800
  O      0.440390    4.555540    1.835940
  C      1.694600    4.237740    2.394400
  C     -2.034990    5.221760    0.636010
  N     -3.010080    4.780540    1.048650
  C     -1.639710    7.226570   -1.747330
  C     -2.920270    6.849060   -1.896480
  C     -3.777080    7.494370   -2.875820
  N     -4.891730    6.850770   -3.224080
  C     -5.628810    7.401140   -4.172610
  C     -5.287260    8.595190   -4.785570
  C     -4.129600    9.230350   -4.317340
  N     -3.382880    8.663770   -3.368670
  C     -3.688310   10.511930   -4.826340
  C     -2.797180   11.240300   -4.134590
  N     -2.310600   12.450360   -4.538700
  C     -1.507340   13.301190   -3.844370
  S     -1.418950   14.943890   -4.407600
  C     -0.421070   15.352100   -3.047440
  N      0.043300   16.667250   -2.957180
  O      0.743690   16.958130   -2.005740
  O     -0.295100   17.426820   -3.850330
  C     -0.185570   14.289710   -2.219240
  C     -0.777990   13.090670   -2.666570
  C     -0.585100   11.830620   -1.991630
  C     -0.477800   11.718060   -0.645770
  C     -0.295160   10.487950    0.020920
  C     -0.345440   10.336930    1.380030
  C     -0.222600    9.129060    2.114940
  C     -0.369840    9.273850    3.458860
  C     -0.616810   10.606450    3.867850
  S     -0.636830   11.672720    2.487910
  C     -0.846520   11.068410    5.151200
  C     -0.886820   10.317830    6.347380
  C     -1.172930   11.057730    7.455690
  C     -1.374000   12.434730    7.192820
  S     -1.172780   12.753790    5.487090
  C     -1.699580   13.458660    8.063310
  C     -1.894820   13.268090    9.428870
  C     -2.252240   14.258220   10.322180
  C     -2.466170   14.092940   11.737560
  C     -2.317930   12.939070   12.474220
  C     -2.530340   12.854590   13.864350
  N     -2.683720   12.716270   14.994610
  C     -1.931670   11.684710   11.964350
  N     -1.623690   10.629180   11.627430
  C     -2.870360   15.388200   12.281090
  C     -2.889300   16.335340   11.228750
  C     -2.498020   15.670360    9.967220
  O     -2.408600   16.198450    8.876540
  C     -3.235820   17.649700   11.419830
  C     -3.584040   18.051390   12.714450
  C     -3.564330   17.098530   13.759050
  C     -3.211500   15.767950   13.565040
  S     -4.032990   17.804080   15.276930
  C     -4.245650   19.348700   14.496520
  C     -3.980170   19.339320   13.168980
  Br    -4.799740   20.827920   15.508760
  H      2.524480    6.002830    0.477670
  H      1.490470    3.533090    3.197550
  H      2.184750    5.127840    2.801910
  H      2.350610    3.770070    1.653650
  H     -1.274720    8.023510   -2.382960
  H     -3.357210    6.028230   -1.350510
  H     -6.524190    6.858050   -4.447080
  H     -5.891430    9.028810   -5.565510
  H     -4.110190   10.854570   -5.759910
  H     -2.455340   10.873000   -3.181130
  H     -2.696010   12.819560   -5.400370
  H      0.431390   14.368750   -1.342650
  H     -0.504720   10.942430   -2.602880
  H     -0.590890   12.598140   -0.026240
  H     -0.134340    9.601670   -0.576980
  H     -0.040750    8.191070    1.622470
  H     -0.317970    8.464250    4.164120
  H     -0.711420    9.257280    6.361820
  H     -1.245940   10.645010    8.445800
  H     -1.817530   14.453760    7.660060
  H     -1.765430   12.268540    9.816390
  H     -3.240630   18.346810   10.596590
  H     -3.213670   15.081750   14.395160
  H     -4.060170   20.203110   12.534510

 Total Charge           Charge          ....    0
 Multiplicity           Mult            ....    1
 Number of Electrons    NEL             ....  490
 Basis Dimension        Dim             .... 1026

ORBITAL ENERGIES
----------------

  NO   OCC          E(Eh)            E(eV)
   0   2.0000    -482.876563    -13139.7393
   1   2.0000     -88.992146     -2421.5994
   2   2.0000     -88.987390     -2421.4700
   3   2.0000     -88.964422     -2420.8450
   4   2.0000     -88.964177     -2420.8383
   5   2.0000     -88.960169     -2420.7293
   6   2.0000     -62.554273     -1702.1883
   7   2.0000     -56.388215     -1534.4013
   8   2.0000     -56.385517     -1534.3279
   9   2.0000     -56.385480     -1534.3269
  10   2.0000     -19.273206      -524.4506
  11   2.0000     -19.240605      -523.5635
  12   2.0000     -19.240217      -523.5529
  13   2.0000     -19.199464      -522.4440
  14   2.0000     -14.652623      -398.7181
  15   2.0000     -14.498527      -394.5250
  16   2.0000     -14.417131      -392.3101
  17   2.0000     -14.411775      -392.1643
  18   2.0000     -14.410294      -392.1240
  19   2.0000     -14.403723      -391.9452
  20   2.0000     -14.398465      -391.8022
  21   2.0000     -10.382104      -282.5114
  22   2.0000     -10.366857      -282.0965
  23   2.0000     -10.350642      -281.6553
  24   2.0000     -10.349803      -281.6324
  25   2.0000     -10.348131      -281.5870
  26   2.0000     -10.348018      -281.5839
  27   2.0000     -10.344710      -281.4939
  28   2.0000     -10.342856      -281.4434
  29   2.0000     -10.341412      -281.4041
  30   2.0000     -10.340662      -281.3837
  31   2.0000     -10.336780      -281.2781
  32   2.0000     -10.328553      -281.0542
  33   2.0000     -10.326978      -281.0114
  34   2.0000     -10.325398      -280.9684
  35   2.0000     -10.324724      -280.9500
  36   2.0000     -10.323839      -280.9260
  37   2.0000     -10.322693      -280.8947
  38   2.0000     -10.322265      -280.8831
  39   2.0000     -10.316735      -280.7326
  40   2.0000     -10.313539      -280.6457
  41   2.0000     -10.312732      -280.6237
  42   2.0000     -10.311619      -280.5934
  43   2.0000     -10.310035      -280.5503
  44   2.0000     -10.308174      -280.4997
  45   2.0000     -10.307515      -280.4817
  46   2.0000     -10.305153      -280.4175
  47   2.0000     -10.305039      -280.4144
  48   2.0000     -10.304264      -280.3933
  49   2.0000     -10.302927      -280.3569
  50   2.0000     -10.302904      -280.3563
  51   2.0000     -10.302634      -280.3489
  52   2.0000     -10.299406      -280.2611
  53   2.0000     -10.298274      -280.2303
  54   2.0000     -10.294773      -280.1350
  55   2.0000     -10.293609      -280.1033
  56   2.0000     -10.291747      -280.0527
  57   2.0000     -10.291739      -280.0525
  58   2.0000     -10.291636      -280.0497
  59   2.0000     -10.289786      -279.9993
  60   2.0000     -10.288137      -279.9544
  61   2.0000     -10.287366      -279.9334
  62   2.0000     -10.286211      -279.9020
  63   2.0000     -10.277362      -279.6612
  64   2.0000     -10.276185      -279.6292
  65   2.0000     -10.275164      -279.6014
  66   2.0000      -8.783693      -239.0164
  67   2.0000      -8.088221      -220.0917
  68   2.0000      -8.082294      -219.9304
  69   2.0000      -8.060578      -219.3395
  70   2.0000      -8.060385      -219.3342
  71   2.0000      -8.056613      -219.2316
  72   2.0000      -6.619959      -180.1383
  73   2.0000      -6.605439      -179.7431
  74   2.0000      -6.605256      -179.7381
  75   2.0000      -6.057969      -164.8457
  76   2.0000      -6.053548      -164.7254
  77   2.0000      -6.051626      -164.6731
  78   2.0000      -6.049423      -164.6132
  79   2.0000      -6.047435      -164.5591
  80   2.0000      -6.044481      -164.4787
  81   2.0000      -6.030235      -164.0910
  82   2.0000      -6.030069      -164.0865
  83   2.0000      -6.026294      -163.9838
  84   2.0000      -6.026259      -163.9828
  85   2.0000      -6.025816      -163.9708
  86   2.0000      -6.022128      -163.8704
  87   2.0000      -6.021622      -163.8567
  88   2.0000      -6.021504      -163.8535
  89   2.0000      -6.017741      -163.7511
  90   2.0000      -2.735812       -74.4452
  91   2.0000      -2.731771       -74.3353
  92   2.0000      -2.731637       -74.3316
  93   2.0000      -2.720092       -74.0175
  94   2.0000      -2.720083       -74.0172
  95   2.0000      -1.321608       -35.9628
  96   2.0000      -1.179693       -32.1011
  97   2.0000      -1.140903       -31.0455
  98   2.0000      -1.113325       -30.2951
  99   2.0000      -1.101811       -29.9818
 100   2.0000      -1.089813       -29.6553
 101   2.0000      -1.016761       -27.6675
 102   2.0000      -1.013207       -27.5708
 103   2.0000      -1.012424       -27.5495
 104   2.0000      -1.009335       -27.4654
 105   2.0000      -1.000145       -27.2153
 106   2.0000      -0.989990       -26.9390
 107   2.0000      -0.989260       -26.9191
 108   2.0000      -0.988522       -26.8991
 109   2.0000      -0.980358       -26.6769
 110   2.0000      -0.974456       -26.5163
 111   2.0000      -0.937184       -25.5021
 112   2.0000      -0.930497       -25.3201
 113   2.0000      -0.930231       -25.3129
 114   2.0000      -0.912167       -24.8213
 115   2.0000      -0.906384       -24.6640
 116   2.0000      -0.895697       -24.3732
 117   2.0000      -0.894111       -24.3300
 118   2.0000      -0.886855       -24.1326
 119   2.0000      -0.881432       -23.9850
 120   2.0000      -0.873401       -23.7664
 121   2.0000      -0.872129       -23.7318
 122   2.0000      -0.862052       -23.4576
 123   2.0000      -0.859717       -23.3941
 124   2.0000      -0.848597       -23.0915
 125   2.0000      -0.841847       -22.9078
 126   2.0000      -0.835094       -22.7241
 127   2.0000      -0.823789       -22.4164
 128   2.0000      -0.816398       -22.2153
 129   2.0000      -0.804132       -21.8815
 130   2.0000      -0.799130       -21.7454
 131   2.0000      -0.786426       -21.3997
 132   2.0000      -0.772883       -21.0312
 133   2.0000      -0.763865       -20.7858
 134   2.0000      -0.756246       -20.5785
 135   2.0000      -0.744145       -20.2492
 136   2.0000      -0.730894       -19.8886
 137   2.0000      -0.723455       -19.6862
 138   2.0000      -0.709865       -19.3164
 139   2.0000      -0.707280       -19.2461
 140   2.0000      -0.695704       -18.9311
 141   2.0000      -0.688877       -18.7453
 142   2.0000      -0.682283       -18.5659
 143   2.0000      -0.676271       -18.4023
 144   2.0000      -0.675107       -18.3706
 145   2.0000      -0.671117       -18.2620
 146   2.0000      -0.660036       -17.9605
 147   2.0000      -0.657612       -17.8945
 148   2.0000      -0.649578       -17.6759
 149   2.0000      -0.644438       -17.5361
 150   2.0000      -0.640517       -17.4294
 151   2.0000      -0.638654       -17.3787
 152   2.0000      -0.634217       -17.2579
 153   2.0000      -0.633291       -17.2327
 154   2.0000      -0.626075       -17.0364
 155   2.0000      -0.617489       -16.8027
 156   2.0000      -0.612723       -16.6731
 157   2.0000      -0.611507       -16.6399
 158   2.0000      -0.608437       -16.5564
 159   2.0000      -0.595288       -16.1986
 160   2.0000      -0.592475       -16.1221
 161   2.0000      -0.590277       -16.0622
 162   2.0000      -0.583098       -15.8669
 163   2.0000      -0.580947       -15.8084
 164   2.0000      -0.579825       -15.7778
 165   2.0000      -0.575054       -15.6480
 166   2.0000      -0.570167       -15.5150
 167   2.0000      -0.563126       -15.3234
 168   2.0000      -0.559118       -15.2144
 169   2.0000      -0.557447       -15.1689
 170   2.0000      -0.552279       -15.0283
 171   2.0000      -0.543529       -14.7902
 172   2.0000      -0.535662       -14.5761
 173   2.0000      -0.533612       -14.5203
 174   2.0000      -0.531087       -14.4516
 175   2.0000      -0.525169       -14.2906
 176   2.0000      -0.524882       -14.2828
 177   2.0000      -0.522687       -14.2230
 178   2.0000      -0.519930       -14.1480
 179   2.0000      -0.516527       -14.0554
 180   2.0000      -0.513915       -13.9843
 181   2.0000      -0.513292       -13.9674
 182   2.0000      -0.511643       -13.9225
 183   2.0000      -0.510420       -13.8892
 184   2.0000      -0.507046       -13.7974
 185   2.0000      -0.505048       -13.7431
 186   2.0000      -0.496901       -13.5214
 187   2.0000      -0.496508       -13.5107
 188   2.0000      -0.495223       -13.4757
 189   2.0000      -0.490924       -13.3587
 190   2.0000      -0.488067       -13.2810
 191   2.0000      -0.485179       -13.2024
 192   2.0000      -0.481682       -13.1072
 193   2.0000      -0.480312       -13.0699
 194   2.0000      -0.478729       -13.0269
 195   2.0000      -0.476672       -12.9709
 196   2.0000      -0.471453       -12.8289
 197   2.0000      -0.469947       -12.7879
 198   2.0000      -0.467381       -12.7181
 199   2.0000      -0.466826       -12.7030
 200   2.0000      -0.460135       -12.5209
 201   2.0000      -0.458295       -12.4708
 202   2.0000      -0.448363       -12.2006
 203   2.0000      -0.444514       -12.0958
 204   2.0000      -0.441624       -12.0172
 205   2.0000      -0.441066       -12.0020
 206   2.0000      -0.438092       -11.9211
 207   2.0000      -0.436460       -11.8767
 208   2.0000      -0.436358       -11.8739
 209   2.0000      -0.434975       -11.8363
 210   2.0000      -0.433324       -11.7914
 211   2.0000      -0.431118       -11.7313
 212   2.0000      -0.429860       -11.6971
 213   2.0000      -0.426799       -11.6138
 214   2.0000      -0.419103       -11.4044
 215   2.0000      -0.415229       -11.2990
 216   2.0000      -0.413833       -11.2610
 217   2.0000      -0.409980       -11.1561
 218   2.0000      -0.409353       -11.1391
 219   2.0000      -0.408527       -11.1166
 220   2.0000      -0.402804       -10.9608
 221   2.0000      -0.393850       -10.7172
 222   2.0000      -0.393258       -10.7011
 223   2.0000      -0.388416       -10.5693
 224   2.0000      -0.387189       -10.5360
 225   2.0000      -0.381525       -10.3818
 226   2.0000      -0.376410       -10.2426
 227   2.0000      -0.369641       -10.0584
 228   2.0000      -0.368816       -10.0360
 229   2.0000      -0.367118        -9.9898
 230   2.0000      -0.366141        -9.9632
 231   2.0000      -0.354872        -9.6566
 232   2.0000      -0.351695        -9.5701
 233   2.0000      -0.347744        -9.4626
 234   2.0000      -0.338348        -9.2069
 235   2.0000      -0.332439        -9.0461
 236   2.0000      -0.329742        -8.9727
 237   2.0000      -0.321245        -8.7415
 238   2.0000      -0.319776        -8.7016
 239   2.0000      -0.303145        -8.2490
 240   2.0000      -0.298754        -8.1295
 241   2.0000      -0.292574        -7.9613
 242   2.0000      -0.282095        -7.6762
 243   2.0000      -0.274183        -7.4609
 244   2.0000      -0.227693        -6.1958
 245   0.0000      -0.108100        -2.9415
 246   0.0000      -0.066014        -1.7963
 247   0.0000      -0.063945        -1.7400
 248   0.0000      -0.059665        -1.6236
 249   0.0000      -0.042209        -1.1486

MULLIKEN ATOMIC CHARGES
-----------------------
   0 C :   -0.230552
   1 S :    0.141962
   2 C :   -0.077086
   3 C :   -0.110170
   4 C :    0.258630
   5 O :   -0.282908
   6 C :    0.172112
   7 C :   -0.218118
   8 N :    0.175850
   9 C :    0.057330
  10 C :    0.033175
  11 C :   -0.067134
  12 N :   -0.066778
  13 C :    0.082401
  14 C :   -0.043014
  15 C :    0.053909
  16 N :   -0.095932
  17 C :   -0.042049
  18 C :    0.098165
  19 N :   -0.004186
  20 C :   -0.100713
  21 S :    0.165640
  22 C :   -0.005831
  23 N :    0.280347
  24 O :   -0.249204
  25 O :   -0.267610
  26 C :    0.002574
  27 C :    0.081492
  28 C :   -0.038801
  29 C :    0.002762
  30 C :    0.020333
  31 C :   -0.020585
  32 C :    0.072375
  33 C :    0.026042
  34 C :   -0.028436
  35 S :    0.090033
  36 C :   -0.065008
  37 C :    0.036749
  38 C :    0.017842
  39 C :   -0.027176
  40 S :    0.129973
  41 C :    0.019511
  42 C :   -0.032232
  43 C :   -0.086543
  44 C :    0.328960
  45 C :   -0.367000
  46 C :   -0.188288
  47 N :    0.136280
  48 C :   -0.190269
  49 N :    0.130286
  50 C :    0.013346
  51 C :   -0.008591
  52 C :    0.137235
  53 O :   -0.163033
  54 C :   -0.078080
  55 C :    0.117231
  56 C :   -0.091147
  57 C :   -0.026511
  58 S :    0.179146
  59 C :   -0.123802
  60 C :    0.037797
  61 Br:    0.014732
  62 H :    0.028275
  63 H :    0.053321
  64 H :    0.025036
  65 H :    0.030641
  66 H :   -0.002966
  67 H :    0.019762
  68 H :    0.010398
  69 H :   -0.007458
  70 H :   -0.021711
  71 H :    0.034945
  72 H :    0.135036
  73 H :    0.014741
  74 H :    0.017670
  75 H :    0.009605
  76 H :   -0.038866
  77 H :   -0.016935
  78 H :   -0.002889
  79 H :   -0.002041
  80 H :    0.017489
  81 H :    0.012495
  82 H :   -0.005190
  83 H :   -0.013896
  84 H :   -0.009282
  85 H :   -0.005608
Sum of atomic charges:   -0.0000000

LOEWDIN ATOMIC CHARGES
----------------------
   0 C :   -0.256607
   1 S :    0.464032
   2 C :   -0.136952
   3 C :   -0.124238
   4 C :    0.032003
   5 O :   -0.085279
   6 C :    0.082865
   7 C :   -0.028874
   8 N :   -0.046183
   9 C :   -0.031469
  10 C :   -0.000649
  11 C :    0.028653
  12 N :   -0.092765
  13 C :    0.054893
  14 C :   -0.070665
  15 C :    0.043153
  16 N :   -0.100583
  17 C :   -0.103212
  18 C :    0.066459
  19 N :    0.040308
  20 C :   -0.095222
  21 S :    0.450110
  22 C :   -0.211174
  23 N :    0.274100
  24 O :   -0.214710
  25 O :   -0.233049
  26 C :    0.007460
  27 C :   -0.109250
  28 C :   -0.015136
  29 C :   -0.029822
  30 C :   -0.032538
  31 C :   -0.145433
  32 C :   -0.011147
  33 C :   -0.032518
  34 C :   -0.148450
  35 S :    0.384843
  36 C :   -0.194065
  37 C :   -0.004699
  38 C :   -0.041250
  39 C :   -0.103071
  40 S :    0.408443
  41 C :   -0.070942
  42 C :    0.057673
  43 C :   -0.110233
  44 C :    0.075905
  45 C :   -0.159223
  46 C :   -0.019313
  47 N :   -0.068221
  48 C :   -0.015948
  49 N :   -0.075108
  50 C :   -0.019015
  51 C :   -0.048273
  52 C :    0.081513
  53 O :   -0.155994
  54 C :    0.017512
  55 C :   -0.035401
  56 C :   -0.145958
  57 C :   -0.012945
  58 S :    0.427630
  59 C :   -0.274468
  60 C :   -0.070937
  61 Br:    0.130188
  62 H :    0.026208
  63 H :    0.035399
  64 H :    0.016512
  65 H :    0.019276
  66 H :    0.027211
  67 H :    0.043674
  68 H :    0.028211
  69 H :    0.032829
  70 H :    0.025418
  71 H :    0.036893
  72 H :    0.094097
  73 H :    0.047159
  74 H :    0.032067
  75 H :    0.025324
  76 H :    0.022172
  77 H :    0.037081
  78 H :    0.036246
  79 H :    0.037064
  80 H :    0.042365
  81 H :    0.034327
  82 H :    0.036626
  83 H :    0.039237
  84 H :    0.040098
  85 H :    0.037749

  Mayer bond orders larger than 0.100000
B(  0-C ,  1-S ) :   1.1025 B(  0-C ,  4-C ) :   1.4724 B(  0-C , 62-H ) :   0.9772
B(  1-S ,  2-C ) :   1.1544 B(  2-C ,  3-C ) :   1.4990 B(  2-C ,  9-C ) :   1.1018
B(  3-C ,  4-C ) :   1.2354 B(  3-C ,  7-C ) :   1.1617 B(  4-C ,  5-O ) :   1.2355
B(  5-O ,  6-C ) :   0.9466 B(  6-C , 63-H ) :   0.9806 B(  6-C , 64-H ) :   0.9686
B(  6-C , 65-H ) :   0.9695 B(  7-C ,  8-N ) :   2.9960 B(  9-C , 10-C ) :   1.7336
B(  9-C , 66-H ) :   0.9404 B( 10-C , 11-C ) :   1.0241 B( 10-C , 67-H ) :   0.9662
B( 11-C , 12-N ) :   1.5390 B( 11-C , 16-N ) :   1.5340 B( 12-N , 13-C ) :   1.5341
B( 13-C , 14-C ) :   1.3886 B( 13-C , 68-H ) :   0.9805 B( 14-C , 15-C ) :   1.3225
B( 14-C , 69-H ) :   0.9767 B( 15-C , 16-N ) :   1.4965 B( 15-C , 17-C ) :   1.0914
B( 17-C , 18-C ) :   1.7053 B( 17-C , 70-H ) :   0.9698 B( 18-C , 19-N ) :   1.1433
B( 18-C , 71-H ) :   0.9378 B( 19-N , 20-C ) :   1.1942 B( 19-N , 72-H ) :   0.9094
B( 20-C , 21-S ) :   1.1402 B( 20-C , 27-C ) :   1.3796 B( 21-S , 22-C ) :   1.0755
B( 22-C , 23-N ) :   0.9731 B( 22-C , 26-C ) :   1.4876 B( 23-N , 24-O ) :   1.5355
B( 23-N , 25-O ) :   1.5065 B( 24-O , 25-O ) :   0.2576 B( 26-C , 27-C ) :   1.2415
B( 26-C , 73-H ) :   1.0037 B( 27-C , 28-C ) :   1.0372 B( 28-C , 29-C ) :   1.6937
B( 28-C , 74-H ) :   0.9659 B( 29-C , 30-C ) :   1.1408 B( 29-C , 75-H ) :   0.9736
B( 30-C , 31-C ) :   1.5925 B( 30-C , 76-H ) :   0.9700 B( 31-C , 32-C ) :   1.1319
B( 31-C , 35-S ) :   1.0195 B( 32-C , 33-C ) :   1.5967 B( 32-C , 77-H ) :   1.0024
B( 33-C , 34-C ) :   1.1831 B( 33-C , 78-H ) :   0.9958 B( 34-C , 35-S ) :   1.0746
B( 34-C , 36-C ) :   1.4814 B( 36-C , 37-C ) :   1.2036 B( 36-C , 40-S ) :   1.0429
B( 37-C , 38-C ) :   1.5714 B( 37-C , 79-H ) :   0.9936 B( 38-C , 39-C ) :   1.1819
B( 38-C , 80-H ) :   0.9895 B( 39-C , 40-S ) :   1.0966 B( 39-C , 41-C ) :   1.3950
B( 41-C , 42-C ) :   1.2946 B( 41-C , 81-H ) :   0.9647 B( 42-C , 43-C ) :   1.4740
B( 42-C , 82-H ) :   0.9472 B( 43-C , 44-C ) :   1.1129 B( 43-C , 52-C ) :   0.9612
B( 44-C , 45-C ) :   1.5810 B( 44-C , 50-C ) :   0.9925 B( 45-C , 46-C ) :   1.1492
B( 45-C , 48-C ) :   1.1559 B( 46-C , 47-N ) :   2.9620 B( 48-C , 49-N ) :   2.9735
B( 50-C , 51-C ) :   1.2790 B( 50-C , 57-C ) :   1.4170 B( 51-C , 52-C ) :   0.9357
B( 51-C , 54-C ) :   1.4288 B( 52-C , 53-O ) :   2.1889 B( 54-C , 55-C ) :   1.2383
B( 54-C , 83-H ) :   1.0174 B( 55-C , 56-C ) :   1.3155 B( 55-C , 60-C ) :   1.1626
B( 56-C , 57-C ) :   1.3213 B( 56-C , 58-S ) :   1.0827 B( 57-C , 84-H ) :   0.9805
B( 58-S , 59-C ) :   1.0866 B( 59-C , 60-C ) :   1.6171 B( 59-C , 61-Br) :   1.0130
B( 60-C , 85-H ) :   1.0006

-----------------------------------------------------------------------------
         ABSORPTION SPECTRUM VIA TRANSITION ELECTRIC DIPOLE MOMENTS
-----------------------------------------------------------------------------
State   Energy  Wavelength   fosc         T2         TX        TY        TZ
        (cm-1)    (nm)                  (au**2)     (au)      (au)      (au)
-----------------------------------------------------------------------------
   0   12782.8    782.3   1.864363376  48.01546   0.86993  -1.66452  -6.66994
   1   22024.1    454.0   0.014066030   0.21026   0.22531   0.35133   0.18988
   2   22301.8    448.4   0.000953398   0.01407  -0.01811   0.04715   0.10734
   3   22678.6    440.9   0.043988724   0.63856  -0.46334   0.62416  -0.18520
   4   23057.3    433.7   0.107935717   1.54110   0.83168   0.85752   0.33775
   5   24784.1    403.5   0.032087541   0.42622  -0.24545   0.47242  -0.37789
   6   25508.5    392.0   0.179201108   2.31277   0.67337  -1.28851  -0.44619
   7   26401.0    378.8   0.022201848   0.27685   0.02307  -0.51743  -0.09264
   8   26945.7    371.1   0.000135987   0.00166   0.00396  -0.04007   0.00633
   9   28184.5    354.8   0.144538574   1.68830  -0.16598   1.28870   0.00284
  10   28833.8    346.8   0.082858378   0.94604   0.05509  -0.96360   0.12033
  11   29346.5    340.8   0.582928215   6.53934   0.32672   2.52179  -0.27054
  12   30374.5    329.2   0.235008809   2.54712   1.05028   1.08179   0.52323
  13   30779.5    324.9   0.005966677   0.06382   0.06929  -0.24102  -0.03044
  14   31437.2    318.1   0.038949663   0.40788   0.09961  -0.62506  -0.08519
  15   31698.2    315.5   0.000323422   0.00336  -0.02685   0.05129   0.00274
  16   32315.8    309.4   0.635383914   6.47288   0.68538  -2.41183  -0.43154
  17   32488.5    307.8   0.073050549   0.74024  -0.68139   0.29382  -0.43545
  18   32629.9    306.5   0.343920593   3.46991  -1.55132  -0.00919  -1.03113
  19   32962.8    303.4   0.106574070   1.06440  -0.27217   0.99503  -0.01512
  20   33412.5    299.3   0.325142831   3.20361  -1.47810   0.11253  -1.00307
  21   34067.9    293.5   0.067567675   0.65293  -0.68132   0.41337   0.13366
  22   34706.5    288.1   0.202058670   1.91665  -0.55412   0.40255  -1.20314
  23   35057.6    285.2   0.000280457   0.00263  -0.03206  -0.01694   0.03631
  24   35423.4    282.3   0.016949520   0.15752  -0.01193  -0.35363   0.17980
  25   35803.2    279.3   0.013947556   0.12825  -0.19917  -0.27757   0.10740
  26   36069.8    277.2   0.004272307   0.03899  -0.17539   0.00013   0.09072
  27   36366.8    275.0   0.143522053   1.29924  -0.05427   0.94115  -0.64073
  28   36599.4    273.2   0.011034133   0.09925   0.09116   0.30144  -0.00866
  29   36754.7    272.1   0.052646916   0.47156   0.18798   0.66036  -0.01204
  30   37073.0    269.7   0.111127975   0.98683  -0.39102  -0.89588   0.17700
  31   37449.3    267.0   0.024216267   0.21288  -0.09961  -0.39354   0.21928
  32   38013.9    263.1   0.054294368   0.47021   0.22905  -0.59580  -0.25053
  33   38727.6    258.2   0.069203056   0.58827  -0.21537   0.53398  -0.50671
  34   38807.0    257.7   0.021223748   0.18005   0.06909  -0.35207   0.22654
  35   39012.6    256.3   0.507981228   4.28665   0.02730   1.33659  -1.58096
  36   39188.8    255.2   0.008662960   0.07277  -0.04401  -0.03277   0.26413
  37   39728.1    251.7   0.025096524   0.20797   0.35699  -0.19367   0.20740
  38   39869.3    250.8   0.038891476   0.32114  -0.34792  -0.13941  -0.42504
  39   39995.4    250.0   0.031014491   0.25529  -0.36847  -0.34123  -0.05552
  40   40087.2    249.5   0.064127480   0.52664  -0.17280  -0.43572   0.55401
  41   40203.4    248.7   0.126920431   1.03931   0.32528   0.80114  -0.54007
  42   40304.5    248.1   0.000011285   0.00009   0.00563   0.00771  -0.00098

FINAL SINGLE POINT ENERGY     -6974.459736979219

DIPOLE MOMENT
-------------
                                X             Y             Z
Electronic contribution:    -36.89416     126.24151     150.81163
Nuclear contribution   :     37.93607    -127.80045    -156.18607
                        -----------------------------------------
Total Dipole Moment    :      1.04191      -1.55894      -5.37444
                        -----------------------------------------
Magnitude (a.u.)       :      5.69214
Magnitude (Debye)      :     14.46828

Rotational constants in cm-1:     0.001283     0.000272     0.000239
Rotational constants in MHz :    38.462193     8.140339     7.167048

                             ****ORCA TERMINATED NORMALLY****
TOTAL RUN TIME: 0 days 0 hours 12 minutes 42 seconds 24 msec
