                         Program Version 4.2.0 -  RELEASE  -
|  1> # ORCA input file
|  2> # SCF done       -191.429780024182          0.000584519011
|  3> ! CAM-B3LYP def2-SVP def2/J RIJCOSX Grid4 TightSCF
|  4> %maxcore 5000
|  5> %tddft
|  6>     Mode sTDDFT
|  7>     Ethresh 5.0
|  8>     maxcore 5000
|  9> end
| 10>
| 11> %pal
| 12>   nprocs 6
| 13>   end
| 14> * xyz 0 1
| 15>    C        7.74661         5.79527        -3.07199
| 16>    S        6.15642         5.47870        -2.52232
| 17>    C        5.84060         7.16412        -2.26945
| 18>    C        6.95517         7.93065        -2.61008
| 19>    C        8.04947         7.12880        -3.07157
| 20>    O        9.27957         7.51246        -3.48401
| 21>    C        9.62182         8.87941        -3.48045
| 22>    C        6.97352         9.32694        -2.50037
| 23>    N        6.98565        10.47375        -2.41035
| 24>    C        4.55396         7.52176        -1.76956
| 25>    C        4.10511         8.76934        -1.52135
| 26>    C        2.80544         9.12394        -1.00636
| 27>    C        2.51795        10.48863        -0.82872
| 28>    C        1.29832        10.87175        -0.33070
| 29>    C        0.33111         9.90823         0.00584
| 30>    C        0.59939         8.55721        -0.16850
| 31>    C        1.82652         8.17777        -0.67059
| 32>    C       -0.83900        10.58692         0.51197
| 33>    C       -0.60150        11.97290         0.48778
| 34>    C        0.77846        12.26419        -0.05635
| 35>    C        0.70824        13.09894        -1.34849
| 36>    C       -0.14069        12.44234        -2.43047
| 37>    C        1.64984        12.99358         0.98265
| 38>    C        1.76863        12.22840         2.29523
| 39>    C       -1.55946        12.85173         0.92606
| 40>    C       -2.78730        12.36833         1.41530
| 41>    C       -3.00615        10.98029         1.42385
| 42>    C       -2.05017        10.09397         0.97830
| 43>    C       -3.76521        13.30861         1.89014
| 44>    C       -4.93882        12.99388         2.49479
| 45>    C       -5.88826        13.92224         2.96456
| 46>    C       -7.04768        13.53893         3.58657
| 47>    C       -8.08665        14.35549         4.10123
| 48>    C       -9.11861        13.66836         4.66392
| 49>    C       -8.95907        12.26384         4.63175
| 50>    S       -7.44555        11.84622         3.85642
| 51>    C       -9.79516        11.27477         5.10036
| 52>    C      -11.05736        11.38104         5.72962
| 53>    C      -11.61396        10.18446         6.05199
| 54>    C      -10.83302         9.04330         5.70261
| 55>    S       -9.33795         9.59051         4.95228
| 56>    C      -11.21995         7.74617         5.87224
| 57>    C      -10.52722         6.53894         5.53236
| 58>    C      -11.26158         5.33587         5.48796
| 59>    C      -10.64510         4.17135         5.11031
| 60>    C       -9.27496         4.15894         4.78993
| 61>    C       -8.52831         5.32548         4.87158
| 62>    C       -9.15488         6.49681         5.23727
| 63>    C       -8.90022         2.81789         4.40933
| 64>    C      -10.03539         1.99297         4.49142
| 65>    C      -11.23559         2.78760         4.95511
| 66>    C      -12.35878         2.77311         3.90211
| 67>    C      -11.90063         3.28875         2.54320
| 68>    C      -11.77631         2.25461         6.29471
| 69>    C      -10.72017         2.23770         7.39315
| 70>    C       -9.95298         0.66264         4.16381
| 71>    C       -8.72815         0.11975         3.73928
| 72>    C       -7.60568         0.95738         3.67100
| 73>    C       -7.68140         2.29376         4.00110
| 74>    C       -8.67819        -1.27666         3.38302
| 75>    C       -7.60636        -1.94960         2.92140
| 76>    C       -7.60838        -3.32869         2.56944
| 77>    S       -9.00707        -4.34733         2.69081
| 78>    C       -8.14897        -5.72556         2.09618
| 79>    C       -6.82204        -5.40443         1.81385
| 80>    C       -6.51840        -4.04020         2.08441
| 81>    O       -5.34832        -3.37740         1.93397
| 82>    C       -4.21541        -4.05691         1.44518
| 83>    C       -5.91202        -6.34966         1.31579
| 84>    N       -5.17021        -7.12548         0.90529
| 85>    C       -8.87555        -6.95741         1.97616
| 86>    C       -8.41133        -8.13065         1.54623
| 87>    H        8.39283         4.99662        -3.37164
| 88>    H       10.64902         8.91940        -3.83990
| 89>    H        9.57213         9.30550        -2.47475
| 90>    H        8.97986         9.45801        -4.15021
| 91>    H        3.91175         6.67003        -1.58982
| 92>    H        4.75965         9.60619        -1.71577
| 93>    H        3.26866        11.22198        -1.08682
| 94>    H       -0.14030         7.81284         0.08650
| 95>    H        2.03329         7.12704        -0.80237
| 96>    H        1.72278        13.24725        -1.72418
| 97>    H        0.29358        14.08038        -1.10824
| 98>    H        0.26841        11.47202        -2.70337
| 99>    H       -0.16388        13.06845        -3.31952
|100>    H       -1.16159        12.29845        -2.08329
|101>    H        1.21545        13.97709         1.17469
|102>    H        2.64524        13.14454         0.55985
|103>    H        0.78932        12.08558         2.74693
|104>    H        2.39377        12.77926         2.99430
|105>    H        2.21592        11.25062         2.13028
|106>    H       -1.38128        13.91802         0.90994
|107>    H       -3.94698        10.59273         1.78146
|108>    H       -2.24180         9.03123         0.99391
|109>    H       -3.51842        14.35563         1.75996
|110>    H       -5.19536        11.95488         2.65333
|111>    H       -5.70287        14.97990         2.83333
|112>    H       -8.03484        15.42848         4.03644
|113>    H       -9.98717        14.12812         5.10163
|114>    H      -11.51732        12.33518         5.91745
|115>    H      -12.57125        10.07132         6.53069
|116>    H      -12.21448         7.61142         6.28235
|117>    H      -12.31494         5.35186         5.73130
|118>    H       -7.47147         5.32005         4.65092
|119>    H       -8.56526         7.39461         5.32019
|120>    H      -13.18526         3.38894         4.26360
|121>    H      -12.72654         1.75014         3.79643
|122>    H      -11.54430         4.31347         2.62207
|123>    H      -12.72593         3.26418         1.83509
|124>    H      -11.09243         2.67447         2.15238
|125>    H      -12.15536         1.24190         6.14086
|126>    H      -12.61462         2.88108         6.60750
|127>    H       -9.88225         1.60456         7.10976
|128>    H      -11.14607         1.85281         8.31707
|129>    H      -10.34352         3.24122         7.57857
|130>    H      -10.82226         0.02238         4.22201
|131>    H       -6.65889         0.55051         3.35181
|132>    H       -6.80601         2.92307         3.93929
|133>    H       -9.60901        -1.82170         3.49610
|134>    H       -6.65040        -1.46697         2.78101
|135>    H       -3.42076        -3.31236         1.42245
|136>    H       -4.38075        -4.44247         0.43561
|137>    H       -3.92340        -4.87973         2.10309
|138>    H       -9.91209        -6.87545         2.28053
|139>    H       -7.39427        -8.27503         1.23145
|140>    H       -9.05732        -8.98977         1.50074
|141> *
|142>
|143>                          ****END OF INPUT****

CARTESIAN COORDINATES (ANGSTROEM)
---------------------------------
  C      7.746610    5.795270   -3.071990
  S      6.156420    5.478700   -2.522320
  C      5.840600    7.164120   -2.269450
  C      6.955170    7.930650   -2.610080
  C      8.049470    7.128800   -3.071570
  O      9.279570    7.512460   -3.484010
  C      9.621820    8.879410   -3.480450
  C      6.973520    9.326940   -2.500370
  N      6.985650   10.473750   -2.410350
  C      4.553960    7.521760   -1.769560
  C      4.105110    8.769340   -1.521350
  C      2.805440    9.123940   -1.006360
  C      2.517950   10.488630   -0.828720
  C      1.298320   10.871750   -0.330700
  C      0.331110    9.908230    0.005840
  C      0.599390    8.557210   -0.168500
  C      1.826520    8.177770   -0.670590
  C     -0.839000   10.586920    0.511970
  C     -0.601500   11.972900    0.487780
  C      0.778460   12.264190   -0.056350
  C      0.708240   13.098940   -1.348490
  C     -0.140690   12.442340   -2.430470
  C      1.649840   12.993580    0.982650
  C      1.768630   12.228400    2.295230
  C     -1.559460   12.851730    0.926060
  C     -2.787300   12.368330    1.415300
  C     -3.006150   10.980290    1.423850
  C     -2.050170   10.093970    0.978300
  C     -3.765210   13.308610    1.890140
  C     -4.938820   12.993880    2.494790
  C     -5.888260   13.922240    2.964560
  C     -7.047680   13.538930    3.586570
  C     -8.086650   14.355490    4.101230
  C     -9.118610   13.668360    4.663920
  C     -8.959070   12.263840    4.631750
  S     -7.445550   11.846220    3.856420
  C     -9.795160   11.274770    5.100360
  C    -11.057360   11.381040    5.729620
  C    -11.613960   10.184460    6.051990
  C    -10.833020    9.043300    5.702610
  S     -9.337950    9.590510    4.952280
  C    -11.219950    7.746170    5.872240
  C    -10.527220    6.538940    5.532360
  C    -11.261580    5.335870    5.487960
  C    -10.645100    4.171350    5.110310
  C     -9.274960    4.158940    4.789930
  C     -8.528310    5.325480    4.871580
  C     -9.154880    6.496810    5.237270
  C     -8.900220    2.817890    4.409330
  C    -10.035390    1.992970    4.491420
  C    -11.235590    2.787600    4.955110
  C    -12.358780    2.773110    3.902110
  C    -11.900630    3.288750    2.543200
  C    -11.776310    2.254610    6.294710
  C    -10.720170    2.237700    7.393150
  C     -9.952980    0.662640    4.163810
  C     -8.728150    0.119750    3.739280
  C     -7.605680    0.957380    3.671000
  C     -7.681400    2.293760    4.001100
  C     -8.678190   -1.276660    3.383020
  C     -7.606360   -1.949600    2.921400
  C     -7.608380   -3.328690    2.569440
  S     -9.007070   -4.347330    2.690810
  C     -8.148970   -5.725560    2.096180
  C     -6.822040   -5.404430    1.813850
  C     -6.518400   -4.040200    2.084410
  O     -5.348320   -3.377400    1.933970
  C     -4.215410   -4.056910    1.445180
  C     -5.912020   -6.349660    1.315790
  N     -5.170210   -7.125480    0.905290
  C     -8.875550   -6.957410    1.976160
  C     -8.411330   -8.130650    1.546230
  H      8.392830    4.996620   -3.371640
  H     10.649020    8.919400   -3.839900
  H      9.572130    9.305500   -2.474750
  H      8.979860    9.458010   -4.150210
  H      3.911750    6.670030   -1.589820
  H      4.759650    9.606190   -1.715770
  H      3.268660   11.221980   -1.086820
  H     -0.140300    7.812840    0.086500
  H      2.033290    7.127040   -0.802370
  H      1.722780   13.247250   -1.724180
  H      0.293580   14.080380   -1.108240
  H      0.268410   11.472020   -2.703370
  H     -0.163880   13.068450   -3.319520
  H     -1.161590   12.298450   -2.083290
  H      1.215450   13.977090    1.174690
  H      2.645240   13.144540    0.559850
  H      0.789320   12.085580    2.746930
  H      2.393770   12.779260    2.994300
  H      2.215920   11.250620    2.130280
  H     -1.381280   13.918020    0.909940
  H     -3.946980   10.592730    1.781460
  H     -2.241800    9.031230    0.993910
  H     -3.518420   14.355630    1.759960
  H     -5.195360   11.954880    2.653330
  H     -5.702870   14.979900    2.833330
  H     -8.034840   15.428480    4.036440
  H     -9.987170   14.128120    5.101630
  H    -11.517320   12.335180    5.917450
  H    -12.571250   10.071320    6.530690
  H    -12.214480    7.611420    6.282350
  H    -12.314940    5.351860    5.731300
  H     -7.471470    5.320050    4.650920
  H     -8.565260    7.394610    5.320190
  H    -13.185260    3.388940    4.263600
  H    -12.726540    1.750140    3.796430
  H    -11.544300    4.313470    2.622070
  H    -12.725930    3.264180    1.835090
  H    -11.092430    2.674470    2.152380
  H    -12.155360    1.241900    6.140860
  H    -12.614620    2.881080    6.607500
  H     -9.882250    1.604560    7.109760
  H    -11.146070    1.852810    8.317070
  H    -10.343520    3.241220    7.578570
  H    -10.822260    0.022380    4.222010
  H     -6.658890    0.550510    3.351810
  H     -6.806010    2.923070    3.939290
  H     -9.609010   -1.821700    3.496100
  H     -6.650400   -1.466970    2.781010
  H     -3.420760   -3.312360    1.422450
  H     -4.380750   -4.442470    0.435610
  H     -3.923400   -4.879730    2.103090
  H     -9.912090   -6.875450    2.280530
  H     -7.394270   -8.275030    1.231450
  H     -9.057320   -8.989770    1.500740

 Total Charge           Charge          ....    0
 Multiplicity           Mult            ....    1
 Number of Electrons    NEL             ....  532
 Basis Dimension        Dim             .... 1294

ORBITAL ENERGIES
----------------

  NO   OCC          E(Eh)            E(eV)
   0   2.0000     -88.966430     -2420.8996
   1   2.0000     -88.963188     -2420.8114
   2   2.0000     -88.936855     -2420.0949
   3   2.0000     -88.935083     -2420.0466
   4   2.0000     -19.255798      -523.9769
   5   2.0000     -19.245330      -523.6920
   6   2.0000     -14.405763      -392.0007
   7   2.0000     -14.400856      -391.8672
   8   2.0000     -10.348881      -281.6074
   9   2.0000     -10.342969      -281.4465
  10   2.0000     -10.324318      -280.9390
  11   2.0000     -10.322391      -280.8865
  12   2.0000     -10.320483      -280.8346
  13   2.0000     -10.315669      -280.7036
  14   2.0000     -10.312146      -280.6077
  15   2.0000     -10.310153      -280.5535
  16   2.0000     -10.305965      -280.4396
  17   2.0000     -10.304778      -280.4073
  18   2.0000     -10.302825      -280.3541
  19   2.0000     -10.301635      -280.3217
  20   2.0000     -10.299534      -280.2646
  21   2.0000     -10.299269      -280.2574
  22   2.0000     -10.297365      -280.2055
  23   2.0000     -10.288757      -279.9713
  24   2.0000     -10.283012      -279.8150
  25   2.0000     -10.282935      -279.8129
  26   2.0000     -10.280762      -279.7538
  27   2.0000     -10.280527      -279.7474
  28   2.0000     -10.279416      -279.7171
  29   2.0000     -10.278753      -279.6991
  30   2.0000     -10.276070      -279.6261
  31   2.0000     -10.274506      -279.5835
  32   2.0000     -10.274205      -279.5753
  33   2.0000     -10.273350      -279.5521
  34   2.0000     -10.273086      -279.5449
  35   2.0000     -10.272474      -279.5282
  36   2.0000     -10.272361      -279.5251
  37   2.0000     -10.272110      -279.5183
  38   2.0000     -10.272015      -279.5158
  39   2.0000     -10.271719      -279.5077
  40   2.0000     -10.271605      -279.5046
  41   2.0000     -10.269343      -279.4430
  42   2.0000     -10.268136      -279.4102
  43   2.0000     -10.267854      -279.4025
  44   2.0000     -10.267374      -279.3895
  45   2.0000     -10.267286      -279.3871
  46   2.0000     -10.266793      -279.3736
  47   2.0000     -10.265936      -279.3503
  48   2.0000     -10.265361      -279.3347
  49   2.0000     -10.265310      -279.3333
  50   2.0000     -10.263994      -279.2975
  51   2.0000     -10.263771      -279.2914
  52   2.0000     -10.263639      -279.2878
  53   2.0000     -10.263367      -279.2804
  54   2.0000     -10.263263      -279.2776
  55   2.0000     -10.263074      -279.2724
  56   2.0000     -10.263020      -279.2710
  57   2.0000     -10.262909      -279.2679
  58   2.0000     -10.262740      -279.2633
  59   2.0000     -10.262520      -279.2574
  60   2.0000     -10.261773      -279.2370
  61   2.0000     -10.261263      -279.2232
  62   2.0000     -10.261182      -279.2210
  63   2.0000     -10.260872      -279.2125
  64   2.0000     -10.258179      -279.1392
  65   2.0000     -10.257852      -279.1304
  66   2.0000     -10.257053      -279.1086
  67   2.0000     -10.256848      -279.1030
  68   2.0000     -10.241146      -278.6758
  69   2.0000     -10.240553      -278.6596
  70   2.0000     -10.240244      -278.6512
  71   2.0000     -10.239987      -278.6442
  72   2.0000      -8.061915      -219.3759
  73   2.0000      -8.058935      -219.2948
  74   2.0000      -8.032787      -218.5833
  75   2.0000      -8.031376      -218.5448
  76   2.0000      -6.030963      -164.1108
  77   2.0000      -6.028068      -164.0321
  78   2.0000      -6.027120      -164.0063
  79   2.0000      -6.024223      -163.9274
  80   2.0000      -6.023984      -163.9209
  81   2.0000      -6.021323      -163.8485
  82   2.0000      -6.002575      -163.3384
  83   2.0000      -6.001127      -163.2990
  84   2.0000      -5.998504      -163.2276
  85   2.0000      -5.997179      -163.1915
  86   2.0000      -5.993643      -163.0953
  87   2.0000      -5.992177      -163.0554
  88   2.0000      -1.160110       -31.5682
  89   2.0000      -1.150697       -31.3121
  90   2.0000      -1.003710       -27.3123
  91   2.0000      -0.998251       -27.1638
  92   2.0000      -0.987753       -26.8781
  93   2.0000      -0.984349       -26.7855
  94   2.0000      -0.982056       -26.7231
  95   2.0000      -0.980632       -26.6843
  96   2.0000      -0.978285       -26.6205
  97   2.0000      -0.965369       -26.2690
  98   2.0000      -0.941727       -25.6257
  99   2.0000      -0.939106       -25.5544
 100   2.0000      -0.918182       -24.9850
 101   2.0000      -0.915917       -24.9234
 102   2.0000      -0.901417       -24.5288
 103   2.0000      -0.895777       -24.3753
 104   2.0000      -0.890565       -24.2335
 105   2.0000      -0.882466       -24.0131
 106   2.0000      -0.874720       -23.8023
 107   2.0000      -0.867767       -23.6132
 108   2.0000      -0.859462       -23.3871
 109   2.0000      -0.855098       -23.2684
 110   2.0000      -0.849934       -23.1279
 111   2.0000      -0.841151       -22.8889
 112   2.0000      -0.839500       -22.8440
 113   2.0000      -0.831824       -22.6351
 114   2.0000      -0.830931       -22.6108
 115   2.0000      -0.830048       -22.5868
 116   2.0000      -0.827597       -22.5201
 117   2.0000      -0.826292       -22.4845
 118   2.0000      -0.826196       -22.4819
 119   2.0000      -0.824118       -22.4254
 120   2.0000      -0.820052       -22.3147
 121   2.0000      -0.811375       -22.0786
 122   2.0000      -0.801813       -21.8185
 123   2.0000      -0.790491       -21.5104
 124   2.0000      -0.773301       -21.0426
 125   2.0000      -0.764919       -20.8145
 126   2.0000      -0.756154       -20.5760
 127   2.0000      -0.755418       -20.5560
 128   2.0000      -0.752544       -20.4778
 129   2.0000      -0.733450       -19.9582
 130   2.0000      -0.721425       -19.6310
 131   2.0000      -0.716321       -19.4921
 132   2.0000      -0.715179       -19.4610
 133   2.0000      -0.710801       -19.3419
 134   2.0000      -0.705438       -19.1959
 135   2.0000      -0.692953       -18.8562
 136   2.0000      -0.686217       -18.6729
 137   2.0000      -0.676624       -18.4119
 138   2.0000      -0.671553       -18.2739
 139   2.0000      -0.668850       -18.2003
 140   2.0000      -0.668565       -18.1926
 141   2.0000      -0.667998       -18.1771
 142   2.0000      -0.666367       -18.1328
 143   2.0000      -0.664581       -18.0842
 144   2.0000      -0.658932       -17.9304
 145   2.0000      -0.654528       -17.8106
 146   2.0000      -0.651950       -17.7405
 147   2.0000      -0.643326       -17.5058
 148   2.0000      -0.639075       -17.3901
 149   2.0000      -0.624781       -17.0012
 150   2.0000      -0.622878       -16.9494
 151   2.0000      -0.617906       -16.8141
 152   2.0000      -0.610300       -16.6071
 153   2.0000      -0.607136       -16.5210
 154   2.0000      -0.603857       -16.4318
 155   2.0000      -0.600365       -16.3368
 156   2.0000      -0.595245       -16.1974
 157   2.0000      -0.587227       -15.9793
 158   2.0000      -0.585391       -15.9293
 159   2.0000      -0.578436       -15.7400
 160   2.0000      -0.569146       -15.4872
 161   2.0000      -0.568036       -15.4570
 162   2.0000      -0.561476       -15.2785
 163   2.0000      -0.558475       -15.1969
 164   2.0000      -0.558167       -15.1885
 165   2.0000      -0.553427       -15.0595
 166   2.0000      -0.552336       -15.0298
 167   2.0000      -0.548307       -14.9202
 168   2.0000      -0.544250       -14.8098
 169   2.0000      -0.538636       -14.6570
 170   2.0000      -0.537184       -14.6175
 171   2.0000      -0.536837       -14.6081
 172   2.0000      -0.535898       -14.5825
 173   2.0000      -0.534818       -14.5531
 174   2.0000      -0.529684       -14.4134
 175   2.0000      -0.525387       -14.2965
 176   2.0000      -0.519885       -14.1468
 177   2.0000      -0.516073       -14.0431
 178   2.0000      -0.514076       -13.9887
 179   2.0000      -0.511917       -13.9300
 180   2.0000      -0.511482       -13.9181
 181   2.0000      -0.511137       -13.9087
 182   2.0000      -0.509124       -13.8540
 183   2.0000      -0.508204       -13.8289
 184   2.0000      -0.502890       -13.6843
 185   2.0000      -0.500057       -13.6073
 186   2.0000      -0.498776       -13.5724
 187   2.0000      -0.496030       -13.4977
 188   2.0000      -0.493109       -13.4182
 189   2.0000      -0.492520       -13.4021
 190   2.0000      -0.490251       -13.3404
 191   2.0000      -0.487788       -13.2734
 192   2.0000      -0.484599       -13.1866
 193   2.0000      -0.482451       -13.1282
 194   2.0000      -0.480026       -13.0622
 195   2.0000      -0.476689       -12.9714
 196   2.0000      -0.474179       -12.9031
 197   2.0000      -0.470344       -12.7987
 198   2.0000      -0.468535       -12.7495
 199   2.0000      -0.465448       -12.6655
 200   2.0000      -0.465171       -12.6579
 201   2.0000      -0.464139       -12.6299
 202   2.0000      -0.463952       -12.6248
 203   2.0000      -0.461657       -12.5623
 204   2.0000      -0.460050       -12.5186
 205   2.0000      -0.458186       -12.4679
 206   2.0000      -0.457615       -12.4523
 207   2.0000      -0.453825       -12.3492
 208   2.0000      -0.451106       -12.2752
 209   2.0000      -0.448802       -12.2125
 210   2.0000      -0.448077       -12.1928
 211   2.0000      -0.446089       -12.1387
 212   2.0000      -0.440930       -11.9983
 213   2.0000      -0.440637       -11.9904
 214   2.0000      -0.440094       -11.9756
 215   2.0000      -0.438484       -11.9317
 216   2.0000      -0.436586       -11.8801
 217   2.0000      -0.435495       -11.8504
 218   2.0000      -0.435406       -11.8480
 219   2.0000      -0.433908       -11.8072
 220   2.0000      -0.432855       -11.7786
 221   2.0000      -0.430369       -11.7109
 222   2.0000      -0.424879       -11.5615
 223   2.0000      -0.422796       -11.5049
 224   2.0000      -0.421100       -11.4587
 225   2.0000      -0.419367       -11.4116
 226   2.0000      -0.418921       -11.3994
 227   2.0000      -0.418514       -11.3884
 228   2.0000      -0.416448       -11.3321
 229   2.0000      -0.416183       -11.3249
 230   2.0000      -0.416064       -11.3217
 231   2.0000      -0.413420       -11.2497
 232   2.0000      -0.409379       -11.1398
 233   2.0000      -0.407506       -11.0888
 234   2.0000      -0.406620       -11.0647
 235   2.0000      -0.402115       -10.9421
 236   2.0000      -0.400733       -10.9045
 237   2.0000      -0.399068       -10.8592
 238   2.0000      -0.389658       -10.6031
 239   2.0000      -0.387316       -10.5394
 240   2.0000      -0.387161       -10.5352
 241   2.0000      -0.385264       -10.4836
 242   2.0000      -0.382481       -10.4078
 243   2.0000      -0.381884       -10.3916
 244   2.0000      -0.379417       -10.3245
 245   2.0000      -0.378750       -10.3063
 246   2.0000      -0.376025       -10.2322
 247   2.0000      -0.375911       -10.2291
 248   2.0000      -0.373081       -10.1520
 249   2.0000      -0.360728        -9.8159
 250   2.0000      -0.346065        -9.4169
 251   2.0000      -0.334305        -9.0969
 252   2.0000      -0.327925        -8.9233
 253   2.0000      -0.320110        -8.7106
 254   2.0000      -0.316441        -8.6108
 255   2.0000      -0.315228        -8.5778
 256   2.0000      -0.311404        -8.4737
 257   2.0000      -0.309714        -8.4277
 258   2.0000      -0.308062        -8.3828
 259   2.0000      -0.307781        -8.3752
 260   2.0000      -0.299314        -8.1448
 261   2.0000      -0.285735        -7.7752
 262   2.0000      -0.268008        -7.2929
 263   2.0000      -0.246434        -6.7058
 264   2.0000      -0.236048        -6.4232
 265   2.0000      -0.201204        -5.4750
 266   0.0000      -0.073021        -1.9870
 267   0.0000      -0.048984        -1.3329
 268   0.0000      -0.043697        -1.1891
 269   0.0000      -0.017158        -0.4669
 270   0.0000       0.000731         0.0199

MULLIKEN ATOMIC CHARGES
-----------------------
   0 C :   -0.165396
   1 S :    0.142794
   2 C :   -0.078099
   3 C :   -0.124360
   4 C :    0.267426
   5 O :   -0.303176
   6 C :    0.182030
   7 C :   -0.228821
   8 N :    0.093964
   9 C :    0.074080
  10 C :   -0.025695
  11 C :    0.118714
  12 C :   -0.107880
  13 C :    0.014143
  14 C :    0.112930
  15 C :   -0.044339
  16 C :   -0.016908
  17 C :    0.108814
  18 C :    0.021677
  19 C :   -0.140367
  20 C :    0.071469
  21 C :    0.024631
  22 C :    0.069573
  23 C :    0.025682
  24 C :   -0.114304
  25 C :    0.131940
  26 C :   -0.010843
  27 C :   -0.048114
  28 C :   -0.013066
  29 C :    0.013434
  30 C :   -0.008424
  31 C :   -0.018948
  32 C :    0.036283
  33 C :    0.026733
  34 C :   -0.040051
  35 S :    0.046280
  36 C :   -0.040853
  37 C :    0.028333
  38 C :    0.036285
  39 C :   -0.010887
  40 S :    0.054322
  41 C :   -0.035828
  42 C :    0.114150
  43 C :   -0.110860
  44 C :    0.022654
  45 C :    0.109888
  46 C :   -0.052250
  47 C :   -0.025407
  48 C :    0.108191
  49 C :    0.020841
  50 C :   -0.143005
  51 C :    0.069296
  52 C :    0.024333
  53 C :    0.071592
  54 C :    0.026211
  55 C :   -0.117617
  56 C :    0.131807
  57 C :   -0.014157
  58 C :   -0.043312
  59 C :   -0.023428
  60 C :    0.045615
  61 C :   -0.169716
  62 S :    0.144635
  63 C :   -0.087444
  64 C :   -0.080609
  65 C :    0.236932
  66 O :   -0.309463
  67 C :    0.180673
  68 C :   -0.248836
  69 N :    0.112820
  70 C :    0.030447
  71 C :   -0.017080
  72 H :    0.019417
  73 H :    0.031901
  74 H :    0.038025
  75 H :    0.038585
  76 H :   -0.027467
  77 H :   -0.004301
  78 H :   -0.027193
  79 H :   -0.037512
  80 H :   -0.030433
  81 H :   -0.000465
  82 H :   -0.004800
  83 H :    0.020467
  84 H :    0.008265
  85 H :    0.021656
  86 H :   -0.004838
  87 H :   -0.000079
  88 H :    0.021557
  89 H :    0.008363
  90 H :    0.020082
  91 H :   -0.042548
  92 H :   -0.032645
  93 H :   -0.038025
  94 H :   -0.029017
  95 H :    0.005454
  96 H :   -0.020204
  97 H :   -0.013931
  98 H :   -0.015700
  99 H :   -0.016570
 100 H :   -0.016280
 101 H :   -0.025320
 102 H :   -0.044458
 103 H :   -0.037004
 104 H :   -0.014569
 105 H :   -0.005006
 106 H :   -0.005309
 107 H :    0.022857
 108 H :    0.007962
 109 H :    0.022277
 110 H :   -0.005196
 111 H :   -0.004714
 112 H :    0.021989
 113 H :    0.005830
 114 H :    0.021873
 115 H :   -0.044104
 116 H :   -0.033440
 117 H :   -0.038615
 118 H :   -0.028937
 119 H :   -0.004102
 120 H :    0.035030
 121 H :    0.040940
 122 H :    0.042128
 123 H :   -0.008500
 124 H :    0.044240
 125 H :    0.030310
Sum of atomic charges:   -0.0000000

LOEWDIN ATOMIC CHARGES
----------------------
   0 C :   -0.232514
   1 S :    0.466915
   2 C :   -0.129794
   3 C :   -0.151502
   4 C :    0.036785
   5 O :   -0.101255
   6 C :    0.079029
   7 C :   -0.026125
   8 N :   -0.082307
   9 C :   -0.060299
  10 C :    0.007017
  11 C :   -0.029561
  12 C :   -0.013640
  13 C :    0.002044
  14 C :   -0.012171
  15 C :   -0.019228
  16 C :   -0.012069
  17 C :   -0.021188
  18 C :    0.003837
  19 C :   -0.035149
  20 C :   -0.011115
  21 C :   -0.057836
  22 C :   -0.011495
  23 C :   -0.057750
  24 C :   -0.022792
  25 C :   -0.022699
  26 C :   -0.014024
  27 C :   -0.016946
  28 C :   -0.017985
  29 C :   -0.031845
  30 C :   -0.055370
  31 C :   -0.143420
  32 C :   -0.035534
  33 C :   -0.032396
  34 C :   -0.179140
  35 S :    0.361003
  36 C :   -0.181158
  37 C :   -0.038084
  38 C :   -0.030726
  39 C :   -0.145643
  40 S :    0.378143
  41 C :   -0.050629
  42 C :   -0.028751
  43 C :   -0.020422
  44 C :    0.001106
  45 C :   -0.017859
  46 C :   -0.017400
  47 C :   -0.026992
  48 C :   -0.019542
  49 C :    0.002791
  50 C :   -0.034821
  51 C :   -0.012191
  52 C :   -0.058135
  53 C :   -0.011738
  54 C :   -0.057741
  55 C :   -0.024262
  56 C :   -0.023101
  57 C :   -0.015356
  58 C :   -0.017078
  59 C :   -0.030322
  60 C :   -0.032545
  61 C :   -0.207951
  62 S :    0.470631
  63 C :   -0.133909
  64 C :   -0.141877
  65 C :    0.041021
  66 O :   -0.096074
  67 C :    0.080140
  68 C :   -0.026169
  69 N :   -0.072788
  70 C :   -0.053369
  71 C :   -0.015958
  72 H :    0.027567
  73 H :    0.028389
  74 H :    0.021060
  75 H :    0.021122
  76 H :    0.023957
  77 H :    0.035550
  78 H :    0.028535
  79 H :    0.026523
  80 H :    0.024563
  81 H :    0.020775
  82 H :    0.019093
  83 H :    0.025251
  84 H :    0.023660
  85 H :    0.025483
  86 H :    0.019118
  87 H :    0.020852
  88 H :    0.025453
  89 H :    0.023713
  90 H :    0.025253
  91 H :    0.022952
  92 H :    0.025934
  93 H :    0.026306
  94 H :    0.025501
  95 H :    0.017925
  96 H :    0.030903
  97 H :    0.032711
  98 H :    0.031159
  99 H :    0.030906
 100 H :    0.031611
 101 H :    0.031219
 102 H :    0.022352
 103 H :    0.026714
 104 H :    0.010791
 105 H :    0.018839
 106 H :    0.018683
 107 H :    0.026246
 108 H :    0.023230
 109 H :    0.025776
 110 H :    0.018816
 111 H :    0.018929
 112 H :    0.025806
 113 H :    0.022784
 114 H :    0.025780
 115 H :    0.022347
 116 H :    0.025019
 117 H :    0.026172
 118 H :    0.017198
 119 H :    0.033954
 120 H :    0.029428
 121 H :    0.022620
 122 H :    0.022816
 123 H :    0.030097
 124 H :    0.031359
 125 H :    0.030482

  Mayer bond orders larger than 0.100000
B(  0-C ,  1-S ) :   1.1245 B(  0-C ,  4-C ) :   1.5422 B(  0-C , 72-H ) :   0.9616
B(  1-S ,  2-C ) :   1.1817 B(  2-C ,  3-C ) :   1.4435 B(  2-C ,  9-C ) :   1.1432
B(  3-C ,  4-C ) :   1.1920 B(  3-C ,  7-C ) :   1.1641 B(  4-C ,  5-O ) :   1.1904
B(  5-O ,  6-C ) :   0.9405 B(  6-C , 73-H ) :   0.9746 B(  6-C , 74-H ) :   0.9683
B(  6-C , 75-H ) :   0.9685 B(  7-C ,  8-N ) :   2.9042 B(  9-C , 10-C ) :   1.6767
B(  9-C , 76-H ) :   0.9358 B( 10-C , 11-C ) :   1.0805 B( 10-C , 77-H ) :   0.9755
B( 11-C , 12-C ) :   1.2809 B( 11-C , 16-C ) :   1.3404 B( 12-C , 13-C ) :   1.3727
B( 12-C , 78-H ) :   1.0171 B( 13-C , 14-C ) :   1.3654 B( 13-C , 19-C ) :   0.9158
B( 14-C , 15-C ) :   1.3252 B( 14-C , 17-C ) :   1.0044 B( 15-C , 16-C ) :   1.4045
B( 15-C , 79-H ) :   0.9892 B( 16-C , 80-H ) :   0.9843 B( 17-C , 18-C ) :   1.3656
B( 17-C , 27-C ) :   1.3202 B( 18-C , 19-C ) :   0.9149 B( 18-C , 24-C ) :   1.3789
B( 19-C , 20-C ) :   1.0370 B( 19-C , 22-C ) :   1.0390 B( 20-C , 21-C ) :   1.1015
B( 20-C , 81-H ) :   0.9394 B( 20-C , 82-H ) :   0.9389 B( 21-C , 83-H ) :   0.9644
B( 21-C , 84-H ) :   0.9637 B( 21-C , 85-H ) :   0.9644 B( 22-C , 23-C ) :   1.1025
B( 22-C , 86-H ) :   0.9386 B( 22-C , 87-H ) :   0.9391 B( 23-C , 88-H ) :   0.9641
B( 23-C , 89-H ) :   0.9637 B( 23-C , 90-H ) :   0.9642 B( 24-C , 25-C ) :   1.2776
B( 24-C , 91-H ) :   1.0144 B( 25-C , 26-C ) :   1.3324 B( 25-C , 28-C ) :   1.0719
B( 26-C , 27-C ) :   1.4107 B( 26-C , 92-H ) :   0.9834 B( 27-C , 93-H ) :   0.9904
B( 28-C , 29-C ) :   1.6484 B( 28-C , 94-H ) :   0.9922 B( 29-C , 30-C ) :   1.1433
B( 29-C , 95-H ) :   0.9601 B( 30-C , 31-C ) :   1.5706 B( 30-C , 96-H ) :   0.9878
B( 31-C , 32-C ) :   1.1356 B( 31-C , 35-S ) :   1.0291 B( 32-C , 33-C ) :   1.5948
B( 32-C , 97-H ) :   0.9991 B( 33-C , 34-C ) :   1.1847 B( 33-C , 98-H ) :   0.9935
B( 34-C , 35-S ) :   1.0414 B( 34-C , 36-C ) :   1.5231 B( 36-C , 37-C ) :   1.1748
B( 36-C , 40-S ) :   1.0349 B( 37-C , 38-C ) :   1.6078 B( 37-C , 99-H ) :   0.9935
B( 38-C , 39-C ) :   1.1273 B( 38-C ,100-H ) :   0.9974 B( 39-C , 40-S ) :   1.0245
B( 39-C , 41-C ) :   1.6111 B( 41-C , 42-C ) :   1.0950 B( 41-C ,101-H ) :   0.9695
B( 42-C , 43-C ) :   1.2671 B( 42-C , 47-C ) :   1.3226 B( 43-C , 44-C ) :   1.3965
B( 43-C ,102-H ) :   1.0121 B( 44-C , 45-C ) :   1.3518 B( 44-C , 50-C ) :   0.9161
B( 45-C , 46-C ) :   1.3338 B( 45-C , 48-C ) :   1.0052 B( 46-C , 47-C ) :   1.4094
B( 46-C ,103-H ) :   0.9903 B( 47-C ,104-H ) :   0.9652 B( 48-C , 49-C ) :   1.3690
B( 48-C , 58-C ) :   1.3255 B( 49-C , 50-C ) :   0.9155 B( 49-C , 55-C ) :   1.3729
B( 50-C , 51-C ) :   1.0409 B( 50-C , 53-C ) :   1.0363 B( 51-C , 52-C ) :   1.1023
B( 51-C ,105-H ) :   0.9384 B( 51-C ,106-H ) :   0.9385 B( 52-C ,107-H ) :   0.9642
B( 52-C ,108-H ) :   0.9638 B( 52-C ,109-H ) :   0.9641 B( 53-C , 54-C ) :   1.1020
B( 53-C ,110-H ) :   0.9390 B( 53-C ,111-H ) :   0.9390 B( 54-C ,112-H ) :   0.9644
B( 54-C ,113-H ) :   0.9637 B( 54-C ,114-H ) :   0.9641 B( 55-C , 56-C ) :   1.2849
B( 55-C ,115-H ) :   1.0150 B( 56-C , 57-C ) :   1.3440 B( 56-C , 59-C ) :   1.0776
B( 57-C , 58-C ) :   1.3997 B( 57-C ,116-H ) :   0.9836 B( 58-C ,117-H ) :   0.9901
B( 59-C , 60-C ) :   1.6560 B( 59-C ,118-H ) :   0.9831 B( 60-C , 61-C ) :   1.1488
B( 60-C ,119-H ) :   0.9663 B( 61-C , 62-S ) :   1.0937 B( 61-C , 65-C ) :   1.4532
B( 62-S , 63-C ) :   1.1587 B( 63-C , 64-C ) :   1.4610 B( 63-C , 70-C ) :   1.1250
B( 64-C , 65-C ) :   1.2107 B( 64-C , 68-C ) :   1.1288 B( 65-C , 66-O ) :   1.2029
B( 66-O , 67-C ) :   0.9358 B( 67-C ,120-H ) :   0.9741 B( 67-C ,121-H ) :   0.9689
B( 67-C ,122-H ) :   0.9685 B( 68-C , 69-N ) :   2.9265 B( 70-C , 71-C ) :   1.9269
B( 70-C ,123-H ) :   0.9397 B( 71-C ,124-H ) :   0.9481 B( 71-C ,125-H ) :   0.9441

-----------------------------------------------------------------------------
         ABSORPTION SPECTRUM VIA TRANSITION ELECTRIC DIPOLE MOMENTS
-----------------------------------------------------------------------------
State   Energy  Wavelength   fosc         T2         TX        TY        TZ
        (cm-1)    (nm)                  (au**2)     (au)      (au)      (au)
-----------------------------------------------------------------------------
   0   14688.8    680.8   1.485628030  33.29659  -4.06268  -3.62210   1.91615
   1   22412.2    446.2   0.597898056   8.78249  -1.40224   2.45708   0.88260
   2   23717.3    421.6   2.425875935  33.67276   3.18188  -4.43484  -1.96992
   3   24670.7    405.3   0.086231381   1.15069   1.06158  -0.15156   0.02777
   4   26500.9    377.3   0.104816234   1.30210   1.13534   0.03082  -0.11025
   5   27786.8    359.9   0.132969722   1.57540  -1.08632   0.50054   0.38048
   6   28643.0    349.1   0.378446681   4.34973   0.46569  -1.97039  -0.50043
   7   29789.7    335.7   0.126746415   1.40070   1.08993   0.24779  -0.38904
   8   31758.0    314.9   0.246469897   2.55497   1.02057  -1.10730  -0.53600
   9   32038.9    312.1   0.019889297   0.20437   0.26374  -0.23061  -0.28571
  10   32834.5    304.6   0.001756624   0.01761  -0.01414  -0.11774   0.05958
  11   33527.5    298.3   0.078086783   0.76675  -0.60699   0.54668   0.31536
  12   33817.8    295.7   0.047716552   0.46451  -0.59300   0.21937   0.25444
  13   34171.5    292.6   0.045979469   0.44297   0.42584  -0.45707  -0.22960
  14   34412.5    290.6   0.067842346   0.64902   0.51145  -0.55555  -0.28073
  15   34748.0    287.8   0.006912377   0.06549   0.16503  -0.18079  -0.07463
  16   35109.6    284.8   0.007457392   0.06993  -0.00959   0.26071   0.04319
  17   35653.2    280.5   0.106420491   0.98266  -0.42620   0.83654   0.31813
  18   36116.2    276.9   0.006047245   0.05512   0.10627  -0.18754  -0.09305
  19   36308.4    275.4   0.018156046   0.16462  -0.25310  -0.31470  -0.03908
  20   36594.0    273.3   0.059637128   0.53652  -0.23487  -0.69309   0.03135
  21   37076.3    269.7   0.007788873   0.06916   0.15419  -0.19863  -0.07701
  22   37775.9    264.7   0.024117081   0.21018   0.09475  -0.44599  -0.04791
  23   38335.7    260.9   0.078407786   0.67334  -0.10241  -0.81310   0.04137
  24   38634.9    258.8   0.003746508   0.03192   0.00062  -0.12456  -0.12809
  25   38738.8    258.1   0.067778013   0.57599   0.63347   0.37576  -0.18306
  26   38983.4    256.5   0.017789581   0.15023   0.06330   0.35374  -0.14524
  27   39551.2    252.8   0.038625971   0.32151  -0.49112  -0.01910   0.28274
  28   40135.4    249.2   0.240118081   1.96958  -1.31071  -0.25764   0.43039

FINAL SINGLE POINT ENERGY     -4319.943272517889

DIPOLE MOMENT
-------------
                                X             Y             Z
Electronic contribution:      9.88910     -21.40319      -3.96345
Nuclear contribution   :    -11.35931      21.91799       4.55771
                        -----------------------------------------
Total Dipole Moment    :     -1.47021       0.51480       0.59426
                        -----------------------------------------
Magnitude (a.u.)       :      1.66724
Magnitude (Debye)      :      4.23779

Rotational constants in cm-1:     0.000534     0.000289     0.000190
Rotational constants in MHz :    16.021131     8.653789     5.700029

                             ****ORCA TERMINATED NORMALLY****
TOTAL RUN TIME: 0 days 0 hours 12 minutes 10 seconds 914 msec
