                         Program Version 4.2.0 -  RELEASE  -
|  1> # ORCA input file
|  2> # SCF done       -157.963690921994          0.000401423576
|  3> ! CAM-B3LYP def2-SVP def2/J RIJCOSX Grid4 TightSCF
|  4> %maxcore 5000
|  5> %tddft
|  6>     Mode sTDDFT
|  7>     Ethresh 5.0
|  8>     maxcore 5000
|  9> end
| 10>
| 11> %pal
| 12>   nprocs 6
| 13>   end
| 14> * xyz 0 1
| 15>    C        7.17652         4.62777        -1.26644
| 16>    S        6.26557         3.51381        -0.31857
| 17>    C        6.10326         4.69889         0.94013
| 18>    C        6.71800         5.88447         0.62101
| 19>    C        7.33571         5.83166        -0.65530
| 20>    C        8.04899         7.00538        -1.24770
| 21>    C        8.36563         8.05142        -0.17903
| 22>    C        7.15545         8.33683         0.71514
| 23>    O        6.03638         8.81134        -0.00421
| 24>    C        6.81212         7.07505         1.52083
| 25>    N        5.39675         4.46907         2.09870
| 26>    C        5.02282         3.30784         2.66413
| 27>    S        5.35661         1.74851         1.99539
| 28>    C        4.71083         1.00956         3.43944
| 29>    N        4.69543        -0.37472         3.49451
| 30>    O        4.23712        -0.90808         4.49448
| 31>    O        5.14875        -0.97222         2.52549
| 32>    C        4.28302         1.92292         4.37364
| 33>    C        4.42494         3.24178         3.93730
| 34>    C        4.08873         4.43817         4.67755
| 35>    C        3.39136         5.47241         4.16270
| 36>    C        3.24623         6.73969         4.81036
| 37>    C        4.27867         7.36640         5.43798
| 38>    C        4.27579         8.63455         6.08429
| 39>    C        5.50512         9.07915         6.45087
| 40>    C        6.56390         8.20170         6.10679
| 41>    S        5.93454         6.74687         5.37235
| 42>    C        7.91974         8.38988         6.25300
| 43>    C        8.60413         9.44184         6.90477
| 44>    C        9.95666         9.33456         6.84258
| 45>    C       10.42584         8.20716         6.11063
| 46>    S        9.06430         7.26361         5.54701
| 47>    C       11.74608         7.87687         5.95520
| 48>    C       12.32417         6.85103         5.17416
| 49>    C       11.92591         6.26273         3.97349
| 50>    C       10.83687         6.71902         3.22752
| 51>    N        9.95868         7.12870         2.60998
| 52>    C       12.84126         5.26919         3.51652
| 53>    C       13.91270         5.13169         4.39028
| 54>    S       13.85899         6.19926         5.73735
| 55>    S       15.09393         3.94625         3.94357
| 56>    C       14.14201         3.62705         2.53078
| 57>    C       12.98522         4.38415         2.40426
| 58>    C       12.30718         4.08066         1.18302
| 59>    C       11.20254         4.78381         0.68471
| 60>    N       10.33000         5.37177         0.22713
| 61>    C       12.95345         3.10523         0.44255
| 62>    S       14.41755         2.54528         1.22395
| 63>    C       12.62997         2.52672        -0.82774
| 64>    S       13.97294         2.10136        -1.86579
| 65>    C       12.90533         1.44697        -3.03158
| 66>    C       11.60076         1.53008        -2.65246
| 67>    C       11.42834         2.15559        -1.38922
| 68>    C       10.07205         2.32670        -0.79426
| 69>    C        9.08361         1.33074        -1.39741
| 70>    C        9.10444         1.41845        -2.92397
| 71>    O        8.81388         2.74869        -3.30128
| 72>    C       10.46912         0.95680        -3.44912
| 73>    H        7.55996         4.30091        -2.21188
| 74>    H        7.42896         7.44371        -2.03860
| 75>    H        8.97511         6.66780        -1.71312
| 76>    H        8.69133         8.97502        -0.65946
| 77>    H        9.16914         7.68204         0.45622
| 78>    H        7.39918         9.14569         1.41158
| 79>    H        5.79622         8.13562        -0.64880
| 80>    H        5.87493         7.24033         2.06221
| 81>    H        7.60911         6.91100         2.25160
| 82>    H        5.27012         5.28640         2.69169
| 83>    H        3.86193         1.63168         5.31865
| 84>    H        4.41367         4.47345         5.70879
| 85>    H        2.88290         5.35118         3.21279
| 86>    H        2.30430         7.26273         4.72115
| 87>    H        3.35961         9.17705         6.23728
| 88>    H        5.69135        10.02734         6.92271
| 89>    H        8.08015        10.23569         7.40617
| 90>    H       10.64534        10.03518         7.28061
| 91>    H       12.44755         8.44360         6.55578
| 92>    H       13.30359         1.02782        -3.93457
| 93>    H        9.71370         3.33763        -1.00910
| 94>    H       10.11019         2.21712         0.29161
| 95>    H        8.08111         1.55452        -1.03457
| 96>    H        9.33796         0.31121        -1.10478
| 97>    H        8.32873         0.74943        -3.33367
| 98>    H        8.90896         2.82972        -4.25622
| 99>    H       10.58107         1.22943        -4.50318
|100>    H       10.51443        -0.13469        -3.39080
|101> *
|102>
|103>                          ****END OF INPUT****

CARTESIAN COORDINATES (ANGSTROEM)
---------------------------------
  C      7.176520    4.627770   -1.266440
  S      6.265570    3.513810   -0.318570
  C      6.103260    4.698890    0.940130
  C      6.718000    5.884470    0.621010
  C      7.335710    5.831660   -0.655300
  C      8.048990    7.005380   -1.247700
  C      8.365630    8.051420   -0.179030
  C      7.155450    8.336830    0.715140
  O      6.036380    8.811340   -0.004210
  C      6.812120    7.075050    1.520830
  N      5.396750    4.469070    2.098700
  C      5.022820    3.307840    2.664130
  S      5.356610    1.748510    1.995390
  C      4.710830    1.009560    3.439440
  N      4.695430   -0.374720    3.494510
  O      4.237120   -0.908080    4.494480
  O      5.148750   -0.972220    2.525490
  C      4.283020    1.922920    4.373640
  C      4.424940    3.241780    3.937300
  C      4.088730    4.438170    4.677550
  C      3.391360    5.472410    4.162700
  C      3.246230    6.739690    4.810360
  C      4.278670    7.366400    5.437980
  C      4.275790    8.634550    6.084290
  C      5.505120    9.079150    6.450870
  C      6.563900    8.201700    6.106790
  S      5.934540    6.746870    5.372350
  C      7.919740    8.389880    6.253000
  C      8.604130    9.441840    6.904770
  C      9.956660    9.334560    6.842580
  C     10.425840    8.207160    6.110630
  S      9.064300    7.263610    5.547010
  C     11.746080    7.876870    5.955200
  C     12.324170    6.851030    5.174160
  C     11.925910    6.262730    3.973490
  C     10.836870    6.719020    3.227520
  N      9.958680    7.128700    2.609980
  C     12.841260    5.269190    3.516520
  C     13.912700    5.131690    4.390280
  S     13.858990    6.199260    5.737350
  S     15.093930    3.946250    3.943570
  C     14.142010    3.627050    2.530780
  C     12.985220    4.384150    2.404260
  C     12.307180    4.080660    1.183020
  C     11.202540    4.783810    0.684710
  N     10.330000    5.371770    0.227130
  C     12.953450    3.105230    0.442550
  S     14.417550    2.545280    1.223950
  C     12.629970    2.526720   -0.827740
  S     13.972940    2.101360   -1.865790
  C     12.905330    1.446970   -3.031580
  C     11.600760    1.530080   -2.652460
  C     11.428340    2.155590   -1.389220
  C     10.072050    2.326700   -0.794260
  C      9.083610    1.330740   -1.397410
  C      9.104440    1.418450   -2.923970
  O      8.813880    2.748690   -3.301280
  C     10.469120    0.956800   -3.449120
  H      7.559960    4.300910   -2.211880
  H      7.428960    7.443710   -2.038600
  H      8.975110    6.667800   -1.713120
  H      8.691330    8.975020   -0.659460
  H      9.169140    7.682040    0.456220
  H      7.399180    9.145690    1.411580
  H      5.796220    8.135620   -0.648800
  H      5.874930    7.240330    2.062210
  H      7.609110    6.911000    2.251600
  H      5.270120    5.286400    2.691690
  H      3.861930    1.631680    5.318650
  H      4.413670    4.473450    5.708790
  H      2.882900    5.351180    3.212790
  H      2.304300    7.262730    4.721150
  H      3.359610    9.177050    6.237280
  H      5.691350   10.027340    6.922710
  H      8.080150   10.235690    7.406170
  H     10.645340   10.035180    7.280610
  H     12.447550    8.443600    6.555780
  H     13.303590    1.027820   -3.934570
  H      9.713700    3.337630   -1.009100
  H     10.110190    2.217120    0.291610
  H      8.081110    1.554520   -1.034570
  H      9.337960    0.311210   -1.104780
  H      8.328730    0.749430   -3.333670
  H      8.908960    2.829720   -4.256220
  H     10.581070    1.229430   -4.503180
  H     10.514430   -0.134690   -3.390800

 Total Charge           Charge          ....    0
 Multiplicity           Mult            ....    1
 Number of Electrons    NEL             ....  468
 Basis Dimension        Dim             ....  984

ORBITAL ENERGIES
----------------

  NO   OCC          E(Eh)            E(eV)
   0   2.0000     -88.981231     -2421.3024
   1   2.0000     -88.978461     -2421.2270
   2   2.0000     -88.976323     -2421.1688
   3   2.0000     -88.963763     -2420.8271
   4   2.0000     -88.953801     -2420.5560
   5   2.0000     -88.951342     -2420.4891
   6   2.0000     -88.948504     -2420.4119
   7   2.0000     -88.938363     -2420.1359
   8   2.0000     -19.215017      -522.8672
   9   2.0000     -19.208703      -522.6954
  10   2.0000     -19.208018      -522.6767
  11   2.0000     -19.179274      -521.8946
  12   2.0000     -14.620922      -397.8555
  13   2.0000     -14.460264      -393.4838
  14   2.0000     -14.401982      -391.8979
  15   2.0000     -14.399598      -391.8330
  16   2.0000     -10.353001      -281.7195
  17   2.0000     -10.334167      -281.2070
  18   2.0000     -10.331838      -281.1436
  19   2.0000     -10.330532      -281.1081
  20   2.0000     -10.330025      -281.0943
  21   2.0000     -10.320397      -280.8323
  22   2.0000     -10.319503      -280.8080
  23   2.0000     -10.316650      -280.7303
  24   2.0000     -10.315933      -280.7108
  25   2.0000     -10.314714      -280.6776
  26   2.0000     -10.314690      -280.6770
  27   2.0000     -10.314149      -280.6623
  28   2.0000     -10.313362      -280.6408
  29   2.0000     -10.312449      -280.6160
  30   2.0000     -10.304932      -280.4115
  31   2.0000     -10.304648      -280.4037
  32   2.0000     -10.302914      -280.3565
  33   2.0000     -10.302828      -280.3542
  34   2.0000     -10.300898      -280.3017
  35   2.0000     -10.296343      -280.1777
  36   2.0000     -10.295166      -280.1457
  37   2.0000     -10.294665      -280.1321
  38   2.0000     -10.290294      -280.0131
  39   2.0000     -10.289977      -280.0045
  40   2.0000     -10.289789      -279.9994
  41   2.0000     -10.289613      -279.9946
  42   2.0000     -10.288910      -279.9755
  43   2.0000     -10.288333      -279.9598
  44   2.0000     -10.284182      -279.8468
  45   2.0000     -10.282866      -279.8110
  46   2.0000     -10.279621      -279.7227
  47   2.0000     -10.276113      -279.6273
  48   2.0000     -10.274534      -279.5843
  49   2.0000     -10.273503      -279.5562
  50   2.0000     -10.255195      -279.0580
  51   2.0000     -10.254975      -279.0521
  52   2.0000     -10.254245      -279.0322
  53   2.0000     -10.248391      -278.8729
  54   2.0000     -10.247574      -278.8507
  55   2.0000     -10.239864      -278.6409
  56   2.0000     -10.239814      -278.6395
  57   2.0000     -10.222143      -278.1586
  58   2.0000      -8.076422      -219.7706
  59   2.0000      -8.073957      -219.7035
  60   2.0000      -8.072000      -219.6503
  61   2.0000      -8.058834      -219.2920
  62   2.0000      -8.049868      -219.0481
  63   2.0000      -8.046816      -218.9650
  64   2.0000      -8.044614      -218.9051
  65   2.0000      -8.033437      -218.6009
  66   2.0000      -6.046359      -164.5298
  67   2.0000      -6.043545      -164.4532
  68   2.0000      -6.042181      -164.4161
  69   2.0000      -6.041615      -164.4007
  70   2.0000      -6.039252      -164.3364
  71   2.0000      -6.037435      -164.2870
  72   2.0000      -6.037266      -164.2824
  73   2.0000      -6.035517      -164.2348
  74   2.0000      -6.033426      -164.1779
  75   2.0000      -6.028546      -164.0451
  76   2.0000      -6.024138      -163.9251
  77   2.0000      -6.020192      -163.8178
  78   2.0000      -6.019185      -163.7904
  79   2.0000      -6.016646      -163.7213
  80   2.0000      -6.014922      -163.6743
  81   2.0000      -6.014383      -163.6597
  82   2.0000      -6.012581      -163.6106
  83   2.0000      -6.011979      -163.5943
  84   2.0000      -6.010192      -163.5456
  85   2.0000      -6.007643      -163.4763
  86   2.0000      -6.005464      -163.4170
  87   2.0000      -6.003012      -163.3503
  88   2.0000      -5.998557      -163.2290
  89   2.0000      -5.995460      -163.1448
  90   2.0000      -1.287469       -35.0338
  91   2.0000      -1.105711       -30.0879
  92   2.0000      -1.104492       -30.0548
  93   2.0000      -1.071861       -29.1668
  94   2.0000      -1.069822       -29.1113
  95   2.0000      -1.035362       -28.1736
  96   2.0000      -1.006905       -27.3993
  97   2.0000      -1.000716       -27.2309
  98   2.0000      -0.989435       -26.9239
  99   2.0000      -0.983818       -26.7710
 100   2.0000      -0.983268       -26.7561
 101   2.0000      -0.978552       -26.6278
 102   2.0000      -0.975652       -26.5488
 103   2.0000      -0.950481       -25.8639
 104   2.0000      -0.941496       -25.6194
 105   2.0000      -0.919741       -25.0274
 106   2.0000      -0.900328       -24.4992
 107   2.0000      -0.894239       -24.3335
 108   2.0000      -0.887356       -24.1462
 109   2.0000      -0.877357       -23.8741
 110   2.0000      -0.870877       -23.6978
 111   2.0000      -0.866876       -23.5889
 112   2.0000      -0.857545       -23.3350
 113   2.0000      -0.856712       -23.3123
 114   2.0000      -0.852383       -23.1945
 115   2.0000      -0.831544       -22.6275
 116   2.0000      -0.828189       -22.5362
 117   2.0000      -0.825592       -22.4655
 118   2.0000      -0.821141       -22.3444
 119   2.0000      -0.817547       -22.2466
 120   2.0000      -0.810018       -22.0417
 121   2.0000      -0.791725       -21.5439
 122   2.0000      -0.791260       -21.5313
 123   2.0000      -0.778652       -21.1882
 124   2.0000      -0.767536       -20.8857
 125   2.0000      -0.745017       -20.2729
 126   2.0000      -0.726804       -19.7773
 127   2.0000      -0.718007       -19.5380
 128   2.0000      -0.711938       -19.3728
 129   2.0000      -0.704563       -19.1721
 130   2.0000      -0.693152       -18.8616
 131   2.0000      -0.690167       -18.7804
 132   2.0000      -0.681232       -18.5373
 133   2.0000      -0.678195       -18.4546
 134   2.0000      -0.675735       -18.3877
 135   2.0000      -0.666489       -18.1361
 136   2.0000      -0.660904       -17.9841
 137   2.0000      -0.653565       -17.7844
 138   2.0000      -0.639535       -17.4026
 139   2.0000      -0.635845       -17.3022
 140   2.0000      -0.632410       -17.2087
 141   2.0000      -0.626971       -17.0607
 142   2.0000      -0.624588       -16.9959
 143   2.0000      -0.621597       -16.9145
 144   2.0000      -0.617332       -16.7984
 145   2.0000      -0.607067       -16.5191
 146   2.0000      -0.602363       -16.3911
 147   2.0000      -0.600828       -16.3494
 148   2.0000      -0.595461       -16.2033
 149   2.0000      -0.590584       -16.0706
 150   2.0000      -0.581198       -15.8152
 151   2.0000      -0.573256       -15.5991
 152   2.0000      -0.568499       -15.4696
 153   2.0000      -0.563859       -15.3434
 154   2.0000      -0.559688       -15.2299
 155   2.0000      -0.552803       -15.0425
 156   2.0000      -0.540961       -14.7203
 157   2.0000      -0.536569       -14.6008
 158   2.0000      -0.535063       -14.5598
 159   2.0000      -0.533124       -14.5070
 160   2.0000      -0.530431       -14.4338
 161   2.0000      -0.526501       -14.3268
 162   2.0000      -0.523025       -14.2322
 163   2.0000      -0.519479       -14.1358
 164   2.0000      -0.517440       -14.0803
 165   2.0000      -0.515965       -14.0401
 166   2.0000      -0.513021       -13.9600
 167   2.0000      -0.510509       -13.8917
 168   2.0000      -0.509226       -13.8567
 169   2.0000      -0.504628       -13.7316
 170   2.0000      -0.501851       -13.6561
 171   2.0000      -0.499782       -13.5998
 172   2.0000      -0.497532       -13.5385
 173   2.0000      -0.495328       -13.4786
 174   2.0000      -0.489951       -13.3322
 175   2.0000      -0.489290       -13.3143
 176   2.0000      -0.482088       -13.1183
 177   2.0000      -0.478762       -13.0278
 178   2.0000      -0.476606       -12.9691
 179   2.0000      -0.473406       -12.8820
 180   2.0000      -0.469778       -12.7833
 181   2.0000      -0.468172       -12.7396
 182   2.0000      -0.465447       -12.6654
 183   2.0000      -0.462967       -12.5980
 184   2.0000      -0.461564       -12.5598
 185   2.0000      -0.456164       -12.4128
 186   2.0000      -0.455508       -12.3950
 187   2.0000      -0.452326       -12.3084
 188   2.0000      -0.451179       -12.2772
 189   2.0000      -0.448119       -12.1939
 190   2.0000      -0.446937       -12.1618
 191   2.0000      -0.444723       -12.1015
 192   2.0000      -0.438296       -11.9266
 193   2.0000      -0.435237       -11.8434
 194   2.0000      -0.434163       -11.8142
 195   2.0000      -0.433226       -11.7887
 196   2.0000      -0.430239       -11.7074
 197   2.0000      -0.426888       -11.6162
 198   2.0000      -0.425794       -11.5864
 199   2.0000      -0.423454       -11.5228
 200   2.0000      -0.419363       -11.4114
 201   2.0000      -0.415061       -11.2944
 202   2.0000      -0.410503       -11.1703
 203   2.0000      -0.409158       -11.1338
 204   2.0000      -0.404390       -11.0040
 205   2.0000      -0.402829       -10.9615
 206   2.0000      -0.398573       -10.8457
 207   2.0000      -0.392500       -10.6805
 208   2.0000      -0.391133       -10.6433
 209   2.0000      -0.383589       -10.4380
 210   2.0000      -0.381040       -10.3686
 211   2.0000      -0.379521       -10.3273
 212   2.0000      -0.372493       -10.1361
 213   2.0000      -0.371022       -10.0960
 214   2.0000      -0.366515        -9.9734
 215   2.0000      -0.358152        -9.7458
 216   2.0000      -0.355601        -9.6764
 217   2.0000      -0.351760        -9.5719
 218   2.0000      -0.346932        -9.4405
 219   2.0000      -0.346131        -9.4187
 220   2.0000      -0.340858        -9.2752
 221   2.0000      -0.338013        -9.1978
 222   2.0000      -0.329887        -8.9767
 223   2.0000      -0.325185        -8.8487
 224   2.0000      -0.314542        -8.5591
 225   2.0000      -0.312929        -8.5152
 226   2.0000      -0.311143        -8.4666
 227   2.0000      -0.305897        -8.3239
 228   2.0000      -0.297593        -8.0979
 229   2.0000      -0.283113        -7.7039
 230   2.0000      -0.282772        -7.6946
 231   2.0000      -0.268164        -7.2971
 232   2.0000      -0.233978        -6.3669
 233   2.0000      -0.220100        -5.9892
 234   0.0000      -0.083653        -2.2763
 235   0.0000      -0.031588        -0.8596
 236   0.0000      -0.031266        -0.8508
 237   0.0000      -0.024947        -0.6789
 238   0.0000       0.007576         0.2062

MULLIKEN ATOMIC CHARGES
-----------------------
   0 C :   -0.138065
   1 S :    0.066991
   2 C :   -0.162302
   3 C :   -0.064097
   4 C :   -0.032943
   5 C :    0.123014
   6 C :    0.045980
   7 C :    0.098629
   8 O :   -0.309734
   9 C :    0.148738
  10 N :   -0.012458
  11 C :   -0.085282
  12 S :    0.153837
  13 C :   -0.029994
  14 N :    0.280738
  15 O :   -0.274572
  16 O :   -0.288334
  17 C :    0.028751
  18 C :    0.071162
  19 C :   -0.047352
  20 C :   -0.058194
  21 C :    0.018600
  22 C :   -0.045378
  23 C :    0.050507
  24 C :    0.038057
  25 C :   -0.041474
  26 S :    0.062976
  27 C :   -0.063350
  28 C :    0.044653
  29 C :    0.027062
  30 C :   -0.015655
  31 S :    0.120160
  32 C :   -0.040674
  33 C :   -0.099629
  34 C :   -0.003363
  35 C :   -0.326039
  36 N :    0.211960
  37 C :    0.133477
  38 C :   -0.236120
  39 S :    0.155630
  40 S :    0.185355
  41 C :   -0.237607
  42 C :    0.133113
  43 C :    0.009267
  44 C :   -0.317425
  45 N :    0.213144
  46 C :   -0.120753
  47 S :    0.174380
  48 C :   -0.214999
  49 S :    0.119637
  50 C :   -0.114534
  51 C :   -0.079058
  52 C :   -0.000562
  53 C :    0.131561
  54 C :    0.037729
  55 C :    0.077981
  56 O :   -0.277276
  57 C :    0.140732
  58 H :   -0.002683
  59 H :   -0.001619
  60 H :    0.008332
  61 H :   -0.016363
  62 H :    0.025006
  63 H :   -0.014630
  64 H :    0.160511
  65 H :   -0.009799
  66 H :    0.025683
  67 H :    0.151905
  68 H :   -0.000462
  69 H :    0.028374
  70 H :    0.025004
  71 H :    0.003717
  72 H :   -0.005227
  73 H :   -0.009512
  74 H :   -0.009893
  75 H :   -0.009963
  76 H :   -0.004339
  77 H :    0.012287
  78 H :    0.065887
  79 H :    0.013338
  80 H :    0.009158
  81 H :    0.006784
  82 H :   -0.006324
  83 H :    0.170744
  84 H :   -0.004069
  85 H :    0.021555
Sum of atomic charges:   -0.0000000

LOEWDIN ATOMIC CHARGES
----------------------
   0 C :   -0.201218
   1 S :    0.406678
   2 C :   -0.156775
   3 C :   -0.090073
   4 C :   -0.052261
   5 C :   -0.028807
   6 C :   -0.041799
   7 C :    0.067456
   8 O :   -0.136308
   9 C :   -0.047974
  10 N :    0.034386
  11 C :   -0.091188
  12 S :    0.448446
  13 C :   -0.231632
  14 N :    0.274086
  15 O :   -0.240462
  16 O :   -0.254747
  17 C :    0.004884
  18 C :   -0.127124
  19 C :   -0.015696
  20 C :   -0.049604
  21 C :   -0.045784
  22 C :   -0.140288
  23 C :   -0.021861
  24 C :   -0.028330
  25 C :   -0.165270
  26 S :    0.381481
  27 C :   -0.186854
  28 C :   -0.020971
  29 C :   -0.039201
  30 C :   -0.125848
  31 S :    0.415601
  32 C :   -0.109613
  33 C :   -0.122937
  34 C :   -0.120582
  35 C :   -0.036508
  36 N :   -0.039559
  37 C :   -0.060876
  38 C :   -0.338001
  39 S :    0.436365
  40 S :    0.419581
  41 C :   -0.338633
  42 C :   -0.062815
  43 C :   -0.108294
  44 C :   -0.019838
  45 N :   -0.034168
  46 C :   -0.136103
  47 S :    0.445276
  48 C :   -0.213775
  49 S :    0.424803
  50 C :   -0.185263
  51 C :   -0.063692
  52 C :   -0.026242
  53 C :   -0.028394
  54 C :   -0.030203
  55 C :    0.062574
  56 O :   -0.119449
  57 C :   -0.038496
  58 H :    0.012089
  59 H :    0.020153
  60 H :    0.033643
  61 H :    0.019091
  62 H :    0.027194
  63 H :    0.019660
  64 H :    0.065812
  65 H :    0.015497
  66 H :    0.032484
  67 H :    0.090151
  68 H :    0.043664
  69 H :    0.029780
  70 H :    0.035272
  71 H :    0.036466
  72 H :    0.036429
  73 H :    0.033505
  74 H :    0.033705
  75 H :    0.033630
  76 H :    0.034796
  77 H :    0.022056
  78 H :    0.045326
  79 H :    0.033759
  80 H :    0.018632
  81 H :    0.026611
  82 H :    0.009411
  83 H :    0.077615
  84 H :    0.026506
  85 H :    0.038958

  Mayer bond orders larger than 0.100000
B(  0-C ,  1-S ) :   1.1042 B(  0-C ,  4-C ) :   1.5953 B(  0-C , 58-H ) :   0.9501
B(  1-S ,  2-C ) :   1.1274 B(  2-C ,  3-C ) :   1.5042 B(  2-C , 10-N ) :   1.1071
B(  3-C ,  4-C ) :   1.2984 B(  3-C ,  9-C ) :   1.0241 B(  4-C ,  5-C ) :   1.0316
B(  5-C ,  6-C ) :   1.0762 B(  5-C , 59-H ) :   0.9234 B(  5-C , 60-H ) :   0.9053
B(  6-C ,  7-C ) :   1.0472 B(  6-C , 61-H ) :   0.9211 B(  6-C , 62-H ) :   0.9223
B(  7-C ,  8-O ) :   1.0324 B(  7-C ,  9-C ) :   1.0354 B(  7-C , 63-H ) :   0.9189
B(  8-O , 64-H ) :   0.9871 B(  9-C , 65-H ) :   0.9004 B(  9-C , 66-H ) :   0.8909
B( 10-N , 11-C ) :   1.2700 B( 10-N , 67-H ) :   0.8725 B( 11-C , 12-S ) :   1.1426
B( 11-C , 18-C ) :   1.3333 B( 12-S , 13-C ) :   1.0501 B( 13-C , 14-N ) :   1.0112
B( 13-C , 17-C ) :   1.4398 B( 14-N , 15-O ) :   1.5132 B( 14-N , 16-O ) :   1.4901
B( 15-O , 16-O ) :   0.2400 B( 17-C , 18-C ) :   1.2885 B( 17-C , 68-H ) :   1.0084
B( 18-C , 19-C ) :   1.0355 B( 19-C , 20-C ) :   1.7581 B( 19-C , 69-H ) :   0.9613
B( 20-C , 21-C ) :   1.0816 B( 20-C , 70-H ) :   0.9631 B( 21-C , 22-C ) :   1.6670
B( 21-C , 71-H ) :   0.9635 B( 22-C , 23-C ) :   1.1185 B( 22-C , 26-S ) :   1.0162
B( 23-C , 24-C ) :   1.6207 B( 23-C , 72-H ) :   0.9960 B( 24-C , 25-C ) :   1.1714
B( 24-C , 73-H ) :   0.9923 B( 25-C , 26-S ) :   1.0515 B( 25-C , 27-C ) :   1.5274
B( 27-C , 28-C ) :   1.1751 B( 27-C , 31-S ) :   1.0491 B( 28-C , 29-C ) :   1.6061
B( 28-C , 74-H ) :   0.9918 B( 29-C , 30-C ) :   1.1309 B( 29-C , 75-H ) :   0.9984
B( 30-C , 31-S ) :   1.0704 B( 30-C , 32-C ) :   1.6127 B( 32-C , 33-C ) :   1.1574
B( 32-C , 76-H ) :   0.9390 B( 33-C , 34-C ) :   1.4600 B( 33-C , 39-S ) :   1.1224
B( 34-C , 35-C ) :   1.1925 B( 34-C , 37-C ) :   1.2388 B( 35-C , 36-N ) :   2.9133
B( 37-C , 38-C ) :   1.4261 B( 37-C , 42-C ) :   1.0754 B( 38-C , 39-S ) :   1.0770
B( 38-C , 40-S ) :   1.0833 B( 40-S , 41-C ) :   1.0827 B( 41-C , 42-C ) :   1.4330
B( 41-C , 47-S ) :   1.0745 B( 42-C , 43-C ) :   1.2276 B( 43-C , 44-C ) :   1.1938
B( 43-C , 46-C ) :   1.5322 B( 44-C , 45-N ) :   2.9175 B( 46-C , 47-S ) :   1.1493
B( 46-C , 48-C ) :   1.1058 B( 48-C , 49-S ) :   1.1259 B( 48-C , 50-C ) :   0.1057
B( 48-C , 52-C ) :   1.5433 B( 49-S , 50-C ) :   1.1512 B( 50-C , 51-C ) :   1.5769
B( 50-C , 77-H ) :   0.9722 B( 51-C , 52-C ) :   1.2897 B( 51-C , 57-C ) :   0.9998
B( 52-C , 53-C ) :   1.0638 B( 53-C , 54-C ) :   1.0623 B( 53-C , 78-H ) :   0.8847
B( 53-C , 79-H ) :   0.9107 B( 54-C , 55-C ) :   1.0517 B( 54-C , 80-H ) :   0.9207
B( 54-C , 81-H ) :   0.9433 B( 55-C , 56-O ) :   1.0384 B( 55-C , 57-C ) :   1.0570
B( 55-C , 82-H ) :   0.9348 B( 56-O , 83-H ) :   0.9701 B( 57-C , 84-H ) :   0.9200
B( 57-C , 85-H ) :   0.9130

-----------------------------------------------------------------------------
         ABSORPTION SPECTRUM VIA TRANSITION ELECTRIC DIPOLE MOMENTS
-----------------------------------------------------------------------------
State   Energy  Wavelength   fosc         T2         TX        TY        TZ
        (cm-1)    (nm)                  (au**2)     (au)      (au)      (au)
-----------------------------------------------------------------------------
   0   14425.4    693.2   0.435745779   9.94445  -2.98376  -0.89125  -0.49729
   1   18423.3    542.8   0.623330134  11.13850   3.17362  -0.58935  -0.84812
   2   25171.6    397.3   0.131385841   1.71836   0.65791  -0.77895  -0.82387
   3   25687.3    389.3   0.520418931   6.66976  -0.75246  -2.13727   1.23922
   4   27377.9    365.3   0.009374253   0.11272   0.26831  -0.16006   0.12294
   5   27780.5    360.0   0.013916584   0.16492  -0.33560   0.19649  -0.11698
   6   27901.7    358.4   0.389883899   4.60023   0.72698  -1.54609  -1.29667
   7   29034.1    344.4   0.017772643   0.20152  -0.17896   0.24280   0.33248
   8   29159.5    342.9   0.101293074   1.14360  -0.28380  -0.97670   0.33033
   9   29738.8    336.3   0.349404088   3.86794  -0.25685  -1.75006  -0.85980
  10   30074.8    332.5   0.002022864   0.02214  -0.14800   0.01340   0.00777
  11   31155.7    321.0   0.015979269   0.16885   0.12126  -0.06694  -0.38686
  12   31674.3    315.7   0.091246678   0.94839   0.08479  -0.81419  -0.52753
  13   33404.0    299.4   0.190963608   1.88203   0.82291   0.65249   0.88268
  14   33962.1    294.4   0.440144477   4.26655  -0.30872  -0.82429  -1.86863
  15   34107.5    293.2   0.046991437   0.45357  -0.02010  -0.42945  -0.51840
  16   34447.1    290.3   0.046840324   0.44765   0.36032   0.23290   0.51340
  17   35113.5    284.8   0.029495640   0.27654   0.10876  -0.17835  -0.48260
  18   35664.7    280.4   0.075111201   0.69333   0.07803  -0.60832  -0.56320
  19   36229.4    276.0   0.013938234   0.12666  -0.21123  -0.16089  -0.23696
  20   36740.2    272.2   0.035563722   0.31867   0.49392   0.10038  -0.25424
  21   37856.6    264.2   0.113438078   0.98649  -0.86655  -0.04898  -0.48288
  22   38135.5    262.2   0.074569782   0.64374   0.04880  -0.73305  -0.32248
  23   38344.1    260.8   0.024885718   0.21366   0.03989   0.01264   0.46034
  24   38358.7    260.7   0.000894290   0.00768   0.04758  -0.06203   0.03953
  25   38679.8    258.5   0.092135646   0.78419  -0.74343   0.44860   0.17394
  26   39044.4    256.1   0.018850503   0.15894  -0.20210  -0.04253  -0.34101
  27   39182.4    255.2   0.023107000   0.19415  -0.07322   0.39448  -0.18213
  28   39298.8    254.5   0.007216133   0.06045  -0.23615  -0.04123  -0.05463
  29   39453.2    253.5   0.003890249   0.03246  -0.13007  -0.12463  -0.00322
  30   39703.4    251.9   0.022511001   0.18666  -0.00275   0.31923  -0.29111
  31   39868.4    250.8   0.044614047   0.36840  -0.26666   0.41257   0.35648

FINAL SINGLE POINT ENERGY     -5318.926816616666

DIPOLE MOMENT
-------------
                                X             Y             Z
Electronic contribution:     34.81215     -17.39842      29.24625
Nuclear contribution   :    -33.17963      19.29144     -28.85590
                        -----------------------------------------
Total Dipole Moment    :      1.63252       1.89302       0.39034
                        -----------------------------------------
Magnitude (a.u.)       :      2.53002
Magnitude (Debye)      :      6.43081

Rotational constants in cm-1:     0.001281     0.001023     0.000742
Rotational constants in MHz :    38.418157    30.666332    22.238500

                             ****ORCA TERMINATED NORMALLY****
TOTAL RUN TIME: 0 days 0 hours 8 minutes 41 seconds 852 msec
