                         Program Version 4.2.0 -  RELEASE  -
|  1> # ORCA input file
|  2> # SCF done       -163.322563446999          0.000937975767
|  3> ! CAM-B3LYP def2-SVP def2/J RIJCOSX Grid4 TightSCF
|  4> %maxcore 5000
|  5> %tddft
|  6>     Mode sTDDFT
|  7>     Ethresh 5.0
|  8>     maxcore 5000
|  9> end
| 10>
| 11> %pal
| 12>   nprocs 6
| 13>   end
| 14> * xyz 0 1
| 15>    C        1.69945        -1.23483         2.00154
| 16>    C        2.70383        -2.15797         1.31084
| 17>    C        2.73410        -1.93586        -0.17332
| 18>    C        2.29263        -2.94362        -1.03673
| 19>    C        2.28711        -2.59101        -2.37007
| 20>    C        1.92956        -3.33949        -3.52209
| 21>    C        1.64558        -4.66315        -3.52876
| 22>    C        1.32904        -5.46945        -4.66941
| 23>    C        1.18036        -6.84401        -4.48694
| 24>    C        0.85916        -7.70799        -5.51734
| 25>    C        0.64500        -7.25448        -6.81353
| 26>    C        0.29412        -8.17239        -7.85231
| 27>    C       -0.36771        -7.93401        -9.01373
| 28>    C       -0.24084        -8.89209       -10.14442
| 29>    O        0.17217       -10.02907       -10.09571
| 30>    C       -0.66647        -8.13450       -11.33852
| 31>    C       -0.61190        -8.51875       -12.65653
| 32>    C       -1.04621        -7.60594       -13.62303
| 33>    C       -1.08576        -7.74955       -15.03946
| 34>    C       -1.56102        -6.64926       -15.66142
| 35>    S       -1.99106        -5.37149       -14.57650
| 36>    C       -1.52141        -6.33806       -13.21268
| 37>    C       -1.58954        -5.95210       -11.87901
| 38>    C       -1.15612        -6.86472       -10.93736
| 39>    C       -1.11711        -6.78722        -9.48175
| 40>    C       -1.85558        -5.92607        -8.71019
| 41>    C       -1.97990        -6.05290        -7.31321
| 42>    N       -2.13478        -6.12963        -6.17799
| 43>    C       -2.55340        -4.81636        -9.21807
| 44>    N       -3.08642        -3.86594        -9.58341
| 45>    C        0.85043        -5.86504        -7.06210
| 46>    N        0.81083        -5.40643        -8.32563
| 47>    C        0.91187        -4.12360        -8.55847
| 48>    C        0.87027        -3.66952        -9.97889
| 49>    C        1.04312        -3.21218        -7.47550
| 50>    C        1.03521        -1.73479        -7.68339
| 51>    N        1.20635        -3.65405        -6.25596
| 52>    C        1.14624        -4.97140        -5.99718
| 53>    S        2.78608        -0.93481        -2.55551
| 54>    C        3.07919        -0.76684        -0.84929
| 55>    C        3.64341         0.46735        -0.37074
| 56>    C        4.27096         0.62302         0.85774
| 57>    C        4.81083         1.83519         1.26150
| 58>    C        4.77535         2.98270         0.48220
| 59>    C        5.35947         4.20677         0.95759
| 60>    C        5.39367         5.44173         0.35761
| 61>    C        6.06439         6.39089         1.13542
| 62>    S        6.42720         8.08097         0.91248
| 63>    C        7.23894         8.10650         2.45147
| 64>    C        7.90820         9.10617         3.18271
| 65>    C        8.38525         8.61947         4.35769
| 66>    S        8.03837         6.94181         4.61111
| 67>    C        7.22160         6.86922         3.09270
| 68>    C        6.55221         5.89101         2.34312
| 69>    S        6.17438         4.22219         2.52366
| 70>    C        4.16234         2.86738        -0.80049
| 71>    N        4.11134         3.91514        -1.64394
| 72>    C        3.56846         3.77934        -2.82615
| 73>    C        3.54443         4.97448        -3.71999
| 74>    C        3.01964         2.53323        -3.23591
| 75>    C        2.38770         2.33595        -4.57146
| 76>    N        3.05772         1.51121        -2.42355
| 77>    C        3.61541         1.62186        -1.20981
| 78>    H        1.67778        -1.43494         3.07030
| 79>    H        0.70345        -1.40243         1.59805
| 80>    H        1.95817        -0.19008         1.84901
| 81>    H        2.40818        -3.19405         1.48943
| 82>    H        3.69628        -2.03318         1.74844
| 83>    H        1.97599        -3.90859        -0.68136
| 84>    H        1.91308        -2.79879        -4.45602
| 85>    H        1.68223        -5.20657        -2.59243
| 86>    H        1.30997        -7.24792        -3.49295
| 87>    H        0.72632        -8.75920        -5.30616
| 88>    H        0.66581        -9.18611        -7.73545
| 89>    H       -0.24354        -9.49420       -12.93439
| 90>    H       -0.76916        -8.64059       -15.55093
| 91>    H       -1.69333        -6.49224       -16.71427
| 92>    H       -1.95803        -4.97543       -11.61166
| 93>    H        0.88870        -4.53323       -10.63854
| 94>    H        1.71752        -3.02333       -10.20096
| 95>    H       -0.04350        -3.10285       -10.15878
| 96>    H        1.87330        -1.43241        -8.31017
| 97>    H        1.10701        -1.23303        -6.72271
| 98>    H        0.11498        -1.43338        -8.18144
| 99>    H        4.37874        -0.21514         1.52247
|100>    H        5.28753         1.88369         2.23049
|101>    H        4.94988         5.62871        -0.60075
|102>    H        8.02609        10.12184         2.85372
|103>    H        8.93238         9.14727         5.11309
|104>    H        4.01935         5.81485        -3.22209
|105>    H        2.51796         5.23898        -3.96991
|106>    H        4.07249         4.76268        -4.64851
|107>    H        3.10227         2.55106        -5.36453
|108>    H        1.53862         3.00706        -4.69235
|109>    H        2.05097         1.30706        -4.65630
|110> *
|111>
|112>                          ****END OF INPUT****

CARTESIAN COORDINATES (ANGSTROEM)
---------------------------------
  C      1.699450   -1.234830    2.001540
  C      2.703830   -2.157970    1.310840
  C      2.734100   -1.935860   -0.173320
  C      2.292630   -2.943620   -1.036730
  C      2.287110   -2.591010   -2.370070
  C      1.929560   -3.339490   -3.522090
  C      1.645580   -4.663150   -3.528760
  C      1.329040   -5.469450   -4.669410
  C      1.180360   -6.844010   -4.486940
  C      0.859160   -7.707990   -5.517340
  C      0.645000   -7.254480   -6.813530
  C      0.294120   -8.172390   -7.852310
  C     -0.367710   -7.934010   -9.013730
  C     -0.240840   -8.892090  -10.144420
  O      0.172170  -10.029070  -10.095710
  C     -0.666470   -8.134500  -11.338520
  C     -0.611900   -8.518750  -12.656530
  C     -1.046210   -7.605940  -13.623030
  C     -1.085760   -7.749550  -15.039460
  C     -1.561020   -6.649260  -15.661420
  S     -1.991060   -5.371490  -14.576500
  C     -1.521410   -6.338060  -13.212680
  C     -1.589540   -5.952100  -11.879010
  C     -1.156120   -6.864720  -10.937360
  C     -1.117110   -6.787220   -9.481750
  C     -1.855580   -5.926070   -8.710190
  C     -1.979900   -6.052900   -7.313210
  N     -2.134780   -6.129630   -6.177990
  C     -2.553400   -4.816360   -9.218070
  N     -3.086420   -3.865940   -9.583410
  C      0.850430   -5.865040   -7.062100
  N      0.810830   -5.406430   -8.325630
  C      0.911870   -4.123600   -8.558470
  C      0.870270   -3.669520   -9.978890
  C      1.043120   -3.212180   -7.475500
  C      1.035210   -1.734790   -7.683390
  N      1.206350   -3.654050   -6.255960
  C      1.146240   -4.971400   -5.997180
  S      2.786080   -0.934810   -2.555510
  C      3.079190   -0.766840   -0.849290
  C      3.643410    0.467350   -0.370740
  C      4.270960    0.623020    0.857740
  C      4.810830    1.835190    1.261500
  C      4.775350    2.982700    0.482200
  C      5.359470    4.206770    0.957590
  C      5.393670    5.441730    0.357610
  C      6.064390    6.390890    1.135420
  S      6.427200    8.080970    0.912480
  C      7.238940    8.106500    2.451470
  C      7.908200    9.106170    3.182710
  C      8.385250    8.619470    4.357690
  S      8.038370    6.941810    4.611110
  C      7.221600    6.869220    3.092700
  C      6.552210    5.891010    2.343120
  S      6.174380    4.222190    2.523660
  C      4.162340    2.867380   -0.800490
  N      4.111340    3.915140   -1.643940
  C      3.568460    3.779340   -2.826150
  C      3.544430    4.974480   -3.719990
  C      3.019640    2.533230   -3.235910
  C      2.387700    2.335950   -4.571460
  N      3.057720    1.511210   -2.423550
  C      3.615410    1.621860   -1.209810
  H      1.677780   -1.434940    3.070300
  H      0.703450   -1.402430    1.598050
  H      1.958170   -0.190080    1.849010
  H      2.408180   -3.194050    1.489430
  H      3.696280   -2.033180    1.748440
  H      1.975990   -3.908590   -0.681360
  H      1.913080   -2.798790   -4.456020
  H      1.682230   -5.206570   -2.592430
  H      1.309970   -7.247920   -3.492950
  H      0.726320   -8.759200   -5.306160
  H      0.665810   -9.186110   -7.735450
  H     -0.243540   -9.494200  -12.934390
  H     -0.769160   -8.640590  -15.550930
  H     -1.693330   -6.492240  -16.714270
  H     -1.958030   -4.975430  -11.611660
  H      0.888700   -4.533230  -10.638540
  H      1.717520   -3.023330  -10.200960
  H     -0.043500   -3.102850  -10.158780
  H      1.873300   -1.432410   -8.310170
  H      1.107010   -1.233030   -6.722710
  H      0.114980   -1.433380   -8.181440
  H      4.378740   -0.215140    1.522470
  H      5.287530    1.883690    2.230490
  H      4.949880    5.628710   -0.600750
  H      8.026090   10.121840    2.853720
  H      8.932380    9.147270    5.113090
  H      4.019350    5.814850   -3.222090
  H      2.517960    5.238980   -3.969910
  H      4.072490    4.762680   -4.648510
  H      3.102270    2.551060   -5.364530
  H      1.538620    3.007060   -4.692350
  H      2.050970    1.307060   -4.656300

 Total Charge           Charge          ....    0
 Multiplicity           Mult            ....    1
 Number of Electrons    NEL             ....  468
 Basis Dimension        Dim             .... 1062

ORBITAL ENERGIES
----------------

  NO   OCC          E(Eh)            E(eV)
   0   2.0000     -88.961546     -2420.7667
   1   2.0000     -88.951723     -2420.4994
   2   2.0000     -88.948281     -2420.4058
   3   2.0000     -88.946717     -2420.3632
   4   2.0000     -88.935344     -2420.0537
   5   2.0000     -19.203829      -522.5627
   6   2.0000     -14.417975      -392.3330
   7   2.0000     -14.416685      -392.2979
   8   2.0000     -14.414861      -392.2483
   9   2.0000     -14.413148      -392.2017
  10   2.0000     -14.408346      -392.0710
  11   2.0000     -14.401880      -391.8951
  12   2.0000     -10.354931      -281.7720
  13   2.0000     -10.330071      -281.0955
  14   2.0000     -10.326417      -280.9961
  15   2.0000     -10.323631      -280.9203
  16   2.0000     -10.322446      -280.8880
  17   2.0000     -10.320410      -280.8326
  18   2.0000     -10.318444      -280.7791
  19   2.0000     -10.315178      -280.6903
  20   2.0000     -10.312528      -280.6182
  21   2.0000     -10.311956      -280.6026
  22   2.0000     -10.311628      -280.5937
  23   2.0000     -10.310263      -280.5565
  24   2.0000     -10.309212      -280.5279
  25   2.0000     -10.308845      -280.5179
  26   2.0000     -10.303774      -280.3800
  27   2.0000     -10.300606      -280.2937
  28   2.0000     -10.299115      -280.2532
  29   2.0000     -10.296707      -280.1876
  30   2.0000     -10.295614      -280.1579
  31   2.0000     -10.295334      -280.1503
  32   2.0000     -10.294948      -280.1398
  33   2.0000     -10.294668      -280.1321
  34   2.0000     -10.292555      -280.0746
  35   2.0000     -10.291008      -280.0326
  36   2.0000     -10.290761      -280.0258
  37   2.0000     -10.288107      -279.9536
  38   2.0000     -10.288016      -279.9512
  39   2.0000     -10.287902      -279.9481
  40   2.0000     -10.287584      -279.9394
  41   2.0000     -10.287069      -279.9254
  42   2.0000     -10.284524      -279.8561
  43   2.0000     -10.283209      -279.8203
  44   2.0000     -10.283116      -279.8178
  45   2.0000     -10.282698      -279.8064
  46   2.0000     -10.282297      -279.7955
  47   2.0000     -10.276754      -279.6447
  48   2.0000     -10.275959      -279.6231
  49   2.0000     -10.275194      -279.6023
  50   2.0000     -10.273550      -279.5575
  51   2.0000     -10.273478      -279.5556
  52   2.0000     -10.273229      -279.5488
  53   2.0000     -10.273055      -279.5440
  54   2.0000     -10.269797      -279.4554
  55   2.0000     -10.269022      -279.4343
  56   2.0000     -10.267168      -279.3838
  57   2.0000     -10.265505      -279.3386
  58   2.0000     -10.264598      -279.3139
  59   2.0000     -10.264571      -279.3132
  60   2.0000     -10.263262      -279.2775
  61   2.0000     -10.254051      -279.0269
  62   2.0000     -10.249393      -278.9002
  63   2.0000      -8.057898      -219.2665
  64   2.0000      -8.047277      -218.9775
  65   2.0000      -8.043356      -218.8708
  66   2.0000      -8.041967      -218.8330
  67   2.0000      -8.028753      -218.4735
  68   2.0000      -6.027435      -164.0148
  69   2.0000      -6.023128      -163.8976
  70   2.0000      -6.019509      -163.7992
  71   2.0000      -6.016870      -163.7274
  72   2.0000      -6.012931      -163.6202
  73   2.0000      -6.012556      -163.6100
  74   2.0000      -6.011674      -163.5860
  75   2.0000      -6.008991      -163.5130
  76   2.0000      -6.008909      -163.5107
  77   2.0000      -6.007875      -163.4826
  78   2.0000      -6.004870      -163.4008
  79   2.0000      -6.002969      -163.3491
  80   2.0000      -5.998164      -163.2183
  81   2.0000      -5.993604      -163.0943
  82   2.0000      -5.991223      -163.0295
  83   2.0000      -1.118371       -30.4324
  84   2.0000      -1.080650       -29.4060
  85   2.0000      -1.077287       -29.3145
  86   2.0000      -1.012080       -27.5401
  87   2.0000      -1.007399       -27.4127
  88   2.0000      -1.003808       -27.3150
  89   2.0000      -1.001979       -27.2652
  90   2.0000      -0.997486       -27.1430
  91   2.0000      -0.983814       -26.7709
  92   2.0000      -0.975071       -26.5330
  93   2.0000      -0.972768       -26.4704
  94   2.0000      -0.965255       -26.2659
  95   2.0000      -0.956360       -26.0239
  96   2.0000      -0.946998       -25.7691
  97   2.0000      -0.921028       -25.0624
  98   2.0000      -0.911377       -24.7998
  99   2.0000      -0.901026       -24.5182
 100   2.0000      -0.887899       -24.1610
 101   2.0000      -0.884948       -24.0806
 102   2.0000      -0.882217       -24.0063
 103   2.0000      -0.875429       -23.8216
 104   2.0000      -0.873522       -23.7697
 105   2.0000      -0.868380       -23.6298
 106   2.0000      -0.853076       -23.2134
 107   2.0000      -0.843566       -22.9546
 108   2.0000      -0.828203       -22.5365
 109   2.0000      -0.822754       -22.3883
 110   2.0000      -0.816687       -22.2232
 111   2.0000      -0.816194       -22.2098
 112   2.0000      -0.812277       -22.1032
 113   2.0000      -0.804548       -21.8929
 114   2.0000      -0.800263       -21.7763
 115   2.0000      -0.797381       -21.6978
 116   2.0000      -0.785723       -21.3806
 117   2.0000      -0.774475       -21.0745
 118   2.0000      -0.770279       -20.9604
 119   2.0000      -0.754829       -20.5399
 120   2.0000      -0.744754       -20.2658
 121   2.0000      -0.724580       -19.7168
 122   2.0000      -0.719721       -19.5846
 123   2.0000      -0.718811       -19.5598
 124   2.0000      -0.717668       -19.5287
 125   2.0000      -0.714656       -19.4468
 126   2.0000      -0.707345       -19.2478
 127   2.0000      -0.695174       -18.9166
 128   2.0000      -0.686868       -18.6906
 129   2.0000      -0.679236       -18.4829
 130   2.0000      -0.665295       -18.1036
 131   2.0000      -0.663103       -18.0439
 132   2.0000      -0.655452       -17.8357
 133   2.0000      -0.653199       -17.7745
 134   2.0000      -0.643370       -17.5070
 135   2.0000      -0.636806       -17.3284
 136   2.0000      -0.627684       -17.0802
 137   2.0000      -0.622463       -16.9381
 138   2.0000      -0.619390       -16.8545
 139   2.0000      -0.612638       -16.6707
 140   2.0000      -0.610676       -16.6174
 141   2.0000      -0.606640       -16.5075
 142   2.0000      -0.602251       -16.3881
 143   2.0000      -0.599345       -16.3090
 144   2.0000      -0.586326       -15.9548
 145   2.0000      -0.582726       -15.8568
 146   2.0000      -0.569614       -15.5000
 147   2.0000      -0.564335       -15.3563
 148   2.0000      -0.562363       -15.3027
 149   2.0000      -0.552408       -15.0318
 150   2.0000      -0.551950       -15.0193
 151   2.0000      -0.551415       -15.0048
 152   2.0000      -0.547045       -14.8859
 153   2.0000      -0.545303       -14.8384
 154   2.0000      -0.542092       -14.7511
 155   2.0000      -0.539560       -14.6822
 156   2.0000      -0.529623       -14.4118
 157   2.0000      -0.527766       -14.3613
 158   2.0000      -0.523990       -14.2585
 159   2.0000      -0.522646       -14.2219
 160   2.0000      -0.513619       -13.9763
 161   2.0000      -0.512404       -13.9432
 162   2.0000      -0.508170       -13.8280
 163   2.0000      -0.507240       -13.8027
 164   2.0000      -0.505996       -13.7689
 165   2.0000      -0.501996       -13.6600
 166   2.0000      -0.500466       -13.6184
 167   2.0000      -0.498924       -13.5764
 168   2.0000      -0.496053       -13.4983
 169   2.0000      -0.495979       -13.4963
 170   2.0000      -0.495265       -13.4769
 171   2.0000      -0.490646       -13.3511
 172   2.0000      -0.489892       -13.3306
 173   2.0000      -0.487263       -13.2591
 174   2.0000      -0.485332       -13.2066
 175   2.0000      -0.483943       -13.1688
 176   2.0000      -0.479928       -13.0595
 177   2.0000      -0.478898       -13.0315
 178   2.0000      -0.478551       -13.0220
 179   2.0000      -0.476089       -12.9550
 180   2.0000      -0.474579       -12.9139
 181   2.0000      -0.473991       -12.8980
 182   2.0000      -0.468243       -12.7415
 183   2.0000      -0.466101       -12.6832
 184   2.0000      -0.460171       -12.5219
 185   2.0000      -0.459758       -12.5107
 186   2.0000      -0.456431       -12.4201
 187   2.0000      -0.455353       -12.3908
 188   2.0000      -0.448103       -12.1935
 189   2.0000      -0.447021       -12.1640
 190   2.0000      -0.444185       -12.0869
 191   2.0000      -0.443603       -12.0710
 192   2.0000      -0.441581       -12.0160
 193   2.0000      -0.440151       -11.9771
 194   2.0000      -0.437335       -11.9005
 195   2.0000      -0.435825       -11.8594
 196   2.0000      -0.433577       -11.7982
 197   2.0000      -0.432095       -11.7579
 198   2.0000      -0.429956       -11.6997
 199   2.0000      -0.428309       -11.6549
 200   2.0000      -0.425395       -11.5756
 201   2.0000      -0.424560       -11.5529
 202   2.0000      -0.422914       -11.5081
 203   2.0000      -0.421021       -11.4566
 204   2.0000      -0.416255       -11.3269
 205   2.0000      -0.411446       -11.1960
 206   2.0000      -0.410182       -11.1616
 207   2.0000      -0.408581       -11.1181
 208   2.0000      -0.402976       -10.9655
 209   2.0000      -0.401472       -10.9246
 210   2.0000      -0.397031       -10.8038
 211   2.0000      -0.395689       -10.7672
 212   2.0000      -0.395104       -10.7513
 213   2.0000      -0.385798       -10.4981
 214   2.0000      -0.372754       -10.1432
 215   2.0000      -0.370338       -10.0774
 216   2.0000      -0.359606        -9.7854
 217   2.0000      -0.354780        -9.6541
 218   2.0000      -0.349950        -9.5226
 219   2.0000      -0.338855        -9.2207
 220   2.0000      -0.325616        -8.8605
 221   2.0000      -0.322066        -8.7639
 222   2.0000      -0.316955        -8.6248
 223   2.0000      -0.316067        -8.6006
 224   2.0000      -0.314268        -8.5517
 225   2.0000      -0.312092        -8.4925
 226   2.0000      -0.310635        -8.4528
 227   2.0000      -0.302576        -8.2335
 228   2.0000      -0.292094        -7.9483
 229   2.0000      -0.288149        -7.8409
 230   2.0000      -0.284960        -7.7541
 231   2.0000      -0.273066        -7.4305
 232   2.0000      -0.253257        -6.8915
 233   2.0000      -0.223761        -6.0889
 234   0.0000      -0.082594        -2.2475
 235   0.0000      -0.058311        -1.5867
 236   0.0000      -0.047805        -1.3008
 237   0.0000      -0.027237        -0.7412
 238   0.0000      -0.003400        -0.0925

MULLIKEN ATOMIC CHARGES
-----------------------
   0 C :    0.011029
   1 C :    0.069699
   2 C :   -0.018970
   3 C :   -0.048907
   4 C :   -0.041248
   5 C :    0.097005
   6 C :   -0.067133
   7 C :    0.140872
   8 C :   -0.038121
   9 C :    0.000079
  10 C :    0.088337
  11 C :    0.001648
  12 C :   -0.102131
  13 C :    0.127075
  14 O :   -0.148137
  15 C :    0.004115
  16 C :   -0.073892
  17 C :    0.111641
  18 C :    0.025509
  19 C :   -0.052630
  20 S :    0.132087
  21 C :   -0.092592
  22 C :   -0.034302
  23 C :    0.008670
  24 C :    0.312291
  25 C :   -0.350371
  26 C :   -0.198826
  27 N :    0.172023
  28 C :   -0.184768
  29 N :    0.135964
  30 C :   -0.057352
  31 N :   -0.010537
  32 C :   -0.148643
  33 C :    0.116438
  34 C :   -0.156862
  35 C :    0.118840
  36 N :   -0.002017
  37 C :   -0.009896
  38 S :    0.145135
  39 C :   -0.145945
  40 C :    0.160460
  41 C :   -0.070676
  42 C :   -0.071039
  43 C :    0.163969
  44 C :   -0.110628
  45 C :   -0.043186
  46 C :   -0.020408
  47 S :    0.138675
  48 C :   -0.054093
  49 C :    0.019012
  50 C :   -0.080326
  51 S :    0.136257
  52 C :   -0.101753
  53 C :   -0.055936
  54 S :    0.100697
  55 C :   -0.044851
  56 N :   -0.002808
  57 C :   -0.162372
  58 C :    0.122032
  59 C :   -0.156002
  60 C :    0.124888
  61 N :   -0.043754
  62 C :   -0.037543
  63 H :    0.011475
  64 H :    0.016045
  65 H :    0.023411
  66 H :   -0.008815
  67 H :    0.016827
  68 H :   -0.035990
  69 H :   -0.009761
  70 H :   -0.036001
  71 H :   -0.022420
  72 H :   -0.015868
  73 H :    0.014739
  74 H :   -0.013110
  75 H :   -0.007735
  76 H :    0.037186
  77 H :   -0.014151
  78 H :    0.030471
  79 H :    0.021431
  80 H :    0.039381
  81 H :    0.024210
  82 H :    0.028653
  83 H :    0.033573
  84 H :   -0.040358
  85 H :   -0.010884
  86 H :   -0.016110
  87 H :   -0.012182
  88 H :    0.027713
  89 H :    0.029440
  90 H :    0.027910
  91 H :    0.026147
  92 H :    0.025157
  93 H :    0.028586
  94 H :    0.035241
Sum of atomic charges:   -0.0000000

LOEWDIN ATOMIC CHARGES
----------------------
   0 C :   -0.051804
   1 C :   -0.029361
   2 C :   -0.045240
   3 C :   -0.060047
   4 C :   -0.185880
   5 C :   -0.008468
   6 C :   -0.036186
   7 C :    0.010340
   8 C :   -0.018701
   9 C :    0.020025
  10 C :   -0.050256
  11 C :    0.075366
  12 C :   -0.083796
  13 C :    0.084542
  14 O :   -0.147922
  15 C :   -0.052765
  16 C :    0.022158
  17 C :   -0.037697
  18 C :   -0.057712
  19 C :   -0.152735
  20 S :    0.421516
  21 C :   -0.145807
  22 C :   -0.016550
  23 C :   -0.015483
  24 C :    0.085278
  25 C :   -0.149666
  26 C :   -0.020697
  27 N :   -0.051210
  28 C :   -0.016786
  29 N :   -0.070999
  30 C :    0.001571
  31 N :   -0.038086
  32 C :    0.003169
  33 C :   -0.055740
  34 C :   -0.000266
  35 C :   -0.053064
  36 N :   -0.030869
  37 C :   -0.002003
  38 S :    0.478010
  39 C :   -0.176344
  40 C :   -0.037088
  41 C :   -0.015080
  42 C :   -0.023239
  43 C :   -0.037847
  44 C :   -0.155178
  45 C :   -0.057232
  46 C :   -0.197651
  47 S :    0.396138
  48 C :   -0.198553
  49 C :   -0.073354
  50 C :   -0.177421
  51 S :    0.420240
  52 C :   -0.223540
  53 C :   -0.215622
  54 S :    0.412106
  55 C :   -0.002710
  56 N :   -0.035331
  57 C :   -0.000278
  58 C :   -0.052538
  59 C :    0.002707
  60 C :   -0.052424
  61 N :   -0.055069
  62 C :   -0.008698
  63 H :    0.023060
  64 H :    0.027009
  65 H :    0.023781
  66 H :    0.028056
  67 H :    0.024091
  68 H :    0.021104
  69 H :    0.022765
  70 H :    0.024699
  71 H :    0.030540
  72 H :    0.034749
  73 H :    0.044959
  74 H :    0.039814
  75 H :    0.034822
  76 H :    0.028426
  77 H :    0.037482
  78 H :    0.037390
  79 H :    0.036773
  80 H :    0.042453
  81 H :    0.037080
  82 H :    0.037983
  83 H :    0.041395
  84 H :    0.030484
  85 H :    0.022008
  86 H :    0.027919
  87 H :    0.033060
  88 H :    0.023292
  89 H :    0.038654
  90 H :    0.038833
  91 H :    0.038231
  92 H :    0.038133
  93 H :    0.039532
  94 H :    0.039252

  Mayer bond orders larger than 0.100000
B(  0-C ,  1-C ) :   1.1014 B(  0-C , 63-H ) :   0.9664 B(  0-C , 64-H ) :   0.9654
B(  0-C , 65-H ) :   0.9712 B(  1-C ,  2-C ) :   1.0650 B(  1-C , 66-H ) :   0.9200
B(  1-C , 67-H ) :   0.9174 B(  2-C ,  3-C ) :   1.3121 B(  2-C , 39-C ) :   1.4679
B(  3-C ,  4-C ) :   1.4512 B(  3-C , 68-H ) :   0.9940 B(  4-C ,  5-C ) :   1.1055
B(  4-C , 38-S ) :   1.0955 B(  5-C ,  6-C ) :   1.6643 B(  5-C , 69-H ) :   0.9381
B(  6-C ,  7-C ) :   1.1388 B(  6-C , 70-H ) :   0.9720 B(  7-C ,  8-C ) :   1.3660
B(  7-C , 10-C ) :   0.1019 B(  7-C , 37-C ) :   1.1748 B(  8-C ,  9-C ) :   1.2836
B(  8-C , 71-H ) :   0.9992 B(  9-C , 10-C ) :   1.3700 B(  9-C , 72-H ) :   0.9986
B( 10-C , 11-C ) :   1.0740 B( 10-C , 30-C ) :   1.1964 B( 11-C , 12-C ) :   1.6784
B( 11-C , 73-H ) :   0.9459 B( 12-C , 13-C ) :   0.9484 B( 12-C , 24-C ) :   1.0274
B( 13-C , 14-O ) :   2.2652 B( 13-C , 15-C ) :   0.9197 B( 15-C , 16-C ) :   1.4254
B( 15-C , 23-C ) :   1.2720 B( 16-C , 17-C ) :   1.2517 B( 16-C , 74-H ) :   1.0144
B( 17-C , 18-C ) :   1.1687 B( 17-C , 21-C ) :   1.3073 B( 18-C , 19-C ) :   1.6334
B( 18-C , 75-H ) :   0.9988 B( 19-C , 20-S ) :   1.1222 B( 19-C , 76-H ) :   0.9688
B( 20-S , 21-C ) :   1.0940 B( 21-C , 22-C ) :   1.3173 B( 22-C , 23-C ) :   1.4121
B( 22-C , 77-H ) :   0.9877 B( 23-C , 24-C ) :   1.0258 B( 24-C , 25-C ) :   1.6321
B( 25-C , 26-C ) :   1.1638 B( 25-C , 28-C ) :   1.1467 B( 26-C , 27-N ) :   3.0109
B( 28-C , 29-N ) :   2.9592 B( 30-C , 31-N ) :   1.4471 B( 30-C , 37-C ) :   1.2588
B( 31-N , 32-C ) :   1.6382 B( 32-C , 33-C ) :   1.0991 B( 32-C , 34-C ) :   1.1825
B( 33-C , 78-H ) :   0.9422 B( 33-C , 79-H ) :   0.9376 B( 33-C , 80-H ) :   0.9349
B( 34-C , 35-C ) :   1.0937 B( 34-C , 36-N ) :   1.6646 B( 35-C , 81-H ) :   0.9404
B( 35-C , 82-H ) :   0.9452 B( 35-C , 83-H ) :   0.9419 B( 36-N , 37-C ) :   1.4396
B( 38-S , 39-C ) :   1.1376 B( 39-C , 40-C ) :   1.0971 B( 40-C , 41-C ) :   1.3810
B( 40-C , 43-C ) :   0.1139 B( 40-C , 62-C ) :   1.1987 B( 41-C , 42-C ) :   1.2977
B( 41-C , 84-H ) :   0.9967 B( 42-C , 43-C ) :   1.3880 B( 42-C , 85-H ) :   0.9844
B( 43-C , 44-C ) :   1.1152 B( 43-C , 55-C ) :   1.2171 B( 44-C , 45-C ) :   1.5609
B( 44-C , 54-S ) :   1.0746 B( 45-C , 46-C ) :   1.2010 B( 45-C , 86-H ) :   0.9885
B( 46-C , 47-S ) :   1.0487 B( 46-C , 53-C ) :   1.4783 B( 47-S , 48-C ) :   1.0548
B( 48-C , 49-C ) :   1.2546 B( 48-C , 52-C ) :   1.4803 B( 49-C , 50-C ) :   1.5962
B( 49-C , 87-H ) :   1.0009 B( 50-C , 51-S ) :   1.1397 B( 50-C , 88-H ) :   0.9683
B( 51-S , 52-C ) :   1.0776 B( 52-C , 53-C ) :   1.2940 B( 53-C , 54-S ) :   1.0715
B( 55-C , 56-N ) :   1.4463 B( 55-C , 62-C ) :   1.2601 B( 56-N , 57-C ) :   1.6676
B( 57-C , 58-C ) :   1.0951 B( 57-C , 59-C ) :   1.1859 B( 58-C , 89-H ) :   0.9455
B( 58-C , 90-H ) :   0.9414 B( 58-C , 91-H ) :   0.9413 B( 59-C , 60-C ) :   1.0981
B( 59-C , 61-N ) :   1.6548 B( 60-C , 92-H ) :   0.9390 B( 60-C , 93-H ) :   0.9396
B( 60-C , 94-H ) :   0.9442 B( 61-N , 62-C ) :   1.3979

-----------------------------------------------------------------------------
         ABSORPTION SPECTRUM VIA TRANSITION ELECTRIC DIPOLE MOMENTS
-----------------------------------------------------------------------------
State   Energy  Wavelength   fosc         T2         TX        TY        TZ
        (cm-1)    (nm)                  (au**2)     (au)      (au)      (au)
-----------------------------------------------------------------------------
   0   16892.1    592.0   1.478489035  28.81439   2.06160   3.43956   3.56843
   1   21291.4    469.7   0.404225887   6.25024  -0.67308  -2.37398  -0.40180
   2   24383.4    410.1   0.018814923   0.25403  -0.26931   0.28498   0.31668
   3   25738.0    388.5   0.025105547   0.32112  -0.19415   0.02539  -0.53177
   4   25977.0    385.0   0.055014856   0.69722  -0.23098   0.30448   0.74240
   5   28044.6    356.6   0.018217422   0.21385  -0.40028   0.21378  -0.08902
   6   28376.6    352.4   0.123615450   1.43413  -0.07112   0.32140   1.15142
   7   28626.1    349.3   0.109615477   1.26062   0.63445   0.33286   0.86446
   8   29207.1    342.4   0.044504210   0.50164   0.22810   0.46167   0.48628
   9   29923.1    334.2   0.056136555   0.61761  -0.11598   0.12065  -0.76786
  10   30402.7    328.9   0.038608689   0.41807  -0.16031  -0.56790   0.26431
  11   31044.0    322.1   0.100449666   1.06524   0.42842   0.27116   0.89898
  12   31103.1    321.5   0.015439746   0.16342  -0.03776   0.40046   0.04034
  13   31399.7    318.5   0.322788195   3.38429  -0.86613  -1.27732  -1.00127
  14   31937.3    313.1   0.384003577   3.95834   0.60277   1.77823   0.65796
  15   32028.8    312.2   0.040239828   0.41361   0.26183   0.45170   0.37553
  16   32659.9    306.2   0.115717647   1.16644  -0.82501  -0.39461  -0.57453
  17   32799.0    304.9   0.033074037   0.33197   0.40344   0.38373   0.14818
  18   33080.4    302.3   0.172058845   1.71231  -0.41422   0.63935   1.06394
  19   33325.5    300.1   0.249683941   2.46655  -0.33885   0.45106   1.46570
  20   34117.4    293.1   0.101446276   0.97890  -0.29407  -0.05994   0.94278
  21   34847.1    287.0   0.389031135   3.67530   0.10534   0.43531   1.86406
  22   34992.8    285.8   0.011270267   0.10603  -0.06070   0.08594  -0.30816
  23   35552.1    281.3   0.057703032   0.53433   0.04824  -0.61576   0.39095
  24   36054.6    277.4   0.006858100   0.06262  -0.14144   0.11400   0.17210
  25   36071.8    277.2   0.021608347   0.19721   0.12113   0.14869  -0.40054
  26   36710.1    272.4   0.032175019   0.28854  -0.37891  -0.36678   0.10218
  27   37577.0    266.1   0.000173841   0.00152  -0.02477   0.00601  -0.02955
  28   37896.2    263.9   0.001332078   0.01157   0.06532  -0.02465  -0.08184
  29   38005.1    263.1   0.056751152   0.49160  -0.22581   0.66301   0.03208
  30   38403.9    260.4   0.145442079   1.24678   0.19970  -0.80884   0.74342
  31   38616.9    259.0   0.052308361   0.44593   0.41854   0.14130   0.50079
  32   38836.7    257.5   0.343745053   2.91387  -0.31653   0.73967  -1.50551
  33   39404.4    253.8   0.020220418   0.16894   0.08534  -0.38885   0.10220
  34   39893.2    250.7   0.056684224   0.46778  -0.06035   0.53116  -0.42661
  35   39910.0    250.6   0.050316657   0.41505  -0.15306   0.56947  -0.25949

FINAL SINGLE POINT ENERGY     -4353.750928960379

DIPOLE MOMENT
-------------
                                X             Y             Z
Electronic contribution:      5.47495       1.51287       0.60055
Nuclear contribution   :     -4.12278      -0.31438      -1.92381
                        -----------------------------------------
Total Dipole Moment    :      1.35216       1.19849      -1.32327
                        -----------------------------------------
Magnitude (a.u.)       :      2.23959
Magnitude (Debye)      :      5.69258

Rotational constants in cm-1:     0.003121     0.000285     0.000267
Rotational constants in MHz :    93.574330     8.551084     8.016576

                             ****ORCA TERMINATED NORMALLY****
TOTAL RUN TIME: 0 days 0 hours 9 minutes 22 seconds 773 msec
