                         Program Version 4.2.0 -  RELEASE  -
|  1> # ORCA input file
|  2> # SCF done       -201.237243551633          0.000434695736
|  3> ! CAM-B3LYP def2-SVP def2/J RIJCOSX Grid4 TightSCF
|  4> %maxcore 5000
|  5> %tddft
|  6>     Mode sTDDFT
|  7>     Ethresh 5.0
|  8>     maxcore 5000
|  9> end
| 10>
| 11> %pal
| 12>   nprocs 6
| 13>   end
| 14> * xyz 0 1
| 15>    C       -0.71802        -2.42600         7.05584
| 16>    C       -1.78000        -2.58447         7.88979
| 17>    S       -1.62072        -4.01847         8.83894
| 18>    C       -0.08930        -4.41762         8.09617
| 19>   Cl        0.77085        -5.80812         8.53867
| 20>    C        0.25114        -3.47464         7.17307
| 21>    C        1.35458        -3.22306         6.24628
| 22>    O        2.34843        -3.90570         6.07312
| 23>    C        1.01328        -1.96326         5.56133
| 24>    C       -0.26640        -1.47897         6.05289
| 25>    C       -0.96370        -0.36002         5.67983
| 26>    C       -2.20352        -0.04093         6.27307
| 27>    N       -3.21195         0.23458         6.74570
| 28>    C       -0.57211         0.57836         4.70492
| 29>    N       -0.31432         1.37756         3.92162
| 30>    C        1.78950        -1.33450         4.62170
| 31>    C        3.03500        -1.68792         4.08061
| 32>    C        3.68211        -0.87856         3.13770
| 33>    C        4.89941        -1.39633         2.74174
| 34>    C        5.19218        -2.62536         3.38245
| 35>    S        3.97836        -3.12843         4.46545
| 36>    C        6.45707        -3.06395         2.92265
| 37>    C        6.96519        -2.12570         2.00525
| 38>    C        5.99916        -1.04909         1.85535
| 39>    C        6.10853         0.04787         1.05318
| 40>    C        5.10402         1.03719         0.98589
| 41>    N        4.29349         1.84544         0.92760
| 42>    C        7.23810         0.26367         0.23536
| 43>    N        8.15792         0.43339        -0.42768
| 44>    C        8.22277        -2.46980         1.51421
| 45>    C        8.67493        -3.66466         2.04726
| 46>    S        7.52541        -4.37487         3.17025
| 47>    C        9.91390        -4.30520         1.79405
| 48>    C       10.35167        -5.52148         2.28720
| 49>    C       11.63865        -5.82828         1.84848
| 50>    C       12.18540        -4.83435         1.01743
| 51>    S       11.11279        -3.53023         0.76708
| 52>    C       13.49632        -5.22596         0.64635
| 53>    C       13.77714        -6.46990         1.23881
| 54>    C       12.61793        -6.89180         2.00989
| 55>    C       12.48085        -8.03882         2.73392
| 56>    C       11.29961        -8.33824         3.44567
| 57>    N       10.33986        -8.58073         4.02376
| 58>    C       13.51244        -8.99819         2.81782
| 59>    N       14.35304        -9.77461         2.88633
| 60>    C       15.05802        -6.93419         0.94518
| 61>    C       15.75541        -6.05167         0.13940
| 62>    S       14.80748        -4.62820        -0.26913
| 63>    C       17.08408        -6.18315        -0.33628
| 64>    C       17.79891        -5.27678        -1.10078
| 65>    C       19.09057        -5.72594        -1.36603
| 66>    C       19.35977        -6.98707        -0.80386
| 67>    S       18.02199        -7.61646         0.05254
| 68>    C       20.68943        -7.35398        -1.12500
| 69>    C       21.26415        -6.31454        -1.88621
| 70>    C       20.27669        -5.26672        -2.07268
| 71>    C       20.42897        -4.11629        -2.78872
| 72>    C       19.39221        -3.16780        -2.91345
| 73>    N       18.54744        -2.39806        -3.00251
| 74>    C       21.64198        -3.81467        -3.44398
| 75>    N       22.63656        -3.58242        -3.96498
| 76>    C       22.56854        -6.58507        -2.27480
| 77>    C       23.00366        -7.82576        -1.82890
| 78>    S       21.76706        -8.64604        -0.87816
| 79>    C       24.26449        -8.43684        -1.98898
| 80>    C       25.25459        -8.15375        -2.88261
| 81>    C       26.63791        -8.63444        -2.56586
| 82>    O       26.93983        -9.42332        -1.70294
| 83>    C       27.50257        -7.89693        -3.49269
| 84>    C       28.83852        -7.75040        -3.71811
| 85>    S       29.11811        -6.64286        -5.04171
| 86>    C       27.42547        -6.40206        -5.28236
| 87>    C       26.69607        -7.12436        -4.39182
| 88>    C       25.29459        -7.37702        -4.10619
| 89>    C       24.27745        -7.11635        -4.98840
| 90>    C       24.51055        -6.42947        -6.19868
| 91>    N       24.68411        -5.87351        -7.18667
| 92>    C       22.95229        -7.56224        -4.84239
| 93>    N       21.86574        -7.92746        -4.77111
| 94>   Cl       30.12472        -8.48508        -2.89663
| 95>    H       -2.64469        -1.96431         8.01868
| 96>    H        1.40521        -0.40404         4.22006
| 97>    H        3.25317         0.04245         2.78398
| 98>    H        8.79315        -1.89382         0.80765
| 99>    H        9.75171        -6.13804         2.93225
|100>    H       15.47873        -7.85972         1.29534
|101>    H       17.38634        -4.34155        -1.43476
|102>    H       23.20019        -5.90142        -2.81182
|103>    H       24.52215        -9.19888        -1.25908
|104>    H       27.09251        -5.73668        -6.05397
|105> *
|106>
|107>                          ****END OF INPUT****

CARTESIAN COORDINATES (ANGSTROEM)
---------------------------------
  C     -0.718020   -2.426000    7.055840
  C     -1.780000   -2.584470    7.889790
  S     -1.620720   -4.018470    8.838940
  C     -0.089300   -4.417620    8.096170
  Cl     0.770850   -5.808120    8.538670
  C      0.251140   -3.474640    7.173070
  C      1.354580   -3.223060    6.246280
  O      2.348430   -3.905700    6.073120
  C      1.013280   -1.963260    5.561330
  C     -0.266400   -1.478970    6.052890
  C     -0.963700   -0.360020    5.679830
  C     -2.203520   -0.040930    6.273070
  N     -3.211950    0.234580    6.745700
  C     -0.572110    0.578360    4.704920
  N     -0.314320    1.377560    3.921620
  C      1.789500   -1.334500    4.621700
  C      3.035000   -1.687920    4.080610
  C      3.682110   -0.878560    3.137700
  C      4.899410   -1.396330    2.741740
  C      5.192180   -2.625360    3.382450
  S      3.978360   -3.128430    4.465450
  C      6.457070   -3.063950    2.922650
  C      6.965190   -2.125700    2.005250
  C      5.999160   -1.049090    1.855350
  C      6.108530    0.047870    1.053180
  C      5.104020    1.037190    0.985890
  N      4.293490    1.845440    0.927600
  C      7.238100    0.263670    0.235360
  N      8.157920    0.433390   -0.427680
  C      8.222770   -2.469800    1.514210
  C      8.674930   -3.664660    2.047260
  S      7.525410   -4.374870    3.170250
  C      9.913900   -4.305200    1.794050
  C     10.351670   -5.521480    2.287200
  C     11.638650   -5.828280    1.848480
  C     12.185400   -4.834350    1.017430
  S     11.112790   -3.530230    0.767080
  C     13.496320   -5.225960    0.646350
  C     13.777140   -6.469900    1.238810
  C     12.617930   -6.891800    2.009890
  C     12.480850   -8.038820    2.733920
  C     11.299610   -8.338240    3.445670
  N     10.339860   -8.580730    4.023760
  C     13.512440   -8.998190    2.817820
  N     14.353040   -9.774610    2.886330
  C     15.058020   -6.934190    0.945180
  C     15.755410   -6.051670    0.139400
  S     14.807480   -4.628200   -0.269130
  C     17.084080   -6.183150   -0.336280
  C     17.798910   -5.276780   -1.100780
  C     19.090570   -5.725940   -1.366030
  C     19.359770   -6.987070   -0.803860
  S     18.021990   -7.616460    0.052540
  C     20.689430   -7.353980   -1.125000
  C     21.264150   -6.314540   -1.886210
  C     20.276690   -5.266720   -2.072680
  C     20.428970   -4.116290   -2.788720
  C     19.392210   -3.167800   -2.913450
  N     18.547440   -2.398060   -3.002510
  C     21.641980   -3.814670   -3.443980
  N     22.636560   -3.582420   -3.964980
  C     22.568540   -6.585070   -2.274800
  C     23.003660   -7.825760   -1.828900
  S     21.767060   -8.646040   -0.878160
  C     24.264490   -8.436840   -1.988980
  C     25.254590   -8.153750   -2.882610
  C     26.637910   -8.634440   -2.565860
  O     26.939830   -9.423320   -1.702940
  C     27.502570   -7.896930   -3.492690
  C     28.838520   -7.750400   -3.718110
  S     29.118110   -6.642860   -5.041710
  C     27.425470   -6.402060   -5.282360
  C     26.696070   -7.124360   -4.391820
  C     25.294590   -7.377020   -4.106190
  C     24.277450   -7.116350   -4.988400
  C     24.510550   -6.429470   -6.198680
  N     24.684110   -5.873510   -7.186670
  C     22.952290   -7.562240   -4.842390
  N     21.865740   -7.927460   -4.771110
  Cl    30.124720   -8.485080   -2.896630
  H     -2.644690   -1.964310    8.018680
  H      1.405210   -0.404040    4.220060
  H      3.253170    0.042450    2.783980
  H      8.793150   -1.893820    0.807650
  H      9.751710   -6.138040    2.932250
  H     15.478730   -7.859720    1.295340
  H     17.386340   -4.341550   -1.434760
  H     23.200190   -5.901420   -2.811820
  H     24.522150   -9.198880   -1.259080
  H     27.092510   -5.736680   -6.053970

 Total Charge           Charge          ....    0
 Multiplicity           Mult            ....    1
 Number of Electrons    NEL             ....  606
 Basis Dimension        Dim             .... 1210

ORBITAL ENERGIES
----------------

  NO   OCC          E(Eh)            E(eV)
   0   2.0000    -101.621192     -2765.2532
   1   2.0000    -101.617427     -2765.1508
   2   2.0000     -89.006355     -2421.9861
   3   2.0000     -89.006027     -2421.9771
   4   2.0000     -89.005465     -2421.9618
   5   2.0000     -89.004661     -2421.9400
   6   2.0000     -89.003549     -2421.9097
   7   2.0000     -88.997330     -2421.7405
   8   2.0000     -88.995620     -2421.6939
   9   2.0000     -88.992802     -2421.6173
  10   2.0000     -19.231638      -523.3195
  11   2.0000     -19.220052      -523.0042
  12   2.0000     -14.443600      -393.0303
  13   2.0000     -14.443524      -393.0283
  14   2.0000     -14.440514      -392.9464
  15   2.0000     -14.440427      -392.9440
  16   2.0000     -14.439769      -392.9261
  17   2.0000     -14.437343      -392.8601
  18   2.0000     -14.424371      -392.5071
  19   2.0000     -14.422747      -392.4629
  20   2.0000     -14.419509      -392.3748
  21   2.0000     -14.418818      -392.3560
  22   2.0000     -10.385176      -282.5950
  23   2.0000     -10.379793      -282.4485
  24   2.0000     -10.379300      -282.4351
  25   2.0000     -10.376847      -282.3684
  26   2.0000     -10.376303      -282.3536
  27   2.0000     -10.376196      -282.3506
  28   2.0000     -10.374789      -282.3124
  29   2.0000     -10.366005      -282.0733
  30   2.0000     -10.363076      -281.9936
  31   2.0000     -10.362469      -281.9771
  32   2.0000     -10.351824      -281.6874
  33   2.0000     -10.351637      -281.6824
  34   2.0000     -10.350786      -281.6592
  35   2.0000     -10.349260      -281.6177
  36   2.0000     -10.348191      -281.5886
  37   2.0000     -10.347852      -281.5794
  38   2.0000     -10.347575      -281.5718
  39   2.0000     -10.347527      -281.5705
  40   2.0000     -10.347059      -281.5578
  41   2.0000     -10.345357      -281.5115
  42   2.0000     -10.344783      -281.4959
  43   2.0000     -10.344525      -281.4888
  44   2.0000     -10.343633      -281.4646
  45   2.0000     -10.343566      -281.4627
  46   2.0000     -10.343510      -281.4612
  47   2.0000     -10.342776      -281.4412
  48   2.0000     -10.340478      -281.3787
  49   2.0000     -10.340390      -281.3763
  50   2.0000     -10.339925      -281.3637
  51   2.0000     -10.336782      -281.2781
  52   2.0000     -10.334860      -281.2258
  53   2.0000     -10.334740      -281.2226
  54   2.0000     -10.334021      -281.2030
  55   2.0000     -10.331797      -281.1425
  56   2.0000     -10.331650      -281.1385
  57   2.0000     -10.328659      -281.0571
  58   2.0000     -10.325490      -280.9709
  59   2.0000     -10.324965      -280.9566
  60   2.0000     -10.322097      -280.8785
  61   2.0000     -10.321343      -280.8580
  62   2.0000     -10.320836      -280.8442
  63   2.0000     -10.320824      -280.8439
  64   2.0000     -10.320724      -280.8412
  65   2.0000     -10.320543      -280.8362
  66   2.0000     -10.318844      -280.7900
  67   2.0000     -10.318803      -280.7889
  68   2.0000     -10.318300      -280.7752
  69   2.0000     -10.317796      -280.7615
  70   2.0000     -10.316670      -280.7309
  71   2.0000     -10.316310      -280.7211
  72   2.0000     -10.314907      -280.6829
  73   2.0000     -10.314855      -280.6815
  74   2.0000     -10.313267      -280.6383
  75   2.0000     -10.312808      -280.6258
  76   2.0000     -10.308637      -280.5123
  77   2.0000     -10.308260      -280.5020
  78   2.0000     -10.303440      -280.3709
  79   2.0000     -10.300393      -280.2880
  80   2.0000      -9.575970      -260.5754
  81   2.0000      -9.572238      -260.4738
  82   2.0000      -8.100656      -220.4300
  83   2.0000      -8.100423      -220.4237
  84   2.0000      -8.099872      -220.4087
  85   2.0000      -8.099035      -220.3860
  86   2.0000      -8.098170      -220.3624
  87   2.0000      -8.091307      -220.1757
  88   2.0000      -8.089600      -220.1292
  89   2.0000      -8.088477      -220.0987
  90   2.0000      -7.346608      -199.9114
  91   2.0000      -7.342877      -199.8098
  92   2.0000      -7.336003      -199.6228
  93   2.0000      -7.335471      -199.6083
  94   2.0000      -7.332274      -199.5213
  95   2.0000      -7.331725      -199.5064
  96   2.0000      -6.069950      -165.1717
  97   2.0000      -6.069717      -165.1654
  98   2.0000      -6.069179      -165.1508
  99   2.0000      -6.068331      -165.1277
 100   2.0000      -6.067340      -165.1007
 101   2.0000      -6.065756      -165.0576
 102   2.0000      -6.065543      -165.0518
 103   2.0000      -6.065004      -165.0372
 104   2.0000      -6.064138      -165.0136
 105   2.0000      -6.063161      -164.9870
 106   2.0000      -6.062957      -164.9815
 107   2.0000      -6.062696      -164.9744
 108   2.0000      -6.062107      -164.9583
 109   2.0000      -6.061320      -164.9369
 110   2.0000      -6.060735      -164.9210
 111   2.0000      -6.060677      -164.9194
 112   2.0000      -6.059052      -164.8752
 113   2.0000      -6.057885      -164.8434
 114   2.0000      -6.056093      -164.7947
 115   2.0000      -6.054241      -164.7443
 116   2.0000      -6.053506      -164.7243
 117   2.0000      -6.053261      -164.7176
 118   2.0000      -6.052136      -164.6870
 119   2.0000      -6.050705      -164.6481
 120   2.0000      -1.148676       -31.2571
 121   2.0000      -1.137385       -30.9498
 122   2.0000      -1.061479       -28.8843
 123   2.0000      -1.058436       -28.8015
 124   2.0000      -1.055782       -28.7293
 125   2.0000      -1.041316       -28.3356
 126   2.0000      -1.038482       -28.2585
 127   2.0000      -1.035792       -28.1853
 128   2.0000      -1.032682       -28.1007
 129   2.0000      -1.031000       -28.0549
 130   2.0000      -1.023434       -27.8491
 131   2.0000      -1.020927       -27.7808
 132   2.0000      -1.019480       -27.7415
 133   2.0000      -1.018662       -27.7192
 134   2.0000      -1.017873       -27.6977
 135   2.0000      -1.015968       -27.6459
 136   2.0000      -1.011742       -27.5309
 137   2.0000      -1.002825       -27.2883
 138   2.0000      -1.000008       -27.2116
 139   2.0000      -0.999550       -27.1991
 140   2.0000      -0.991391       -26.9771
 141   2.0000      -0.988845       -26.9078
 142   2.0000      -0.977933       -26.6109
 143   2.0000      -0.970057       -26.3966
 144   2.0000      -0.966466       -26.2989
 145   2.0000      -0.956989       -26.0410
 146   2.0000      -0.954623       -25.9766
 147   2.0000      -0.936067       -25.4717
 148   2.0000      -0.929511       -25.2933
 149   2.0000      -0.919978       -25.0339
 150   2.0000      -0.909794       -24.7568
 151   2.0000      -0.908349       -24.7174
 152   2.0000      -0.893053       -24.3012
 153   2.0000      -0.892286       -24.2803
 154   2.0000      -0.885006       -24.0822
 155   2.0000      -0.883976       -24.0542
 156   2.0000      -0.876468       -23.8499
 157   2.0000      -0.874802       -23.8046
 158   2.0000      -0.868238       -23.6260
 159   2.0000      -0.864054       -23.5121
 160   2.0000      -0.849593       -23.1186
 161   2.0000      -0.835654       -22.7393
 162   2.0000      -0.833170       -22.6717
 163   2.0000      -0.828274       -22.5385
 164   2.0000      -0.812238       -22.1021
 165   2.0000      -0.799754       -21.7624
 166   2.0000      -0.793838       -21.6014
 167   2.0000      -0.787554       -21.4304
 168   2.0000      -0.782708       -21.2986
 169   2.0000      -0.770030       -20.9536
 170   2.0000      -0.760056       -20.6822
 171   2.0000      -0.756559       -20.5870
 172   2.0000      -0.744169       -20.2499
 173   2.0000      -0.726404       -19.7664
 174   2.0000      -0.717396       -19.5213
 175   2.0000      -0.714717       -19.4484
 176   2.0000      -0.710220       -19.3261
 177   2.0000      -0.704185       -19.1618
 178   2.0000      -0.700845       -19.0710
 179   2.0000      -0.694953       -18.9106
 180   2.0000      -0.693711       -18.8768
 181   2.0000      -0.689376       -18.7589
 182   2.0000      -0.683989       -18.6123
 183   2.0000      -0.680448       -18.5159
 184   2.0000      -0.676201       -18.4004
 185   2.0000      -0.675460       -18.3802
 186   2.0000      -0.653207       -17.7747
 187   2.0000      -0.647021       -17.6063
 188   2.0000      -0.646065       -17.5803
 189   2.0000      -0.642639       -17.4871
 190   2.0000      -0.638742       -17.3811
 191   2.0000      -0.635340       -17.2885
 192   2.0000      -0.632473       -17.2105
 193   2.0000      -0.630590       -17.1592
 194   2.0000      -0.625540       -17.0218
 195   2.0000      -0.624391       -16.9905
 196   2.0000      -0.618910       -16.8414
 197   2.0000      -0.614503       -16.7215
 198   2.0000      -0.612457       -16.6658
 199   2.0000      -0.608779       -16.5657
 200   2.0000      -0.592207       -16.1148
 201   2.0000      -0.584550       -15.9064
 202   2.0000      -0.576487       -15.6870
 203   2.0000      -0.567123       -15.4322
 204   2.0000      -0.564379       -15.3575
 205   2.0000      -0.561826       -15.2881
 206   2.0000      -0.560237       -15.2448
 207   2.0000      -0.558590       -15.2000
 208   2.0000      -0.554391       -15.0857
 209   2.0000      -0.552218       -15.0266
 210   2.0000      -0.550249       -14.9730
 211   2.0000      -0.549077       -14.9411
 212   2.0000      -0.542407       -14.7596
 213   2.0000      -0.536833       -14.6080
 214   2.0000      -0.533259       -14.5107
 215   2.0000      -0.530670       -14.4403
 216   2.0000      -0.528338       -14.3768
 217   2.0000      -0.525280       -14.2936
 218   2.0000      -0.522572       -14.2199
 219   2.0000      -0.521955       -14.2031
 220   2.0000      -0.521477       -14.1901
 221   2.0000      -0.520486       -14.1631
 222   2.0000      -0.517009       -14.0685
 223   2.0000      -0.515295       -14.0219
 224   2.0000      -0.512690       -13.9510
 225   2.0000      -0.512022       -13.9328
 226   2.0000      -0.507892       -13.8204
 227   2.0000      -0.507852       -13.8194
 228   2.0000      -0.505958       -13.7678
 229   2.0000      -0.505107       -13.7447
 230   2.0000      -0.503575       -13.7030
 231   2.0000      -0.502696       -13.6791
 232   2.0000      -0.501223       -13.6390
 233   2.0000      -0.497716       -13.5435
 234   2.0000      -0.496063       -13.4985
 235   2.0000      -0.493316       -13.4238
 236   2.0000      -0.492649       -13.4057
 237   2.0000      -0.488895       -13.3035
 238   2.0000      -0.485046       -13.1988
 239   2.0000      -0.484479       -13.1833
 240   2.0000      -0.479345       -13.0437
 241   2.0000      -0.474089       -12.9006
 242   2.0000      -0.471718       -12.8361
 243   2.0000      -0.470828       -12.8119
 244   2.0000      -0.470616       -12.8061
 245   2.0000      -0.469237       -12.7686
 246   2.0000      -0.467972       -12.7342
 247   2.0000      -0.464723       -12.6458
 248   2.0000      -0.461666       -12.5626
 249   2.0000      -0.457216       -12.4415
 250   2.0000      -0.457028       -12.4364
 251   2.0000      -0.456552       -12.4234
 252   2.0000      -0.455654       -12.3990
 253   2.0000      -0.454475       -12.3669
 254   2.0000      -0.454231       -12.3602
 255   2.0000      -0.453518       -12.3408
 256   2.0000      -0.452828       -12.3221
 257   2.0000      -0.450939       -12.2707
 258   2.0000      -0.450210       -12.2508
 259   2.0000      -0.450026       -12.2458
 260   2.0000      -0.448511       -12.2046
 261   2.0000      -0.448290       -12.1986
 262   2.0000      -0.448197       -12.1961
 263   2.0000      -0.448130       -12.1942
 264   2.0000      -0.446987       -12.1631
 265   2.0000      -0.446263       -12.1434
 266   2.0000      -0.445164       -12.1135
 267   2.0000      -0.443563       -12.0700
 268   2.0000      -0.439283       -11.9535
 269   2.0000      -0.437265       -11.8986
 270   2.0000      -0.436313       -11.8727
 271   2.0000      -0.435362       -11.8468
 272   2.0000      -0.433196       -11.7879
 273   2.0000      -0.432766       -11.7761
 274   2.0000      -0.430623       -11.7178
 275   2.0000      -0.425685       -11.5835
 276   2.0000      -0.422508       -11.4970
 277   2.0000      -0.418839       -11.3972
 278   2.0000      -0.416424       -11.3315
 279   2.0000      -0.416195       -11.3253
 280   2.0000      -0.411933       -11.2093
 281   2.0000      -0.406346       -11.0572
 282   2.0000      -0.404049       -10.9947
 283   2.0000      -0.403265       -10.9734
 284   2.0000      -0.394510       -10.7352
 285   2.0000      -0.383422       -10.4334
 286   2.0000      -0.366548        -9.9743
 287   2.0000      -0.365275        -9.9396
 288   2.0000      -0.361371        -9.8334
 289   2.0000      -0.358740        -9.7618
 290   2.0000      -0.348656        -9.4874
 291   2.0000      -0.346034        -9.4161
 292   2.0000      -0.345149        -9.3920
 293   2.0000      -0.339518        -9.2388
 294   2.0000      -0.336303        -9.1513
 295   2.0000      -0.334579        -9.1043
 296   2.0000      -0.332324        -9.0430
 297   2.0000      -0.330464        -8.9924
 298   2.0000      -0.319113        -8.6835
 299   2.0000      -0.313459        -8.5297
 300   2.0000      -0.301979        -8.2173
 301   2.0000      -0.276642        -7.5278
 302   2.0000      -0.252234        -6.8636
 303   0.0000      -0.126093        -3.4312
 304   0.0000      -0.118176        -3.2157
 305   0.0000      -0.115098        -3.1320
 306   0.0000      -0.095155        -2.5893
 307   0.0000      -0.094796        -2.5795

MULLIKEN ATOMIC CHARGES
-----------------------
   0 C :    0.026071
   1 C :   -0.131022
   2 S :    0.185287
   3 C :   -0.172146
   4 Cl:   -0.001629
   5 C :    0.080870
   6 C :    0.171648
   7 O :   -0.179381
   8 C :   -0.111601
   9 C :    0.310090
  10 C :   -0.337288
  11 C :   -0.194717
  12 N :    0.157672
  13 C :   -0.186535
  14 N :    0.152468
  15 C :   -0.030222
  16 C :   -0.054588
  17 C :   -0.054741
  18 C :    0.044297
  19 C :   -0.067811
  20 S :    0.248039
  21 C :   -0.106687
  22 C :    0.029892
  23 C :    0.301310
  24 C :   -0.292933
  25 C :   -0.192694
  26 N :    0.190166
  27 C :   -0.187854
  28 N :    0.173018
  29 C :   -0.074901
  30 C :   -0.040959
  31 S :    0.208689
  32 C :   -0.052513
  33 C :   -0.067174
  34 C :    0.019932
  35 C :   -0.094975
  36 S :    0.206195
  37 C :   -0.098192
  38 C :    0.016781
  39 C :    0.297792
  40 C :   -0.292261
  41 C :   -0.187627
  42 N :    0.177032
  43 C :   -0.184621
  44 N :    0.176474
  45 C :   -0.060895
  46 C :   -0.053744
  47 S :    0.205687
  48 C :   -0.046849
  49 C :   -0.064848
  50 C :    0.025533
  51 C :   -0.106855
  52 S :    0.204444
  53 C :   -0.067278
  54 C :   -0.004200
  55 C :    0.303281
  56 C :   -0.285010
  57 C :   -0.185113
  58 N :    0.176190
  59 C :   -0.185213
  60 N :    0.176389
  61 C :   -0.004865
  62 C :   -0.105966
  63 S :    0.217869
  64 C :    0.078208
  65 C :   -0.154555
  66 C :    0.130101
  67 O :   -0.135079
  68 C :    0.098172
  69 C :   -0.174355
  70 S :    0.183742
  71 C :   -0.126392
  72 C :    0.010465
  73 C :    0.275233
  74 C :   -0.326839
  75 C :   -0.173607
  76 N :    0.158781
  77 C :   -0.199110
  78 N :    0.169497
  79 Cl:   -0.000873
  80 H :    0.055358
  81 H :    0.015676
  82 H :    0.029339
  83 H :    0.015591
  84 H :    0.015676
  85 H :    0.013859
  86 H :    0.014341
  87 H :    0.027512
  88 H :    0.025636
  89 H :    0.056414
Sum of atomic charges:   -0.0000000

LOEWDIN ATOMIC CHARGES
----------------------
   0 C :   -0.057768
   1 C :   -0.147203
   2 S :    0.473510
   3 C :   -0.271882
   4 Cl:    0.191057
   5 C :   -0.116721
   6 C :    0.083627
   7 O :   -0.169413
   8 C :   -0.109945
   9 C :    0.075325
  10 C :   -0.141697
  11 C :   -0.015627
  12 N :   -0.053488
  13 C :   -0.024833
  14 N :   -0.045833
  15 C :    0.056687
  16 C :   -0.184355
  17 C :    0.014464
  18 C :   -0.078678
  19 C :   -0.164750
  20 S :    0.550429
  21 C :   -0.187543
  22 C :   -0.051061
  23 C :    0.077257
  24 C :   -0.097460
  25 C :   -0.020620
  26 N :   -0.019987
  27 C :   -0.015735
  28 N :   -0.030720
  29 C :   -0.042048
  30 C :   -0.167923
  31 S :    0.492421
  32 C :   -0.181799
  33 C :   -0.032775
  34 C :   -0.067081
  35 C :   -0.176500
  36 S :    0.492763
  37 C :   -0.178584
  38 C :   -0.065957
  39 C :    0.080969
  40 C :   -0.096851
  41 C :   -0.016611
  42 N :   -0.027745
  43 C :   -0.016228
  44 N :   -0.028390
  45 C :   -0.034155
  46 C :   -0.180140
  47 S :    0.492420
  48 C :   -0.170970
  49 C :   -0.038470
  50 C :   -0.053259
  51 C :   -0.185226
  52 S :    0.491607
  53 C :   -0.157164
  54 C :   -0.067297
  55 C :    0.081769
  56 C :   -0.094097
  57 C :   -0.016215
  58 N :   -0.028127
  59 C :   -0.013330
  60 N :   -0.027572
  61 C :    0.012592
  62 C :   -0.181967
  63 S :    0.501641
  64 C :    0.043973
  65 C :   -0.091710
  66 C :    0.080225
  67 O :   -0.137471
  68 C :   -0.118474
  69 C :   -0.272516
  70 S :    0.473650
  71 C :   -0.149553
  72 C :   -0.056905
  73 C :    0.065374
  74 C :   -0.138003
  75 C :   -0.016010
  76 N :   -0.046351
  77 C :   -0.016483
  78 N :   -0.045548
  79 Cl:    0.191186
  80 H :    0.038282
  81 H :    0.054407
  82 H :    0.048604
  83 H :    0.036707
  84 H :    0.037215
  85 H :    0.036600
  86 H :    0.036939
  87 H :    0.043372
  88 H :    0.046923
  89 H :    0.038827

  Mayer bond orders larger than 0.100000
B(  0-C ,  1-C ) :   1.5542 B(  0-C ,  5-C ) :   1.2243 B(  0-C ,  9-C ) :   0.9901
B(  1-C ,  2-S ) :   1.1571 B(  1-C , 80-H ) :   0.9532 B(  2-S ,  3-C ) :   1.1486
B(  3-C ,  4-Cl) :   1.1273 B(  3-C ,  5-C ) :   1.4728 B(  5-C ,  6-C ) :   0.9727
B(  6-C ,  7-O ) :   2.1204 B(  6-C ,  8-C ) :   0.9823 B(  8-C ,  9-C ) :   1.0875
B(  8-C , 15-C ) :   1.4979 B(  9-C , 10-C ) :   1.6383 B( 10-C , 11-C ) :   1.1514
B( 10-C , 13-C ) :   1.1394 B( 11-C , 12-N ) :   2.9892 B( 13-C , 14-N ) :   2.9600
B( 15-C , 16-C ) :   1.2709 B( 15-C , 81-H ) :   0.9413 B( 16-C , 17-C ) :   1.3249
B( 16-C , 20-S ) :   1.0677 B( 17-C , 18-C ) :   1.3345 B( 17-C , 82-H ) :   1.0086
B( 18-C , 19-C ) :   1.3521 B( 18-C , 23-C ) :   0.9865 B( 19-C , 20-S ) :   1.1284
B( 19-C , 21-C ) :   1.2083 B( 21-C , 22-C ) :   1.4314 B( 21-C , 31-S ) :   1.1109
B( 22-C , 23-C ) :   0.9956 B( 22-C , 29-C ) :   1.3083 B( 23-C , 24-C ) :   1.7198
B( 24-C , 25-C ) :   1.1332 B( 24-C , 27-C ) :   1.1342 B( 25-C , 26-N ) :   2.9968
B( 27-C , 28-N ) :   2.9882 B( 29-C , 30-C ) :   1.4464 B( 29-C , 83-H ) :   0.9865
B( 30-C , 31-S ) :   1.1204 B( 30-C , 32-C ) :   1.1714 B( 32-C , 33-C ) :   1.4537
B( 32-C , 36-S ) :   1.1073 B( 33-C , 34-C ) :   1.3069 B( 33-C , 84-H ) :   0.9867
B( 34-C , 35-C ) :   1.4380 B( 34-C , 39-C ) :   0.9936 B( 35-C , 36-S ) :   1.1265
B( 35-C , 37-C ) :   1.1892 B( 37-C , 38-C ) :   1.4436 B( 37-C , 47-S ) :   1.1234
B( 38-C , 39-C ) :   0.9933 B( 38-C , 45-C ) :   1.3054 B( 39-C , 40-C ) :   1.7203
B( 40-C , 41-C ) :   1.1332 B( 40-C , 43-C ) :   1.1306 B( 41-C , 42-N ) :   2.9914
B( 43-C , 44-N ) :   2.9918 B( 45-C , 46-C ) :   1.4527 B( 45-C , 85-H ) :   0.9865
B( 46-C , 47-S ) :   1.1098 B( 46-C , 48-C ) :   1.1734 B( 48-C , 49-C ) :   1.4470
B( 48-C , 52-S ) :   1.1196 B( 49-C , 50-C ) :   1.3097 B( 49-C , 86-H ) :   0.9868
B( 50-C , 51-C ) :   1.4438 B( 50-C , 55-C ) :   0.9903 B( 51-C , 52-S ) :   1.1116
B( 51-C , 53-C ) :   1.1981 B( 53-C , 54-C ) :   1.4046 B( 53-C , 63-S ) :   1.1570
B( 54-C , 55-C ) :   1.0002 B( 54-C , 61-C ) :   1.3642 B( 55-C , 56-C ) :   1.7224
B( 56-C , 57-C ) :   1.1303 B( 56-C , 59-C ) :   1.1350 B( 57-C , 58-N ) :   2.9917
B( 59-C , 60-N ) :   2.9838 B( 61-C , 62-C ) :   1.3890 B( 61-C , 87-H ) :   0.9785
B( 62-C , 63-S ) :   1.0861 B( 62-C , 64-C ) :   1.1427 B( 64-C , 65-C ) :   1.6685
B( 64-C , 88-H ) :   0.9271 B( 65-C , 66-C ) :   0.9434 B( 65-C , 73-C ) :   1.0434
B( 66-C , 67-O ) :   2.2676 B( 66-C , 68-C ) :   0.9281 B( 68-C , 69-C ) :   1.4817
B( 68-C , 72-C ) :   1.2232 B( 69-C , 70-S ) :   1.1501 B( 69-C , 79-Cl) :   1.1289
B( 70-S , 71-C ) :   1.1570 B( 71-C , 72-C ) :   1.5546 B( 71-C , 89-H ) :   0.9560
B( 72-C , 73-C ) :   1.0077 B( 73-C , 74-C ) :   1.6522 B( 74-C , 75-C ) :   1.1293
B( 74-C , 77-C ) :   1.1710 B( 75-C , 76-N ) :   2.9992 B( 77-C , 78-N ) :   2.9921

-----------------------------------------------------------------------------
         ABSORPTION SPECTRUM VIA TRANSITION ELECTRIC DIPOLE MOMENTS
-----------------------------------------------------------------------------
State   Energy  Wavelength   fosc         T2         TX        TY        TZ
        (cm-1)    (nm)                  (au**2)     (au)      (au)      (au)
-----------------------------------------------------------------------------
   0   11247.1    889.1   0.648033371  18.96840  -3.99416   1.00566   1.41554
   1   12739.0    785.0   0.184080066   4.75715   1.99070  -0.38061  -0.80586
   2   13455.2    743.2   0.143407856   3.50879   1.66951  -0.53725  -0.65795
   3   19291.8    518.4   1.657484021  28.28472  -4.73374   1.01253   2.20255
   4   20177.1    495.6   0.036768164   0.59991   0.70867  -0.23188  -0.20959
   5   20498.6    487.8   0.292117776   4.69147  -1.99754   0.49682   0.67416
   6   22169.0    451.1   0.136241919   2.02321   1.05522  -0.10460  -0.94804
   7   22743.6    439.7   0.073031511   1.05713  -0.92147   0.10809   0.44310
   8   25773.2    388.0   0.117178944   1.49678   1.14055  -0.35557  -0.26362
   9   26721.4    374.2   0.061143326   0.75329  -0.84217   0.17627  -0.11390
  10   27437.2    364.5   0.214337871   2.57179  -1.55592   0.37908  -0.08479
  11   27722.8    360.7   0.001198150   0.01423   0.05912  -0.02505   0.10053
  12   27923.5    358.1   0.004043125   0.04767  -0.11656  -0.07392  -0.16917
  13   28237.7    354.1   0.032240386   0.37588   0.57080  -0.02168  -0.22270
  14   28656.4    349.0   0.057054071   0.65545   0.80890  -0.03307   0.00599
  15   28731.7    348.0   0.001883118   0.02158  -0.01898  -0.01847  -0.14448
  16   29023.8    344.5   0.011303891   0.12822   0.25670   0.03977  -0.24646
  17   29487.4    339.1   0.544018301   6.07369   2.23643  -0.84564  -0.59747
  18   30084.7    332.4   0.015803809   0.17294  -0.05770  -0.40919   0.04663
  19   30124.3    332.0   0.270928377   2.96083   0.81868   0.95719  -1.17234
  20   30602.4    326.8   0.132160605   1.42174  -0.60017  -0.73242   0.72463
  21   30652.7    326.2   0.094900377   1.01924  -0.02046  -0.98119   0.23684
  22   30900.2    323.6   0.091088511   0.97046   0.43169  -0.80868   0.36074
  23   31529.4    317.2   0.094480258   0.98651  -0.22462  -0.78505   0.56547
  24   31745.2    315.0   1.050950957  10.89885   0.32026   2.79983  -1.71966
  25   32349.9    309.1   0.009044209   0.09204   0.02303   0.26394   0.14780
  26   32665.2    306.1   0.069278573   0.69822  -0.73389   0.24738  -0.31374
  27   32780.5    305.1   0.162016326   1.62712  -0.18315   1.07986  -0.65381
  28   32944.7    303.5   0.342918643   3.42674   1.71948   0.33443  -0.59856
  29   33229.3    300.9   0.010960605   0.10859  -0.02450   0.30020   0.13367
  30   33516.4    298.4   0.200000815   1.96449  -0.60398   1.09990  -0.62444
  31   33697.6    296.8   0.239696166   2.34173  -1.30181  -0.05102   0.80276
  32   34055.5    293.6   0.078831888   0.76206   0.68057   0.25384  -0.48421
  33   34346.4    291.2   0.044834097   0.42974   0.58530  -0.13189  -0.26412
  34   34424.0    290.5   0.072797278   0.69619   0.36824  -0.71222   0.23094
  35   34562.5    289.3   0.003835721   0.03654   0.01551  -0.15946   0.10425
  36   34573.6    289.2   0.009674695   0.09212   0.12757   0.27539   0.00275
  37   34655.4    288.6   0.058709529   0.55772   0.69474  -0.20573  -0.18092
  38   35005.6    285.7   0.308851582   2.90461  -0.78686  -1.15460   0.97590
  39   35104.0    284.9   0.095818400   0.89860   0.04900   0.70842  -0.62797
  40   35220.4    283.9   0.124769300   1.16624  -0.61304   0.83631  -0.30167
  41   35409.8    282.4   0.131553410   1.22308  -0.60379   0.64789  -0.66239
  42   35560.1    281.2   0.023194594   0.21473   0.46306   0.01349  -0.01142
  43   36005.7    277.7   0.008026462   0.07339   0.14862  -0.18680   0.12809
  44   36220.1    276.1   0.161917835   1.47170  -0.08717  -0.87377   0.83704
  45   36353.8    275.1   0.035693356   0.32323   0.25742  -0.46226   0.20803
  46   36518.3    273.8   0.001209493   0.01090   0.07638   0.03694  -0.06087
  47   36581.8    273.4   0.032808174   0.29525   0.09057   0.44096  -0.30431
  48   36665.8    272.7   0.213697602   1.91873  -0.08476  -1.14883   0.76925
  49   36834.6    271.5   0.080935142   0.72336  -0.26927  -0.61400   0.52332
  50   37103.8    269.5   0.002547461   0.02260   0.04082   0.08614  -0.11626
  51   37714.7    265.1   0.095754730   0.83584   0.63377  -0.58677   0.29979
  52   38015.5    263.1   0.022317507   0.19327   0.17841   0.38373  -0.11910
  53   38286.1    261.2   0.078166044   0.67213   0.79877  -0.06717   0.17199
  54   38398.4    260.4   0.455990794   3.90947  -1.95121   0.13230  -0.29110
  55   38556.8    259.4   0.028154697   0.24040  -0.46998   0.13967   0.00222
  56   38741.4    258.1   0.021965318   0.18665  -0.18058   0.22895  -0.31879
  57   38785.9    257.8   0.103289758   0.87672   0.00013  -0.71957   0.59912
  58   38911.1    257.0   0.066170800   0.55985  -0.48639   0.46397  -0.32863
  59   38996.7    256.4   0.022060479   0.18624  -0.24978   0.26922  -0.22664
  60   39308.6    254.4   0.004151770   0.03477   0.07934  -0.16544   0.03329
  61   39371.3    254.0   0.012002071   0.10036   0.02593   0.28306  -0.13986
  62   39805.7    251.2   0.022603561   0.18694   0.39372  -0.15357   0.09133
  63   39936.1    250.4   0.062700756   0.51687   0.41074  -0.28762  -0.51521
  64   40028.3    249.8   0.087018935   0.71569  -0.56722   0.60588  -0.16386
  65   40280.5    248.3   0.062082230   0.50740   0.39127   0.50265  -0.31881

FINAL SINGLE POINT ENERGY     -7014.852743514690

DIPOLE MOMENT
-------------
                                X             Y             Z
Electronic contribution:      9.88544     -12.95523       8.63326
Nuclear contribution   :     -8.51887      10.91975      -6.49405
                        -----------------------------------------
Total Dipole Moment    :      1.36657      -2.03548       2.13920
                        -----------------------------------------
Magnitude (a.u.)       :      3.25375
Magnitude (Debye)      :      8.27036

Rotational constants in cm-1:     0.002189     0.000121     0.000116
Rotational constants in MHz :    65.613975     3.626608     3.463000

                             ****ORCA TERMINATED NORMALLY****
TOTAL RUN TIME: 0 days 0 hours 17 minutes 48 seconds 569 msec
