                         Program Version 4.2.0 -  RELEASE  -
|  1> # ORCA input file
|  2> # SCF done       -193.222015546912          0.000617273442
|  3> ! CAM-B3LYP def2-SVP def2/J RIJCOSX Grid4 TightSCF
|  4> %maxcore 5000
|  5> %tddft
|  6>     Mode sTDDFT
|  7>     Ethresh 5.0
|  8>     maxcore 5000
|  9> end
| 10>
| 11> %pal
| 12>   nprocs 6
| 13>   end
| 14> * xyz 0 1
| 15>    C       -0.23735         1.25493         2.11002
| 16>    C       -1.44476         1.86795         2.23163
| 17>    S       -2.17744         2.11551         0.68756
| 18>    C       -0.83032         1.37087        -0.14277
| 19>   Cl       -0.81010         1.20010        -1.82732
| 20>    C        0.11527         0.97071         0.75246
| 21>    C        1.40845         0.28482         0.70591
| 22>    O        1.99084        -0.10304        -0.28576
| 23>    C        1.83983         0.18358         2.12313
| 24>    C        0.81476         0.76212         2.97610
| 25>    C        0.76644         0.81730         4.34659
| 26>    C       -0.30810         1.44296         5.01422
| 27>    N       -1.15447         1.97338         5.57838
| 28>    C        1.70168         0.27453         5.24236
| 29>    N        2.41043        -0.16608         6.03444
| 30>    C        3.02842        -0.30377         2.60562
| 31>    C        4.09030        -0.97836         1.98380
| 32>    C        4.28895        -1.49456         0.70312
| 33>    C        5.47984        -2.19278         0.59298
| 34>    C        6.23078        -2.18960         1.79711
| 35>    S        5.45262        -1.35849         3.05576
| 36>    C        7.40566        -2.91912         1.59963
| 37>    C        7.43238        -3.41360         0.27339
| 38>    C        6.19889        -2.99339        -0.38556
| 39>    C        5.76957        -3.36570        -1.62464
| 40>    C        4.48455        -3.04253        -2.11005
| 41>    N        3.42628        -2.83151        -2.49710
| 42>    C        6.56655        -4.15190        -2.48313
| 43>    N        7.22240        -4.77489        -3.18774
| 44>    C        8.54919        -4.18860         0.01980
| 45>    C        9.38122        -4.32186         1.14423
| 46>    S        8.74894        -3.41637         2.51917
| 47>    C       10.52883        -5.11501         1.25299
| 48>    C       11.20867        -5.37921         2.42645
| 49>    C       12.25648        -6.30227         2.66007
| 50>    C       12.57788        -6.47837         3.98070
| 51>    C       11.80244        -5.69716         4.85639
| 52>    S       10.73034        -4.66383         3.94303
| 53>    C       11.61024        -5.68603         6.23348
| 54>    C       12.16366        -6.41006         7.30471
| 55>    C       11.50361        -6.22405         8.49090
| 56>    C       10.37748        -5.37007         8.40688
| 57>    S       10.28271        -4.69880         6.80103
| 58>    C        9.37632        -5.17616         9.33887
| 59>    C        8.13660        -4.57758         9.09159
| 60>    C        7.01460        -4.63250         9.93560
| 61>    C        5.86956        -4.15660         9.32677
| 62>    C        6.10053        -3.68555         8.01009
| 63>    S        7.73743        -3.82320         7.54643
| 64>    C        4.87165        -3.36922         7.41772
| 65>    C        3.83442        -3.62574         8.35126
| 66>    C        4.43384        -4.09504         9.58614
| 67>    C        3.79684        -4.44074        10.74228
| 68>    C        4.50282        -4.90058        11.87323
| 69>    N        5.07837        -5.27655        12.79113
| 70>    C        2.39517        -4.36397        10.88429
| 71>    N        1.25707        -4.30856        11.01011
| 72>    C        2.57359        -3.44825         7.80258
| 73>    C        2.62291        -3.11956         6.44929
| 74>    S        4.27943        -2.89330         5.89586
| 75>    C        1.50172        -2.95592         5.61600
| 76>    C        1.35999        -3.03403         4.25510
| 77>    C        0.12607        -2.44817         3.65282
| 78>    O       -0.79813        -1.94705         4.25317
| 79>    C        0.31777        -2.56835         2.20403
| 80>    C       -0.39341        -2.31117         1.06952
| 81>    S        0.48501        -2.83214        -0.34711
| 82>    C        1.79123        -3.41421         0.61149
| 83>    C        1.57411        -3.20355         1.93893
| 84>    C        2.18807        -3.57574         3.20179
| 85>    C        3.21144        -4.49414         3.29658
| 86>    C        3.99862        -4.83524         2.18388
| 87>    N        4.70899        -5.07030         1.31094
| 88>    C        3.50819        -5.25299         4.44223
| 89>    N        3.72690        -5.96498         5.31752
| 90>   Cl       -1.94172        -1.62793         0.95386
| 91>    H       -1.96076         2.18875         3.11444
| 92>    H        3.19070        -0.16055         3.66812
| 93>    H        3.57946        -1.33726        -0.08928
| 94>    H        8.77064        -4.67201        -0.91470
| 95>    H       10.86179        -5.61621         0.35418
| 96>    H       12.71691        -6.84332         1.85229
| 97>    H       13.31834        -7.17358         4.33424
| 98>    H       13.00598        -7.06668         7.17846
| 99>    H       11.76340        -6.72134         9.40881
|100>    H        9.50869        -5.62346        10.31510
|101>    H        7.06310        -5.05490        10.92313
|102>    H        1.64408        -3.60483         8.32016
|103>    H        0.58518        -2.68899         6.13720
|104>    H        2.62771        -3.87123         0.12179
|105> *
|106>
|107>                          ****END OF INPUT****

CARTESIAN COORDINATES (ANGSTROEM)
---------------------------------
  C     -0.237350    1.254930    2.110020
  C     -1.444760    1.867950    2.231630
  S     -2.177440    2.115510    0.687560
  C     -0.830320    1.370870   -0.142770
  Cl    -0.810100    1.200100   -1.827320
  C      0.115270    0.970710    0.752460
  C      1.408450    0.284820    0.705910
  O      1.990840   -0.103040   -0.285760
  C      1.839830    0.183580    2.123130
  C      0.814760    0.762120    2.976100
  C      0.766440    0.817300    4.346590
  C     -0.308100    1.442960    5.014220
  N     -1.154470    1.973380    5.578380
  C      1.701680    0.274530    5.242360
  N      2.410430   -0.166080    6.034440
  C      3.028420   -0.303770    2.605620
  C      4.090300   -0.978360    1.983800
  C      4.288950   -1.494560    0.703120
  C      5.479840   -2.192780    0.592980
  C      6.230780   -2.189600    1.797110
  S      5.452620   -1.358490    3.055760
  C      7.405660   -2.919120    1.599630
  C      7.432380   -3.413600    0.273390
  C      6.198890   -2.993390   -0.385560
  C      5.769570   -3.365700   -1.624640
  C      4.484550   -3.042530   -2.110050
  N      3.426280   -2.831510   -2.497100
  C      6.566550   -4.151900   -2.483130
  N      7.222400   -4.774890   -3.187740
  C      8.549190   -4.188600    0.019800
  C      9.381220   -4.321860    1.144230
  S      8.748940   -3.416370    2.519170
  C     10.528830   -5.115010    1.252990
  C     11.208670   -5.379210    2.426450
  C     12.256480   -6.302270    2.660070
  C     12.577880   -6.478370    3.980700
  C     11.802440   -5.697160    4.856390
  S     10.730340   -4.663830    3.943030
  C     11.610240   -5.686030    6.233480
  C     12.163660   -6.410060    7.304710
  C     11.503610   -6.224050    8.490900
  C     10.377480   -5.370070    8.406880
  S     10.282710   -4.698800    6.801030
  C      9.376320   -5.176160    9.338870
  C      8.136600   -4.577580    9.091590
  C      7.014600   -4.632500    9.935600
  C      5.869560   -4.156600    9.326770
  C      6.100530   -3.685550    8.010090
  S      7.737430   -3.823200    7.546430
  C      4.871650   -3.369220    7.417720
  C      3.834420   -3.625740    8.351260
  C      4.433840   -4.095040    9.586140
  C      3.796840   -4.440740   10.742280
  C      4.502820   -4.900580   11.873230
  N      5.078370   -5.276550   12.791130
  C      2.395170   -4.363970   10.884290
  N      1.257070   -4.308560   11.010110
  C      2.573590   -3.448250    7.802580
  C      2.622910   -3.119560    6.449290
  S      4.279430   -2.893300    5.895860
  C      1.501720   -2.955920    5.616000
  C      1.359990   -3.034030    4.255100
  C      0.126070   -2.448170    3.652820
  O     -0.798130   -1.947050    4.253170
  C      0.317770   -2.568350    2.204030
  C     -0.393410   -2.311170    1.069520
  S      0.485010   -2.832140   -0.347110
  C      1.791230   -3.414210    0.611490
  C      1.574110   -3.203550    1.938930
  C      2.188070   -3.575740    3.201790
  C      3.211440   -4.494140    3.296580
  C      3.998620   -4.835240    2.183880
  N      4.708990   -5.070300    1.310940
  C      3.508190   -5.252990    4.442230
  N      3.726900   -5.964980    5.317520
  Cl    -1.941720   -1.627930    0.953860
  H     -1.960760    2.188750    3.114440
  H      3.190700   -0.160550    3.668120
  H      3.579460   -1.337260   -0.089280
  H      8.770640   -4.672010   -0.914700
  H     10.861790   -5.616210    0.354180
  H     12.716910   -6.843320    1.852290
  H     13.318340   -7.173580    4.334240
  H     13.005980   -7.066680    7.178460
  H     11.763400   -6.721340    9.408810
  H      9.508690   -5.623460   10.315100
  H      7.063100   -5.054900   10.923130
  H      1.644080   -3.604830    8.320160
  H      0.585180   -2.688990    6.137200
  H      2.627710   -3.871230    0.121790

 Total Charge           Charge          ....    0
 Multiplicity           Mult            ....    1
 Number of Electrons    NEL             ....  584
 Basis Dimension        Dim             .... 1174

ORBITAL ENERGIES
----------------

  NO   OCC          E(Eh)            E(eV)
   0   2.0000    -101.612477     -2765.0161
   1   2.0000    -101.611413     -2764.9871
   2   2.0000     -88.994863     -2421.6733
   3   2.0000     -88.994858     -2421.6732
   4   2.0000     -88.994258     -2421.6569
   5   2.0000     -88.990744     -2421.5613
   6   2.0000     -88.985140     -2421.4088
   7   2.0000     -88.983589     -2421.3666
   8   2.0000     -88.971446     -2421.0361
   9   2.0000     -88.971035     -2421.0249
  10   2.0000     -19.217260      -522.9282
  11   2.0000     -19.213044      -522.8135
  12   2.0000     -14.432533      -392.7292
  13   2.0000     -14.431307      -392.6958
  14   2.0000     -14.430516      -392.6743
  15   2.0000     -14.429384      -392.6435
  16   2.0000     -14.420621      -392.4050
  17   2.0000     -14.420500      -392.4018
  18   2.0000     -14.412221      -392.1765
  19   2.0000     -14.408717      -392.0811
  20   2.0000     -10.373479      -282.2767
  21   2.0000     -10.368773      -282.1487
  22   2.0000     -10.368319      -282.1363
  23   2.0000     -10.366680      -282.0917
  24   2.0000     -10.365133      -282.0496
  25   2.0000     -10.364539      -282.0335
  26   2.0000     -10.354790      -281.7681
  27   2.0000     -10.354680      -281.7652
  28   2.0000     -10.346515      -281.5430
  29   2.0000     -10.345136      -281.5055
  30   2.0000     -10.343222      -281.4534
  31   2.0000     -10.340860      -281.3891
  32   2.0000     -10.338520      -281.3254
  33   2.0000     -10.337775      -281.3052
  34   2.0000     -10.337618      -281.3009
  35   2.0000     -10.337492      -281.2975
  36   2.0000     -10.336939      -281.2824
  37   2.0000     -10.336739      -281.2770
  38   2.0000     -10.333950      -281.2011
  39   2.0000     -10.333495      -281.1887
  40   2.0000     -10.332695      -281.1669
  41   2.0000     -10.331731      -281.1407
  42   2.0000     -10.331689      -281.1395
  43   2.0000     -10.330842      -281.1165
  44   2.0000     -10.330273      -281.1010
  45   2.0000     -10.329317      -281.0750
  46   2.0000     -10.328369      -281.0492
  47   2.0000     -10.325398      -280.9684
  48   2.0000     -10.324995      -280.9574
  49   2.0000     -10.324708      -280.9496
  50   2.0000     -10.324625      -280.9473
  51   2.0000     -10.324180      -280.9352
  52   2.0000     -10.321330      -280.8577
  53   2.0000     -10.320531      -280.8359
  54   2.0000     -10.316573      -280.7282
  55   2.0000     -10.315361      -280.6953
  56   2.0000     -10.314450      -280.6704
  57   2.0000     -10.313948      -280.6568
  58   2.0000     -10.313846      -280.6540
  59   2.0000     -10.312824      -280.6262
  60   2.0000     -10.311754      -280.5971
  61   2.0000     -10.311569      -280.5921
  62   2.0000     -10.311484      -280.5897
  63   2.0000     -10.310973      -280.5758
  64   2.0000     -10.310653      -280.5671
  65   2.0000     -10.310294      -280.5574
  66   2.0000     -10.309318      -280.5308
  67   2.0000     -10.308298      -280.5031
  68   2.0000     -10.307103      -280.4705
  69   2.0000     -10.306211      -280.4463
  70   2.0000     -10.305184      -280.4183
  71   2.0000     -10.303448      -280.3711
  72   2.0000     -10.300782      -280.2985
  73   2.0000     -10.297518      -280.2097
  74   2.0000     -10.293847      -280.1098
  75   2.0000     -10.291510      -280.0462
  76   2.0000      -9.566704      -260.3233
  77   2.0000      -9.566100      -260.3068
  78   2.0000      -8.089431      -220.1246
  79   2.0000      -8.089238      -220.1194
  80   2.0000      -8.088841      -220.1085
  81   2.0000      -8.084710      -219.9961
  82   2.0000      -8.080902      -219.8925
  83   2.0000      -8.078536      -219.8281
  84   2.0000      -8.068298      -219.5495
  85   2.0000      -8.067923      -219.5393
  86   2.0000      -7.337304      -199.6582
  87   2.0000      -7.336687      -199.6414
  88   2.0000      -7.326795      -199.3722
  89   2.0000      -7.326286      -199.3584
  90   2.0000      -7.326196      -199.3559
  91   2.0000      -7.325624      -199.3404
  92   2.0000      -6.058563      -164.8619
  93   2.0000      -6.058561      -164.8618
  94   2.0000      -6.058121      -164.8499
  95   2.0000      -6.054469      -164.7505
  96   2.0000      -6.054205      -164.7433
  97   2.0000      -6.053985      -164.7373
  98   2.0000      -6.053788      -164.7320
  99   2.0000      -6.051891      -164.6803
 100   2.0000      -6.051515      -164.6701
 101   2.0000      -6.051137      -164.6598
 102   2.0000      -6.050317      -164.6375
 103   2.0000      -6.049811      -164.6237
 104   2.0000      -6.047960      -164.5734
 105   2.0000      -6.047021      -164.5478
 106   2.0000      -6.045718      -164.5124
 107   2.0000      -6.043324      -164.4472
 108   2.0000      -6.043064      -164.4401
 109   2.0000      -6.040754      -164.3773
 110   2.0000      -6.037957      -164.3012
 111   2.0000      -6.037585      -164.2910
 112   2.0000      -6.033664      -164.1844
 113   2.0000      -6.033252      -164.1731
 114   2.0000      -6.029353      -164.0670
 115   2.0000      -6.029018      -164.0579
 116   2.0000      -1.134057       -30.8593
 117   2.0000      -1.129350       -30.7312
 118   2.0000      -1.049989       -28.5717
 119   2.0000      -1.048971       -28.5439
 120   2.0000      -1.032601       -28.0985
 121   2.0000      -1.029612       -28.0172
 122   2.0000      -1.026679       -27.9373
 123   2.0000      -1.023751       -27.8577
 124   2.0000      -1.022591       -27.8261
 125   2.0000      -1.014813       -27.6145
 126   2.0000      -1.013722       -27.5848
 127   2.0000      -1.010037       -27.4845
 128   2.0000      -1.008786       -27.4505
 129   2.0000      -1.007568       -27.4173
 130   2.0000      -1.002224       -27.2719
 131   2.0000      -0.996509       -27.1164
 132   2.0000      -0.993552       -27.0359
 133   2.0000      -0.992438       -27.0056
 134   2.0000      -0.982260       -26.7287
 135   2.0000      -0.981267       -26.7016
 136   2.0000      -0.964275       -26.2393
 137   2.0000      -0.962555       -26.1925
 138   2.0000      -0.947681       -25.7877
 139   2.0000      -0.946414       -25.7532
 140   2.0000      -0.929299       -25.2875
 141   2.0000      -0.924331       -25.1523
 142   2.0000      -0.910184       -24.7674
 143   2.0000      -0.902446       -24.5568
 144   2.0000      -0.899833       -24.4857
 145   2.0000      -0.892260       -24.2796
 146   2.0000      -0.883690       -24.0464
 147   2.0000      -0.880755       -23.9666
 148   2.0000      -0.876526       -23.8515
 149   2.0000      -0.869823       -23.6691
 150   2.0000      -0.865886       -23.5620
 151   2.0000      -0.860590       -23.4178
 152   2.0000      -0.860093       -23.4043
 153   2.0000      -0.842394       -22.9227
 154   2.0000      -0.833654       -22.6849
 155   2.0000      -0.825834       -22.4721
 156   2.0000      -0.825100       -22.4521
 157   2.0000      -0.813730       -22.1427
 158   2.0000      -0.802760       -21.8442
 159   2.0000      -0.789354       -21.4794
 160   2.0000      -0.781668       -21.2703
 161   2.0000      -0.778544       -21.1853
 162   2.0000      -0.762179       -20.7399
 163   2.0000      -0.752192       -20.4682
 164   2.0000      -0.748756       -20.3747
 165   2.0000      -0.741461       -20.1762
 166   2.0000      -0.722476       -19.6596
 167   2.0000      -0.711534       -19.3618
 168   2.0000      -0.705380       -19.1944
 169   2.0000      -0.699575       -19.0364
 170   2.0000      -0.697794       -18.9880
 171   2.0000      -0.691912       -18.8279
 172   2.0000      -0.688759       -18.7421
 173   2.0000      -0.685465       -18.6525
 174   2.0000      -0.677792       -18.4437
 175   2.0000      -0.670192       -18.2368
 176   2.0000      -0.669687       -18.2231
 177   2.0000      -0.669162       -18.2088
 178   2.0000      -0.661190       -17.9919
 179   2.0000      -0.652070       -17.7437
 180   2.0000      -0.650102       -17.6902
 181   2.0000      -0.640486       -17.4285
 182   2.0000      -0.632970       -17.2240
 183   2.0000      -0.628699       -17.1078
 184   2.0000      -0.626455       -17.0467
 185   2.0000      -0.620579       -16.8868
 186   2.0000      -0.618492       -16.8300
 187   2.0000      -0.617355       -16.7991
 188   2.0000      -0.614590       -16.7238
 189   2.0000      -0.611426       -16.6378
 190   2.0000      -0.604441       -16.4477
 191   2.0000      -0.598801       -16.2942
 192   2.0000      -0.598095       -16.2750
 193   2.0000      -0.584889       -15.9156
 194   2.0000      -0.576961       -15.6999
 195   2.0000      -0.568587       -15.4720
 196   2.0000      -0.566678       -15.4201
 197   2.0000      -0.564917       -15.3722
 198   2.0000      -0.554706       -15.0943
 199   2.0000      -0.553301       -15.0561
 200   2.0000      -0.551438       -15.0054
 201   2.0000      -0.549229       -14.9453
 202   2.0000      -0.545254       -14.8371
 203   2.0000      -0.536018       -14.5858
 204   2.0000      -0.533803       -14.5255
 205   2.0000      -0.530587       -14.4380
 206   2.0000      -0.527809       -14.3624
 207   2.0000      -0.526881       -14.3372
 208   2.0000      -0.525289       -14.2938
 209   2.0000      -0.524557       -14.2739
 210   2.0000      -0.519887       -14.1469
 211   2.0000      -0.517492       -14.0817
 212   2.0000      -0.517304       -14.0766
 213   2.0000      -0.514266       -13.9939
 214   2.0000      -0.513073       -13.9614
 215   2.0000      -0.509948       -13.8764
 216   2.0000      -0.509119       -13.8538
 217   2.0000      -0.507284       -13.8039
 218   2.0000      -0.507024       -13.7968
 219   2.0000      -0.502442       -13.6721
 220   2.0000      -0.501351       -13.6424
 221   2.0000      -0.500036       -13.6067
 222   2.0000      -0.497611       -13.5407
 223   2.0000      -0.495830       -13.4922
 224   2.0000      -0.493535       -13.4298
 225   2.0000      -0.491165       -13.3653
 226   2.0000      -0.491143       -13.3647
 227   2.0000      -0.488864       -13.3027
 228   2.0000      -0.485820       -13.2198
 229   2.0000      -0.483877       -13.1670
 230   2.0000      -0.478548       -13.0220
 231   2.0000      -0.474222       -12.9042
 232   2.0000      -0.472012       -12.8441
 233   2.0000      -0.470033       -12.7903
 234   2.0000      -0.467578       -12.7234
 235   2.0000      -0.464334       -12.6352
 236   2.0000      -0.463551       -12.6139
 237   2.0000      -0.462114       -12.5747
 238   2.0000      -0.461107       -12.5473
 239   2.0000      -0.459192       -12.4952
 240   2.0000      -0.457524       -12.4499
 241   2.0000      -0.455926       -12.4064
 242   2.0000      -0.455285       -12.3889
 243   2.0000      -0.447609       -12.1801
 244   2.0000      -0.446951       -12.1622
 245   2.0000      -0.446056       -12.1378
 246   2.0000      -0.444696       -12.1008
 247   2.0000      -0.443073       -12.0566
 248   2.0000      -0.442357       -12.0371
 249   2.0000      -0.441635       -12.0175
 250   2.0000      -0.440694       -11.9919
 251   2.0000      -0.440232       -11.9793
 252   2.0000      -0.439477       -11.9588
 253   2.0000      -0.439452       -11.9581
 254   2.0000      -0.437693       -11.9102
 255   2.0000      -0.435084       -11.8392
 256   2.0000      -0.431886       -11.7522
 257   2.0000      -0.430782       -11.7222
 258   2.0000      -0.430309       -11.7093
 259   2.0000      -0.427172       -11.6239
 260   2.0000      -0.426945       -11.6178
 261   2.0000      -0.425733       -11.5848
 262   2.0000      -0.423815       -11.5326
 263   2.0000      -0.419966       -11.4279
 264   2.0000      -0.413422       -11.2498
 265   2.0000      -0.410891       -11.1809
 266   2.0000      -0.408580       -11.1180
 267   2.0000      -0.402595       -10.9552
 268   2.0000      -0.399558       -10.8725
 269   2.0000      -0.397766       -10.8238
 270   2.0000      -0.396835       -10.7984
 271   2.0000      -0.396438       -10.7876
 272   2.0000      -0.394036       -10.7223
 273   2.0000      -0.383014       -10.4223
 274   2.0000      -0.367999       -10.0138
 275   2.0000      -0.364523        -9.9192
 276   2.0000      -0.358657        -9.7596
 277   2.0000      -0.351875        -9.5750
 278   2.0000      -0.345577        -9.4036
 279   2.0000      -0.339563        -9.2400
 280   2.0000      -0.339073        -9.2267
 281   2.0000      -0.337695        -9.1892
 282   2.0000      -0.331521        -9.0211
 283   2.0000      -0.327521        -8.9123
 284   2.0000      -0.324384        -8.8269
 285   2.0000      -0.321224        -8.7409
 286   2.0000      -0.317287        -8.6338
 287   2.0000      -0.305912        -8.3243
 288   2.0000      -0.301927        -8.2158
 289   2.0000      -0.283442        -7.7129
 290   2.0000      -0.261926        -7.1274
 291   2.0000      -0.227756        -6.1976
 292   0.0000      -0.128700        -3.5021
 293   0.0000      -0.112826        -3.0702
 294   0.0000      -0.096346        -2.6217
 295   0.0000      -0.089900        -2.4463
 296   0.0000      -0.077985        -2.1221

MULLIKEN ATOMIC CHARGES
-----------------------
   0 C :    0.033854
   1 C :   -0.130799
   2 S :    0.177420
   3 C :   -0.190091
   4 Cl:   -0.004035
   5 C :    0.087393
   6 C :    0.156059
   7 O :   -0.145339
   8 C :   -0.105064
   9 C :    0.313488
  10 C :   -0.345358
  11 C :   -0.190164
  12 N :    0.156434
  13 C :   -0.171814
  14 N :    0.126256
  15 C :    0.016082
  16 C :   -0.123679
  17 C :   -0.028689
  18 C :    0.006663
  19 C :   -0.060186
  20 S :    0.178853
  21 C :   -0.091359
  22 C :    0.062682
  23 C :    0.328714
  24 C :   -0.290635
  25 C :   -0.185701
  26 N :    0.172573
  27 C :   -0.186105
  28 N :    0.168515
  29 C :   -0.041545
  30 C :   -0.054604
  31 S :    0.146662
  32 C :    0.030808
  33 C :   -0.036475
  34 C :    0.040536
  35 C :    0.037105
  36 C :   -0.013069
  37 S :    0.029310
  38 C :   -0.019775
  39 C :    0.031908
  40 C :    0.044208
  41 C :   -0.041839
  42 S :    0.043186
  43 C :    0.030818
  44 C :   -0.061927
  45 C :   -0.034490
  46 C :    0.038731
  47 C :   -0.090499
  48 S :    0.158153
  49 C :   -0.049396
  50 C :    0.023980
  51 C :    0.292192
  52 C :   -0.290121
  53 C :   -0.189470
  54 N :    0.170006
  55 C :   -0.190967
  56 N :    0.180069
  57 C :    0.004717
  58 C :   -0.049048
  59 S :    0.200675
  60 C :    0.034917
  61 C :   -0.175152
  62 C :    0.135931
  63 O :   -0.141455
  64 C :    0.127668
  65 C :   -0.231618
  66 S :    0.230787
  67 C :   -0.139832
  68 C :    0.009753
  69 C :    0.303929
  70 C :   -0.350681
  71 C :   -0.151432
  72 N :    0.111201
  73 C :   -0.221881
  74 N :    0.163269
  75 Cl:   -0.002659
  76 H :    0.052851
  77 H :   -0.003557
  78 H :    0.046389
  79 H :    0.009684
  80 H :    0.003136
  81 H :   -0.000150
  82 H :   -0.003609
  83 H :   -0.002702
  84 H :    0.000096
  85 H :    0.004552
  86 H :    0.010812
  87 H :    0.018535
  88 H :    0.041689
  89 H :    0.043727
Sum of atomic charges:   -0.0000000

LOEWDIN ATOMIC CHARGES
----------------------
   0 C :   -0.058648
   1 C :   -0.144051
   2 S :    0.467749
   3 C :   -0.278753
   4 Cl:    0.189481
   5 C :   -0.122125
   6 C :    0.076449
   7 O :   -0.143671
   8 C :   -0.102461
   9 C :    0.075893
  10 C :   -0.146107
  11 C :   -0.011258
  12 N :   -0.056071
  13 C :   -0.013760
  14 N :   -0.072052
  15 C :    0.025646
  16 C :   -0.179954
  17 C :    0.016585
  18 C :   -0.070165
  19 C :   -0.151132
  20 S :    0.480737
  21 C :   -0.201258
  22 C :   -0.038716
  23 C :    0.087089
  24 C :   -0.096238
  25 C :   -0.014013
  26 N :   -0.033921
  27 C :   -0.013676
  28 N :   -0.034431
  29 C :   -0.019146
  30 C :   -0.149254
  31 S :    0.470016
  32 C :   -0.058312
  33 C :   -0.153503
  34 C :   -0.023281
  35 C :   -0.033186
  36 C :   -0.171314
  37 S :    0.385155
  38 C :   -0.168770
  39 C :   -0.035447
  40 C :   -0.020899
  41 C :   -0.156006
  42 S :    0.386948
  43 C :   -0.056898
  44 C :   -0.152782
  45 C :   -0.019949
  46 C :   -0.047618
  47 C :   -0.197879
  48 S :    0.470210
  49 C :   -0.140634
  50 C :   -0.072785
  51 C :    0.080623
  52 C :   -0.100122
  53 C :   -0.015561
  54 N :   -0.034811
  55 C :   -0.018268
  56 N :   -0.026709
  57 C :    0.027066
  58 C :   -0.170334
  59 S :    0.521129
  60 C :    0.066336
  61 C :   -0.117792
  62 C :    0.076309
  63 O :   -0.144287
  64 C :   -0.117187
  65 C :   -0.285205
  66 S :    0.511349
  67 C :   -0.148445
  68 C :   -0.061050
  69 C :    0.068239
  70 C :   -0.167047
  71 C :   -0.006096
  72 N :   -0.078544
  73 C :   -0.044934
  74 N :   -0.062217
  75 Cl:    0.194968
  76 H :    0.038070
  77 H :    0.038194
  78 H :    0.039600
  79 H :    0.043129
  80 H :    0.046984
  81 H :    0.037948
  82 H :    0.036983
  83 H :    0.037106
  84 H :    0.037975
  85 H :    0.047165
  86 H :    0.042955
  87 H :    0.047918
  88 H :    0.056257
  89 H :    0.030476

  Mayer bond orders larger than 0.100000
B(  0-C ,  1-C ) :   1.5506 B(  0-C ,  5-C ) :   1.2194 B(  0-C ,  9-C ) :   0.9875
B(  1-C ,  2-S ) :   1.1558 B(  1-C , 76-H ) :   0.9525 B(  2-S ,  3-C ) :   1.1449
B(  3-C ,  4-Cl) :   1.1245 B(  3-C ,  5-C ) :   1.4726 B(  5-C ,  6-C ) :   0.9585
B(  6-C ,  7-O ) :   2.1523 B(  6-C ,  8-C ) :   0.9490 B(  8-C ,  9-C ) :   1.0995
B(  8-C , 15-C ) :   1.5656 B(  9-C , 10-C ) :   1.6149 B( 10-C , 11-C ) :   1.1492
B( 10-C , 13-C ) :   1.1611 B( 11-C , 12-N ) :   2.9914 B( 13-C , 14-N ) :   2.9087
B( 15-C , 16-C ) :   1.2429 B( 15-C , 77-H ) :   0.9091 B( 16-C , 17-C ) :   1.3745
B( 16-C , 20-S ) :   1.0606 B( 17-C , 18-C ) :   1.3327 B( 17-C , 78-H ) :   0.9569
B( 18-C , 19-C ) :   1.3368 B( 18-C , 23-C ) :   0.9965 B( 19-C , 20-S ) :   1.1575
B( 19-C , 21-C ) :   1.2568 B( 21-C , 22-C ) :   1.3602 B( 21-C , 31-S ) :   1.1080
B( 22-C , 23-C ) :   0.9811 B( 22-C , 29-C ) :   1.3688 B( 23-C , 24-C ) :   1.7207
B( 24-C , 25-C ) :   1.1443 B( 24-C , 27-C ) :   1.1303 B( 25-C , 26-N ) :   2.9704
B( 27-C , 28-N ) :   2.9930 B( 29-C , 30-C ) :   1.3313 B( 29-C , 79-H ) :   1.0019
B( 30-C , 31-S ) :   1.0902 B( 30-C , 32-C ) :   1.2433 B( 32-C , 33-C ) :   1.4963
B( 32-C , 80-H ) :   0.9742 B( 33-C , 34-C ) :   1.1746 B( 33-C , 37-S ) :   1.0512
B( 34-C , 35-C ) :   1.5606 B( 34-C , 81-H ) :   0.9984 B( 35-C , 36-C ) :   1.2186
B( 35-C , 82-H ) :   0.9959 B( 36-C , 37-S ) :   1.0509 B( 36-C , 38-C ) :   1.4474
B( 38-C , 39-C ) :   1.2177 B( 38-C , 42-S ) :   1.0552 B( 39-C , 40-C ) :   1.5612
B( 39-C , 83-H ) :   0.9973 B( 40-C , 41-C ) :   1.1755 B( 40-C , 84-H ) :   0.9978
B( 41-C , 42-S ) :   1.0545 B( 41-C , 43-C ) :   1.4938 B( 43-C , 44-C ) :   1.2492
B( 43-C , 85-H ) :   0.9718 B( 44-C , 45-C ) :   1.3275 B( 44-C , 48-S ) :   1.0959
B( 45-C , 46-C ) :   1.3753 B( 45-C , 86-H ) :   1.0014 B( 46-C , 47-C ) :   1.3518
B( 46-C , 51-C ) :   0.9876 B( 47-C , 48-S ) :   1.1091 B( 47-C , 49-C ) :   1.2585
B( 49-C , 50-C ) :   1.3412 B( 49-C , 59-S ) :   1.1716 B( 50-C , 51-C ) :   1.0068
B( 50-C , 57-C ) :   1.3303 B( 51-C , 52-C ) :   1.7116 B( 52-C , 53-C ) :   1.1372
B( 52-C , 55-C ) :   1.1330 B( 53-C , 54-N ) :   2.9905 B( 55-C , 56-N ) :   2.9966
B( 57-C , 58-C ) :   1.3539 B( 57-C , 87-H ) :   1.0043 B( 58-C , 59-S ) :   1.0717
B( 58-C , 60-C ) :   1.1910 B( 60-C , 61-C ) :   1.5625 B( 60-C , 88-H ) :   0.9358
B( 61-C , 62-C ) :   0.9548 B( 61-C , 69-C ) :   1.0678 B( 62-C , 63-O ) :   2.2356
B( 62-C , 64-C ) :   0.9336 B( 64-C , 65-C ) :   1.4519 B( 64-C , 68-C ) :   1.2265
B( 65-C , 66-S ) :   1.1657 B( 65-C , 75-Cl) :   1.1159 B( 66-S , 67-C ) :   1.1807
B( 67-C , 68-C ) :   1.5440 B( 67-C , 89-H ) :   0.9486 B( 68-C , 69-C ) :   1.0091
B( 69-C , 70-C ) :   1.5875 B( 70-C , 71-C ) :   1.1510 B( 70-C , 73-C ) :   1.1613
B( 71-C , 72-N ) :   2.9441 B( 73-C , 74-N ) :   3.0117

-----------------------------------------------------------------------------
         ABSORPTION SPECTRUM VIA TRANSITION ELECTRIC DIPOLE MOMENTS
-----------------------------------------------------------------------------
State   Energy  Wavelength   fosc         T2         TX        TY        TZ
        (cm-1)    (nm)                  (au**2)     (au)      (au)      (au)
-----------------------------------------------------------------------------
   0    6769.2   1477.3   0.112695128   5.48078  -0.58969  -0.94817   2.05767
   1   10249.8    975.6   0.274603630   8.82000  -2.63380   1.07761  -0.84962
   2   12940.0    772.8   0.041832337   1.06427   0.95916  -0.37901  -0.02508
   3   14762.1    677.4   0.133101190   2.96831   0.43861  -0.74659   1.48947
   4   15300.3    653.6   0.739881736  15.91981  -3.55708   1.30150  -1.25423
   5   17267.0    579.1   0.077406439   1.47583   0.05985   0.00979  -1.21332
   6   18285.4    546.9   0.015840970   0.28520   0.28033  -0.25861  -0.37382
   7   19482.5    513.3   0.659188357  11.13883   1.60394  -1.31040  -2.61707
   8   20577.1    486.0   0.317950016   5.08686  -0.60715   0.45782   2.12335
   9   21653.1    461.8   0.202428360   3.07771   1.23350  -0.68097  -1.04521
  10   22018.5    454.2   0.625060841   9.34568   2.77735  -1.11174   0.62933
  11   23004.5    434.7   0.072608880   1.03909   0.34694  -0.17586   0.94223
  12   23911.1    418.2   0.050097075   0.68974   0.64123  -0.30504   0.43071
  13   24497.1    408.2   0.002629222   0.03533   0.02692   0.18566  -0.01188
  14   24698.3    404.9   0.194346033   2.59050  -1.21784   0.77721  -0.70944
  15   25180.4    397.1   0.047766110   0.62450   0.18402  -0.23833   0.73064
  16   25394.4    393.8   0.042310417   0.54851  -0.17825   0.00017   0.71885
  17   26341.7    379.6   0.069793461   0.87226  -0.78596   0.32441  -0.38638
  18   26739.6    374.0   0.020554560   0.25306  -0.38954  -0.31736   0.02452
  19   26769.7    373.6   0.014752140   0.18142   0.33626   0.25806  -0.04185
  20   27311.6    366.1   0.156539818   1.88692   1.28071  -0.49641   0.01643
  21   27486.0    363.8   0.053914885   0.64576  -0.71693   0.31650  -0.17776
  22   27648.4    361.7   0.271848913   3.23692  -0.30434   0.21382  -1.76028
  23   27886.6    358.6   0.213036932   2.51498   0.62558  -0.53289  -1.35634
  24   27995.0    357.2   0.034708956   0.40817  -0.13624   0.06073  -0.62122
  25   28175.7    354.9   0.020200721   0.23603   0.02937   0.03681   0.48354
  26   28416.0    351.9   0.004891024   0.05666   0.23220  -0.05228  -0.00395
  27   28685.0    348.6   0.145021573   1.66438  -1.07547   0.43554  -0.56396
  28   28957.1    345.3   0.029571175   0.33619   0.50239  -0.22961   0.17629
  29   29049.5    344.2   0.109070328   1.23607  -0.80583   0.00111   0.76597
  30   29403.1    340.1   0.209328008   2.34374   1.25435  -0.75969   0.43959
  31   29795.9    335.6   0.021674828   0.23948  -0.22186   0.42805  -0.08384
  32   29968.6    333.7   0.019492633   0.21413  -0.19674   0.13547   0.39632
  33   30177.4    331.4   0.057227298   0.62431   0.39968   0.14798  -0.66533
  34   30519.2    327.7   0.014609443   0.15759   0.27240  -0.26002   0.12563
  35   30790.4    324.8   0.032188060   0.34416  -0.04132  -0.30651  -0.49850
  36   31085.6    321.7   0.062419687   0.66106   0.54858  -0.21859   0.55887
  37   31249.6    320.0   0.096572162   1.01738  -0.80501   0.60278   0.07748
  38   31498.7    317.5   0.042307949   0.44219  -0.07074   0.17167   0.63852
  39   31523.2    317.2   0.021653409   0.22614  -0.27611  -0.37071  -0.11170
  40   31765.5    314.8   0.471256864   4.88403   0.67285  -0.22051   2.09348
  41   32093.8    311.6   0.006930414   0.07109  -0.09327   0.11911  -0.21956
  42   32230.4    310.3   0.000361627   0.00369  -0.02237  -0.01661  -0.05401
  43   32548.0    307.2   0.001329186   0.01344   0.06033   0.07373  -0.06609
  44   32771.8    305.1   0.226895833   2.27930   0.92438   0.05657  -1.19232
  45   33104.0    302.1   0.098553785   0.98010   0.44227   0.40292  -0.78876
  46   33251.0    300.7   0.018180834   0.18001   0.15578  -0.15865   0.36134
  47   33290.5    300.4   0.029706382   0.29377  -0.19069   0.19732  -0.46741
  48   33524.1    298.3   0.255766705   2.51167  -1.29272   0.81473  -0.42042
  49   33678.5    296.9   0.103677051   1.01346   0.71311  -0.28897   0.64918
  50   33912.0    294.9   0.165285809   1.60457  -1.02326   0.74586  -0.03481
  51   34148.3    292.8   0.172381464   1.66187  -0.64568   0.67966  -0.88489
  52   34212.9    292.3   0.035043589   0.33721   0.43074   0.00128  -0.38944
  53   34398.1    290.7   0.032509464   0.31114  -0.38684  -0.01268   0.40166
  54   34551.4    289.4   0.276282426   2.63247  -0.88181  -0.39809  -1.30246
  55   34698.3    288.2   0.083288455   0.79023   0.56700  -0.28610   0.62200
  56   34793.3    287.4   0.067319306   0.63697   0.18046  -0.09538   0.77156
  57   34971.2    285.9   0.027865627   0.26232   0.05716  -0.14186   0.48880
  58   35200.7    284.1   0.052596328   0.49190   0.23207  -0.45202  -0.48345
  59   35215.1    284.0   0.015591451   0.14576   0.16228  -0.26519  -0.22158
  60   35531.5    281.4   0.005307205   0.04917   0.04646  -0.14203   0.16384
  61   35659.4    280.4   0.004816088   0.04446  -0.10499   0.16054   0.08757
  62   35695.3    280.1   0.042892587   0.39559   0.47318  -0.31681  -0.26706
  63   35741.5    279.8   0.158591827   1.46078  -0.00408  -0.05606   1.20732
  64   35939.8    278.2   0.027041345   0.24770   0.42804  -0.21712   0.13167
  65   36015.7    277.7   0.020945189   0.19146  -0.43621   0.01666  -0.03004
  66   36346.3    275.1   0.001787151   0.01619   0.01225  -0.08407   0.09471
  67   36448.2    274.4   0.005898018   0.05327   0.10530   0.03185   0.20291
  68   36555.0    273.6   0.053806127   0.48457  -0.53174   0.27209   0.35749
  69   36681.4    272.6   0.059598491   0.53489   0.68051  -0.06056   0.26102
  70   36765.2    272.0   0.089934315   0.80531   0.09041   0.00460   0.89281
  71   36988.6    270.4   0.060636867   0.53969  -0.46388  -0.00861  -0.56959
  72   37264.3    268.4   0.004698398   0.04151   0.14612  -0.13826  -0.03229
  73   37515.5    266.6   0.090604849   0.79509  -0.78792   0.41736  -0.00880
  74   37652.5    265.6   0.043692375   0.38202  -0.59555   0.11253  -0.12115
  75   37704.5    265.2   0.014406824   0.12579  -0.26931   0.13631  -0.18624
  76   37789.3    264.6   0.038212172   0.33290  -0.32361   0.05837  -0.47410
  77   38019.5    263.0   0.141571011   1.22587  -0.87505   0.52217  -0.43301
  78   38208.6    261.7   0.065646807   0.56562   0.37617   0.02636   0.65071
  79   38334.1    260.9   0.000926435   0.00796  -0.01134  -0.02169  -0.08577
  80   38499.8    259.7   0.017851707   0.15265  -0.03278  -0.10965  -0.37357
  81   38679.5    258.5   0.010833437   0.09221   0.15636  -0.14051  -0.21912
  82   38879.5    257.2   0.076079392   0.64420  -0.02995  -0.13298  -0.79096
  83   39244.8    254.8   0.061220574   0.51356   0.21256   0.12627   0.67263
  84   39387.4    253.9   0.083412587   0.69719  -0.78716   0.27385   0.05066
  85   39463.6    253.4   0.006835929   0.05703   0.09112  -0.20307  -0.08651
  86   39666.5    252.1   0.009828509   0.08157   0.23492  -0.10038   0.12770
  87   39735.9    251.7   0.092300897   0.76471   0.34339  -0.19653   0.77986
  88   39930.2    250.4   0.015334977   0.12643   0.23844  -0.24369   0.10097
  89   40017.8    249.9   0.008530250   0.07018   0.18967  -0.00319   0.18491
  90   40188.6    248.8   0.009978746   0.08174  -0.22681   0.07600  -0.15660
  91   40281.7    248.3   0.041684202   0.34067   0.21634  -0.14951   0.52108

FINAL SINGLE POINT ENERGY     -6831.751966807094

DIPOLE MOMENT
-------------
                                X             Y             Z
Electronic contribution:    -43.02600      24.35700     -23.62378
Nuclear contribution   :     47.79885     -25.02273      23.15012
                        -----------------------------------------
Total Dipole Moment    :      4.77285      -0.66572      -0.47366
                        -----------------------------------------
Magnitude (a.u.)       :      4.84228
Magnitude (Debye)      :     12.30809

Rotational constants in cm-1:     0.001138     0.000577     0.000421
Rotational constants in MHz :    34.122157    17.292531    12.614494

                             ****ORCA TERMINATED NORMALLY****
TOTAL RUN TIME: 0 days 0 hours 14 minutes 25 seconds 199 msec
