                         Program Version 4.2.0 -  RELEASE  -
|  1> # ORCA input file
|  2> # SCF done       -146.020943593164          0.000187515476
|  3> ! CAM-B3LYP def2-SVP def2/J RIJCOSX Grid4 TightSCF
|  4> %maxcore 5000
|  5> %tddft
|  6>     Mode sTDDFT
|  7>     Ethresh 5.0
|  8>     maxcore 5000
|  9> end
| 10>
| 11> %pal
| 12>   nprocs 6
| 13>   end
| 14> * xyz 0 1
| 15>    C        2.36990       -18.38185         1.84181
| 16>    C        1.25046       -18.79373         1.17932
| 17>    C        0.71509       -20.19359         1.13406
| 18>    C        1.61330       -21.22670         1.80109
| 19>    C        0.61413       -17.72377         0.51396
| 20>    C        1.24574       -16.51301         0.67027
| 21>    S        2.66441       -16.69944         1.66745
| 22>    C        0.91373       -15.22778         0.15647
| 23>    C       -0.15126       -14.96273        -0.63466
| 24>    C       -0.48426       -13.68638        -1.15194
| 25>    S        0.47738       -12.25239        -0.80820
| 26>    C       -0.57343       -11.28818        -1.75829
| 27>    C       -1.61202       -12.04228        -2.30990
| 28>    C       -1.56443       -13.38851        -1.97020
| 29>    C       -2.45105       -11.13253        -3.10388
| 30>    O       -3.44808       -11.40666        -3.73293
| 31>    C       -1.78539        -9.77812        -2.95331
| 32>    C       -0.67796        -9.92832        -2.14353
| 33>    C       -2.23667        -8.58768        -3.55336
| 34>    C       -3.33871        -8.53987        -4.36200
| 35>    C       -3.82705        -7.38143        -5.00142
| 36>    C       -4.93664        -7.38358        -5.84132
| 37>    O       -5.37613        -6.24301        -6.48191
| 38>    C       -4.66929        -5.10877        -6.22830
| 39>    C       -3.54029        -5.10362        -5.35906
| 40>    C       -2.97751        -3.87570        -5.23541
| 41>    S       -3.81867        -2.70519        -6.18137
| 42>    C       -4.94030        -3.88514        -6.74736
| 43>    O       -3.10470        -6.23338        -4.74052
| 44>    C       -5.70546        -8.53727        -6.12028
| 45>    C       -6.75665        -8.56500        -6.99128
| 46>    C       -7.51329        -9.72260        -7.26004
| 47>    S       -8.78310        -9.66970        -8.47879
| 48>    C       -9.14649       -11.32181        -8.21723
| 49>    C       -8.32901       -11.87882        -7.22536
| 50>    C       -7.41331       -10.99296        -6.68919
| 51>    C       -8.73055       -13.29281        -7.07427
| 52>    O       -8.29660       -14.12994        -6.32185
| 53>    C       -9.83373       -13.48090        -8.08826
| 54>    C      -10.04710       -12.28551        -8.73756
| 55>    C      -10.44318       -14.74435        -8.23508
| 56>    C      -11.38877       -15.08131        -9.15124
| 57>    C      -11.95517       -16.37008        -9.26536
| 58>    S      -11.55700       -17.69060        -8.18110
| 59>    C      -12.59751       -18.78762        -8.98586
| 60>    C      -13.23635       -18.19519       -10.04864
| 61>    C      -12.86819       -16.82312       -10.19727
| 62>    S      -13.66591       -16.07505       -11.53766
| 63>    C      -14.47845       -17.59608       -11.90328
| 64>    C      -15.37286       -17.57547       -13.05960
| 65>    O      -15.59311       -16.54336       -13.65573
| 66>    C      -15.96299       -18.90327       -13.48569
| 67>    C      -14.90688       -19.73105       -14.22094
| 68>    C      -14.16280       -18.60441       -11.04262
| 69>    H        3.05149       -18.96378         2.42830
| 70>    H        0.56065       -20.46753         0.08613
| 71>    H       -0.26803       -20.20187         1.61555
| 72>    H        2.59536       -21.23959         1.33379
| 73>    H        1.17476       -22.21727         1.70516
| 74>    H        1.73313       -21.00769         2.85951
| 75>    H       -0.28442       -17.85075        -0.06268
| 76>    H        1.57849       -14.41853         0.43059
| 77>    H       -0.82357       -15.76063        -0.91848
| 78>    H       -2.27310       -14.12847        -2.29532
| 79>    H       -0.00091        -9.14613        -1.85211
| 80>    H       -1.67008        -7.68576        -3.36041
| 81>    H       -3.86760        -9.46016        -4.53068
| 82>    H       -2.12732        -3.59501        -4.65017
| 83>    H       -5.72509        -3.61319        -7.42140
| 84>    H       -5.43183        -9.44486        -5.61300
| 85>    H       -7.02800        -7.66334        -7.52164
| 86>    H       -6.70558       -11.24440        -5.92116
| 87>    H      -10.76997       -12.09640        -9.50969
| 88>    H      -10.08931       -15.50278        -7.54568
| 89>    H      -11.74866       -14.35286        -9.86551
| 90>    H      -12.67957       -19.79736        -8.63749
| 91>    H      -16.79782       -18.69960       -14.15765
| 92>    H      -16.33170       -19.44744       -12.61570
| 93>    H      -14.54782       -19.18926       -15.09271
| 94>    H      -15.33723       -20.67273       -14.55313
| 95>    H      -14.05815       -19.94413       -13.57511
| 96>    H      -14.56501       -19.59955       -11.09586
| 97> *
| 98>
| 99>                          ****END OF INPUT****

CARTESIAN COORDINATES (ANGSTROEM)
---------------------------------
  C      2.369900  -18.381850    1.841810
  C      1.250460  -18.793730    1.179320
  C      0.715090  -20.193590    1.134060
  C      1.613300  -21.226700    1.801090
  C      0.614130  -17.723770    0.513960
  C      1.245740  -16.513010    0.670270
  S      2.664410  -16.699440    1.667450
  C      0.913730  -15.227780    0.156470
  C     -0.151260  -14.962730   -0.634660
  C     -0.484260  -13.686380   -1.151940
  S      0.477380  -12.252390   -0.808200
  C     -0.573430  -11.288180   -1.758290
  C     -1.612020  -12.042280   -2.309900
  C     -1.564430  -13.388510   -1.970200
  C     -2.451050  -11.132530   -3.103880
  O     -3.448080  -11.406660   -3.732930
  C     -1.785390   -9.778120   -2.953310
  C     -0.677960   -9.928320   -2.143530
  C     -2.236670   -8.587680   -3.553360
  C     -3.338710   -8.539870   -4.362000
  C     -3.827050   -7.381430   -5.001420
  C     -4.936640   -7.383580   -5.841320
  O     -5.376130   -6.243010   -6.481910
  C     -4.669290   -5.108770   -6.228300
  C     -3.540290   -5.103620   -5.359060
  C     -2.977510   -3.875700   -5.235410
  S     -3.818670   -2.705190   -6.181370
  C     -4.940300   -3.885140   -6.747360
  O     -3.104700   -6.233380   -4.740520
  C     -5.705460   -8.537270   -6.120280
  C     -6.756650   -8.565000   -6.991280
  C     -7.513290   -9.722600   -7.260040
  S     -8.783100   -9.669700   -8.478790
  C     -9.146490  -11.321810   -8.217230
  C     -8.329010  -11.878820   -7.225360
  C     -7.413310  -10.992960   -6.689190
  C     -8.730550  -13.292810   -7.074270
  O     -8.296600  -14.129940   -6.321850
  C     -9.833730  -13.480900   -8.088260
  C    -10.047100  -12.285510   -8.737560
  C    -10.443180  -14.744350   -8.235080
  C    -11.388770  -15.081310   -9.151240
  C    -11.955170  -16.370080   -9.265360
  S    -11.557000  -17.690600   -8.181100
  C    -12.597510  -18.787620   -8.985860
  C    -13.236350  -18.195190  -10.048640
  C    -12.868190  -16.823120  -10.197270
  S    -13.665910  -16.075050  -11.537660
  C    -14.478450  -17.596080  -11.903280
  C    -15.372860  -17.575470  -13.059600
  O    -15.593110  -16.543360  -13.655730
  C    -15.962990  -18.903270  -13.485690
  C    -14.906880  -19.731050  -14.220940
  C    -14.162800  -18.604410  -11.042620
  H      3.051490  -18.963780    2.428300
  H      0.560650  -20.467530    0.086130
  H     -0.268030  -20.201870    1.615550
  H      2.595360  -21.239590    1.333790
  H      1.174760  -22.217270    1.705160
  H      1.733130  -21.007690    2.859510
  H     -0.284420  -17.850750   -0.062680
  H      1.578490  -14.418530    0.430590
  H     -0.823570  -15.760630   -0.918480
  H     -2.273100  -14.128470   -2.295320
  H     -0.000910   -9.146130   -1.852110
  H     -1.670080   -7.685760   -3.360410
  H     -3.867600   -9.460160   -4.530680
  H     -2.127320   -3.595010   -4.650170
  H     -5.725090   -3.613190   -7.421400
  H     -5.431830   -9.444860   -5.613000
  H     -7.028000   -7.663340   -7.521640
  H     -6.705580  -11.244400   -5.921160
  H    -10.769970  -12.096400   -9.509690
  H    -10.089310  -15.502780   -7.545680
  H    -11.748660  -14.352860   -9.865510
  H    -12.679570  -19.797360   -8.637490
  H    -16.797820  -18.699600  -14.157650
  H    -16.331700  -19.447440  -12.615700
  H    -14.547820  -19.189260  -15.092710
  H    -15.337230  -20.672730  -14.553130
  H    -14.058150  -19.944130  -13.575110
  H    -14.565010  -19.599550  -11.095860

 Total Charge           Charge          ....    0
 Multiplicity           Mult            ....    1
 Number of Electrons    NEL             ....  422
 Basis Dimension        Dim             ....  920

ORBITAL ENERGIES
----------------

  NO   OCC          E(Eh)            E(eV)
   0   2.0000     -88.967475     -2420.9281
   1   2.0000     -88.965048     -2420.8620
   2   2.0000     -88.963542     -2420.8211
   3   2.0000     -88.953471     -2420.5470
   4   2.0000     -88.947903     -2420.3955
   5   2.0000     -88.940797     -2420.2021
   6   2.0000     -19.271987      -524.4174
   7   2.0000     -19.268447      -524.3211
   8   2.0000     -19.222073      -523.0592
   9   2.0000     -19.219466      -522.9883
  10   2.0000     -19.203726      -522.5600
  11   2.0000     -10.364823      -282.0412
  12   2.0000     -10.360156      -281.9142
  13   2.0000     -10.357411      -281.8395
  14   2.0000     -10.344402      -281.4855
  15   2.0000     -10.338963      -281.3375
  16   2.0000     -10.336675      -281.2752
  17   2.0000     -10.336107      -281.2598
  18   2.0000     -10.304150      -280.3902
  19   2.0000     -10.303845      -280.3819
  20   2.0000     -10.303700      -280.3779
  21   2.0000     -10.303695      -280.3778
  22   2.0000     -10.303518      -280.3730
  23   2.0000     -10.302358      -280.3414
  24   2.0000     -10.299988      -280.2769
  25   2.0000     -10.299490      -280.2634
  26   2.0000     -10.294553      -280.1290
  27   2.0000     -10.293369      -280.0968
  28   2.0000     -10.290094      -280.0077
  29   2.0000     -10.289585      -279.9938
  30   2.0000     -10.289305      -279.9862
  31   2.0000     -10.289088      -279.9803
  32   2.0000     -10.286400      -279.9072
  33   2.0000     -10.284909      -279.8666
  34   2.0000     -10.281713      -279.7796
  35   2.0000     -10.280719      -279.7526
  36   2.0000     -10.280566      -279.7484
  37   2.0000     -10.279467      -279.7185
  38   2.0000     -10.279130      -279.7094
  39   2.0000     -10.277367      -279.6614
  40   2.0000     -10.276360      -279.6340
  41   2.0000     -10.276214      -279.6300
  42   2.0000     -10.276158      -279.6285
  43   2.0000     -10.273467      -279.5552
  44   2.0000     -10.272148      -279.5193
  45   2.0000     -10.271866      -279.5117
  46   2.0000     -10.270951      -279.4868
  47   2.0000     -10.267626      -279.3963
  48   2.0000     -10.266181      -279.3570
  49   2.0000     -10.265361      -279.3347
  50   2.0000     -10.264472      -279.3105
  51   2.0000     -10.264305      -279.3059
  52   2.0000     -10.257622      -279.1241
  53   2.0000     -10.252726      -278.9909
  54   2.0000      -8.062309      -219.3866
  55   2.0000      -8.059810      -219.3186
  56   2.0000      -8.058647      -219.2869
  57   2.0000      -8.049273      -219.0319
  58   2.0000      -8.043255      -218.8681
  59   2.0000      -8.036924      -218.6958
  60   2.0000      -6.031367      -164.1218
  61   2.0000      -6.028930      -164.0555
  62   2.0000      -6.027828      -164.0255
  63   2.0000      -6.027412      -164.0142
  64   2.0000      -6.024979      -163.9480
  65   2.0000      -6.024892      -163.9456
  66   2.0000      -6.023600      -163.9105
  67   2.0000      -6.022264      -163.8741
  68   2.0000      -6.021170      -163.8444
  69   2.0000      -6.018813      -163.7802
  70   2.0000      -6.014597      -163.6655
  71   2.0000      -6.013066      -163.6238
  72   2.0000      -6.010943      -163.5661
  73   2.0000      -6.008860      -163.5094
  74   2.0000      -6.006152      -163.4357
  75   2.0000      -6.004275      -163.3846
  76   2.0000      -6.001987      -163.3224
  77   2.0000      -5.999184      -163.2461
  78   2.0000      -1.196622       -32.5617
  79   2.0000      -1.159970       -31.5644
  80   2.0000      -1.131933       -30.8015
  81   2.0000      -1.129557       -30.7368
  82   2.0000      -1.121775       -30.5250
  83   2.0000      -1.005358       -27.3572
  84   2.0000      -0.997842       -27.1527
  85   2.0000      -0.996839       -27.1254
  86   2.0000      -0.982163       -26.7260
  87   2.0000      -0.969904       -26.3924
  88   2.0000      -0.946536       -25.7566
  89   2.0000      -0.937244       -25.5037
  90   2.0000      -0.935899       -25.4671
  91   2.0000      -0.914833       -24.8939
  92   2.0000      -0.894855       -24.3502
  93   2.0000      -0.888626       -24.1807
  94   2.0000      -0.878928       -23.9169
  95   2.0000      -0.876357       -23.8469
  96   2.0000      -0.863341       -23.4927
  97   2.0000      -0.850549       -23.1446
  98   2.0000      -0.843369       -22.9492
  99   2.0000      -0.839817       -22.8526
 100   2.0000      -0.835776       -22.7426
 101   2.0000      -0.828143       -22.5349
 102   2.0000      -0.818541       -22.2736
 103   2.0000      -0.811359       -22.0782
 104   2.0000      -0.807258       -21.9666
 105   2.0000      -0.800643       -21.7866
 106   2.0000      -0.795747       -21.6534
 107   2.0000      -0.772595       -21.0234
 108   2.0000      -0.757397       -20.6098
 109   2.0000      -0.747056       -20.3284
 110   2.0000      -0.744710       -20.2646
 111   2.0000      -0.740200       -20.1419
 112   2.0000      -0.729612       -19.8538
 113   2.0000      -0.717499       -19.5241
 114   2.0000      -0.705144       -19.1880
 115   2.0000      -0.702222       -19.1084
 116   2.0000      -0.696623       -18.9561
 117   2.0000      -0.685889       -18.6640
 118   2.0000      -0.678963       -18.4755
 119   2.0000      -0.669350       -18.2139
 120   2.0000      -0.655911       -17.8483
 121   2.0000      -0.643636       -17.5142
 122   2.0000      -0.637790       -17.3552
 123   2.0000      -0.635455       -17.2916
 124   2.0000      -0.629229       -17.1222
 125   2.0000      -0.621362       -16.9081
 126   2.0000      -0.615193       -16.7402
 127   2.0000      -0.612085       -16.6557
 128   2.0000      -0.610818       -16.6212
 129   2.0000      -0.598691       -16.2912
 130   2.0000      -0.593833       -16.1590
 131   2.0000      -0.591542       -16.0967
 132   2.0000      -0.586855       -15.9691
 133   2.0000      -0.576928       -15.6990
 134   2.0000      -0.572303       -15.5732
 135   2.0000      -0.562933       -15.3182
 136   2.0000      -0.562663       -15.3108
 137   2.0000      -0.562365       -15.3027
 138   2.0000      -0.559453       -15.2235
 139   2.0000      -0.552026       -15.0214
 140   2.0000      -0.550414       -14.9775
 141   2.0000      -0.542872       -14.7723
 142   2.0000      -0.534672       -14.5492
 143   2.0000      -0.531629       -14.4664
 144   2.0000      -0.529269       -14.4021
 145   2.0000      -0.523897       -14.2560
 146   2.0000      -0.520119       -14.1532
 147   2.0000      -0.518471       -14.1083
 148   2.0000      -0.518030       -14.0963
 149   2.0000      -0.517497       -14.0818
 150   2.0000      -0.513122       -13.9628
 151   2.0000      -0.508547       -13.8383
 152   2.0000      -0.503033       -13.6882
 153   2.0000      -0.501989       -13.6598
 154   2.0000      -0.496407       -13.5079
 155   2.0000      -0.492657       -13.4059
 156   2.0000      -0.492482       -13.4011
 157   2.0000      -0.489224       -13.3125
 158   2.0000      -0.486527       -13.2391
 159   2.0000      -0.485955       -13.2235
 160   2.0000      -0.478604       -13.0235
 161   2.0000      -0.478007       -13.0072
 162   2.0000      -0.475500       -12.9390
 163   2.0000      -0.472527       -12.8581
 164   2.0000      -0.470948       -12.8151
 165   2.0000      -0.468868       -12.7585
 166   2.0000      -0.466333       -12.6896
 167   2.0000      -0.463863       -12.6224
 168   2.0000      -0.462056       -12.5732
 169   2.0000      -0.458408       -12.4739
 170   2.0000      -0.457216       -12.4415
 171   2.0000      -0.456376       -12.4186
 172   2.0000      -0.453471       -12.3396
 173   2.0000      -0.450531       -12.2596
 174   2.0000      -0.447564       -12.1788
 175   2.0000      -0.446666       -12.1544
 176   2.0000      -0.440558       -11.9882
 177   2.0000      -0.438023       -11.9192
 178   2.0000      -0.430137       -11.7046
 179   2.0000      -0.428657       -11.6643
 180   2.0000      -0.426776       -11.6132
 181   2.0000      -0.425061       -11.5665
 182   2.0000      -0.423424       -11.5220
 183   2.0000      -0.421396       -11.4668
 184   2.0000      -0.420801       -11.4506
 185   2.0000      -0.418058       -11.3759
 186   2.0000      -0.412057       -11.2127
 187   2.0000      -0.410283       -11.1644
 188   2.0000      -0.409474       -11.1423
 189   2.0000      -0.406219       -11.0538
 190   2.0000      -0.404577       -11.0091
 191   2.0000      -0.398603       -10.8465
 192   2.0000      -0.393887       -10.7182
 193   2.0000      -0.387649       -10.5485
 194   2.0000      -0.371001       -10.0954
 195   2.0000      -0.354490        -9.6462
 196   2.0000      -0.335272        -9.1232
 197   2.0000      -0.331349        -9.0165
 198   2.0000      -0.330338        -8.9890
 199   2.0000      -0.329367        -8.9625
 200   2.0000      -0.328975        -8.9519
 201   2.0000      -0.325595        -8.8599
 202   2.0000      -0.315373        -8.5817
 203   2.0000      -0.305888        -8.3236
 204   2.0000      -0.302698        -8.2368
 205   2.0000      -0.301243        -8.1972
 206   2.0000      -0.285106        -7.7581
 207   2.0000      -0.279357        -7.6017
 208   2.0000      -0.253319        -6.8932
 209   2.0000      -0.232463        -6.3256
 210   2.0000      -0.206770        -5.6265
 211   0.0000      -0.087143        -2.3713
 212   0.0000      -0.072364        -1.9691
 213   0.0000      -0.039776        -1.0823
 214   0.0000      -0.025336        -0.6894
 215   0.0000      -0.019002        -0.5171

MULLIKEN ATOMIC CHARGES
-----------------------
   0 C :   -0.137447
   1 C :   -0.018268
   2 C :    0.072443
   3 C :    0.004617
   4 C :   -0.020854
   5 C :   -0.093635
   6 S :    0.103795
   7 C :    0.054977
   8 C :    0.013581
   9 C :   -0.063621
  10 S :    0.147709
  11 C :   -0.033924
  12 C :    0.006480
  13 C :   -0.019365
  14 C :    0.171475
  15 O :   -0.135978
  16 C :    0.002098
  17 C :   -0.050937
  18 C :   -0.019309
  19 C :   -0.074441
  20 C :    0.191813
  21 C :    0.182916
  22 O :   -0.254748
  23 C :    0.221087
  24 C :    0.223545
  25 C :   -0.177198
  26 S :    0.106842
  27 C :   -0.174466
  28 O :   -0.254420
  29 C :   -0.078377
  30 C :    0.064789
  31 C :   -0.098923
  32 S :    0.166459
  33 C :   -0.050766
  34 C :   -0.003484
  35 C :   -0.016144
  36 C :    0.161413
  37 O :   -0.115452
  38 C :   -0.036538
  39 C :   -0.038758
  40 C :   -0.002097
  41 C :    0.014599
  42 C :   -0.148738
  43 S :    0.143332
  44 C :   -0.119967
  45 C :    0.114812
  46 C :   -0.011318
  47 S :    0.149902
  48 C :   -0.136251
  49 C :    0.049767
  50 O :   -0.177055
  51 C :    0.025977
  52 C :   -0.010847
  53 C :    0.023203
  54 H :    0.013317
  55 H :    0.012029
  56 H :    0.016468
  57 H :    0.016853
  58 H :    0.011523
  59 H :    0.016955
  60 H :   -0.029466
  61 H :   -0.017713
  62 H :   -0.012935
  63 H :   -0.009495
  64 H :   -0.012588
  65 H :   -0.016572
  66 H :    0.014807
  67 H :    0.022267
  68 H :    0.023183
  69 H :    0.004276
  70 H :   -0.006608
  71 H :    0.005962
  72 H :   -0.008453
  73 H :   -0.000281
  74 H :   -0.013313
  75 H :    0.021728
  76 H :    0.021093
  77 H :    0.018907
  78 H :    0.029276
  79 H :    0.026215
  80 H :    0.019400
  81 H :   -0.011137
Sum of atomic charges:   -0.0000000

LOEWDIN ATOMIC CHARGES
----------------------
   0 C :   -0.204284
   1 C :   -0.060117
   2 C :   -0.029167
   3 C :   -0.054763
   4 C :   -0.062930
   5 C :   -0.170417
   6 S :    0.421950
   7 C :   -0.052029
   8 C :   -0.037839
   9 C :   -0.167902
  10 S :    0.453313
  11 C :   -0.165795
  12 C :   -0.113433
  13 C :   -0.022079
  14 C :    0.109428
  15 O :   -0.115471
  16 C :   -0.052431
  17 C :   -0.016908
  18 C :   -0.023859
  19 C :   -0.027447
  20 C :    0.021055
  21 C :    0.036571
  22 O :   -0.051142
  23 C :   -0.008065
  24 C :   -0.007228
  25 C :   -0.212529
  26 S :    0.433897
  27 C :   -0.211811
  28 O :   -0.053883
  29 C :   -0.040070
  30 C :   -0.032892
  31 C :   -0.171444
  32 S :    0.460695
  33 C :   -0.174719
  34 C :   -0.104945
  35 C :   -0.015146
  36 C :    0.100424
  37 O :   -0.105076
  38 C :   -0.061854
  39 C :   -0.005314
  40 C :   -0.033017
  41 C :   -0.024232
  42 C :   -0.198591
  43 S :    0.469377
  44 C :   -0.180981
  45 C :   -0.086677
  46 C :   -0.185923
  47 S :    0.414646
  48 C :   -0.189325
  49 C :    0.061005
  50 O :   -0.149235
  51 C :   -0.055656
  52 C :   -0.047108
  53 C :   -0.024181
  54 H :    0.018113
  55 H :    0.031532
  56 H :    0.033212
  57 H :    0.024158
  58 H :    0.026046
  59 H :    0.023374
  60 H :    0.023260
  61 H :    0.019565
  62 H :    0.034775
  63 H :    0.037417
  64 H :    0.030196
  65 H :    0.030227
  66 H :    0.032299
  67 H :    0.028262
  68 H :    0.028505
  69 H :    0.037186
  70 H :    0.030376
  71 H :    0.040529
  72 H :    0.029837
  73 H :    0.026898
  74 H :    0.031128
  75 H :    0.026247
  76 H :    0.037547
  77 H :    0.029011
  78 H :    0.031280
  79 H :    0.029122
  80 H :    0.022253
  81 H :    0.033199

  Mayer bond orders larger than 0.100000
B(  0-C ,  1-C ) :   1.5876 B(  0-C ,  6-S ) :   1.1335 B(  0-C , 54-H ) :   0.9634
B(  1-C ,  2-C ) :   1.0290 B(  1-C ,  4-C ) :   1.2686 B(  2-C ,  3-C ) :   1.1338
B(  2-C , 55-H ) :   0.9303 B(  2-C , 56-H ) :   0.9266 B(  3-C , 57-H ) :   0.9672
B(  3-C , 58-H ) :   0.9645 B(  3-C , 59-H ) :   0.9637 B(  4-C ,  5-C ) :   1.5197
B(  4-C , 60-H ) :   0.9970 B(  5-C ,  6-S ) :   1.1333 B(  5-C ,  7-C ) :   1.1166
B(  7-C ,  8-C ) :   1.6798 B(  7-C , 61-H ) :   0.9583 B(  8-C ,  9-C ) :   1.1719
B(  8-C , 62-H ) :   0.9745 B(  9-C , 10-S ) :   1.0899 B(  9-C , 13-C ) :   1.4372
B( 10-S , 11-C ) :   1.1288 B( 11-C , 12-C ) :   1.4532 B( 11-C , 17-C ) :   1.0641
B( 12-C , 13-C ) :   1.2812 B( 12-C , 14-C ) :   0.9518 B( 13-C , 63-H ) :   1.0117
B( 14-C , 15-O ) :   2.1879 B( 14-C , 16-C ) :   0.9114 B( 16-C , 17-C ) :   1.5691
B( 16-C , 18-C ) :   1.1503 B( 17-C , 64-H ) :   1.0244 B( 18-C , 19-C ) :   1.5785
B( 18-C , 65-H ) :   0.9936 B( 19-C , 20-C ) :   1.1917 B( 19-C , 66-H ) :   0.9398
B( 20-C , 21-C ) :   1.3966 B( 20-C , 28-O ) :   1.0611 B( 21-C , 22-O ) :   1.0703
B( 21-C , 29-C ) :   1.2140 B( 22-O , 23-C ) :   1.0505 B( 23-C , 24-C ) :   1.2010
B( 23-C , 27-C ) :   1.5692 B( 24-C , 25-C ) :   1.5683 B( 24-C , 28-O ) :   1.0598
B( 25-C , 26-S ) :   1.1406 B( 25-C , 67-H ) :   0.9735 B( 26-S , 27-C ) :   1.1412
B( 27-C , 68-H ) :   0.9732 B( 29-C , 30-C ) :   1.6346 B( 29-C , 69-H ) :   0.9548
B( 30-C , 31-C ) :   1.1252 B( 30-C , 70-H ) :   0.9717 B( 31-C , 32-S ) :   1.1045
B( 31-C , 35-C ) :   1.4256 B( 32-S , 33-C ) :   1.1337 B( 33-C , 34-C ) :   1.4324
B( 33-C , 39-C ) :   1.0760 B( 34-C , 35-C ) :   1.3305 B( 34-C , 36-C ) :   0.9182
B( 35-C , 71-H ) :   0.9994 B( 36-C , 37-O ) :   2.2688 B( 36-C , 38-C ) :   0.9163
B( 38-C , 39-C ) :   1.5999 B( 38-C , 40-C ) :   1.1646 B( 39-C , 72-H ) :   1.0151
B( 40-C , 41-C ) :   1.6007 B( 40-C , 73-H ) :   0.9665 B( 41-C , 42-C ) :   1.1827
B( 41-C , 74-H ) :   0.9745 B( 42-C , 43-S ) :   1.1236 B( 42-C , 46-C ) :   1.4746
B( 43-S , 44-C ) :   1.1889 B( 44-C , 45-C ) :   1.4498 B( 44-C , 75-H ) :   0.9696
B( 45-C , 46-C ) :   1.2381 B( 45-C , 53-C ) :   1.1219 B( 46-C , 47-S ) :   1.0402
B( 47-S , 48-C ) :   1.0565 B( 48-C , 49-C ) :   0.9458 B( 48-C , 53-C ) :   1.6205
B( 49-C , 50-O ) :   2.2096 B( 49-C , 51-C ) :   1.0437 B( 51-C , 52-C ) :   1.0896
B( 51-C , 76-H ) :   0.9215 B( 51-C , 77-H ) :   0.9263 B( 52-C , 78-H ) :   0.9673
B( 52-C , 79-H ) :   0.9692 B( 52-C , 80-H ) :   0.9743 B( 53-C , 81-H ) :   0.9875

-----------------------------------------------------------------------------
         ABSORPTION SPECTRUM VIA TRANSITION ELECTRIC DIPOLE MOMENTS
-----------------------------------------------------------------------------
State   Energy  Wavelength   fosc         T2         TX        TY        TZ
        (cm-1)    (nm)                  (au**2)     (au)      (au)      (au)
-----------------------------------------------------------------------------
   0   10905.5    917.0   0.651395076  19.66416   3.51399  -0.12461   2.70195
   1   13547.1    738.2   0.377310402   9.16911   0.84367   2.90674   0.09049
   2   17822.2    561.1   0.211686979   3.91030  -0.80969  -1.78439  -0.26582
   3   20327.8    491.9   0.063910702   1.03504  -0.80379   0.21822  -0.58425
   4   22530.9    443.8   0.530489190   7.75127   2.19246   0.90473   1.45803
   5   24196.9    413.3   0.143538062   1.95291   0.94068   0.93721   0.43551
   6   24431.1    409.3   0.237178286   3.19600  -0.93626   1.14420  -1.00510
   7   26022.3    384.3   0.000292944   0.00371  -0.02283   0.03336  -0.04552
   8   26077.5    383.5   0.065361006   0.82514  -0.54212   0.53895  -0.49068
   9   26455.0    378.0   0.001020317   0.01270   0.02863  -0.09077   0.06032
  10   27285.2    366.5   0.846044607  10.20801  -0.47233   3.01633  -0.94163
  11   28235.1    354.2   0.184247466   2.14827  -0.36291  -1.41995  -0.01749
  12   28635.2    349.2   0.049154582   0.56512   0.22467   0.71669   0.03170
  13   30362.3    329.4   0.190819492   2.06902   0.72038   1.16319   0.44391
  14   30815.0    324.5   0.150022352   1.60277  -0.32111  -1.22259   0.07023
  15   31386.3    318.6   0.087754205   0.92046  -0.76934  -0.02301  -0.57275
  16   32039.3    312.1   0.047490714   0.48798   0.51562   0.22240   0.41552
  17   32851.5    304.4   0.135129166   1.35416  -0.63647   0.73520  -0.63918
  18   32958.6    303.4   0.002408058   0.02405  -0.03393  -0.02049  -0.14994
  19   33644.2    297.2   0.088950945   0.87039   0.58611  -0.03435   0.72505
  20   34005.5    294.1   0.175666289   1.70065   0.41126  -1.13160   0.50099
  21   34245.5    292.0   0.004479006   0.04306  -0.16555  -0.08240  -0.09414
  22   34887.0    286.6   0.059817753   0.56447  -0.43494  -0.60792  -0.07571
  23   35280.2    283.4   0.080305815   0.74936  -0.13393  -0.84330   0.14236
  24   35452.9    282.1   0.014022399   0.13021   0.25427  -0.14890   0.20829
  25   35705.7    280.1   0.053614332   0.49433   0.49806  -0.29716   0.39744
  26   35840.3    279.0   0.021158783   0.19435  -0.34109  -0.15750  -0.23067
  27   36435.6    274.5   0.017519663   0.15830   0.20005   0.26597   0.21803
  28   36794.5    271.8   0.301073217   2.69380  -0.84299   1.11408  -0.86139
  29   37300.9    268.1   0.192395829   1.69806   0.02123  -1.24689   0.37798
  30   38364.5    260.7   0.072033034   0.61813   0.02780   0.76856  -0.16330
  31   38636.2    258.8   0.016826310   0.14337  -0.24781   0.23030  -0.17008
  32   39721.5    251.8   0.135446563   1.12258   0.75898  -0.07895   0.73505
  33   40069.8    249.6   0.013428438   0.11033   0.00867   0.33003   0.03648
  34   40134.5    249.2   0.000037080   0.00030   0.00409   0.01282   0.01110

FINAL SINGLE POINT ENERGY     -4417.281915250611

DIPOLE MOMENT
-------------
                                X             Y             Z
Electronic contribution:     -4.01337      61.69306      -7.51913
Nuclear contribution   :      4.19507     -62.77805       7.78017
                        -----------------------------------------
Total Dipole Moment    :      0.18170      -1.08499       0.26104
                        -----------------------------------------
Magnitude (a.u.)       :      1.13065
Magnitude (Debye)      :      2.87387

Rotational constants in cm-1:     0.000886     0.000402     0.000278
Rotational constants in MHz :    26.569394    12.061132     8.339244

                             ****ORCA TERMINATED NORMALLY****
TOTAL RUN TIME: 0 days 0 hours 5 minutes 15 seconds 727 msec
