                         Program Version 4.2.0 -  RELEASE  -
|  1> # ORCA input file
|  2> # SCF done       -160.609902978264          0.000667217221
|  3> ! CAM-B3LYP def2-SVP def2/J RIJCOSX Grid4 TightSCF
|  4> %maxcore 5000
|  5> %tddft
|  6>     Mode sTDDFT
|  7>     Ethresh 5.0
|  8>     maxcore 5000
|  9> end
| 10>
| 11> %pal
| 12>   nprocs 6
| 13>   end
| 14> * xyz 0 1
| 15>    C        4.62281        -7.25026        -0.51769
| 16>    S        3.23035        -6.27349        -0.78224
| 17>    C        5.08547        -7.19111         0.76011
| 18>    C        6.30668        -7.91894         1.22256
| 19>    C        7.54889        -7.02183         1.13159
| 20>    N        8.67377        -7.68897         1.76248
| 21>    C        4.30789        -6.32435         1.57690
| 22>    C        4.53770        -6.10092         3.03945
| 23>    C        3.62907        -7.00383         3.88840
| 24>    N        3.96762        -6.85067         5.29055
| 25>    C        3.26350        -5.76592         0.87623
| 26>    N        2.35589        -4.87956         1.40898
| 27>    C        1.26870        -4.30103         0.85553
| 28>    S        0.73724        -4.63305        -0.75619
| 29>    C       -0.57486        -3.50484        -0.53940
| 30>    N       -1.47756        -3.34318        -1.57877
| 31>    O       -2.40100        -2.55535        -1.41590
| 32>    O       -1.29086        -3.99987        -2.59350
| 33>    C       -0.58087        -2.91241         0.69519
| 34>    C        0.46475        -3.35416         1.52191
| 35>    C        0.65227        -2.93195         2.87812
| 36>    C        0.06729        -1.82240         3.39790
| 37>    C        0.08770        -1.45066         4.75478
| 38>    C       -0.57000        -0.34767         5.23344
| 39>    C       -0.76806         0.02105         6.58822
| 40>    C       -1.57384         1.10254         6.76186
| 41>    C       -2.03412         1.67565         5.55286
| 42>    S       -1.38731         0.80185         4.18249
| 43>    C       -2.91390         2.72214         5.39257
| 44>    C       -3.63760         3.40753         6.39705
| 45>    C       -4.55842         4.28357         5.92189
| 46>    C       -4.58312         4.39125         4.50238
| 47>    S       -3.36328         3.32359         3.80900
| 48>    C       -5.39792         5.12746         3.69586
| 49>    N       -6.56510         5.74063         4.09996
| 50>    C       -7.40993         5.30003         5.07360
| 51>    S       -8.39192         6.44904         5.93376
| 52>    C       -9.03831         5.15713         6.90001
| 53>    N      -10.00278         5.47815         7.84783
| 54>    O      -10.45542         4.57293         8.53133
| 55>    O      -10.32724         6.65532         7.93049
| 56>    C       -8.51776         3.92883         6.57309
| 57>    C       -7.59865         3.98460         5.51679
| 58>    C       -6.93971         2.84274         4.91513
| 59>    C       -6.52845         1.77596         5.61987
| 60>    C       -5.72540         0.67639         5.17268
| 61>    S       -4.98212        -0.25690         6.45280
| 62>    C       -5.31205         0.22851         3.93266
| 63>    C       -5.81724         0.74300         2.62050
| 64>    C       -7.31457         0.46225         2.42948
| 65>    N       -7.54303        -0.97359         2.39473
| 66>    C       -4.37705        -0.84194         4.02499
| 67>    C       -3.70847        -1.52502         2.87418
| 68>    C       -4.58438        -2.61998         2.24840
| 69>    N       -3.80613        -3.33852         1.24797
| 70>    C       -4.11609        -1.19484         5.31533
| 71>    H        5.01551        -7.82045        -1.33529
| 72>    H        6.46160        -8.80309         0.60157
| 73>    H        6.19277        -8.24423         2.25642
| 74>    H        7.36905        -6.09086         1.67672
| 75>    H        7.72233        -6.76038         0.07348
| 76>    H        8.89967        -8.54476         1.26609
| 77>    H        9.49557        -7.09566         1.74686
| 78>    H        4.36036        -5.05384         3.30563
| 79>    H        5.57030        -6.32946         3.29683
| 80>    H        3.81181        -8.04590         3.61406
| 81>    H        2.57044        -6.78230         3.65982
| 82>    H        3.73728        -5.91908         5.61957
| 83>    H        3.46192        -7.51837         5.86020
| 84>    H        2.55893        -4.59803         2.36085
| 85>    H       -1.34916        -2.22635         0.99429
| 86>    H        1.26020        -3.55126         3.52683
| 87>    H       -0.48633        -1.16868         2.73858
| 88>    H        0.58905        -2.09084         5.46881
| 89>    H       -0.33132        -0.54693         7.39098
| 90>    H       -1.85362         1.50185         7.71997
| 91>    H       -3.47722         3.20989         7.44144
| 92>    H       -5.19543         4.88533         6.54452
| 93>    H       -5.16019         5.23783         2.64710
| 94>    H       -6.80169         6.62051         3.66093
| 95>    H       -8.83411         3.02429         7.05949
| 96>    H       -6.73903         2.92577         3.85971
| 97>    H       -6.71640         1.77125         6.68696
| 98>    H       -5.28028         0.24949         1.81307
| 99>    H       -5.63303         1.81575         2.53729
|100>    H       -7.62864         0.87028         1.46447
|101>    H       -7.89109         0.96832         3.22035
|102>    H       -7.33742        -1.37695         3.30364
|103>    H       -8.51368        -1.17297         2.18037
|104>    H       -2.79038        -1.99657         3.22955
|105>    H       -3.44062        -0.79361         2.10878
|106>    H       -5.51032        -2.17468         1.85575
|107>    H       -4.85972        -3.33623         3.02951
|108>    H       -3.63274        -2.74559         0.43932
|109>    H       -4.33168        -4.13888         0.91318
|110>    H       -3.44543        -1.95706         5.66081
|111> *
|112>
|113>                          ****END OF INPUT****

CARTESIAN COORDINATES (ANGSTROEM)
---------------------------------
  C      4.622810   -7.250260   -0.517690
  S      3.230350   -6.273490   -0.782240
  C      5.085470   -7.191110    0.760110
  C      6.306680   -7.918940    1.222560
  C      7.548890   -7.021830    1.131590
  N      8.673770   -7.688970    1.762480
  C      4.307890   -6.324350    1.576900
  C      4.537700   -6.100920    3.039450
  C      3.629070   -7.003830    3.888400
  N      3.967620   -6.850670    5.290550
  C      3.263500   -5.765920    0.876230
  N      2.355890   -4.879560    1.408980
  C      1.268700   -4.301030    0.855530
  S      0.737240   -4.633050   -0.756190
  C     -0.574860   -3.504840   -0.539400
  N     -1.477560   -3.343180   -1.578770
  O     -2.401000   -2.555350   -1.415900
  O     -1.290860   -3.999870   -2.593500
  C     -0.580870   -2.912410    0.695190
  C      0.464750   -3.354160    1.521910
  C      0.652270   -2.931950    2.878120
  C      0.067290   -1.822400    3.397900
  C      0.087700   -1.450660    4.754780
  C     -0.570000   -0.347670    5.233440
  C     -0.768060    0.021050    6.588220
  C     -1.573840    1.102540    6.761860
  C     -2.034120    1.675650    5.552860
  S     -1.387310    0.801850    4.182490
  C     -2.913900    2.722140    5.392570
  C     -3.637600    3.407530    6.397050
  C     -4.558420    4.283570    5.921890
  C     -4.583120    4.391250    4.502380
  S     -3.363280    3.323590    3.809000
  C     -5.397920    5.127460    3.695860
  N     -6.565100    5.740630    4.099960
  C     -7.409930    5.300030    5.073600
  S     -8.391920    6.449040    5.933760
  C     -9.038310    5.157130    6.900010
  N    -10.002780    5.478150    7.847830
  O    -10.455420    4.572930    8.531330
  O    -10.327240    6.655320    7.930490
  C     -8.517760    3.928830    6.573090
  C     -7.598650    3.984600    5.516790
  C     -6.939710    2.842740    4.915130
  C     -6.528450    1.775960    5.619870
  C     -5.725400    0.676390    5.172680
  S     -4.982120   -0.256900    6.452800
  C     -5.312050    0.228510    3.932660
  C     -5.817240    0.743000    2.620500
  C     -7.314570    0.462250    2.429480
  N     -7.543030   -0.973590    2.394730
  C     -4.377050   -0.841940    4.024990
  C     -3.708470   -1.525020    2.874180
  C     -4.584380   -2.619980    2.248400
  N     -3.806130   -3.338520    1.247970
  C     -4.116090   -1.194840    5.315330
  H      5.015510   -7.820450   -1.335290
  H      6.461600   -8.803090    0.601570
  H      6.192770   -8.244230    2.256420
  H      7.369050   -6.090860    1.676720
  H      7.722330   -6.760380    0.073480
  H      8.899670   -8.544760    1.266090
  H      9.495570   -7.095660    1.746860
  H      4.360360   -5.053840    3.305630
  H      5.570300   -6.329460    3.296830
  H      3.811810   -8.045900    3.614060
  H      2.570440   -6.782300    3.659820
  H      3.737280   -5.919080    5.619570
  H      3.461920   -7.518370    5.860200
  H      2.558930   -4.598030    2.360850
  H     -1.349160   -2.226350    0.994290
  H      1.260200   -3.551260    3.526830
  H     -0.486330   -1.168680    2.738580
  H      0.589050   -2.090840    5.468810
  H     -0.331320   -0.546930    7.390980
  H     -1.853620    1.501850    7.719970
  H     -3.477220    3.209890    7.441440
  H     -5.195430    4.885330    6.544520
  H     -5.160190    5.237830    2.647100
  H     -6.801690    6.620510    3.660930
  H     -8.834110    3.024290    7.059490
  H     -6.739030    2.925770    3.859710
  H     -6.716400    1.771250    6.686960
  H     -5.280280    0.249490    1.813070
  H     -5.633030    1.815750    2.537290
  H     -7.628640    0.870280    1.464470
  H     -7.891090    0.968320    3.220350
  H     -7.337420   -1.376950    3.303640
  H     -8.513680   -1.172970    2.180370
  H     -2.790380   -1.996570    3.229550
  H     -3.440620   -0.793610    2.108780
  H     -5.510320   -2.174680    1.855750
  H     -4.859720   -3.336230    3.029510
  H     -3.632740   -2.745590    0.439320
  H     -4.331680   -4.138880    0.913180
  H     -3.445430   -1.957060    5.660810

 Total Charge           Charge          ....    0
 Multiplicity           Mult            ....    1
 Number of Electrons    NEL             ....  452
 Basis Dimension        Dim             .... 1008

ORBITAL ENERGIES
----------------

  NO   OCC          E(Eh)            E(eV)
   0   2.0000     -88.974543     -2421.1204
   1   2.0000     -88.971175     -2421.0288
   2   2.0000     -88.956649     -2420.6335
   3   2.0000     -88.944332     -2420.2983
   4   2.0000     -88.941999     -2420.2348
   5   2.0000     -88.939609     -2420.1698
   6   2.0000     -19.223741      -523.1046
   7   2.0000     -19.223086      -523.0868
   8   2.0000     -19.220062      -523.0045
   9   2.0000     -19.219016      -522.9760
  10   2.0000     -14.635518      -398.2527
  11   2.0000     -14.631294      -398.1378
  12   2.0000     -14.478817      -393.9886
  13   2.0000     -14.475578      -393.9005
  14   2.0000     -14.386348      -391.4724
  15   2.0000     -14.379224      -391.2786
  16   2.0000     -14.376071      -391.1928
  17   2.0000     -14.356608      -390.6632
  18   2.0000     -10.360624      -281.9269
  19   2.0000     -10.358632      -281.8727
  20   2.0000     -10.337402      -281.2950
  21   2.0000     -10.330145      -281.0975
  22   2.0000     -10.325162      -280.9619
  23   2.0000     -10.319981      -280.8209
  24   2.0000     -10.308713      -280.5143
  25   2.0000     -10.308149      -280.4990
  26   2.0000     -10.304532      -280.4006
  27   2.0000     -10.304288      -280.3939
  28   2.0000     -10.299390      -280.2607
  29   2.0000     -10.294283      -280.1217
  30   2.0000     -10.290464      -280.0177
  31   2.0000     -10.288619      -279.9676
  32   2.0000     -10.287696      -279.9424
  33   2.0000     -10.287001      -279.9235
  34   2.0000     -10.285979      -279.8957
  35   2.0000     -10.285623      -279.8860
  36   2.0000     -10.285446      -279.8812
  37   2.0000     -10.283601      -279.8310
  38   2.0000     -10.282548      -279.8024
  39   2.0000     -10.282294      -279.7955
  40   2.0000     -10.280951      -279.7589
  41   2.0000     -10.280616      -279.7498
  42   2.0000     -10.280408      -279.7441
  43   2.0000     -10.276363      -279.6341
  44   2.0000     -10.276052      -279.6256
  45   2.0000     -10.276040      -279.6253
  46   2.0000     -10.275392      -279.6076
  47   2.0000     -10.274779      -279.5909
  48   2.0000     -10.273439      -279.5545
  49   2.0000     -10.270598      -279.4772
  50   2.0000     -10.267357      -279.3890
  51   2.0000     -10.265714      -279.3443
  52   2.0000     -10.261915      -279.2409
  53   2.0000     -10.259658      -279.1795
  54   2.0000     -10.258607      -279.1509
  55   2.0000     -10.249399      -278.9003
  56   2.0000      -8.070245      -219.6025
  57   2.0000      -8.066267      -219.4943
  58   2.0000      -8.052444      -219.1182
  59   2.0000      -8.040053      -218.7810
  60   2.0000      -8.037596      -218.7141
  61   2.0000      -8.035231      -218.6498
  62   2.0000      -6.039936      -164.3550
  63   2.0000      -6.036042      -164.2491
  64   2.0000      -6.035559      -164.2359
  65   2.0000      -6.031634      -164.1291
  66   2.0000      -6.031590      -164.1279
  67   2.0000      -6.027566      -164.0184
  68   2.0000      -6.022067      -163.8688
  69   2.0000      -6.017506      -163.7447
  70   2.0000      -6.014244      -163.6559
  71   2.0000      -6.009993      -163.5402
  72   2.0000      -6.006768      -163.4525
  73   2.0000      -6.005993      -163.4314
  74   2.0000      -6.005041      -163.4055
  75   2.0000      -6.002712      -163.3421
  76   2.0000      -6.001133      -163.2991
  77   2.0000      -6.000643      -163.2858
  78   2.0000      -5.999983      -163.2679
  79   2.0000      -5.995998      -163.1594
  80   2.0000      -1.302579       -35.4450
  81   2.0000      -1.297886       -35.3173
  82   2.0000      -1.121308       -30.5123
  83   2.0000      -1.116288       -30.3757
  84   2.0000      -1.085935       -29.5498
  85   2.0000      -1.077815       -29.3288
  86   2.0000      -0.994818       -27.0704
  87   2.0000      -0.994084       -27.0504
  88   2.0000      -0.990230       -26.9455
  89   2.0000      -0.974788       -26.5253
  90   2.0000      -0.972690       -26.4683
  91   2.0000      -0.969086       -26.3702
  92   2.0000      -0.966000       -26.2862
  93   2.0000      -0.958348       -26.0780
  94   2.0000      -0.954329       -25.9686
  95   2.0000      -0.936979       -25.4965
  96   2.0000      -0.913763       -24.8647
  97   2.0000      -0.906675       -24.6719
  98   2.0000      -0.890454       -24.2305
  99   2.0000      -0.882334       -24.0095
 100   2.0000      -0.876426       -23.8488
 101   2.0000      -0.868252       -23.6263
 102   2.0000      -0.859456       -23.3870
 103   2.0000      -0.855436       -23.2776
 104   2.0000      -0.849805       -23.1244
 105   2.0000      -0.848137       -23.0790
 106   2.0000      -0.843828       -22.9617
 107   2.0000      -0.824199       -22.4276
 108   2.0000      -0.820523       -22.3276
 109   2.0000      -0.813293       -22.1308
 110   2.0000      -0.800394       -21.7798
 111   2.0000      -0.789968       -21.4961
 112   2.0000      -0.778700       -21.1895
 113   2.0000      -0.777889       -21.1674
 114   2.0000      -0.767360       -20.8809
 115   2.0000      -0.759018       -20.6539
 116   2.0000      -0.748257       -20.3611
 117   2.0000      -0.730735       -19.8843
 118   2.0000      -0.709013       -19.2932
 119   2.0000      -0.702300       -19.1106
 120   2.0000      -0.697823       -18.9887
 121   2.0000      -0.689613       -18.7653
 122   2.0000      -0.681278       -18.5385
 123   2.0000      -0.679376       -18.4868
 124   2.0000      -0.672049       -18.2874
 125   2.0000      -0.668749       -18.1976
 126   2.0000      -0.664270       -18.0757
 127   2.0000      -0.655783       -17.8448
 128   2.0000      -0.646706       -17.5978
 129   2.0000      -0.638618       -17.3777
 130   2.0000      -0.634426       -17.2636
 131   2.0000      -0.625864       -17.0306
 132   2.0000      -0.621341       -16.9076
 133   2.0000      -0.617345       -16.7988
 134   2.0000      -0.616689       -16.7810
 135   2.0000      -0.615229       -16.7412
 136   2.0000      -0.613889       -16.7048
 137   2.0000      -0.611930       -16.6515
 138   2.0000      -0.609724       -16.5914
 139   2.0000      -0.599030       -16.3004
 140   2.0000      -0.595914       -16.2157
 141   2.0000      -0.588393       -16.0110
 142   2.0000      -0.587660       -15.9910
 143   2.0000      -0.577234       -15.7073
 144   2.0000      -0.570107       -15.5134
 145   2.0000      -0.568332       -15.4651
 146   2.0000      -0.565239       -15.3809
 147   2.0000      -0.561054       -15.2671
 148   2.0000      -0.558169       -15.1885
 149   2.0000      -0.556659       -15.1475
 150   2.0000      -0.553448       -15.0601
 151   2.0000      -0.552066       -15.0225
 152   2.0000      -0.549983       -14.9658
 153   2.0000      -0.545180       -14.8351
 154   2.0000      -0.540274       -14.7016
 155   2.0000      -0.536634       -14.6025
 156   2.0000      -0.533122       -14.5070
 157   2.0000      -0.530641       -14.4395
 158   2.0000      -0.528295       -14.3756
 159   2.0000      -0.517441       -14.0803
 160   2.0000      -0.514237       -13.9931
 161   2.0000      -0.511049       -13.9063
 162   2.0000      -0.507626       -13.8132
 163   2.0000      -0.504349       -13.7240
 164   2.0000      -0.503447       -13.6995
 165   2.0000      -0.499867       -13.6021
 166   2.0000      -0.497432       -13.5358
 167   2.0000      -0.495249       -13.4764
 168   2.0000      -0.489242       -13.3129
 169   2.0000      -0.485121       -13.2008
 170   2.0000      -0.483204       -13.1486
 171   2.0000      -0.475476       -12.9384
 172   2.0000      -0.473919       -12.8960
 173   2.0000      -0.472260       -12.8509
 174   2.0000      -0.470984       -12.8161
 175   2.0000      -0.467629       -12.7248
 176   2.0000      -0.466376       -12.6907
 177   2.0000      -0.463049       -12.6002
 178   2.0000      -0.458624       -12.4798
 179   2.0000      -0.456201       -12.4139
 180   2.0000      -0.454504       -12.3677
 181   2.0000      -0.448803       -12.2126
 182   2.0000      -0.448160       -12.1950
 183   2.0000      -0.443986       -12.0815
 184   2.0000      -0.442885       -12.0515
 185   2.0000      -0.438644       -11.9361
 186   2.0000      -0.436160       -11.8685
 187   2.0000      -0.435681       -11.8555
 188   2.0000      -0.433050       -11.7839
 189   2.0000      -0.427171       -11.6239
 190   2.0000      -0.424136       -11.5413
 191   2.0000      -0.423144       -11.5143
 192   2.0000      -0.421620       -11.4729
 193   2.0000      -0.418058       -11.3759
 194   2.0000      -0.413073       -11.2403
 195   2.0000      -0.411031       -11.1847
 196   2.0000      -0.409897       -11.1539
 197   2.0000      -0.402570       -10.9545
 198   2.0000      -0.400431       -10.8963
 199   2.0000      -0.397965       -10.8292
 200   2.0000      -0.395310       -10.7569
 201   2.0000      -0.393026       -10.6948
 202   2.0000      -0.383036       -10.4229
 203   2.0000      -0.372748       -10.1430
 204   2.0000      -0.368886       -10.0379
 205   2.0000      -0.366913        -9.9842
 206   2.0000      -0.363039        -9.8788
 207   2.0000      -0.360268        -9.8034
 208   2.0000      -0.352200        -9.5838
 209   2.0000      -0.348499        -9.4831
 210   2.0000      -0.341274        -9.2865
 211   2.0000      -0.336986        -9.1699
 212   2.0000      -0.333579        -9.0772
 213   2.0000      -0.324885        -8.8406
 214   2.0000      -0.321245        -8.7415
 215   2.0000      -0.313278        -8.5247
 216   2.0000      -0.308145        -8.3850
 217   2.0000      -0.305987        -8.3263
 218   2.0000      -0.302908        -8.2425
 219   2.0000      -0.300301        -8.1716
 220   2.0000      -0.291530        -7.9329
 221   2.0000      -0.279331        -7.6010
 222   2.0000      -0.273250        -7.4355
 223   2.0000      -0.256024        -6.9668
 224   2.0000      -0.245265        -6.6740
 225   2.0000      -0.204978        -5.5777
 226   0.0000      -0.072932        -1.9846
 227   0.0000      -0.042730        -1.1627
 228   0.0000      -0.039697        -1.0802
 229   0.0000      -0.019558        -0.5322
 230   0.0000      -0.001742        -0.0474

MULLIKEN ATOMIC CHARGES
-----------------------
   0 C :   -0.127895
   1 S :    0.093721
   2 C :   -0.048329
   3 C :    0.103275
   4 C :    0.098248
   5 N :   -0.221013
   6 C :   -0.017329
   7 C :    0.065403
   8 C :    0.098583
   9 N :   -0.215393
  10 C :   -0.145340
  11 N :   -0.010184
  12 C :   -0.101673
  13 S :    0.147071
  14 C :   -0.023178
  15 N :    0.287579
  16 O :   -0.277846
  17 O :   -0.277844
  18 C :    0.063186
  19 C :    0.120471
  20 C :   -0.058475
  21 C :    0.015785
  22 C :   -0.021978
  23 C :   -0.019441
  24 C :    0.025966
  25 C :    0.042213
  26 C :   -0.046273
  27 S :    0.064122
  28 C :   -0.043825
  29 C :    0.019498
  30 C :    0.069496
  31 C :   -0.089006
  32 S :    0.081522
  33 C :    0.021855
  34 N :   -0.035049
  35 C :   -0.136018
  36 S :    0.159372
  37 C :   -0.021168
  38 N :    0.282071
  39 O :   -0.264052
  40 O :   -0.277477
  41 C :   -0.000895
  42 C :    0.056326
  43 C :    0.018908
  44 C :    0.058357
  45 C :   -0.180167
  46 S :    0.091105
  47 C :   -0.061566
  48 C :    0.130774
  49 C :    0.079233
  50 N :   -0.215182
  51 C :   -0.020467
  52 C :    0.074073
  53 C :    0.078015
  54 N :   -0.240231
  55 C :   -0.126543
  56 H :    0.009066
  57 H :   -0.008097
  58 H :    0.008365
  59 H :   -0.001391
  60 H :   -0.014746
  61 H :    0.089833
  62 H :    0.091442
  63 H :   -0.010101
  64 H :    0.013694
  65 H :    0.006824
  66 H :   -0.016875
  67 H :    0.086769
  68 H :    0.095142
  69 H :    0.134791
  70 H :   -0.018812
  71 H :   -0.034472
  72 H :    0.004626
  73 H :   -0.027656
  74 H :   -0.019392
  75 H :   -0.017369
  76 H :   -0.014637
  77 H :    0.001830
  78 H :    0.006156
  79 H :    0.141957
  80 H :    0.006259
  81 H :    0.002617
  82 H :   -0.024037
  83 H :   -0.004528
  84 H :    0.004514
  85 H :   -0.001827
  86 H :    0.000827
  87 H :    0.107083
  88 H :    0.093234
  89 H :   -0.005248
  90 H :    0.007813
  91 H :    0.005291
  92 H :   -0.023084
  93 H :    0.103088
  94 H :    0.087377
  95 H :    0.011284
Sum of atomic charges:   -0.0000000

LOEWDIN ATOMIC CHARGES
----------------------
   0 C :   -0.211750
   1 S :    0.414776
   2 C :   -0.048104
   3 C :   -0.029554
   4 C :    0.023084
   5 N :   -0.122450
   6 C :   -0.096712
   7 C :   -0.036034
   8 C :    0.020447
   9 N :   -0.120004
  10 C :   -0.143775
  11 N :    0.030692
  12 C :   -0.097801
  13 S :    0.447017
  14 C :   -0.224109
  15 N :    0.279867
  16 O :   -0.239145
  17 O :   -0.242308
  18 C :    0.021386
  19 C :   -0.111945
  20 C :   -0.038718
  21 C :   -0.029618
  22 C :   -0.068789
  23 C :   -0.140494
  24 C :   -0.042998
  25 C :   -0.027461
  26 C :   -0.182099
  27 S :    0.379689
  28 C :   -0.171928
  29 C :   -0.026274
  30 C :   -0.030799
  31 C :   -0.175400
  32 S :    0.371662
  33 C :   -0.027592
  34 N :    0.022707
  35 C :   -0.115354
  36 S :    0.438978
  37 C :   -0.220305
  38 N :    0.274430
  39 O :   -0.229564
  40 O :   -0.244014
  41 C :    0.001644
  42 C :   -0.101375
  43 C :   -0.033523
  44 C :   -0.030439
  45 C :   -0.184707
  46 S :    0.423535
  47 C :   -0.050686
  48 C :   -0.033007
  49 C :    0.021317
  50 N :   -0.107184
  51 C :   -0.055215
  52 C :   -0.038357
  53 C :    0.014913
  54 N :   -0.128342
  55 C :   -0.191289
  56 H :    0.019947
  57 H :    0.026348
  58 H :    0.029257
  59 H :    0.016592
  60 H :    0.000228
  61 H :    0.051202
  62 H :    0.054887
  63 H :    0.016344
  64 H :    0.036838
  65 H :    0.023019
  66 H :   -0.005186
  67 H :    0.049636
  68 H :    0.056493
  69 H :    0.092773
  70 H :    0.039260
  71 H :    0.016825
  72 H :    0.021731
  73 H :    0.027728
  74 H :    0.030921
  75 H :    0.030429
  76 H :    0.032037
  77 H :    0.034073
  78 H :    0.024255
  79 H :    0.090801
  80 H :    0.044166
  81 H :    0.025769
  82 H :    0.022802
  83 H :    0.032568
  84 H :    0.019262
  85 H :    0.017794
  86 H :    0.002204
  87 H :    0.054248
  88 H :    0.056157
  89 H :    0.026876
  90 H :    0.018648
  91 H :   -0.001278
  92 H :    0.011104
  93 H :    0.042864
  94 H :    0.053901
  95 H :    0.019554

  Mayer bond orders larger than 0.100000
B(  0-C ,  1-S ) :   1.1040 B(  0-C ,  2-C ) :   1.5930 B(  0-C , 56-H ) :   0.9708
B(  1-S , 10-C ) :   1.1415 B(  2-C ,  3-C ) :   1.0529 B(  2-C ,  6-C ) :   1.3016
B(  3-C ,  4-C ) :   1.0893 B(  3-C , 57-H ) :   0.9148 B(  3-C , 58-H ) :   0.9106
B(  4-C ,  5-N ) :   1.0850 B(  4-C , 59-H ) :   0.9442 B(  4-C , 60-H ) :   0.9386
B(  5-N , 61-H ) :   0.9720 B(  5-N , 62-H ) :   0.9699 B(  6-C ,  7-C ) :   1.0546
B(  6-C , 10-C ) :   1.4972 B(  7-C ,  8-C ) :   1.0870 B(  7-C , 63-H ) :   0.9132
B(  7-C , 64-H ) :   0.8935 B(  8-C ,  9-N ) :   1.0930 B(  8-C , 65-H ) :   0.9396
B(  8-C , 66-H ) :   0.9422 B(  9-N , 67-H ) :   0.9726 B(  9-N , 68-H ) :   0.9696
B( 10-C , 11-N ) :   1.1140 B( 11-N , 12-C ) :   1.2471 B( 11-N , 69-H ) :   0.8901
B( 12-C , 13-S ) :   1.1390 B( 12-C , 19-C ) :   1.3122 B( 13-S , 14-C ) :   1.0484
B( 14-C , 15-N ) :   1.0153 B( 14-C , 18-C ) :   1.4546 B( 15-N , 16-O ) :   1.4799
B( 15-N , 17-O ) :   1.5006 B( 16-O , 17-O ) :   0.2336 B( 18-C , 19-C ) :   1.2801
B( 18-C , 70-H ) :   0.9859 B( 19-C , 20-C ) :   1.0548 B( 20-C , 21-C ) :   1.6899
B( 20-C , 71-H ) :   0.9680 B( 21-C , 22-C ) :   1.1403 B( 21-C , 72-H ) :   0.9675
B( 22-C , 23-C ) :   1.5702 B( 22-C , 73-H ) :   0.9841 B( 23-C , 24-C ) :   1.1315
B( 23-C , 27-S ) :   1.0380 B( 24-C , 25-C ) :   1.5955 B( 24-C , 74-H ) :   0.9996
B( 25-C , 26-C ) :   1.1785 B( 25-C , 75-H ) :   0.9944 B( 26-C , 27-S ) :   1.0417
B( 26-C , 28-C ) :   1.5339 B( 28-C , 29-C ) :   1.1711 B( 28-C , 32-S ) :   1.0460
B( 29-C , 30-C ) :   1.6276 B( 29-C , 76-H ) :   0.9955 B( 30-C , 31-C ) :   1.1108
B( 30-C , 77-H ) :   0.9879 B( 31-C , 32-S ) :   1.0241 B( 31-C , 33-C ) :   1.6493
B( 33-C , 34-N ) :   1.1225 B( 33-C , 78-H ) :   0.9551 B( 34-N , 35-C ) :   1.1914
B( 34-N , 79-H ) :   0.9128 B( 35-C , 36-S ) :   1.1311 B( 35-C , 42-C ) :   1.3683
B( 36-S , 37-C ) :   1.0741 B( 37-C , 38-N ) :   0.9911 B( 37-C , 41-C ) :   1.4441
B( 38-N , 39-O ) :   1.5223 B( 38-N , 40-O ) :   1.4981 B( 39-O , 40-O ) :   0.2496
B( 41-C , 42-C ) :   1.2696 B( 41-C , 80-H ) :   1.0080 B( 42-C , 43-C ) :   1.0620
B( 43-C , 44-C ) :   1.7560 B( 43-C , 81-H ) :   0.9397 B( 44-C , 45-C ) :   1.1213
B( 44-C , 82-H ) :   0.9421 B( 45-C , 46-S ) :   1.1330 B( 45-C , 47-C ) :   1.4853
B( 46-S , 55-C ) :   1.1464 B( 47-C , 48-C ) :   1.0906 B( 47-C , 51-C ) :   1.2923
B( 48-C , 49-C ) :   1.0752 B( 48-C , 83-H ) :   0.8981 B( 48-C , 84-H ) :   0.9044
B( 49-C , 50-N ) :   1.0866 B( 49-C , 85-H ) :   0.9446 B( 49-C , 86-H ) :   0.9447
B( 50-N , 87-H ) :   0.9619 B( 50-N , 88-H ) :   0.9677 B( 50-N , 91-H ) :   0.1020
B( 51-C , 52-C ) :   1.0341 B( 51-C , 55-C ) :   1.5636 B( 52-C , 53-C ) :   1.0819
B( 52-C , 89-H ) :   0.9087 B( 52-C , 90-H ) :   0.9148 B( 53-C , 54-N ) :   1.0960
B( 53-C , 91-H ) :   0.9302 B( 53-C , 92-H ) :   0.9351 B( 54-N , 93-H ) :   0.9420
B( 54-N , 94-H ) :   0.9698 B( 55-C , 95-H ) :   0.9647

-----------------------------------------------------------------------------
         ABSORPTION SPECTRUM VIA TRANSITION ELECTRIC DIPOLE MOMENTS
-----------------------------------------------------------------------------
State   Energy  Wavelength   fosc         T2         TX        TY        TZ
        (cm-1)    (nm)                  (au**2)     (au)      (au)      (au)
-----------------------------------------------------------------------------
   0   14029.5    712.8   0.998293175  23.42569  -3.35161   3.21980   1.35103
   1   21230.7    471.0   0.057686475   0.89451  -0.88849   0.28699   0.15080
   2   21683.4    461.2   0.167108069   2.53714   0.76278   0.89310   1.07595
   3   22334.0    447.7   0.266528820   3.92873  -0.63359   1.87448  -0.11668
   4   23039.6    434.0   0.403793766   5.76980   1.28862  -1.83534  -0.86069
   5   23933.4    417.8   0.079482312   1.09330   0.67591  -0.38555   0.69843
   6   27767.6    360.1   0.063692919   0.75514   0.17051   0.69903   0.48726
   7   27962.2    357.6   0.079231470   0.93283  -0.13844  -0.31300   0.90316
   8   28616.1    349.5   0.322547867   3.71073   1.65019  -0.65118   0.75072
   9   29218.1    342.3   0.044770233   0.50444  -0.43116   0.38952   0.40843
  10   29298.3    341.3   0.114551861   1.28717  -0.81597   0.39071  -0.68462
  11   30128.4    331.9   0.057794297   0.63152  -0.30526   0.72674  -0.10089
  12   31154.1    321.0   0.036908246   0.39002  -0.57066   0.25159  -0.03272
  13   31842.7    314.0   0.005478029   0.05664  -0.00988  -0.14329  -0.18975
  14   32578.5    307.0   0.420622222   4.25047   1.30646  -1.11582  -1.13956
  15   33233.8    300.9   0.117765567   1.16658  -0.70672   0.63146   0.51806
  16   33695.1    296.8   0.102197391   0.99850   0.25319  -0.92109   0.29326
  17   33781.9    296.0   0.003872759   0.03774  -0.00083   0.16653  -0.10004
  18   34470.9    290.1   0.022649432   0.21631   0.05294  -0.34236   0.31033
  19   34870.2    286.8   0.036480237   0.34441  -0.02974   0.48739   0.32555
  20   35167.2    284.4   0.062877651   0.58862   0.35033  -0.47272  -0.49236
  21   35698.4    280.1   0.126621746   1.16771  -0.07597   0.05184  -1.07669
  22   36028.8    277.6   0.069496017   0.63502  -0.66535   0.43763   0.02829
  23   36264.6    275.8   0.085266253   0.77405  -0.09708   0.25054   0.83777
  24   36567.9    273.5   0.061646493   0.55499   0.18388  -0.40805  -0.59555
  25   36858.2    271.3   0.018880365   0.16864   0.02667   0.05971  -0.40541
  26   37201.6    268.8   0.156889795   1.38838   0.50288  -0.95339   0.47595
  27   37494.3    266.7   0.044534404   0.39103  -0.12968  -0.26695  -0.55040
  28   37735.5    265.0   0.147304664   1.28512   0.53721  -0.64808  -0.75929
  29   38440.7    260.1   0.072029770   0.61687  -0.33848   0.67722  -0.20899
  30   39038.4    256.2   0.041024912   0.34596   0.36702  -0.25731   0.38086
  31   39146.6    255.4   0.026809266   0.22546  -0.16171   0.06465  -0.44173
  32   39247.3    254.8   0.103406817   0.86739   0.58029  -0.70997  -0.16309
  33   39581.3    252.6   0.080761679   0.67172  -0.53598   0.61510  -0.07809
  34   39806.7    251.2   0.012658511   0.10469  -0.08432   0.12239  -0.28740

FINAL SINGLE POINT ENERGY     -4596.382638523156

DIPOLE MOMENT
-------------
                                X             Y             Z
Electronic contribution:    -46.08409      58.51091       3.58719
Nuclear contribution   :     48.78187     -59.26645      -3.19209
                        -----------------------------------------
Total Dipole Moment    :      2.69778      -0.75554       0.39510
                        -----------------------------------------
Magnitude (a.u.)       :      2.82930
Magnitude (Debye)      :      7.19152

Rotational constants in cm-1:     0.003206     0.000442     0.000418
Rotational constants in MHz :    96.098616    13.241511    12.526611

                             ****ORCA TERMINATED NORMALLY****
TOTAL RUN TIME: 0 days 0 hours 8 minutes 25 seconds 147 msec
