                         Program Version 4.2.0 -  RELEASE  -
|  1> # ORCA input file
|  2> # SCF done       -188.604850956476          0.000534155256
|  3> ! CAM-B3LYP def2-SVP def2/J RIJCOSX Grid4 TightSCF
|  4> %maxcore 5000
|  5> %tddft
|  6>     Mode sTDDFT
|  7>     Ethresh 5.0
|  8>     maxcore 5000
|  9> end
| 10>
| 11> %pal
| 12>   nprocs 6
| 13>   end
| 14> * xyz 0 1
| 15>    C       -3.92254         0.42480         3.73994
| 16>    S       -3.52096         0.95632         2.16795
| 17>    C       -3.76175        -0.92058         3.90801
| 18>    C       -4.06795        -1.60744         5.20152
| 19>    C       -5.46699        -2.23619         5.17122
| 20>    N       -5.76484        -2.82766         6.46540
| 21>    C       -3.33615        -1.56630         2.71688
| 22>    C       -2.97947        -3.01687         2.64006
| 23>    C       -1.48162        -3.21641         2.38029
| 24>    N       -1.20343        -4.63284         2.20365
| 25>    C       -3.17593        -0.67925         1.67152
| 26>    C       -2.77065        -0.90438         0.30857
| 27>    C       -1.91731         0.01084        -0.34257
| 28>    C       -1.50355        -0.15255        -1.71324
| 29>    N       -0.72378         0.76517        -2.28678
| 30>    C       -0.31826         1.80521        -1.58684
| 31>    C       -0.67286         1.93301        -0.20716
| 32>    N       -1.44703         1.05056         0.37032
| 33>    C       -0.17053         3.01673         0.55595
| 34>    N        0.25717         3.90634         1.13747
| 35>    C        0.48697         2.78264        -2.21414
| 36>    N        1.14312         3.58935        -2.69764
| 37>    C       -1.91242        -1.27460        -2.50215
| 38>    C       -2.78863        -2.17405        -1.84486
| 39>    C       -3.22002        -1.98392        -0.47770
| 40>    N       -4.09902        -2.91894        -0.10962
| 41>    S       -4.33056        -3.94629        -1.32249
| 42>    N       -3.34683        -3.24670        -2.38986
| 43>    C       -1.44886        -1.36654        -3.81956
| 44>    C       -1.66281        -2.29483        -4.81883
| 45>    C       -1.06489        -2.17202        -6.09824
| 46>    C       -1.37888        -3.16903        -6.97325
| 47>    C       -2.24407        -4.13342        -6.42149
| 48>    S       -2.64701        -3.73568        -4.76360
| 49>    C       -2.76467        -5.26054        -7.03720
| 50>    C       -2.53616        -5.71723        -8.35471
| 51>    C       -3.21574        -6.85070        -8.68217
| 52>    C       -4.02788        -7.36573        -7.63785
| 53>    S       -3.84768        -6.34289        -6.20585
| 54>    C       -4.82865        -8.47060        -7.56647
| 55>    C       -5.24425        -9.35660        -8.61124
| 56>    C       -5.70103       -10.63817        -8.24050
| 57>    C       -6.12022       -11.52615        -9.19698
| 58>    C       -6.16471       -11.13361       -10.54890
| 59>    C       -5.75052        -9.86246       -10.92781
| 60>    C       -5.28759        -8.99080        -9.96686
| 61>    C       -6.72705       -12.21082       -11.32528
| 62>    C       -7.03085       -13.27858       -10.46172
| 63>    C       -6.66448       -12.93216        -9.03128
| 64>    C       -5.58969       -13.93494        -8.56270
| 65>    C       -5.03802       -13.72231        -7.15896
| 66>    C       -7.89521       -12.85208        -8.10379
| 67>    C       -8.64223       -14.15700        -7.86085
| 68>    C       -7.53567       -14.44916       -10.97299
| 69>    C       -7.80746       -14.56284       -12.34640
| 70>    C       -7.51909       -13.47767       -13.18560
| 71>    C       -6.97290       -12.31399       -12.68860
| 72>    C       -8.37219       -15.80072       -12.82684
| 73>    C       -8.79711       -16.06281       -14.07686
| 74>    C       -9.36676       -17.30625       -14.48654
| 75>    S       -9.66477       -18.58404       -13.33696
| 76>    C       -9.76556       -17.67562       -15.75561
| 77>    C       -9.59812       -16.78773       -16.94812
| 78>    C       -8.13544       -16.71064       -17.40791
| 79>    N       -8.00629       -15.68251       -18.42659
| 80>    C      -10.32115       -18.98346       -15.79483
| 81>    C      -10.84221       -19.67312       -17.01608
| 82>    C       -9.71630       -20.34271       -17.81223
| 83>    N      -10.25184       -20.88607       -19.04891
| 84>    C      -10.32377       -19.57679       -14.56767
| 85>    H       -4.24011         1.13826         4.47467
| 86>    H       -4.03572        -0.88721         6.01936
| 87>    H       -3.32719        -2.38249         5.40951
| 88>    H       -5.52611        -2.95267         4.33429
| 89>    H       -6.20488        -1.45040         4.98769
| 90>    H       -5.13461        -3.60085         6.65340
| 91>    H       -6.71181        -3.18918         6.48161
| 92>    H       -3.53279        -3.49540         1.83153
| 93>    H       -3.24230        -3.51453         3.57333
| 94>    H       -0.90668        -2.75441         3.20220
| 95>    H       -1.20005        -2.70764         1.45419
| 96>    H       -1.41544        -5.13950         3.05753
| 97>    H       -0.22111        -4.77756         1.99693
| 98>    H       -0.79734        -0.54606        -4.09925
| 99>    H       -0.41852        -1.34386        -6.33062
|100>    H       -1.01283        -3.22541        -7.98283
|101>    H       -1.87048        -5.20108        -9.02337
|102>    H       -3.11265        -7.35437        -9.62560
|103>    H       -5.20282        -8.71678        -6.57998
|104>    H       -5.70561       -10.89829        -7.19272
|105>    H       -5.81009        -9.55358       -11.96082
|106>    H       -5.01894        -7.98625       -10.25166
|107>    H       -4.76307       -13.88582        -9.27702
|108>    H       -6.01374       -14.93818        -8.62975
|109>    H       -4.50035       -12.78104        -7.08898
|110>    H       -4.34093       -14.52381        -6.92244
|111>    H       -5.82951       -13.73501        -6.41441
|112>    H       -8.58735       -12.12735        -8.54158
|113>    H       -7.56825       -12.44679        -7.14473
|114>    H       -9.10258       -14.51902        -8.77541
|115>    H       -9.43341       -13.98659        -7.13330
|116>    H       -7.98294       -14.92579        -7.46677
|117>    H       -7.73112       -15.29946       -10.33691
|118>    H       -7.71160       -13.55612       -14.24431
|119>    H       -6.73705       -11.49455       -13.35134
|120>    H       -8.46803       -16.58548       -12.08506
|121>    H       -8.73115       -15.30959       -14.84804
|122>    H       -9.92858       -15.77365       -16.71402
|123>    H      -10.20715       -17.15485       -17.77476
|124>    H       -7.80757       -17.70899       -17.74593
|125>    H       -7.49872       -16.42558       -16.56564
|126>    H       -8.56103       -15.92509       -19.24145
|127>    H       -7.04099       -15.59667       -18.72518
|128>    H      -11.35464       -18.96668       -17.67027
|129>    H      -11.56372       -20.43698       -16.71722
|130>    H       -9.22656       -21.09672       -17.17153
|131>    H       -8.96383       -19.59658       -18.08038
|132>    H      -10.94534       -21.59937       -18.84715
|133>    H       -9.51555       -21.31835       -19.59608
|134>    H      -10.68813       -20.55242       -14.31205
|135> *
|136>
|137>                          ****END OF INPUT****

CARTESIAN COORDINATES (ANGSTROEM)
---------------------------------
  C     -3.922540    0.424800    3.739940
  S     -3.520960    0.956320    2.167950
  C     -3.761750   -0.920580    3.908010
  C     -4.067950   -1.607440    5.201520
  C     -5.466990   -2.236190    5.171220
  N     -5.764840   -2.827660    6.465400
  C     -3.336150   -1.566300    2.716880
  C     -2.979470   -3.016870    2.640060
  C     -1.481620   -3.216410    2.380290
  N     -1.203430   -4.632840    2.203650
  C     -3.175930   -0.679250    1.671520
  C     -2.770650   -0.904380    0.308570
  C     -1.917310    0.010840   -0.342570
  C     -1.503550   -0.152550   -1.713240
  N     -0.723780    0.765170   -2.286780
  C     -0.318260    1.805210   -1.586840
  C     -0.672860    1.933010   -0.207160
  N     -1.447030    1.050560    0.370320
  C     -0.170530    3.016730    0.555950
  N      0.257170    3.906340    1.137470
  C      0.486970    2.782640   -2.214140
  N      1.143120    3.589350   -2.697640
  C     -1.912420   -1.274600   -2.502150
  C     -2.788630   -2.174050   -1.844860
  C     -3.220020   -1.983920   -0.477700
  N     -4.099020   -2.918940   -0.109620
  S     -4.330560   -3.946290   -1.322490
  N     -3.346830   -3.246700   -2.389860
  C     -1.448860   -1.366540   -3.819560
  C     -1.662810   -2.294830   -4.818830
  C     -1.064890   -2.172020   -6.098240
  C     -1.378880   -3.169030   -6.973250
  C     -2.244070   -4.133420   -6.421490
  S     -2.647010   -3.735680   -4.763600
  C     -2.764670   -5.260540   -7.037200
  C     -2.536160   -5.717230   -8.354710
  C     -3.215740   -6.850700   -8.682170
  C     -4.027880   -7.365730   -7.637850
  S     -3.847680   -6.342890   -6.205850
  C     -4.828650   -8.470600   -7.566470
  C     -5.244250   -9.356600   -8.611240
  C     -5.701030  -10.638170   -8.240500
  C     -6.120220  -11.526150   -9.196980
  C     -6.164710  -11.133610  -10.548900
  C     -5.750520   -9.862460  -10.927810
  C     -5.287590   -8.990800   -9.966860
  C     -6.727050  -12.210820  -11.325280
  C     -7.030850  -13.278580  -10.461720
  C     -6.664480  -12.932160   -9.031280
  C     -5.589690  -13.934940   -8.562700
  C     -5.038020  -13.722310   -7.158960
  C     -7.895210  -12.852080   -8.103790
  C     -8.642230  -14.157000   -7.860850
  C     -7.535670  -14.449160  -10.972990
  C     -7.807460  -14.562840  -12.346400
  C     -7.519090  -13.477670  -13.185600
  C     -6.972900  -12.313990  -12.688600
  C     -8.372190  -15.800720  -12.826840
  C     -8.797110  -16.062810  -14.076860
  C     -9.366760  -17.306250  -14.486540
  S     -9.664770  -18.584040  -13.336960
  C     -9.765560  -17.675620  -15.755610
  C     -9.598120  -16.787730  -16.948120
  C     -8.135440  -16.710640  -17.407910
  N     -8.006290  -15.682510  -18.426590
  C    -10.321150  -18.983460  -15.794830
  C    -10.842210  -19.673120  -17.016080
  C     -9.716300  -20.342710  -17.812230
  N    -10.251840  -20.886070  -19.048910
  C    -10.323770  -19.576790  -14.567670
  H     -4.240110    1.138260    4.474670
  H     -4.035720   -0.887210    6.019360
  H     -3.327190   -2.382490    5.409510
  H     -5.526110   -2.952670    4.334290
  H     -6.204880   -1.450400    4.987690
  H     -5.134610   -3.600850    6.653400
  H     -6.711810   -3.189180    6.481610
  H     -3.532790   -3.495400    1.831530
  H     -3.242300   -3.514530    3.573330
  H     -0.906680   -2.754410    3.202200
  H     -1.200050   -2.707640    1.454190
  H     -1.415440   -5.139500    3.057530
  H     -0.221110   -4.777560    1.996930
  H     -0.797340   -0.546060   -4.099250
  H     -0.418520   -1.343860   -6.330620
  H     -1.012830   -3.225410   -7.982830
  H     -1.870480   -5.201080   -9.023370
  H     -3.112650   -7.354370   -9.625600
  H     -5.202820   -8.716780   -6.579980
  H     -5.705610  -10.898290   -7.192720
  H     -5.810090   -9.553580  -11.960820
  H     -5.018940   -7.986250  -10.251660
  H     -4.763070  -13.885820   -9.277020
  H     -6.013740  -14.938180   -8.629750
  H     -4.500350  -12.781040   -7.088980
  H     -4.340930  -14.523810   -6.922440
  H     -5.829510  -13.735010   -6.414410
  H     -8.587350  -12.127350   -8.541580
  H     -7.568250  -12.446790   -7.144730
  H     -9.102580  -14.519020   -8.775410
  H     -9.433410  -13.986590   -7.133300
  H     -7.982940  -14.925790   -7.466770
  H     -7.731120  -15.299460  -10.336910
  H     -7.711600  -13.556120  -14.244310
  H     -6.737050  -11.494550  -13.351340
  H     -8.468030  -16.585480  -12.085060
  H     -8.731150  -15.309590  -14.848040
  H     -9.928580  -15.773650  -16.714020
  H    -10.207150  -17.154850  -17.774760
  H     -7.807570  -17.708990  -17.745930
  H     -7.498720  -16.425580  -16.565640
  H     -8.561030  -15.925090  -19.241450
  H     -7.040990  -15.596670  -18.725180
  H    -11.354640  -18.966680  -17.670270
  H    -11.563720  -20.436980  -16.717220
  H     -9.226560  -21.096720  -17.171530
  H     -8.963830  -19.596580  -18.080380
  H    -10.945340  -21.599370  -18.847150
  H     -9.515550  -21.318350  -19.596080
  H    -10.688130  -20.552420  -14.312050

 Total Charge           Charge          ....    0
 Multiplicity           Mult            ....    1
 Number of Electrons    NEL             ....  530
 Basis Dimension        Dim             .... 1250

ORBITAL ENERGIES
----------------

  NO   OCC          E(Eh)            E(eV)
   0   2.0000     -89.025719     -2422.5130
   1   2.0000     -88.953569     -2420.5497
   2   2.0000     -88.950001     -2420.4526
   3   2.0000     -88.941057     -2420.2092
   4   2.0000     -88.927567     -2419.8421
   5   2.0000     -14.443126      -393.0174
   6   2.0000     -14.441690      -392.9784
   7   2.0000     -14.436446      -392.8357
   8   2.0000     -14.431758      -392.7081
   9   2.0000     -14.411800      -392.1650
  10   2.0000     -14.409054      -392.0903
  11   2.0000     -14.379883      -391.2965
  12   2.0000     -14.379607      -391.2890
  13   2.0000     -14.369229      -391.0066
  14   2.0000     -14.368361      -390.9830
  15   2.0000     -10.360772      -281.9309
  16   2.0000     -10.355180      -281.7788
  17   2.0000     -10.329537      -281.0810
  18   2.0000     -10.327596      -281.0282
  19   2.0000     -10.326614      -281.0015
  20   2.0000     -10.325410      -280.9687
  21   2.0000     -10.324394      -280.9410
  22   2.0000     -10.317929      -280.7651
  23   2.0000     -10.316505      -280.7264
  24   2.0000     -10.305528      -280.4277
  25   2.0000     -10.304462      -280.3987
  26   2.0000     -10.304124      -280.3895
  27   2.0000     -10.303681      -280.3774
  28   2.0000     -10.298640      -280.2403
  29   2.0000     -10.298109      -280.2258
  30   2.0000     -10.296433      -280.1802
  31   2.0000     -10.291406      -280.0434
  32   2.0000     -10.288372      -279.9608
  33   2.0000     -10.288259      -279.9578
  34   2.0000     -10.285715      -279.8885
  35   2.0000     -10.285152      -279.8732
  36   2.0000     -10.285128      -279.8726
  37   2.0000     -10.284248      -279.8486
  38   2.0000     -10.284074      -279.8439
  39   2.0000     -10.280186      -279.7381
  40   2.0000     -10.279923      -279.7309
  41   2.0000     -10.279421      -279.7173
  42   2.0000     -10.278197      -279.6840
  43   2.0000     -10.277982      -279.6781
  44   2.0000     -10.277778      -279.6726
  45   2.0000     -10.277512      -279.6653
  46   2.0000     -10.276248      -279.6309
  47   2.0000     -10.275158      -279.6013
  48   2.0000     -10.274412      -279.5810
  49   2.0000     -10.272555      -279.5304
  50   2.0000     -10.271894      -279.5124
  51   2.0000     -10.271061      -279.4898
  52   2.0000     -10.270746      -279.4812
  53   2.0000     -10.270259      -279.4680
  54   2.0000     -10.268710      -279.4258
  55   2.0000     -10.268566      -279.4219
  56   2.0000     -10.268136      -279.4102
  57   2.0000     -10.267729      -279.3991
  58   2.0000     -10.267418      -279.3907
  59   2.0000     -10.267382      -279.3897
  60   2.0000     -10.266160      -279.3564
  61   2.0000     -10.264358      -279.3074
  62   2.0000     -10.263449      -279.2826
  63   2.0000     -10.263286      -279.2782
  64   2.0000     -10.257329      -279.1161
  65   2.0000     -10.255941      -279.0783
  66   2.0000     -10.255074      -279.0547
  67   2.0000     -10.250044      -278.9179
  68   2.0000     -10.249691      -278.9083
  69   2.0000     -10.240897      -278.6690
  70   2.0000      -8.117076      -220.8769
  71   2.0000      -8.050061      -219.0533
  72   2.0000      -8.044277      -218.8959
  73   2.0000      -8.037025      -218.6986
  74   2.0000      -8.022894      -218.3140
  75   2.0000      -6.088251      -165.6697
  76   2.0000      -6.080630      -165.4623
  77   2.0000      -6.079509      -165.4318
  78   2.0000      -6.019759      -163.8060
  79   2.0000      -6.015729      -163.6963
  80   2.0000      -6.014037      -163.6503
  81   2.0000      -6.010994      -163.5675
  82   2.0000      -6.009643      -163.5307
  83   2.0000      -6.006188      -163.4367
  84   2.0000      -6.005529      -163.4188
  85   2.0000      -6.002149      -163.3268
  86   2.0000      -5.999296      -163.2492
  87   2.0000      -5.992169      -163.0552
  88   2.0000      -5.987789      -162.9360
  89   2.0000      -5.985315      -162.8687
  90   2.0000      -1.124818       -30.6078
  91   2.0000      -1.099187       -29.9104
  92   2.0000      -1.026258       -27.9259
  93   2.0000      -1.002361       -27.2756
  94   2.0000      -0.995224       -27.0814
  95   2.0000      -0.990473       -26.9521
  96   2.0000      -0.986496       -26.8439
  97   2.0000      -0.982874       -26.7454
  98   2.0000      -0.976865       -26.5818
  99   2.0000      -0.976044       -26.5595
 100   2.0000      -0.966133       -26.2898
 101   2.0000      -0.960305       -26.1312
 102   2.0000      -0.958025       -26.0692
 103   2.0000      -0.952527       -25.9196
 104   2.0000      -0.949353       -25.8332
 105   2.0000      -0.948120       -25.7997
 106   2.0000      -0.943300       -25.6685
 107   2.0000      -0.923828       -25.1386
 108   2.0000      -0.900650       -24.5079
 109   2.0000      -0.893926       -24.3250
 110   2.0000      -0.887969       -24.1629
 111   2.0000      -0.884779       -24.0760
 112   2.0000      -0.869195       -23.6520
 113   2.0000      -0.861675       -23.4474
 114   2.0000      -0.856847       -23.3160
 115   2.0000      -0.851004       -23.1570
 116   2.0000      -0.846326       -23.0297
 117   2.0000      -0.842374       -22.9222
 118   2.0000      -0.840276       -22.8651
 119   2.0000      -0.837732       -22.7958
 120   2.0000      -0.833549       -22.6820
 121   2.0000      -0.831099       -22.6153
 122   2.0000      -0.824702       -22.4413
 123   2.0000      -0.816625       -22.2215
 124   2.0000      -0.807555       -21.9747
 125   2.0000      -0.786494       -21.4016
 126   2.0000      -0.780841       -21.2478
 127   2.0000      -0.772561       -21.0224
 128   2.0000      -0.770877       -20.9766
 129   2.0000      -0.766396       -20.8547
 130   2.0000      -0.755318       -20.5533
 131   2.0000      -0.753517       -20.5042
 132   2.0000      -0.734873       -19.9969
 133   2.0000      -0.721118       -19.6226
 134   2.0000      -0.717783       -19.5319
 135   2.0000      -0.710694       -19.3390
 136   2.0000      -0.708021       -19.2662
 137   2.0000      -0.702192       -19.1076
 138   2.0000      -0.688115       -18.7246
 139   2.0000      -0.687080       -18.6964
 140   2.0000      -0.683502       -18.5990
 141   2.0000      -0.681387       -18.5415
 142   2.0000      -0.678358       -18.4591
 143   2.0000      -0.674067       -18.3423
 144   2.0000      -0.669210       -18.2101
 145   2.0000      -0.667515       -18.1640
 146   2.0000      -0.662609       -18.0305
 147   2.0000      -0.657191       -17.8831
 148   2.0000      -0.646738       -17.5986
 149   2.0000      -0.637615       -17.3504
 150   2.0000      -0.633589       -17.2408
 151   2.0000      -0.630957       -17.1692
 152   2.0000      -0.615686       -16.7537
 153   2.0000      -0.613223       -16.6866
 154   2.0000      -0.606637       -16.5074
 155   2.0000      -0.605334       -16.4720
 156   2.0000      -0.603537       -16.4231
 157   2.0000      -0.594405       -16.1746
 158   2.0000      -0.594049       -16.1649
 159   2.0000      -0.590538       -16.0693
 160   2.0000      -0.582634       -15.8543
 161   2.0000      -0.577425       -15.7125
 162   2.0000      -0.569249       -15.4901
 163   2.0000      -0.564503       -15.3609
 164   2.0000      -0.561530       -15.2800
 165   2.0000      -0.560991       -15.2653
 166   2.0000      -0.560444       -15.2505
 167   2.0000      -0.557858       -15.1801
 168   2.0000      -0.553391       -15.0585
 169   2.0000      -0.550515       -14.9803
 170   2.0000      -0.548888       -14.9360
 171   2.0000      -0.545618       -14.8470
 172   2.0000      -0.545164       -14.8347
 173   2.0000      -0.539676       -14.6853
 174   2.0000      -0.537542       -14.6273
 175   2.0000      -0.530206       -14.4276
 176   2.0000      -0.529368       -14.4048
 177   2.0000      -0.527910       -14.3652
 178   2.0000      -0.521733       -14.1971
 179   2.0000      -0.520010       -14.1502
 180   2.0000      -0.516981       -14.0678
 181   2.0000      -0.512629       -13.9493
 182   2.0000      -0.508368       -13.8334
 183   2.0000      -0.507917       -13.8211
 184   2.0000      -0.506465       -13.7816
 185   2.0000      -0.505225       -13.7479
 186   2.0000      -0.503514       -13.7013
 187   2.0000      -0.501500       -13.6465
 188   2.0000      -0.497537       -13.5387
 189   2.0000      -0.496672       -13.5151
 190   2.0000      -0.496268       -13.5041
 191   2.0000      -0.488530       -13.2936
 192   2.0000      -0.487999       -13.2791
 193   2.0000      -0.487198       -13.2573
 194   2.0000      -0.483674       -13.1615
 195   2.0000      -0.478574       -13.0227
 196   2.0000      -0.477454       -12.9922
 197   2.0000      -0.475534       -12.9399
 198   2.0000      -0.474596       -12.9144
 199   2.0000      -0.470438       -12.8013
 200   2.0000      -0.467770       -12.7287
 201   2.0000      -0.465773       -12.6743
 202   2.0000      -0.465103       -12.6561
 203   2.0000      -0.462279       -12.5793
 204   2.0000      -0.460071       -12.5192
 205   2.0000      -0.457782       -12.4569
 206   2.0000      -0.456165       -12.4129
 207   2.0000      -0.453005       -12.3269
 208   2.0000      -0.449927       -12.2431
 209   2.0000      -0.445368       -12.1191
 210   2.0000      -0.443495       -12.0681
 211   2.0000      -0.441895       -12.0246
 212   2.0000      -0.440568       -11.9885
 213   2.0000      -0.438565       -11.9340
 214   2.0000      -0.438011       -11.9189
 215   2.0000      -0.436138       -11.8679
 216   2.0000      -0.435951       -11.8628
 217   2.0000      -0.434852       -11.8329
 218   2.0000      -0.433711       -11.8019
 219   2.0000      -0.430877       -11.7248
 220   2.0000      -0.430259       -11.7080
 221   2.0000      -0.426437       -11.6039
 222   2.0000      -0.425721       -11.5845
 223   2.0000      -0.425395       -11.5756
 224   2.0000      -0.424169       -11.5422
 225   2.0000      -0.422141       -11.4870
 226   2.0000      -0.420920       -11.4538
 227   2.0000      -0.417440       -11.3591
 228   2.0000      -0.415967       -11.3190
 229   2.0000      -0.411592       -11.2000
 230   2.0000      -0.410205       -11.1622
 231   2.0000      -0.409805       -11.1513
 232   2.0000      -0.407793       -11.0966
 233   2.0000      -0.403560       -10.9814
 234   2.0000      -0.399653       -10.8751
 235   2.0000      -0.398218       -10.8361
 236   2.0000      -0.396213       -10.7815
 237   2.0000      -0.394274       -10.7287
 238   2.0000      -0.393236       -10.7005
 239   2.0000      -0.392077       -10.6690
 240   2.0000      -0.386198       -10.5090
 241   2.0000      -0.382499       -10.4083
 242   2.0000      -0.379517       -10.3272
 243   2.0000      -0.377497       -10.2722
 244   2.0000      -0.376503       -10.2452
 245   2.0000      -0.357220        -9.7204
 246   2.0000      -0.344059        -9.3623
 247   2.0000      -0.343396        -9.3443
 248   2.0000      -0.339276        -9.2322
 249   2.0000      -0.334554        -9.1037
 250   2.0000      -0.331694        -9.0258
 251   2.0000      -0.327605        -8.9146
 252   2.0000      -0.327139        -8.9019
 253   2.0000      -0.317232        -8.6323
 254   2.0000      -0.307764        -8.3747
 255   2.0000      -0.305732        -8.3194
 256   2.0000      -0.303573        -8.2606
 257   2.0000      -0.296820        -8.0769
 258   2.0000      -0.294098        -8.0028
 259   2.0000      -0.292550        -7.9607
 260   2.0000      -0.287170        -7.8143
 261   2.0000      -0.277127        -7.5410
 262   2.0000      -0.262706        -7.1486
 263   2.0000      -0.243033        -6.6133
 264   2.0000      -0.206396        -5.6163
 265   0.0000      -0.112809        -3.0697
 266   0.0000      -0.065305        -1.7770
 267   0.0000      -0.034751        -0.9456
 268   0.0000      -0.029445        -0.8012
 269   0.0000      -0.017959        -0.4887

MULLIKEN ATOMIC CHARGES
-----------------------
   0 C :   -0.116201
   1 S :    0.153993
   2 C :   -0.077271
   3 C :    0.101010
   4 C :    0.092727
   5 N :   -0.221900
   6 C :    0.029423
   7 C :    0.119685
   8 C :    0.083176
   9 N :   -0.225336
  10 C :   -0.265918
  11 C :    0.051988
  12 C :   -0.061818
  13 C :   -0.063253
  14 N :    0.051087
  15 C :   -0.151478
  16 C :   -0.135325
  17 N :    0.047638
  18 C :   -0.208415
  19 N :    0.230662
  20 C :   -0.215100
  21 N :    0.219304
  22 C :    0.116517
  23 C :    0.042907
  24 C :    0.021191
  25 N :   -0.278005
  26 S :    0.531662
  27 N :   -0.327053
  28 C :   -0.148257
  29 C :    0.024370
  30 C :    0.016274
  31 C :    0.043615
  32 C :   -0.034108
  33 S :    0.131260
  34 C :   -0.041586
  35 C :    0.010294
  36 C :    0.039424
  37 C :   -0.064100
  38 S :    0.099331
  39 C :    0.029150
  40 C :    0.100561
  41 C :   -0.121703
  42 C :    0.045441
  43 C :    0.098683
  44 C :   -0.053539
  45 C :   -0.011673
  46 C :    0.091318
  47 C :    0.043488
  48 C :   -0.118950
  49 C :    0.054699
  50 C :    0.029364
  51 C :    0.051919
  52 C :    0.030347
  53 C :   -0.128560
  54 C :    0.142495
  55 C :   -0.021318
  56 C :   -0.045373
  57 C :   -0.030705
  58 C :    0.024553
  59 C :   -0.136677
  60 S :    0.091910
  61 C :   -0.039023
  62 C :    0.109169
  63 C :    0.084201
  64 N :   -0.223672
  65 C :   -0.043608
  66 C :    0.099687
  67 C :    0.100673
  68 N :   -0.224524
  69 C :   -0.122257
  70 H :    0.006128
  71 H :   -0.003541
  72 H :   -0.008002
  73 H :   -0.008442
  74 H :   -0.003803
  75 H :    0.085887
  76 H :    0.088772
  77 H :    0.015080
  78 H :   -0.035536
  79 H :   -0.011644
  80 H :    0.001815
  81 H :    0.085764
  82 H :    0.087819
  83 H :    0.002174
  84 H :   -0.004285
  85 H :   -0.014870
  86 H :   -0.008133
  87 H :   -0.001909
  88 H :   -0.007964
  89 H :   -0.030987
  90 H :   -0.033541
  91 H :   -0.024956
  92 H :    0.007187
  93 H :    0.004552
  94 H :    0.016536
  95 H :    0.015014
  96 H :    0.005655
  97 H :    0.007833
  98 H :    0.000962
  99 H :    0.021533
 100 H :    0.014458
 101 H :    0.004259
 102 H :   -0.036146
 103 H :   -0.027721
 104 H :   -0.036812
 105 H :   -0.020328
 106 H :   -0.006596
 107 H :    0.009754
 108 H :   -0.011257
 109 H :   -0.010686
 110 H :    0.000823
 111 H :    0.091732
 112 H :    0.090350
 113 H :    0.008272
 114 H :   -0.011450
 115 H :   -0.015195
 116 H :   -0.012690
 117 H :    0.089629
 118 H :    0.089899
 119 H :    0.006122
Sum of atomic charges:   -0.0000000

LOEWDIN ATOMIC CHARGES
----------------------
   0 C :   -0.193588
   1 S :    0.461119
   2 C :   -0.068158
   3 C :   -0.030286
   4 C :    0.020970
   5 N :   -0.124996
   6 C :   -0.038737
   7 C :   -0.041007
   8 C :    0.022176
   9 N :   -0.126340
  10 C :   -0.177859
  11 C :   -0.071290
  12 C :   -0.009639
  13 C :   -0.014096
  14 N :   -0.000283
  15 C :   -0.050434
  16 C :   -0.028040
  17 N :   -0.016391
  18 C :   -0.032546
  19 N :   -0.014240
  20 C :   -0.038550
  21 N :   -0.025111
  22 C :   -0.025819
  23 C :   -0.038977
  24 C :   -0.035703
  25 N :   -0.274789
  26 S :    0.652050
  27 N :   -0.291555
  28 C :   -0.049881
  29 C :   -0.125718
  30 C :   -0.037278
  31 C :   -0.023159
  32 C :   -0.203613
  33 S :    0.442843
  34 C :   -0.156249
  35 C :   -0.030884
  36 C :   -0.024996
  37 C :   -0.151293
  38 S :    0.383362
  39 C :   -0.022133
  40 C :   -0.034224
  41 C :   -0.014050
  42 C :    0.004075
  43 C :   -0.005771
  44 C :   -0.020267
  45 C :   -0.015862
  46 C :   -0.024966
  47 C :    0.006375
  48 C :   -0.032206
  49 C :   -0.013929
  50 C :   -0.059327
  51 C :   -0.014214
  52 C :   -0.058703
  53 C :   -0.024453
  54 C :   -0.017704
  55 C :   -0.016076
  56 C :   -0.015964
  57 C :   -0.033445
  58 C :   -0.032072
  59 C :   -0.178099
  60 S :    0.420571
  61 C :   -0.051185
  62 C :   -0.032886
  63 C :    0.022009
  64 N :   -0.123572
  65 C :   -0.062085
  66 C :   -0.029543
  67 C :    0.020654
  68 N :   -0.124651
  69 C :   -0.193088
  70 H :    0.018927
  71 H :    0.030135
  72 H :    0.019162
  73 H :   -0.000427
  74 H :    0.019026
  75 H :    0.049114
  76 H :    0.052901
  77 H :    0.023940
  78 H :    0.015276
  79 H :   -0.000339
  80 H :    0.015054
  81 H :    0.049036
  82 H :    0.052799
  83 H :    0.040212
  84 H :    0.035793
  85 H :    0.030634
  86 H :    0.034295
  87 H :    0.035320
  88 H :    0.031770
  89 H :    0.024277
  90 H :    0.027845
  91 H :    0.026296
  92 H :    0.028492
  93 H :    0.019853
  94 H :    0.023133
  95 H :    0.028991
  96 H :    0.020390
  97 H :    0.028669
  98 H :    0.017997
  99 H :    0.024935
 100 H :    0.028784
 101 H :    0.020194
 102 H :    0.022894
 103 H :    0.026795
 104 H :    0.026501
 105 H :    0.018640
 106 H :    0.031294
 107 H :    0.030689
 108 H :    0.025440
 109 H :   -0.001441
 110 H :    0.016812
 111 H :    0.052151
 112 H :    0.054333
 113 H :    0.027437
 114 H :    0.024781
 115 H :    0.000247
 116 H :    0.013920
 117 H :    0.050914
 118 H :    0.053990
 119 H :    0.017893

  Mayer bond orders larger than 0.100000
B(  0-C ,  1-S ) :   1.1747 B(  0-C ,  2-C ) :   1.5513 B(  0-C , 10-C ) :   0.1004
B(  0-C , 70-H ) :   0.9694 B(  1-S , 10-C ) :   1.1468 B(  2-C ,  3-C ) :   1.0435
B(  2-C ,  6-C ) :   1.2812 B(  3-C ,  4-C ) :   1.0886 B(  3-C , 71-H ) :   0.9138
B(  3-C , 72-H ) :   0.9166 B(  4-C ,  5-N ) :   1.0799 B(  4-C , 73-H ) :   0.9465
B(  4-C , 74-H ) :   0.9390 B(  5-N , 75-H ) :   0.9730 B(  5-N , 76-H ) :   0.9708
B(  6-C ,  7-C ) :   1.0828 B(  6-C , 10-C ) :   1.5235 B(  7-C ,  8-C ) :   1.0931
B(  7-C , 77-H ) :   0.8712 B(  7-C , 78-H ) :   0.8980 B(  8-C ,  9-N ) :   1.0743
B(  8-C , 79-H ) :   0.9398 B(  8-C , 80-H ) :   0.9415 B(  9-N , 81-H ) :   0.9727
B(  9-N , 82-H ) :   0.9692 B( 10-C , 11-C ) :   1.0708 B( 11-C , 12-C ) :   1.2949
B( 11-C , 22-C ) :   0.1140 B( 11-C , 24-C ) :   1.2374 B( 12-C , 13-C ) :   1.1133
B( 12-C , 17-N ) :   1.4283 B( 13-C , 14-N ) :   1.5011 B( 13-C , 22-C ) :   1.1757
B( 14-N , 15-C ) :   1.6894 B( 15-C , 16-C ) :   1.2235 B( 15-C , 20-C ) :   1.1556
B( 16-C , 17-N ) :   1.7328 B( 16-C , 18-C ) :   1.1529 B( 18-C , 19-N ) :   3.0496
B( 20-C , 21-N ) :   3.0437 B( 22-C , 23-C ) :   1.1320 B( 22-C , 28-C ) :   1.3126
B( 23-C , 24-C ) :   1.0996 B( 23-C , 27-N ) :   1.4968 B( 24-C , 25-N ) :   1.5061
B( 25-N , 26-S ) :   1.2534 B( 25-N , 27-N ) :   0.1384 B( 26-S , 27-N ) :   1.2489
B( 28-C , 29-C ) :   1.4135 B( 28-C , 83-H ) :   0.9445 B( 29-C , 30-C ) :   1.1803
B( 29-C , 33-S ) :   1.0855 B( 30-C , 31-C ) :   1.5421 B( 30-C , 84-H ) :   1.0033
B( 31-C , 32-C ) :   1.2138 B( 31-C , 85-H ) :   0.9927 B( 32-C , 33-S ) :   1.0128
B( 32-C , 34-C ) :   1.4512 B( 34-C , 35-C ) :   1.2009 B( 34-C , 38-S ) :   1.0816
B( 35-C , 36-C ) :   1.5906 B( 35-C , 86-H ) :   0.9948 B( 36-C , 37-C ) :   1.1468
B( 36-C , 87-H ) :   0.9879 B( 37-C , 38-S ) :   1.0248 B( 37-C , 39-C ) :   1.5878
B( 39-C , 40-C ) :   1.1208 B( 39-C , 88-H ) :   0.9542 B( 40-C , 41-C ) :   1.2658
B( 40-C , 45-C ) :   1.3303 B( 41-C , 42-C ) :   1.3943 B( 41-C , 89-H ) :   1.0034
B( 42-C , 43-C ) :   1.3765 B( 42-C , 48-C ) :   0.9276 B( 43-C , 44-C ) :   1.3245
B( 43-C , 46-C ) :   1.0092 B( 44-C , 45-C ) :   1.3990 B( 44-C , 90-H ) :   0.9916
B( 45-C , 91-H ) :   0.9825 B( 46-C , 47-C ) :   1.3906 B( 46-C , 56-C ) :   1.3160
B( 47-C , 48-C ) :   0.9286 B( 47-C , 53-C ) :   1.3774 B( 48-C , 49-C ) :   1.0062
B( 48-C , 51-C ) :   1.0096 B( 49-C , 50-C ) :   1.1116 B( 49-C , 92-H ) :   0.9380
B( 49-C , 93-H ) :   0.9403 B( 50-C , 94-H ) :   0.9612 B( 50-C , 95-H ) :   0.9602
B( 50-C , 96-H ) :   0.9623 B( 51-C , 52-C ) :   1.1125 B( 51-C , 97-H ) :   0.9384
B( 51-C , 98-H ) :   0.9387 B( 52-C , 99-H ) :   0.9611 B( 52-C ,100-H ) :   0.9599
B( 52-C ,101-H ) :   0.9622 B( 53-C , 54-C ) :   1.2878 B( 53-C ,102-H ) :   1.0043
B( 54-C , 55-C ) :   1.3390 B( 54-C , 57-C ) :   1.0701 B( 55-C , 56-C ) :   1.4070
B( 55-C ,103-H ) :   0.9876 B( 56-C ,104-H ) :   0.9901 B( 57-C , 58-C ) :   1.6913
B( 57-C ,105-H ) :   0.9834 B( 58-C , 59-C ) :   1.1431 B( 58-C ,106-H ) :   0.9594
B( 59-C , 60-S ) :   1.1194 B( 59-C , 61-C ) :   1.5026 B( 60-S , 69-C ) :   1.1485
B( 61-C , 62-C ) :   1.0738 B( 61-C , 65-C ) :   1.2856 B( 62-C , 63-C ) :   1.0883
B( 62-C ,107-H ) :   0.9035 B( 62-C ,108-H ) :   0.9060 B( 63-C , 64-N ) :   1.0775
B( 63-C ,109-H ) :   0.9370 B( 63-C ,110-H ) :   0.9437 B( 64-N ,111-H ) :   0.9719
B( 64-N ,112-H ) :   0.9693 B( 65-C , 66-C ) :   1.0476 B( 65-C , 69-C ) :   1.5756
B( 66-C , 67-C ) :   1.0892 B( 66-C ,113-H ) :   0.9147 B( 66-C ,114-H ) :   0.9162
B( 67-C , 68-N ) :   1.0761 B( 67-C ,115-H ) :   0.9369 B( 67-C ,116-H ) :   0.9434
B( 68-N ,117-H ) :   0.9720 B( 68-N ,118-H ) :   0.9693 B( 69-C ,119-H ) :   0.9677

-----------------------------------------------------------------------------
         ABSORPTION SPECTRUM VIA TRANSITION ELECTRIC DIPOLE MOMENTS
-----------------------------------------------------------------------------
State   Energy  Wavelength   fosc         T2         TX        TY        TZ
        (cm-1)    (nm)                  (au**2)     (au)      (au)      (au)
-----------------------------------------------------------------------------
   0    6667.6   1499.8   0.623342706  30.77729   0.82125   3.55612   4.17814
   1   16620.4    601.7   1.200173548  23.77274   2.09538   3.90223   2.03830
   2   16852.4    593.4   0.031390026   0.61320   0.51715   0.35548  -0.46839
   3   19491.4    513.0   0.010330534   0.17448   0.06113  -0.35925  -0.20417
   4   20588.0    485.7   0.058309339   0.93239  -0.38419  -0.64475  -0.60753
   5   22837.3    437.9   0.101372561   1.46134  -0.75477  -0.64414   0.69047
   6   23032.0    434.2   0.017156784   0.24523   0.20130   0.24193   0.38234
   7   23472.3    426.0   0.026893546   0.37720   0.26463   0.55420   0.00519
   8   24815.6    403.0   0.025363961   0.33649  -0.25732  -0.46048  -0.24130
   9   26272.4    380.6   0.328160179   4.11209   1.28036   1.57042   0.08102
  10   27470.2    364.0   0.114848153   1.37638  -0.73359  -0.90713  -0.12384
  11   27805.5    359.6   0.015603875   0.18475  -0.27699  -0.26818  -0.19001
  12   28317.1    353.1   0.001295527   0.01506  -0.01771  -0.11375   0.04252
  13   28895.3    346.1   0.013142072   0.14973  -0.27829  -0.25700  -0.07898
  14   29302.1    341.3   0.075982345   0.85367   0.46226   0.75901   0.25277
  15   29948.8    333.9   0.421688020   4.63541  -0.27589  -1.20282  -1.76423
  16   30016.6    333.1   0.064059335   0.70258   0.16840  -0.34658  -0.74438
  17   30761.8    325.1   0.131164983   1.40373   0.39570   0.86439   0.70709
  18   31684.9    315.6   0.513717224   5.33762  -1.26147  -1.92624  -0.18946
  19   32203.8    310.5   0.014788890   0.15118  -0.16551  -0.02687   0.35081
  20   32308.1    309.5   0.026847713   0.27357   0.19761   0.46651  -0.12996
  21   32862.1    304.3   0.062979595   0.63093  -0.53734  -0.54549   0.21126
  22   33608.8    297.5   0.072281515   0.70803  -0.01764  -0.46125  -0.70354
  23   33940.2    294.6   0.300819589   2.91788   0.80910   1.37154   0.61816
  24   34170.8    292.6   0.012922442   0.12450  -0.10758  -0.15605  -0.29761
  25   34419.7    290.5   0.060533057   0.57898   0.43980   0.61816  -0.05860
  26   34609.2    288.9   0.007991883   0.07602   0.23929   0.07026  -0.11759
  27   35005.2    285.7   0.030552996   0.28734  -0.26886  -0.43028  -0.17297
  28   35241.2    283.8   0.015317710   0.14309  -0.00129   0.29902   0.23168
  29   35327.3    283.1   0.033222251   0.30959   0.25014   0.25712  -0.42534
  30   35951.9    278.1   0.091704891   0.83974   0.56043   0.46277  -0.55812
  31   36204.7    276.2   0.111528436   1.01414  -0.58636  -0.79216   0.20687
  32   36351.1    275.1   0.106267231   0.96240   0.08435   0.39394   0.89448
  33   36663.1    272.8   0.035706240   0.32062   0.08385  -0.25217  -0.50000
  34   37076.3    269.7   0.000323241   0.00287  -0.04305  -0.00626   0.03127
  35   37082.4    269.7   0.055004951   0.48833   0.32658   0.13194  -0.60354
  36   37644.3    265.6   0.004354385   0.03808  -0.01888  -0.02194  -0.19298
  37   38217.1    261.7   0.013768827   0.11861   0.01219  -0.01860   0.34368
  38   38519.7    259.6   0.057419243   0.49074  -0.11813   0.27347   0.63403
  39   38973.2    256.6   0.006958637   0.05878   0.05501  -0.22499  -0.07166
  40   39576.3    252.7   0.017845727   0.14845   0.24233   0.29952  -0.00281
  41   39684.6    252.0   0.089982137   0.74647   0.43030   0.73869   0.12511
  42   39836.6    251.0   0.032038430   0.26477   0.10734   0.28302  -0.41611
  43   40099.5    249.4   0.001889748   0.01551   0.10316   0.06860  -0.01293

FINAL SINGLE POINT ENERGY     -4660.293790870841

DIPOLE MOMENT
-------------
                                X             Y             Z
Electronic contribution:     59.88902     155.77229      78.00593
Nuclear contribution   :    -61.53112    -162.37943     -81.71324
                        -----------------------------------------
Total Dipole Moment    :     -1.64209      -6.60713      -3.70731
                        -----------------------------------------
Magnitude (a.u.)       :      7.75209
Magnitude (Debye)      :     19.70424

Rotational constants in cm-1:     0.002237     0.000169     0.000159
Rotational constants in MHz :    67.073017     5.060591     4.772392

                             ****ORCA TERMINATED NORMALLY****
TOTAL RUN TIME: 0 days 0 hours 20 minutes 45 seconds 161 msec
