                         Program Version 4.2.0 -  RELEASE  -
|  1> # ORCA input file
|  2> # SCF done        -87.485494260287          0.000633288842
|  3> ! CAM-B3LYP def2-SVP def2/J RIJCOSX Grid4 TightSCF
|  4> %maxcore 5000
|  5> %tddft
|  6>     Mode sTDDFT
|  7>     Ethresh 5.0
|  8>     maxcore 5000
|  9> end
| 10>
| 11> %pal
| 12>   nprocs 6
| 13>   end
| 14> * xyz 0 1
| 15>    C        4.28158         5.40038        -0.81165
| 16>    N        4.04495         6.65957        -0.94091
| 17>    C        3.61343         7.06111         0.30941
| 18>    C        3.18708         8.03461         1.14853
| 19>    S        3.00627         6.97229         2.58471
| 20>    C        3.59419         5.93948         1.22904
| 21>    C        4.02812         4.84343         0.56050
| 22>    C        4.21553         3.52535         1.05942
| 23>    N        3.83016         3.24122         2.28019
| 24>    C        4.19385         1.94881         2.48703
| 25>    C        4.28047         0.86744         3.30723
| 26>    S        5.11693        -0.18782         2.13770
| 27>    C        4.87138         1.40810         1.32401
| 28>    C        4.92372         2.36247         0.37316
| 29>    C        5.53104         2.26910        -0.91650
| 30>    N        5.05546         2.78969        -2.01416
| 31>    C        5.87148         2.33014        -3.00971
| 32>    C        6.24210         2.33148        -4.31988
| 33>    S        7.62731         1.23225        -4.12851
| 34>    C        6.89698         1.45456        -2.48299
| 35>    C        6.76756         1.40801        -1.14558
| 36>    C        7.55085         0.76463        -0.13894
| 37>    N        8.05698        -0.42581        -0.30762
| 38>    C        8.67421        -0.71653         0.87544
| 39>    C        9.43504        -1.55570         1.63120
| 40>    S        9.49524        -0.51582         3.07277
| 41>    C        8.52162         0.36626         1.82684
| 42>    C        7.84660         1.36394         1.22774
| 43>    C        7.49107         2.67100         1.67857
| 44>    N        7.20607         2.93135         2.93068
| 45>    C        6.92673         4.26702         2.94636
| 46>    C        6.49649         5.36972         3.61115
| 47>    S        6.60731         6.49050         2.23185
| 48>    C        7.09436         4.85041         1.62110
| 49>    C        7.42294         3.87506         0.77809
| 50>    H        4.60641         4.79537        -1.63862
| 51>    H        2.99851         9.08816         1.08031
| 52>    H        3.99833         0.63574         4.31440
| 53>    H        5.89968         2.81202        -5.21516
| 54>    H        9.89959        -2.51160         1.48719
| 55>    H        6.15882         5.58912         4.60476
| 56>    H        7.63941         3.87465        -0.27192
| 57> *
| 58>
| 59>                          ****END OF INPUT****

CARTESIAN COORDINATES (ANGSTROEM)
---------------------------------
  C      4.281580    5.400380   -0.811650
  N      4.044950    6.659570   -0.940910
  C      3.613430    7.061110    0.309410
  C      3.187080    8.034610    1.148530
  S      3.006270    6.972290    2.584710
  C      3.594190    5.939480    1.229040
  C      4.028120    4.843430    0.560500
  C      4.215530    3.525350    1.059420
  N      3.830160    3.241220    2.280190
  C      4.193850    1.948810    2.487030
  C      4.280470    0.867440    3.307230
  S      5.116930   -0.187820    2.137700
  C      4.871380    1.408100    1.324010
  C      4.923720    2.362470    0.373160
  C      5.531040    2.269100   -0.916500
  N      5.055460    2.789690   -2.014160
  C      5.871480    2.330140   -3.009710
  C      6.242100    2.331480   -4.319880
  S      7.627310    1.232250   -4.128510
  C      6.896980    1.454560   -2.482990
  C      6.767560    1.408010   -1.145580
  C      7.550850    0.764630   -0.138940
  N      8.056980   -0.425810   -0.307620
  C      8.674210   -0.716530    0.875440
  C      9.435040   -1.555700    1.631200
  S      9.495240   -0.515820    3.072770
  C      8.521620    0.366260    1.826840
  C      7.846600    1.363940    1.227740
  C      7.491070    2.671000    1.678570
  N      7.206070    2.931350    2.930680
  C      6.926730    4.267020    2.946360
  C      6.496490    5.369720    3.611150
  S      6.607310    6.490500    2.231850
  C      7.094360    4.850410    1.621100
  C      7.422940    3.875060    0.778090
  H      4.606410    4.795370   -1.638620
  H      2.998510    9.088160    1.080310
  H      3.998330    0.635740    4.314400
  H      5.899680    2.812020   -5.215160
  H      9.899590   -2.511600    1.487190
  H      6.158820    5.589120    4.604760
  H      7.639410    3.874650   -0.271920

 Total Charge           Charge          ....    0
 Multiplicity           Mult            ....    1
 Number of Electrons    NEL             ....  272
 Basis Dimension        Dim             ....  545

ORBITAL ENERGIES
----------------

  NO   OCC          E(Eh)            E(eV)
   0   2.0000     -88.956727     -2420.6356
   1   2.0000     -88.952796     -2420.5286
   2   2.0000     -88.951263     -2420.4869
   3   2.0000     -88.947924     -2420.3961
   4   2.0000     -88.943494     -2420.2755
   5   2.0000     -14.415380      -392.2624
   6   2.0000     -14.410360      -392.1258
   7   2.0000     -14.401406      -391.8822
   8   2.0000     -14.400016      -391.8444
   9   2.0000     -14.392037      -391.6272
  10   2.0000     -10.344167      -281.4791
  11   2.0000     -10.338712      -281.3307
  12   2.0000     -10.337033      -281.2850
  13   2.0000     -10.335689      -281.2484
  14   2.0000     -10.332882      -281.1720
  15   2.0000     -10.330652      -281.1113
  16   2.0000     -10.327177      -281.0168
  17   2.0000     -10.325682      -280.9761
  18   2.0000     -10.324191      -280.9355
  19   2.0000     -10.316121      -280.7159
  20   2.0000     -10.312798      -280.6255
  21   2.0000     -10.311569      -280.5921
  22   2.0000     -10.309552      -280.5372
  23   2.0000     -10.306979      -280.4672
  24   2.0000     -10.305617      -280.4301
  25   2.0000     -10.305516      -280.4274
  26   2.0000     -10.303973      -280.3853
  27   2.0000     -10.303197      -280.3642
  28   2.0000     -10.302358      -280.3414
  29   2.0000     -10.302137      -280.3354
  30   2.0000     -10.300099      -280.2800
  31   2.0000     -10.298914      -280.2477
  32   2.0000     -10.295118      -280.1444
  33   2.0000     -10.291569      -280.0478
  34   2.0000     -10.286802      -279.9181
  35   2.0000      -8.051407      -219.0899
  36   2.0000      -8.047313      -218.9785
  37   2.0000      -8.045395      -218.9263
  38   2.0000      -8.041752      -218.8272
  39   2.0000      -8.037812      -218.7200
  40   2.0000      -6.022215      -163.8728
  41   2.0000      -6.018379      -163.7684
  42   2.0000      -6.018114      -163.7612
  43   2.0000      -6.016322      -163.7124
  44   2.0000      -6.014261      -163.6564
  45   2.0000      -6.012576      -163.6105
  46   2.0000      -6.012366      -163.6048
  47   2.0000      -6.010025      -163.5411
  48   2.0000      -6.008738      -163.5061
  49   2.0000      -6.008583      -163.5019
  50   2.0000      -6.006019      -163.4321
  51   2.0000      -6.004843      -163.4001
  52   2.0000      -6.004014      -163.3775
  53   2.0000      -6.000529      -163.2827
  54   2.0000      -5.996537      -163.1741
  55   2.0000      -1.080928       -29.4136
  56   2.0000      -1.070002       -29.1162
  57   2.0000      -1.066936       -29.0328
  58   2.0000      -1.059472       -28.8297
  59   2.0000      -1.051688       -28.6179
  60   2.0000      -0.975588       -26.5471
  61   2.0000      -0.971246       -26.4289
  62   2.0000      -0.967423       -26.3249
  63   2.0000      -0.962117       -26.1805
  64   2.0000      -0.955922       -26.0119
  65   2.0000      -0.899261       -24.4701
  66   2.0000      -0.875670       -23.8282
  67   2.0000      -0.873640       -23.7729
  68   2.0000      -0.864329       -23.5196
  69   2.0000      -0.853749       -23.2317
  70   2.0000      -0.781823       -21.2745
  71   2.0000      -0.779078       -21.1998
  72   2.0000      -0.772947       -21.0330
  73   2.0000      -0.768713       -20.9178
  74   2.0000      -0.762314       -20.7436
  75   2.0000      -0.754277       -20.5249
  76   2.0000      -0.744281       -20.2529
  77   2.0000      -0.737944       -20.0805
  78   2.0000      -0.724421       -19.7125
  79   2.0000      -0.703781       -19.1509
  80   2.0000      -0.683850       -18.6085
  81   2.0000      -0.670978       -18.2582
  82   2.0000      -0.657789       -17.8994
  83   2.0000      -0.650456       -17.6998
  84   2.0000      -0.641856       -17.4658
  85   2.0000      -0.630420       -17.1546
  86   2.0000      -0.615379       -16.7453
  87   2.0000      -0.606059       -16.4917
  88   2.0000      -0.598960       -16.2985
  89   2.0000      -0.585395       -15.9294
  90   2.0000      -0.580451       -15.7949
  91   2.0000      -0.573876       -15.6160
  92   2.0000      -0.564709       -15.3665
  93   2.0000      -0.557202       -15.1622
  94   2.0000      -0.549607       -14.9556
  95   2.0000      -0.543810       -14.7978
  96   2.0000      -0.533180       -14.5086
  97   2.0000      -0.521483       -14.1903
  98   2.0000      -0.515253       -14.0207
  99   2.0000      -0.503030       -13.6881
 100   2.0000      -0.502127       -13.6636
 101   2.0000      -0.495197       -13.4750
 102   2.0000      -0.491531       -13.3752
 103   2.0000      -0.490811       -13.3557
 104   2.0000      -0.483680       -13.1616
 105   2.0000      -0.475579       -12.9412
 106   2.0000      -0.473347       -12.8804
 107   2.0000      -0.469754       -12.7826
 108   2.0000      -0.463376       -12.6091
 109   2.0000      -0.462574       -12.5873
 110   2.0000      -0.456770       -12.4293
 111   2.0000      -0.426294       -11.6001
 112   2.0000      -0.425635       -11.5821
 113   2.0000      -0.423510       -11.5243
 114   2.0000      -0.419572       -11.4171
 115   2.0000      -0.411833       -11.2065
 116   2.0000      -0.408258       -11.1093
 117   2.0000      -0.405453       -11.0329
 118   2.0000      -0.402765       -10.9598
 119   2.0000      -0.401988       -10.9387
 120   2.0000      -0.389232       -10.5915
 121   2.0000      -0.360153        -9.8003
 122   2.0000      -0.353875        -9.6294
 123   2.0000      -0.350709        -9.5433
 124   2.0000      -0.345613        -9.4046
 125   2.0000      -0.341101        -9.2818
 126   2.0000      -0.340551        -9.2669
 127   2.0000      -0.334645        -9.1062
 128   2.0000      -0.327975        -8.9247
 129   2.0000      -0.325065        -8.8455
 130   2.0000      -0.322436        -8.7739
 131   2.0000      -0.277438        -7.5495
 132   2.0000      -0.277041        -7.5387
 133   2.0000      -0.270102        -7.3499
 134   2.0000      -0.267819        -7.2877
 135   2.0000      -0.248333        -6.7575
 136   0.0000      -0.093019        -2.5312
 137   0.0000      -0.079641        -2.1671
 138   0.0000      -0.073140        -1.9902
 139   0.0000      -0.041212        -1.1214
 140   0.0000      -0.033404        -0.9090

MULLIKEN ATOMIC CHARGES
-----------------------
   0 C :    0.050367
   1 N :   -0.062919
   2 C :    0.184682
   3 C :   -0.159277
   4 S :    0.069185
   5 C :    0.044364
   6 C :   -0.188955
   7 C :    0.026965
   8 N :   -0.047575
   9 C :    0.211374
  10 C :   -0.147406
  11 S :    0.096977
  12 C :   -0.021274
  13 C :   -0.091665
  14 C :   -0.070666
  15 N :   -0.063591
  16 C :    0.189662
  17 C :   -0.135912
  18 S :    0.094262
  19 C :    0.014440
  20 C :   -0.068756
  21 C :   -0.107112
  22 N :   -0.029068
  23 C :    0.173286
  24 C :   -0.137691
  25 S :    0.091315
  26 C :    0.029368
  27 C :   -0.012565
  28 C :   -0.113325
  29 N :   -0.058379
  30 C :    0.196326
  31 C :   -0.143949
  32 S :    0.072663
  33 C :    0.123109
  34 C :   -0.176505
  35 H :   -0.001802
  36 H :    0.029226
  37 H :    0.031284
  38 H :    0.037797
  39 H :    0.033969
  40 H :    0.030622
  41 H :    0.007146
Sum of atomic charges:   -0.0000000

LOEWDIN ATOMIC CHARGES
----------------------
   0 C :    0.065931
   1 N :   -0.101964
   2 C :   -0.068444
   3 C :   -0.055041
   4 S :    0.284312
   5 C :   -0.072151
   6 C :   -0.098300
   7 C :    0.054541
   8 N :   -0.098298
   9 C :   -0.065147
  10 C :   -0.053865
  11 S :    0.311827
  12 C :   -0.086753
  13 C :   -0.079507
  14 C :    0.046890
  15 N :   -0.090907
  16 C :   -0.072721
  17 C :   -0.053616
  18 S :    0.304103
  19 C :   -0.078571
  20 C :   -0.075705
  21 C :    0.029084
  22 N :   -0.085950
  23 C :   -0.075342
  24 C :   -0.051207
  25 S :    0.302878
  26 C :   -0.078842
  27 C :   -0.082065
  28 C :    0.030087
  29 N :   -0.102501
  30 C :   -0.069658
  31 C :   -0.054706
  32 S :    0.310928
  33 C :   -0.100994
  34 C :   -0.062752
  35 H :    0.012303
  36 H :    0.024344
  37 H :    0.025879
  38 H :    0.028476
  39 H :    0.026876
  40 H :    0.025562
  41 H :    0.030985

  Mayer bond orders larger than 0.100000
B(  0-C ,  1-N ) :   1.8392 B(  0-C ,  3-C ) :   0.1068 B(  0-C ,  6-C ) :   1.0125
B(  0-C , 35-H ) :   0.9665 B(  1-N ,  2-C ) :   1.1893 B(  2-C ,  3-C ) :   1.5766
B(  2-C ,  5-C ) :   1.0459 B(  3-C ,  4-S ) :   0.9768 B(  3-C , 36-H ) :   1.0104
B(  4-S ,  5-C ) :   0.8937 B(  5-C ,  6-C ) :   1.8066 B(  6-C ,  7-C ) :   1.0593
B(  7-C ,  8-N ) :   1.8138 B(  7-C , 13-C ) :   0.9969 B(  8-N ,  9-C ) :   1.2245
B(  9-C , 10-C ) :   1.5370 B(  9-C , 12-C ) :   1.0717 B( 10-C , 11-S ) :   0.9791
B( 10-C , 37-H ) :   1.0104 B( 11-S , 12-C ) :   0.9187 B( 12-C , 13-C ) :   1.7934
B( 13-C , 14-C ) :   0.9956 B( 14-C , 15-N ) :   1.7777 B( 14-C , 20-C ) :   1.0337
B( 15-N , 16-C ) :   1.1719 B( 16-C , 17-C ) :   1.5492 B( 16-C , 19-C ) :   1.0652
B( 17-C , 18-S ) :   0.9935 B( 17-C , 38-H ) :   1.0101 B( 18-S , 19-C ) :   0.8956
B( 19-C , 20-C ) :   1.8464 B( 20-C , 21-C ) :   0.9465 B( 21-C , 22-N ) :   1.8591
B( 21-C , 24-C ) :   0.1012 B( 21-C , 27-C ) :   1.0202 B( 22-N , 23-C ) :   1.2021
B( 23-C , 24-C ) :   1.5455 B( 23-C , 26-C ) :   1.0694 B( 24-C , 25-S ) :   0.9975
B( 24-C , 39-H ) :   1.0093 B( 25-S , 26-C ) :   0.8880 B( 26-C , 27-C ) :   1.8476
B( 27-C , 28-C ) :   0.9468 B( 28-C , 29-N ) :   1.8321 B( 28-C , 31-C ) :   0.1002
B( 28-C , 34-C ) :   0.9952 B( 29-N , 30-C ) :   1.2034 B( 30-C , 31-C ) :   1.5500
B( 30-C , 33-C ) :   1.0503 B( 31-C , 32-S ) :   0.9939 B( 31-C , 40-H ) :   1.0143
B( 32-S , 33-C ) :   0.9117 B( 33-C , 34-C ) :   1.7606 B( 34-C , 41-H ) :   1.0002

-----------------------------------------------------------------------------
         ABSORPTION SPECTRUM VIA TRANSITION ELECTRIC DIPOLE MOMENTS
-----------------------------------------------------------------------------
State   Energy  Wavelength   fosc         T2         TX        TY        TZ
        (cm-1)    (nm)                  (au**2)     (au)      (au)      (au)
-----------------------------------------------------------------------------
   0   14785.6    676.3   0.020294837   0.45188   0.01052  -0.64914  -0.17431
   1   16466.6    607.3   0.018896565   0.37779  -0.02919   0.41832   0.44939
   2   17676.0    565.7   0.021730773   0.40473  -0.52443   0.33660   0.12807
   3   18587.6    538.0   0.038591674   0.68351  -0.05139   0.74009  -0.36488
   4   19204.1    520.7   0.030567650   0.52401   0.02388   0.59790  -0.40738
   5   19444.3    514.3   0.042512335   0.71978   0.18038   0.23894   0.79382
   6   21082.3    474.3   0.013244158   0.20682   0.34141  -0.29977  -0.01990
   7   22300.1    448.4   0.021152391   0.31227   0.19734  -0.48238  -0.20158
   8   23082.1    433.2   0.016223422   0.23139   0.12491  -0.18328   0.42685
   9   23873.7    418.9   0.025574910   0.35267  -0.39046   0.42098  -0.15163
  10   24760.1    403.9   0.016668878   0.22163  -0.36588   0.15472   0.25264
  11   25207.5    396.7   0.014185460   0.18526   0.02601  -0.42843   0.03220
  12   25829.9    387.1   0.006551857   0.08351  -0.15940   0.17345   0.16737
  13   26006.1    384.5   0.033708442   0.42672  -0.41281   0.06464   0.50212
  14   26764.1    373.6   0.113276121   1.39335  -0.34778   0.87454  -0.71245
  15   27367.0    365.4   0.014191012   0.17071   0.05024  -0.05417   0.40651
  16   27642.6    361.8   0.005433440   0.06471   0.09693  -0.21044   0.10503
  17   27843.4    359.2   0.012964881   0.15329  -0.24795  -0.19901  -0.22849
  18   28740.7    347.9   0.006077923   0.06962  -0.26216  -0.01834   0.02361
  19   29493.7    339.1   0.017397790   0.19420   0.05462  -0.39166   0.19447
  20   29614.2    337.7   0.007210977   0.08016   0.24033   0.01763   0.14863
  21   29843.7    335.1   0.007851587   0.08661   0.04336  -0.27392   0.09849
  22   30503.3    327.8   0.001878465   0.02027   0.08509  -0.06394  -0.09458
  23   30826.2    324.4   0.020546169   0.21942  -0.22568   0.21390   0.35034
  24   31232.9    320.2   0.004880355   0.05144   0.00082  -0.08328  -0.21096
  25   32228.5    310.3   0.014499477   0.14811  -0.21692   0.16844   0.26960
  26   32449.5    308.2   0.025312738   0.25681   0.13906   0.45660  -0.17024
  27   33092.4    302.2   0.011010252   0.10953  -0.16185   0.25039   0.14368
  28   33639.4    297.3   0.098124346   0.96029   0.58933  -0.38799   0.68004
  29   33738.1    296.4   0.054100645   0.52791   0.29686   0.21917   0.62590
  30   34068.2    293.5   0.051040470   0.49322   0.45447  -0.49543  -0.20305
  31   34328.4    291.3   0.027596531   0.26465  -0.09030   0.01806  -0.50613
  32   34493.2    289.9   0.044481167   0.42454  -0.23779   0.56285  -0.22628
  33   34795.8    287.4   0.052923587   0.50072  -0.06898   0.01641  -0.70406
  34   35250.0    283.7   0.006378729   0.05957  -0.16739   0.16465   0.06667
  35   35337.9    283.0   0.009328506   0.08691  -0.09000   0.12147  -0.25309
  36   35622.9    280.7   0.047875073   0.44244   0.31106   0.04052  -0.58655
  37   35705.0    280.1   0.074159345   0.68377   0.27090   0.27026   0.73304
  38   35871.1    278.8   0.151967638   1.39471   0.00439   1.12661  -0.35417
  39   36552.6    273.6   0.103021084   0.92786  -0.20759   0.85570  -0.39058
  40   36603.8    273.2   0.028989365   0.26073   0.08300  -0.32347   0.38627
  41   36832.6    271.5   0.050997767   0.45582  -0.16186  -0.61822   0.21777
  42   37130.9    269.3   0.050122021   0.44439  -0.58365   0.17086  -0.27304
  43   37245.6    268.5   0.089597249   0.79194  -0.08559   0.77268  -0.43312
  44   37593.1    266.0   0.031399640   0.27497  -0.33868   0.38034   0.12497
  45   37856.3    264.2   0.046261854   0.40231  -0.17095   0.59698  -0.12925
  46   38788.4    257.8   0.236116129   2.00401  -0.74194   0.83670   0.86802
  47   38916.8    257.0   0.054107326   0.45771   0.31905  -0.37600  -0.46319
  48   39272.3    254.6   0.059045250   0.49497  -0.45695   0.43740   0.30796
  49   39633.6    252.3   0.004080580   0.03389  -0.12644   0.11411  -0.06990

FINAL SINGLE POINT ENERGY     -3218.866337897468

DIPOLE MOMENT
-------------
                                X             Y             Z
Electronic contribution:      1.75529      -4.08013       1.18432
Nuclear contribution   :     -1.20693       3.79484      -0.90311
                        -----------------------------------------
Total Dipole Moment    :      0.54836      -0.28530       0.28121
                        -----------------------------------------
Magnitude (a.u.)       :      0.67909
Magnitude (Debye)      :      1.72612

Rotational constants in cm-1:     0.004958     0.002902     0.002274
Rotational constants in MHz :   148.626051    86.996685    68.160676

                             ****ORCA TERMINATED NORMALLY****
TOTAL RUN TIME: 0 days 0 hours 3 minutes 9 seconds 993 msec
