                         Program Version 4.2.0 -  RELEASE  -
|  1> # ORCA input file
|  2> # SCF done       -167.391071032151          0.000273262116
|  3> ! CAM-B3LYP def2-SVP def2/J RIJCOSX Grid4 TightSCF
|  4> %maxcore 5000
|  5> %tddft
|  6>     Mode sTDDFT
|  7>     Ethresh 5.0
|  8>     maxcore 5000
|  9> end
| 10>
| 11> %pal
| 12>   nprocs 6
| 13>   end
| 14> * xyz 0 1
| 15>    C        2.69432        -0.60623        -0.65850
| 16>    C        1.78151        -0.95813         0.32692
| 17>    N        1.18228        -2.13383         0.32954
| 18>    C        1.48787        -2.99808        -0.64326
| 19>    C        2.45627        -2.65011        -1.59536
| 20>    N        3.03936        -1.46667        -1.60626
| 21>    C        0.79600        -4.28648        -0.63037
| 22>    C        0.22603        -4.72995         0.56923
| 23>    C       -0.41973        -5.94131         0.60036
| 24>    C       -0.51486        -6.73083        -0.55880
| 25>    C        0.03510        -6.29016        -1.75337
| 26>    C        0.68690        -5.07153        -1.78053
| 27>    C       -1.23981        -7.94059        -0.23354
| 28>    C       -1.59997        -7.89472         1.12518
| 29>    C       -1.09569        -6.62267         1.76671
| 30>    C       -2.25041        -5.77029         2.32365
| 31>    C       -3.29457        -5.42826         1.26784
| 32>    C       -0.08941        -6.92594         2.89302
| 33>    C        1.09289        -7.76375         2.42099
| 34>    C       -2.30841        -8.91901         1.69996
| 35>    C       -2.67263       -10.03427         0.92569
| 36>    C       -2.28650       -10.07094        -0.42425
| 37>    C       -1.58455        -9.03838        -1.00955
| 38>    C       -3.41925       -11.14047         1.45863
| 39>    C       -4.03750       -11.18875         2.66390
| 40>    C       -4.76128       -12.29916         3.14802
| 41>    S       -4.86688       -13.79213         2.27254
| 42>    C       -5.88697       -14.55599         3.46608
| 43>    C       -6.10786       -13.66839         4.54603
| 44>    C       -5.48006       -12.39775         4.35263
| 45>    C       -5.60956       -11.39140         5.32779
| 46>    C       -6.31876       -11.65223         6.46459
| 47>    F       -6.45177       -10.69887         7.40531
| 48>    C       -6.90156       -12.91626         6.67690
| 49>    F       -7.56461       -13.14761         7.82558
| 50>    C       -6.79982       -13.91147         5.74391
| 51>    C       -6.31435       -15.85820         3.19195
| 52>    C       -7.27868       -16.59655         3.84067
| 53>    C       -7.59507       -17.90605         3.49840
| 54>    C       -8.58038       -18.65258         4.12094
| 55>    C       -8.94160       -19.98558         3.84959
| 56>    C       -9.95715       -20.46422         4.63269
| 57>    C      -10.45070       -19.52902         5.55787
| 58>    S       -9.58081       -18.01782         5.41327
| 59>    C      -11.47850       -19.69117         6.47678
| 60>    C      -12.25912       -20.83982         6.71036
| 61>    C      -13.20552       -20.67375         7.67914
| 62>    C      -13.23072       -19.38632         8.26593
| 63>    S      -11.98071       -18.39340         7.53002
| 64>    C      -14.10581       -18.98401         9.24632
| 65>    C      -14.22398       -17.73537         9.88378
| 66>    C      -15.18794       -17.44252        10.86067
| 67>    C      -15.02516       -16.10404        11.27740
| 68>    C      -15.70795       -15.33478        12.19848
| 69>    C      -15.28828       -14.01090        12.38148
| 70>    C      -15.75697       -13.00110        13.21417
| 71>    C      -14.96880       -11.82835        13.01249
| 72>    C      -14.01062       -12.11391        12.05298
| 73>    C      -14.17078       -13.46679        11.62814
| 74>    C      -13.48865       -14.22424        10.71277
| 75>    C      -13.90943       -15.55750        10.52324
| 76>    C      -13.43610       -16.55032         9.68711
| 77>    C      -15.12075       -10.55648        13.67701
| 78>    C      -16.03680       -10.26784        14.59762
| 79>    H        3.16781         0.36471        -0.69210
| 80>    H        1.51671        -0.28547         1.13215
| 81>    H        2.78676        -3.34167        -2.35779
| 82>    H        0.31201        -4.10518         1.44457
| 83>    H       -0.04681        -6.88479        -2.65099
| 84>    H        1.09638        -4.71487        -2.71363
| 85>    H       -1.83564        -4.84751         2.73409
| 86>    H       -2.72618        -6.31613         3.14140
| 87>    H       -2.84492        -4.86481         0.45342
| 88>    H       -4.08688        -4.82602         1.70661
| 89>    H       -3.73690        -6.33320         0.85643
| 90>    H       -0.60987        -7.45450         3.69463
| 91>    H        0.27556        -5.97971         3.29765
| 92>    H        0.75490        -8.72246         2.03349
| 93>    H        1.77515        -7.94768         3.24789
| 94>    H        1.63809        -7.24845         1.63320
| 95>    H       -2.57169        -8.87660         2.74575
| 96>    H       -2.56052       -10.93261        -1.01638
| 97>    H       -1.30615        -9.08640        -2.05195
| 98>    H       -3.50634       -12.00595         0.81231
| 99>    H       -4.00864       -10.33077         3.31941
|100>    H       -5.15784       -10.42223         5.19632
|101>    H       -7.23824       -14.86832         5.96510
|102>    H       -5.84165       -16.32117         2.33309
|103>    H       -7.85549       -16.15548         4.63893
|104>    H       -7.03954       -18.38910         2.70513
|105>    H       -8.44424       -20.55807         3.08643
|106>    H      -10.35659       -21.45993         4.55963
|107>    H      -12.10674       -21.75345         6.16441
|108>    H      -13.89264       -21.44107         7.99072
|109>    H      -14.81319       -19.73941         9.56980
|110>    H      -15.93073       -18.12639        11.22894
|111>    H      -16.53930       -15.73440        12.76226
|112>    H      -16.57966       -13.08830        13.89990
|113>    H      -13.26416       -11.43519        11.68241
|114>    H      -12.65597       -13.82822        10.14892
|115>    H      -12.61311       -16.45314         9.00435
|116>    H      -14.41013        -9.79725        13.37405
|117>    H      -16.76378       -10.98849        14.93097
|118>    H      -16.09103        -9.29383        15.05221
|119> *
|120>
|121>                          ****END OF INPUT****

CARTESIAN COORDINATES (ANGSTROEM)
---------------------------------
  C      2.694320   -0.606230   -0.658500
  C      1.781510   -0.958130    0.326920
  N      1.182280   -2.133830    0.329540
  C      1.487870   -2.998080   -0.643260
  C      2.456270   -2.650110   -1.595360
  N      3.039360   -1.466670   -1.606260
  C      0.796000   -4.286480   -0.630370
  C      0.226030   -4.729950    0.569230
  C     -0.419730   -5.941310    0.600360
  C     -0.514860   -6.730830   -0.558800
  C      0.035100   -6.290160   -1.753370
  C      0.686900   -5.071530   -1.780530
  C     -1.239810   -7.940590   -0.233540
  C     -1.599970   -7.894720    1.125180
  C     -1.095690   -6.622670    1.766710
  C     -2.250410   -5.770290    2.323650
  C     -3.294570   -5.428260    1.267840
  C     -0.089410   -6.925940    2.893020
  C      1.092890   -7.763750    2.420990
  C     -2.308410   -8.919010    1.699960
  C     -2.672630  -10.034270    0.925690
  C     -2.286500  -10.070940   -0.424250
  C     -1.584550   -9.038380   -1.009550
  C     -3.419250  -11.140470    1.458630
  C     -4.037500  -11.188750    2.663900
  C     -4.761280  -12.299160    3.148020
  S     -4.866880  -13.792130    2.272540
  C     -5.886970  -14.555990    3.466080
  C     -6.107860  -13.668390    4.546030
  C     -5.480060  -12.397750    4.352630
  C     -5.609560  -11.391400    5.327790
  C     -6.318760  -11.652230    6.464590
  F     -6.451770  -10.698870    7.405310
  C     -6.901560  -12.916260    6.676900
  F     -7.564610  -13.147610    7.825580
  C     -6.799820  -13.911470    5.743910
  C     -6.314350  -15.858200    3.191950
  C     -7.278680  -16.596550    3.840670
  C     -7.595070  -17.906050    3.498400
  C     -8.580380  -18.652580    4.120940
  C     -8.941600  -19.985580    3.849590
  C     -9.957150  -20.464220    4.632690
  C    -10.450700  -19.529020    5.557870
  S     -9.580810  -18.017820    5.413270
  C    -11.478500  -19.691170    6.476780
  C    -12.259120  -20.839820    6.710360
  C    -13.205520  -20.673750    7.679140
  C    -13.230720  -19.386320    8.265930
  S    -11.980710  -18.393400    7.530020
  C    -14.105810  -18.984010    9.246320
  C    -14.223980  -17.735370    9.883780
  C    -15.187940  -17.442520   10.860670
  C    -15.025160  -16.104040   11.277400
  C    -15.707950  -15.334780   12.198480
  C    -15.288280  -14.010900   12.381480
  C    -15.756970  -13.001100   13.214170
  C    -14.968800  -11.828350   13.012490
  C    -14.010620  -12.113910   12.052980
  C    -14.170780  -13.466790   11.628140
  C    -13.488650  -14.224240   10.712770
  C    -13.909430  -15.557500   10.523240
  C    -13.436100  -16.550320    9.687110
  C    -15.120750  -10.556480   13.677010
  C    -16.036800  -10.267840   14.597620
  H      3.167810    0.364710   -0.692100
  H      1.516710   -0.285470    1.132150
  H      2.786760   -3.341670   -2.357790
  H      0.312010   -4.105180    1.444570
  H     -0.046810   -6.884790   -2.650990
  H      1.096380   -4.714870   -2.713630
  H     -1.835640   -4.847510    2.734090
  H     -2.726180   -6.316130    3.141400
  H     -2.844920   -4.864810    0.453420
  H     -4.086880   -4.826020    1.706610
  H     -3.736900   -6.333200    0.856430
  H     -0.609870   -7.454500    3.694630
  H      0.275560   -5.979710    3.297650
  H      0.754900   -8.722460    2.033490
  H      1.775150   -7.947680    3.247890
  H      1.638090   -7.248450    1.633200
  H     -2.571690   -8.876600    2.745750
  H     -2.560520  -10.932610   -1.016380
  H     -1.306150   -9.086400   -2.051950
  H     -3.506340  -12.005950    0.812310
  H     -4.008640  -10.330770    3.319410
  H     -5.157840  -10.422230    5.196320
  H     -7.238240  -14.868320    5.965100
  H     -5.841650  -16.321170    2.333090
  H     -7.855490  -16.155480    4.638930
  H     -7.039540  -18.389100    2.705130
  H     -8.444240  -20.558070    3.086430
  H    -10.356590  -21.459930    4.559630
  H    -12.106740  -21.753450    6.164410
  H    -13.892640  -21.441070    7.990720
  H    -14.813190  -19.739410    9.569800
  H    -15.930730  -18.126390   11.228940
  H    -16.539300  -15.734400   12.762260
  H    -16.579660  -13.088300   13.899900
  H    -13.264160  -11.435190   11.682410
  H    -12.655970  -13.828220   10.148920
  H    -12.613110  -16.453140    9.004350
  H    -14.410130   -9.797250   13.374050
  H    -16.763780  -10.988490   14.930970
  H    -16.091030   -9.293830   15.052210

 Total Charge           Charge          ....    0
 Multiplicity           Mult            ....    1
 Number of Electrons    NEL             ....  462
 Basis Dimension        Dim             .... 1108

ORBITAL ENERGIES
----------------

  NO   OCC          E(Eh)            E(eV)
   0   2.0000     -88.956541     -2420.6305
   1   2.0000     -88.939049     -2420.1546
   2   2.0000     -88.936495     -2420.0851
   3   2.0000     -24.779049      -674.2722
   4   2.0000     -24.777934      -674.2419
   5   2.0000     -14.413261      -392.2048
   6   2.0000     -14.412431      -392.1822
   7   2.0000     -10.359453      -281.8950
   8   2.0000     -10.357942      -281.8539
   9   2.0000     -10.313271      -280.6384
  10   2.0000     -10.306322      -280.4493
  11   2.0000     -10.304233      -280.3924
  12   2.0000     -10.304196      -280.3914
  13   2.0000     -10.302672      -280.3500
  14   2.0000     -10.301749      -280.3248
  15   2.0000     -10.299803      -280.2719
  16   2.0000     -10.299341      -280.2593
  17   2.0000     -10.298211      -280.2286
  18   2.0000     -10.297938      -280.2211
  19   2.0000     -10.297386      -280.2061
  20   2.0000     -10.297054      -280.1971
  21   2.0000     -10.285146      -279.8731
  22   2.0000     -10.284477      -279.8549
  23   2.0000     -10.284235      -279.8483
  24   2.0000     -10.281986      -279.7871
  25   2.0000     -10.280711      -279.7524
  26   2.0000     -10.280246      -279.7397
  27   2.0000     -10.279712      -279.7252
  28   2.0000     -10.278596      -279.6948
  29   2.0000     -10.277731      -279.6713
  30   2.0000     -10.277032      -279.6523
  31   2.0000     -10.276898      -279.6486
  32   2.0000     -10.275895      -279.6213
  33   2.0000     -10.274501      -279.5834
  34   2.0000     -10.273890      -279.5668
  35   2.0000     -10.272571      -279.5309
  36   2.0000     -10.272214      -279.5212
  37   2.0000     -10.272049      -279.5167
  38   2.0000     -10.271437      -279.5000
  39   2.0000     -10.271297      -279.4962
  40   2.0000     -10.269730      -279.4536
  41   2.0000     -10.268771      -279.4275
  42   2.0000     -10.268715      -279.4259
  43   2.0000     -10.268598      -279.4227
  44   2.0000     -10.267068      -279.3811
  45   2.0000     -10.266625      -279.3691
  46   2.0000     -10.266536      -279.3666
  47   2.0000     -10.266428      -279.3637
  48   2.0000     -10.265777      -279.3460
  49   2.0000     -10.264491      -279.3110
  50   2.0000     -10.264212      -279.3034
  51   2.0000     -10.263962      -279.2966
  52   2.0000     -10.263587      -279.2864
  53   2.0000     -10.262865      -279.2668
  54   2.0000     -10.262565      -279.2586
  55   2.0000     -10.262119      -279.2465
  56   2.0000     -10.261897      -279.2404
  57   2.0000     -10.261783      -279.2373
  58   2.0000     -10.261155      -279.2202
  59   2.0000     -10.257172      -279.1118
  60   2.0000     -10.256755      -279.1005
  61   2.0000     -10.255215      -279.0586
  62   2.0000     -10.240547      -278.6595
  63   2.0000     -10.240050      -278.6459
  64   2.0000      -8.051675      -219.0972
  65   2.0000      -8.035071      -218.6454
  66   2.0000      -8.032790      -218.5833
  67   2.0000      -6.020646      -163.8301
  68   2.0000      -6.016718      -163.7232
  69   2.0000      -6.014339      -163.6585
  70   2.0000      -6.004819      -163.3994
  71   2.0000      -6.002469      -163.3355
  72   2.0000      -6.000779      -163.2895
  73   2.0000      -5.998536      -163.2285
  74   2.0000      -5.996007      -163.1596
  75   2.0000      -5.993748      -163.0982
  76   2.0000      -1.299296       -35.3556
  77   2.0000      -1.284566       -34.9548
  78   2.0000      -1.068952       -29.0876
  79   2.0000      -0.993529       -27.0353
  80   2.0000      -0.990084       -26.9416
  81   2.0000      -0.988067       -26.8867
  82   2.0000      -0.983948       -26.7746
  83   2.0000      -0.980988       -26.6940
  84   2.0000      -0.966452       -26.2985
  85   2.0000      -0.957178       -26.0461
  86   2.0000      -0.940843       -25.6017
  87   2.0000      -0.934710       -25.4347
  88   2.0000      -0.915835       -24.9211
  89   2.0000      -0.906396       -24.6643
  90   2.0000      -0.897608       -24.4252
  91   2.0000      -0.887441       -24.1485
  92   2.0000      -0.879259       -23.9259
  93   2.0000      -0.868806       -23.6414
  94   2.0000      -0.861566       -23.4444
  95   2.0000      -0.861306       -23.4373
  96   2.0000      -0.848074       -23.0773
  97   2.0000      -0.841843       -22.9077
  98   2.0000      -0.835493       -22.7349
  99   2.0000      -0.833835       -22.6898
 100   2.0000      -0.831018       -22.6132
 101   2.0000      -0.827113       -22.5069
 102   2.0000      -0.825383       -22.4598
 103   2.0000      -0.822688       -22.3865
 104   2.0000      -0.813924       -22.1480
 105   2.0000      -0.808028       -21.9876
 106   2.0000      -0.795981       -21.6598
 107   2.0000      -0.792442       -21.5634
 108   2.0000      -0.773375       -21.0446
 109   2.0000      -0.757375       -20.6092
 110   2.0000      -0.756387       -20.5823
 111   2.0000      -0.744821       -20.2676
 112   2.0000      -0.740598       -20.1527
 113   2.0000      -0.737351       -20.0644
 114   2.0000      -0.728738       -19.8300
 115   2.0000      -0.727370       -19.7927
 116   2.0000      -0.713790       -19.4232
 117   2.0000      -0.706257       -19.2182
 118   2.0000      -0.699135       -19.0244
 119   2.0000      -0.682349       -18.5677
 120   2.0000      -0.674115       -18.3436
 121   2.0000      -0.670051       -18.2330
 122   2.0000      -0.668116       -18.1804
 123   2.0000      -0.666509       -18.1366
 124   2.0000      -0.665535       -18.1101
 125   2.0000      -0.656613       -17.8674
 126   2.0000      -0.649327       -17.6691
 127   2.0000      -0.640578       -17.4310
 128   2.0000      -0.639482       -17.4012
 129   2.0000      -0.633518       -17.2389
 130   2.0000      -0.630131       -17.1467
 131   2.0000      -0.622139       -16.9293
 132   2.0000      -0.617977       -16.8160
 133   2.0000      -0.613369       -16.6906
 134   2.0000      -0.609306       -16.5801
 135   2.0000      -0.603335       -16.4176
 136   2.0000      -0.600546       -16.3417
 137   2.0000      -0.596753       -16.2385
 138   2.0000      -0.596253       -16.2249
 139   2.0000      -0.589610       -16.0441
 140   2.0000      -0.588098       -16.0029
 141   2.0000      -0.584750       -15.9119
 142   2.0000      -0.577168       -15.7056
 143   2.0000      -0.573169       -15.5967
 144   2.0000      -0.568679       -15.4745
 145   2.0000      -0.564981       -15.3739
 146   2.0000      -0.559062       -15.2129
 147   2.0000      -0.552736       -15.0407
 148   2.0000      -0.546822       -14.8798
 149   2.0000      -0.541017       -14.7218
 150   2.0000      -0.537283       -14.6202
 151   2.0000      -0.536372       -14.5954
 152   2.0000      -0.533107       -14.5066
 153   2.0000      -0.530862       -14.4455
 154   2.0000      -0.529330       -14.4038
 155   2.0000      -0.527427       -14.3520
 156   2.0000      -0.523908       -14.2563
 157   2.0000      -0.520542       -14.1647
 158   2.0000      -0.518412       -14.1067
 159   2.0000      -0.514818       -14.0089
 160   2.0000      -0.511215       -13.9109
 161   2.0000      -0.510998       -13.9050
 162   2.0000      -0.510151       -13.8819
 163   2.0000      -0.503699       -13.7064
 164   2.0000      -0.500848       -13.6288
 165   2.0000      -0.496299       -13.5050
 166   2.0000      -0.493612       -13.4319
 167   2.0000      -0.492341       -13.3973
 168   2.0000      -0.491013       -13.3611
 169   2.0000      -0.488621       -13.2961
 170   2.0000      -0.487751       -13.2724
 171   2.0000      -0.485919       -13.2225
 172   2.0000      -0.481733       -13.1086
 173   2.0000      -0.479031       -13.0351
 174   2.0000      -0.475899       -12.9499
 175   2.0000      -0.471483       -12.8297
 176   2.0000      -0.470623       -12.8063
 177   2.0000      -0.469204       -12.7677
 178   2.0000      -0.465427       -12.6649
 179   2.0000      -0.464271       -12.6334
 180   2.0000      -0.462685       -12.5903
 181   2.0000      -0.461214       -12.5503
 182   2.0000      -0.460061       -12.5189
 183   2.0000      -0.459406       -12.5011
 184   2.0000      -0.452480       -12.3126
 185   2.0000      -0.448369       -12.2008
 186   2.0000      -0.447965       -12.1897
 187   2.0000      -0.445202       -12.1146
 188   2.0000      -0.442802       -12.0493
 189   2.0000      -0.441876       -12.0241
 190   2.0000      -0.439259       -11.9529
 191   2.0000      -0.435358       -11.8467
 192   2.0000      -0.434081       -11.8119
 193   2.0000      -0.423745       -11.5307
 194   2.0000      -0.421709       -11.4753
 195   2.0000      -0.418623       -11.3913
 196   2.0000      -0.418266       -11.3816
 197   2.0000      -0.417378       -11.3574
 198   2.0000      -0.416699       -11.3390
 199   2.0000      -0.414401       -11.2764
 200   2.0000      -0.412242       -11.2177
 201   2.0000      -0.410290       -11.1646
 202   2.0000      -0.407944       -11.1007
 203   2.0000      -0.402047       -10.9402
 204   2.0000      -0.401246       -10.9185
 205   2.0000      -0.398707       -10.8494
 206   2.0000      -0.395266       -10.7557
 207   2.0000      -0.388765       -10.5788
 208   2.0000      -0.387944       -10.5565
 209   2.0000      -0.382277       -10.4023
 210   2.0000      -0.379947       -10.3389
 211   2.0000      -0.377346       -10.2681
 212   2.0000      -0.372657       -10.1405
 213   2.0000      -0.370006       -10.0684
 214   2.0000      -0.364318        -9.9136
 215   2.0000      -0.354277        -9.6404
 216   2.0000      -0.344122        -9.3640
 217   2.0000      -0.331297        -9.0150
 218   2.0000      -0.323654        -8.8071
 219   2.0000      -0.316721        -8.6184
 220   2.0000      -0.315294        -8.5796
 221   2.0000      -0.313485        -8.5304
 222   2.0000      -0.311821        -8.4851
 223   2.0000      -0.308705        -8.4003
 224   2.0000      -0.305596        -8.3157
 225   2.0000      -0.293123        -7.9763
 226   2.0000      -0.270646        -7.3647
 227   2.0000      -0.266123        -7.2416
 228   2.0000      -0.252169        -6.8619
 229   2.0000      -0.227400        -6.1879
 230   2.0000      -0.185762        -5.0548
 231   0.0000      -0.095858        -2.6084
 232   0.0000      -0.081590        -2.2202
 233   0.0000      -0.044495        -1.2108
 234   0.0000      -0.023418        -0.6372
 235   0.0000      -0.004355        -0.1185

MULLIKEN ATOMIC CHARGES
-----------------------
   0 C :    0.016155
   1 C :    0.033972
   2 N :   -0.054848
   3 C :   -0.031029
   4 C :   -0.006021
   5 N :   -0.049918
   6 C :    0.112812
   7 C :   -0.092193
   8 C :    0.017960
   9 C :    0.119803
  10 C :   -0.056332
  11 C :   -0.017143
  12 C :    0.104262
  13 C :    0.012164
  14 C :   -0.139208
  15 C :    0.072061
  16 C :    0.023846
  17 C :    0.070423
  18 C :    0.026160
  19 C :   -0.090210
  20 C :    0.130052
  21 C :   -0.021114
  22 C :   -0.045625
  23 C :   -0.031433
  24 C :    0.014062
  25 C :   -0.090937
  26 S :    0.135587
  27 C :   -0.105767
  28 C :    0.138700
  29 C :    0.119152
  30 C :   -0.118052
  31 C :    0.223265
  32 F :   -0.184503
  33 C :    0.218241
  34 F :   -0.183871
  35 C :   -0.123166
  36 C :    0.024915
  37 C :   -0.016518
  38 C :   -0.013260
  39 C :   -0.018149
  40 C :    0.027360
  41 C :    0.023074
  42 C :   -0.046803
  43 S :    0.056987
  44 C :   -0.026591
  45 C :    0.021042
  46 C :    0.032392
  47 C :   -0.026547
  48 S :    0.049408
  49 C :   -0.013036
  50 C :    0.060878
  51 C :   -0.040364
  52 C :    0.068351
  53 C :   -0.001370
  54 C :    0.049029
  55 C :   -0.020366
  56 C :    0.060104
  57 C :   -0.024688
  58 C :    0.056908
  59 C :    0.002455
  60 C :    0.039593
  61 C :   -0.027518
  62 C :    0.012323
  63 C :   -0.026585
  64 H :    0.009077
  65 H :    0.007189
  66 H :    0.000584
  67 H :   -0.026175
  68 H :   -0.037259
  69 H :   -0.027395
  70 H :    0.000437
  71 H :   -0.007001
  72 H :    0.023167
  73 H :    0.007706
  74 H :    0.019311
  75 H :   -0.005024
  76 H :   -0.001054
  77 H :    0.021203
  78 H :    0.007615
  79 H :    0.020538
  80 H :   -0.048569
  81 H :   -0.031288
  82 H :   -0.037509
  83 H :   -0.020878
  84 H :   -0.019432
  85 H :   -0.017248
  86 H :   -0.015690
  87 H :   -0.021657
  88 H :    0.003642
  89 H :   -0.021173
  90 H :   -0.017431
  91 H :   -0.017561
  92 H :   -0.017723
  93 H :   -0.015362
  94 H :   -0.025145
  95 H :   -0.029956
  96 H :   -0.025981
  97 H :   -0.023122
  98 H :   -0.024537
  99 H :   -0.019567
 100 H :   -0.004922
 101 H :   -0.018774
 102 H :    0.006878
 103 H :    0.019760
Sum of atomic charges:   -0.0000000

LOEWDIN ATOMIC CHARGES
----------------------
   0 C :   -0.009597
   1 C :    0.001280
   2 N :   -0.050624
   3 C :    0.002087
   4 C :    0.001164
   5 N :   -0.042987
   6 C :   -0.036903
   7 C :   -0.002502
   8 C :    0.001888
   9 C :   -0.011593
  10 C :   -0.021678
  11 C :   -0.016992
  12 C :   -0.020774
  13 C :    0.006596
  14 C :   -0.035667
  15 C :   -0.011484
  16 C :   -0.057804
  17 C :   -0.011029
  18 C :   -0.057742
  19 C :   -0.020762
  20 C :   -0.022036
  21 C :   -0.020190
  22 C :   -0.018272
  23 C :   -0.027963
  24 C :   -0.042420
  25 C :   -0.180518
  26 S :    0.466777
  27 C :   -0.165856
  28 C :   -0.048488
  29 C :   -0.042274
  30 C :   -0.040874
  31 C :    0.059327
  32 F :   -0.062259
  33 C :    0.057878
  34 F :   -0.062765
  35 C :   -0.037805
  36 C :   -0.056182
  37 C :   -0.034140
  38 C :   -0.064608
  39 C :   -0.144728
  40 C :   -0.044417
  41 C :   -0.032510
  42 C :   -0.188289
  43 S :    0.365853
  44 C :   -0.173420
  45 C :   -0.045275
  46 C :   -0.028384
  47 C :   -0.160104
  48 S :    0.376549
  49 C :   -0.039723
  50 C :   -0.066506
  51 C :    0.014050
  52 C :   -0.062129
  53 C :    0.074268
  54 C :   -0.064912
  55 C :    0.049703
  56 C :   -0.061551
  57 C :    0.020406
  58 C :   -0.061583
  59 C :    0.075776
  60 C :   -0.063273
  61 C :    0.032873
  62 C :   -0.020724
  63 C :   -0.056337
  64 H :    0.024056
  65 H :    0.024734
  66 H :    0.022661
  67 H :    0.027085
  68 H :    0.026173
  69 H :    0.025581
  70 H :    0.021522
  71 H :    0.018079
  72 H :    0.026209
  73 H :    0.023533
  74 H :    0.024651
  75 H :    0.018760
  76 H :    0.020669
  77 H :    0.025370
  78 H :    0.023551
  79 H :    0.025179
  80 H :    0.021099
  81 H :    0.025349
  82 H :    0.026373
  83 H :    0.019265
  84 H :    0.028573
  85 H :    0.037758
  86 H :    0.038773
  87 H :    0.026755
  88 H :    0.019055
  89 H :    0.030682
  90 H :    0.031500
  91 H :    0.030381
  92 H :    0.030328
  93 H :    0.032104
  94 H :    0.034768
  95 H :    0.023028
  96 H :    0.034427
  97 H :    0.025195
  98 H :    0.025430
  99 H :    0.037166
 100 H :    0.015414
 101 H :    0.029511
 102 H :    0.017250
 103 H :    0.024181

  Mayer bond orders larger than 0.100000
B(  0-C ,  1-C ) :   1.3585 B(  0-C ,  5-N ) :   1.5354 B(  0-C , 64-H ) :   0.9778
B(  1-C ,  2-N ) :   1.5469 B(  1-C , 65-H ) :   0.9761 B(  2-N ,  3-C ) :   1.5633
B(  3-C ,  4-C ) :   1.3306 B(  3-C ,  6-C ) :   0.9650 B(  4-C ,  5-N ) :   1.5828
B(  4-C , 66-H ) :   0.9778 B(  6-C ,  7-C ) :   1.3293 B(  6-C , 11-C ) :   1.3739
B(  7-C ,  8-C ) :   1.3605 B(  7-C , 67-H ) :   1.0113 B(  8-C ,  9-C ) :   1.3633
B(  8-C , 14-C ) :   0.9134 B(  9-C , 10-C ) :   1.3460 B(  9-C , 12-C ) :   0.9944
B( 10-C , 11-C ) :   1.3796 B( 10-C , 68-H ) :   0.9907 B( 11-C , 69-H ) :   0.9832
B( 12-C , 13-C ) :   1.3551 B( 12-C , 22-C ) :   1.3405 B( 13-C , 14-C ) :   0.9157
B( 13-C , 19-C ) :   1.4149 B( 14-C , 15-C ) :   1.0411 B( 14-C , 17-C ) :   1.0363
B( 15-C , 16-C ) :   1.1001 B( 15-C , 70-H ) :   0.9387 B( 15-C , 71-H ) :   0.9386
B( 16-C , 72-H ) :   0.9646 B( 16-C , 73-H ) :   0.9641 B( 16-C , 74-H ) :   0.9646
B( 17-C , 18-C ) :   1.1032 B( 17-C , 75-H ) :   0.9393 B( 17-C , 76-H ) :   0.9392
B( 18-C , 77-H ) :   0.9641 B( 18-C , 78-H ) :   0.9634 B( 18-C , 79-H ) :   0.9640
B( 19-C , 20-C ) :   1.2903 B( 19-C , 80-H ) :   0.9978 B( 20-C , 21-C ) :   1.3298
B( 20-C , 23-C ) :   1.0837 B( 21-C , 22-C ) :   1.3792 B( 21-C , 81-H ) :   0.9924
B( 22-C , 82-H ) :   0.9909 B( 23-C , 24-C ) :   1.6418 B( 23-C , 83-H ) :   0.9809
B( 24-C , 25-C ) :   1.1943 B( 24-C , 84-H ) :   0.9598 B( 25-C , 26-S ) :   1.1276
B( 25-C , 29-C ) :   1.3155 B( 26-S , 27-C ) :   1.1382 B( 27-C , 28-C ) :   1.3054
B( 27-C , 36-C ) :   1.2096 B( 28-C , 29-C ) :   1.2183 B( 28-C , 35-C ) :   1.1676
B( 29-C , 30-C ) :   1.1689 B( 30-C , 31-C ) :   1.4978 B( 30-C , 35-C ) :   0.1121
B( 30-C , 85-H ) :   0.9980 B( 31-C , 32-F ) :   1.1253 B( 31-C , 33-C ) :   1.1662
B( 33-C , 34-F ) :   1.1266 B( 33-C , 35-C ) :   1.4946 B( 35-C , 86-H ) :   0.9957
B( 36-C , 37-C ) :   1.5524 B( 36-C , 87-H ) :   0.9545 B( 37-C , 38-C ) :   1.2220
B( 37-C , 88-H ) :   0.9691 B( 38-C , 39-C ) :   1.4897 B( 38-C , 89-H ) :   0.9857
B( 39-C , 40-C ) :   1.1782 B( 39-C , 43-S ) :   1.0420 B( 40-C , 41-C ) :   1.5455
B( 40-C , 90-H ) :   1.0004 B( 41-C , 42-C ) :   1.2234 B( 41-C , 91-H ) :   0.9931
B( 42-C , 43-S ) :   1.0416 B( 42-C , 44-C ) :   1.4675 B( 44-C , 45-C ) :   1.2069
B( 44-C , 48-S ) :   1.0515 B( 45-C , 46-C ) :   1.5690 B( 45-C , 92-H ) :   0.9931
B( 46-C , 47-C ) :   1.1550 B( 46-C , 93-H ) :   0.9991 B( 47-C , 48-S ) :   1.0188
B( 47-C , 49-C ) :   1.5578 B( 49-C , 50-C ) :   1.1453 B( 49-C , 94-H ) :   0.9690
B( 50-C , 51-C ) :   1.4085 B( 50-C , 61-C ) :   1.1399 B( 51-C , 52-C ) :   1.1316
B( 51-C , 95-H ) :   1.0196 B( 52-C , 53-C ) :   1.4043 B( 52-C , 60-C ) :   1.1317
B( 53-C , 54-C ) :   1.1539 B( 53-C , 96-H ) :   1.0060 B( 54-C , 55-C ) :   1.4062
B( 54-C , 58-C ) :   1.1284 B( 55-C , 56-C ) :   1.1661 B( 55-C , 97-H ) :   1.0089
B( 56-C , 57-C ) :   1.4817 B( 56-C , 62-C ) :   1.0849 B( 57-C , 58-C ) :   1.0973
B( 57-C , 98-H ) :   1.0173 B( 58-C , 59-C ) :   1.4478 B( 59-C , 60-C ) :   1.1306
B( 59-C , 99-H ) :   1.0065 B( 60-C , 61-C ) :   1.4470 B( 61-C ,100-H ) :   0.9927
B( 62-C , 63-C ) :   1.9338 B( 62-C ,101-H ) :   0.9662 B( 63-C ,102-H ) :   0.9526
B( 63-C ,103-H ) :   0.9492

-----------------------------------------------------------------------------
         ABSORPTION SPECTRUM VIA TRANSITION ELECTRIC DIPOLE MOMENTS
-----------------------------------------------------------------------------
State   Energy  Wavelength   fosc         T2         TX        TY        TZ
        (cm-1)    (nm)                  (au**2)     (au)      (au)      (au)
-----------------------------------------------------------------------------
   0    4960.3   2016.0   0.024420260   1.62075  -0.93939  -0.08415   0.85511
   1   10119.4    988.2   1.458721220  47.45624  -5.04407  -2.77191   3.78551
   2   12838.0    778.9   0.019138460   0.49078   0.51196   0.34382  -0.33237
   3   17361.6    576.0   0.044050746   0.83529  -0.63714   0.24282   0.60859
   4   19622.8    509.6   1.181232742  19.81758  -0.13065  -4.29657  -1.15760
   5   20993.8    476.3   0.014432391   0.22632  -0.38345  -0.03729   0.27910
   6   22139.3    451.7   0.281306878   4.18304   0.15733  -1.88398  -0.78033
   7   24233.3    412.7   0.014398954   0.19561   0.22651  -0.18716  -0.33057
   8   24964.2    400.6   0.309356330   4.07960   1.24084   0.71102  -1.42631
   9   26565.4    376.4   0.599278953   7.42656   0.22960  -2.25085  -1.51905
  10   26897.3    371.8   0.040907785   0.50069  -0.01065   0.60932   0.35960
  11   27878.6    358.7   0.095390599   1.12645  -0.60751  -0.07045   0.86742
  12   28320.6    353.1   0.358560007   4.16807   1.14267  -0.51538  -1.61145
  13   29170.9    342.8   0.099227533   1.11984   0.32663   1.00086  -0.10694
  14   31015.6    322.4   0.196525627   2.08600  -0.27894  -1.39386  -0.25562
  15   31395.0    318.5   0.018157837   0.19041  -0.16620  -0.33240   0.22868
  16   31608.8    316.4   0.131431430   1.36888  -0.76543  -0.23967   0.85180
  17   32009.1    312.4   0.003564934   0.03667   0.00236   0.19146   0.00096
  18   32193.4    310.6   0.075635559   0.77345   0.19573  -0.69801  -0.49792
  19   33233.8    300.9   0.117535297   1.16430   0.03401  -0.78183  -0.74289
  20   33348.6    299.9   0.492515552   4.86203  -0.62304  -2.11391  -0.07252
  21   33637.2    297.3   0.090398092   0.88474  -0.52619  -0.66346   0.40950
  22   34210.0    292.3   0.074649853   0.71838   0.16889  -0.71192  -0.42782
  23   34260.7    291.9   0.045334411   0.43562   0.41720   0.19763  -0.47171
  24   34725.5    288.0   0.013207133   0.12521  -0.13580  -0.25275  -0.20709
  25   35229.9    283.8   0.009405205   0.08789  -0.17646  -0.21508   0.10243
  26   35400.0    282.5   0.033226792   0.30900   0.12286  -0.35299  -0.41146
  27   35681.7    280.3   0.097282259   0.89756   0.39508   0.67907  -0.52947
  28   35873.5    278.8   0.007255148   0.06658   0.23338  -0.07052  -0.08451
  29   36340.8    275.2   0.052109047   0.47206   0.47278   0.43840  -0.23737
  30   36435.6    274.5   0.010325864   0.09330   0.27996   0.09823   0.07260
  31   36879.0    271.2   0.009917484   0.08853   0.02921  -0.25749  -0.14621
  32   36954.7    270.6   0.083949108   0.74786   0.23220  -0.52988  -0.64279
  33   37688.4    265.3   0.095956313   0.83819   0.30266   0.83994   0.20269
  34   38087.3    262.6   0.007987531   0.06904   0.16993   0.12873  -0.15360
  35   38625.6    258.9   0.019874862   0.16940  -0.11692  -0.30366  -0.25202
  36   38760.3    258.0   0.048986910   0.41607   0.02608   0.55457   0.32839
  37   39498.8    253.2   0.117111087   0.97609  -0.15821   0.69273   0.68643
  38   39727.1    251.7   0.099875156   0.82765  -0.22722   0.64372   0.60137
  39   39812.3    251.2   0.028844408   0.23852  -0.08858  -0.38020  -0.29346
  40   40157.4    249.0   0.013261457   0.10872  -0.05242   0.32521   0.01451

FINAL SINGLE POINT ENERGY     -3696.239995162145

DIPOLE MOMENT
-------------
                                X             Y             Z
Electronic contribution:    -27.35711     -46.26584      15.52264
Nuclear contribution   :     26.42690      45.20907     -15.41146
                        -----------------------------------------
Total Dipole Moment    :     -0.93021      -1.05677       0.11118
                        -----------------------------------------
Magnitude (a.u.)       :      1.41224
Magnitude (Debye)      :      3.58962

Rotational constants in cm-1:     0.001572     0.000261     0.000227
Rotational constants in MHz :    47.122052     7.821409     6.802503

                             ****ORCA TERMINATED NORMALLY****
TOTAL RUN TIME: 0 days 0 hours 11 minutes 20 seconds 920 msec
