                         Program Version 4.2.0 -  RELEASE  -
|  1> # ORCA input file
|  2> # SCF done       -182.772658491771          0.000530134107
|  3> ! CAM-B3LYP def2-SVP def2/J RIJCOSX Grid4 TightSCF
|  4> %maxcore 5000
|  5> %tddft
|  6>     Mode sTDDFT
|  7>     Ethresh 5.0
|  8>     maxcore 5000
|  9> end
| 10>
| 11> %pal
| 12>   nprocs 6
| 13>   end
| 14> * xyz 0 1
| 15>    C       17.79647        10.65612         2.38403
| 16>    C       17.98830        11.95641         2.68991
| 17>    S       16.56360        12.92260         2.52809
| 18>    C       15.66787        11.52513         2.02052
| 19>    C       16.45409        10.36525         1.99275
| 20>    C       15.89172         9.13059         1.59182
| 21>    C       16.79149         7.92502         1.66058
| 22>    C       17.00083         7.47971         3.11093
| 23>    C       14.56814         9.07179         1.19029
| 24>    C       13.95845         7.79414         0.67415
| 25>    C       13.47672         6.87187         1.79436
| 26>    C       13.76671        10.24296         1.23911
| 27>    C       12.37744        10.43205         0.90772
| 28>    C       11.97615        11.71753         1.07107
| 29>    S       13.20837        12.78151         1.63227
| 30>    C       14.33201        11.46021         1.65707
| 31>    C       11.41214         9.41785         0.45449
| 32>    C       10.69928         8.68183         1.30663
| 33>    N        9.76156         7.75160         0.90888
| 34>    C        9.18949         6.82884         1.71091
| 35>    S        9.66653         6.67162         3.36814
| 36>    C        8.55529         5.34512         3.54884
| 37>    N        8.47692         4.75875         4.81021
| 38>    O        7.70471         3.83032         4.96597
| 39>    O        9.20288         5.23003         5.67419
| 40>    C        7.87330         5.04714         2.40090
| 41>    C        8.21547         5.89055         1.32681
| 42>    C        7.64226         5.84511         0.01271
| 43>    C        6.84347         4.86807        -0.46234
| 44>    C        6.27368         4.88163        -1.76602
| 45>    C        5.50884         3.87581        -2.34006
| 46>    C        5.21827         2.69630        -1.63530
| 47>    N        5.00950         1.75767        -1.01079
| 48>    C        5.08322         4.19069        -3.65923
| 49>    C        5.53580         5.44662        -4.04478
| 50>    S        6.47939         6.24599        -2.84827
| 51>    S        5.06238         5.94961        -5.63422
| 52>    C        4.23602         4.43361        -5.80276
| 53>    C        4.32025         3.58706        -4.70273
| 54>    C        3.63593         2.36897        -4.93903
| 55>    C        3.53241         1.29111        -4.05276
| 56>    N        3.42203         0.37389        -3.37055
| 57>    C        3.04413         2.31894        -6.20845
| 58>    S        3.32987         3.79137        -7.12061
| 59>    C        2.31822         1.23350        -6.71948
| 60>    C        1.70436         1.14408        -7.94393
| 61>    C        0.99250         0.01972        -8.43392
| 62>    C        0.46710         0.18653        -9.67928
| 63>    C        0.72682         1.45288       -10.24414
| 64>    S        1.68014         2.42526        -9.13696
| 65>    C        0.32217         1.95491       -11.46528
| 66>    C       -0.43721         1.31624       -12.47160
| 67>    C       -0.68375         2.10207       -13.55495
| 68>    C       -0.14081         3.41122       -13.47616
| 69>    S        0.71740         3.58493       -11.95002
| 70>    C       -0.28117         4.38343       -14.43138
| 71>    C        0.20338         5.70921       -14.43119
| 72>    C       -0.03620         6.63511       -15.45070
| 73>    C        0.58808         7.86203       -15.11371
| 74>    C        0.64805         9.07501       -15.76258
| 75>    C        1.36394        10.11271       -15.14274
| 76>    C        1.60663        11.42258       -15.53002
| 77>    C        2.40126        12.06677       -14.52917
| 78>    C        2.64717        11.15060       -13.52331
| 79>    C        2.01858         9.91146       -13.86178
| 80>    C        1.96118         8.70910       -13.21185
| 81>    C        1.24062         7.66442       -13.83147
| 82>    C        1.00194         6.36558       -13.43078
| 83>    C        2.87546        13.42965       -14.54476
| 84>    C        2.66163        14.31292       -15.51622
| 85>    H       18.58704         9.92960         2.42433
| 86>    H       18.89579        12.43120         3.00815
| 87>    H       17.75923         8.17457         1.21954
| 88>    H       16.37977         7.09212         1.09430
| 89>    H       17.45604         8.27232         3.69892
| 90>    H       17.64787         6.60590         3.14568
| 91>    H       16.05092         7.22576         3.57516
| 92>    H       14.68051         7.26136         0.05281
| 93>    H       13.11275         8.04587         0.03495
| 94>    H       14.31423         6.49292         2.37156
| 95>    H       12.93802         6.02331         1.37723
| 96>    H       12.81361         7.40564         2.46989
| 97>    H       10.99286        12.10905         0.89546
| 98>    H       11.24539         9.33968        -0.61399
| 99>    H       10.83163         8.76507         2.37513
|100>    H        9.54591         7.71062        -0.07886
|101>    H        7.14518         4.25842         2.35667
|102>    H        7.86417         6.67695        -0.64579
|103>    H        6.60323         4.00145         0.13684
|104>    H        2.24100         0.37451        -6.06485
|105>    H        0.89519        -0.87427        -7.84408
|106>    H       -0.10207        -0.56203       -10.20080
|107>    H       -0.77799         0.30190       -12.36718
|108>    H       -1.24636         1.78631       -14.41622
|109>    H       -0.85364         4.09801       -15.30647
|110>    H       -0.60480         6.45054       -16.34369
|111>    H        0.16419         9.23274       -16.71626
|112>    H        1.25438        11.88340       -16.43464
|113>    H        3.21663        11.32817       -12.62921
|114>    H        2.44339         8.54823       -12.25798
|115>    H        1.35644         5.91780       -12.52169
|116>    H        3.45229        13.72004       -13.67530
|117>    H        2.09609        14.07089       -16.39959
|118>    H        3.04768        15.31583       -15.45975
|119> *
|120>
|121>                          ****END OF INPUT****

CARTESIAN COORDINATES (ANGSTROEM)
---------------------------------
  C     17.796470   10.656120    2.384030
  C     17.988300   11.956410    2.689910
  S     16.563600   12.922600    2.528090
  C     15.667870   11.525130    2.020520
  C     16.454090   10.365250    1.992750
  C     15.891720    9.130590    1.591820
  C     16.791490    7.925020    1.660580
  C     17.000830    7.479710    3.110930
  C     14.568140    9.071790    1.190290
  C     13.958450    7.794140    0.674150
  C     13.476720    6.871870    1.794360
  C     13.766710   10.242960    1.239110
  C     12.377440   10.432050    0.907720
  C     11.976150   11.717530    1.071070
  S     13.208370   12.781510    1.632270
  C     14.332010   11.460210    1.657070
  C     11.412140    9.417850    0.454490
  C     10.699280    8.681830    1.306630
  N      9.761560    7.751600    0.908880
  C      9.189490    6.828840    1.710910
  S      9.666530    6.671620    3.368140
  C      8.555290    5.345120    3.548840
  N      8.476920    4.758750    4.810210
  O      7.704710    3.830320    4.965970
  O      9.202880    5.230030    5.674190
  C      7.873300    5.047140    2.400900
  C      8.215470    5.890550    1.326810
  C      7.642260    5.845110    0.012710
  C      6.843470    4.868070   -0.462340
  C      6.273680    4.881630   -1.766020
  C      5.508840    3.875810   -2.340060
  C      5.218270    2.696300   -1.635300
  N      5.009500    1.757670   -1.010790
  C      5.083220    4.190690   -3.659230
  C      5.535800    5.446620   -4.044780
  S      6.479390    6.245990   -2.848270
  S      5.062380    5.949610   -5.634220
  C      4.236020    4.433610   -5.802760
  C      4.320250    3.587060   -4.702730
  C      3.635930    2.368970   -4.939030
  C      3.532410    1.291110   -4.052760
  N      3.422030    0.373890   -3.370550
  C      3.044130    2.318940   -6.208450
  S      3.329870    3.791370   -7.120610
  C      2.318220    1.233500   -6.719480
  C      1.704360    1.144080   -7.943930
  C      0.992500    0.019720   -8.433920
  C      0.467100    0.186530   -9.679280
  C      0.726820    1.452880  -10.244140
  S      1.680140    2.425260   -9.136960
  C      0.322170    1.954910  -11.465280
  C     -0.437210    1.316240  -12.471600
  C     -0.683750    2.102070  -13.554950
  C     -0.140810    3.411220  -13.476160
  S      0.717400    3.584930  -11.950020
  C     -0.281170    4.383430  -14.431380
  C      0.203380    5.709210  -14.431190
  C     -0.036200    6.635110  -15.450700
  C      0.588080    7.862030  -15.113710
  C      0.648050    9.075010  -15.762580
  C      1.363940   10.112710  -15.142740
  C      1.606630   11.422580  -15.530020
  C      2.401260   12.066770  -14.529170
  C      2.647170   11.150600  -13.523310
  C      2.018580    9.911460  -13.861780
  C      1.961180    8.709100  -13.211850
  C      1.240620    7.664420  -13.831470
  C      1.001940    6.365580  -13.430780
  C      2.875460   13.429650  -14.544760
  C      2.661630   14.312920  -15.516220
  H     18.587040    9.929600    2.424330
  H     18.895790   12.431200    3.008150
  H     17.759230    8.174570    1.219540
  H     16.379770    7.092120    1.094300
  H     17.456040    8.272320    3.698920
  H     17.647870    6.605900    3.145680
  H     16.050920    7.225760    3.575160
  H     14.680510    7.261360    0.052810
  H     13.112750    8.045870    0.034950
  H     14.314230    6.492920    2.371560
  H     12.938020    6.023310    1.377230
  H     12.813610    7.405640    2.469890
  H     10.992860   12.109050    0.895460
  H     11.245390    9.339680   -0.613990
  H     10.831630    8.765070    2.375130
  H      9.545910    7.710620   -0.078860
  H      7.145180    4.258420    2.356670
  H      7.864170    6.676950   -0.645790
  H      6.603230    4.001450    0.136840
  H      2.241000    0.374510   -6.064850
  H      0.895190   -0.874270   -7.844080
  H     -0.102070   -0.562030  -10.200800
  H     -0.777990    0.301900  -12.367180
  H     -1.246360    1.786310  -14.416220
  H     -0.853640    4.098010  -15.306470
  H     -0.604800    6.450540  -16.343690
  H      0.164190    9.232740  -16.716260
  H      1.254380   11.883400  -16.434640
  H      3.216630   11.328170  -12.629210
  H      2.443390    8.548230  -12.257980
  H      1.356440    5.917800  -12.521690
  H      3.452290   13.720040  -13.675300
  H      2.096090   14.070890  -16.399590
  H      3.047680   15.315830  -15.459750

 Total Charge           Charge          ....    0
 Multiplicity           Mult            ....    1
 Number of Electrons    NEL             ....  542
 Basis Dimension        Dim             .... 1182

ORBITAL ENERGIES
----------------

  NO   OCC          E(Eh)            E(eV)
   0   2.0000     -88.981212     -2421.3019
   1   2.0000     -88.980981     -2421.2956
   2   2.0000     -88.980543     -2421.2837
   3   2.0000     -88.974532     -2421.1201
   4   2.0000     -88.950110     -2420.4555
   5   2.0000     -88.950005     -2420.4527
   6   2.0000     -88.948689     -2420.4169
   7   2.0000     -88.946469     -2420.3565
   8   2.0000     -19.226856      -523.1893
   9   2.0000     -19.226736      -523.1861
  10   2.0000     -14.638978      -398.3468
  11   2.0000     -14.481745      -394.0683
  12   2.0000     -14.397175      -391.7670
  13   2.0000     -14.389026      -391.5453
  14   2.0000     -10.370432      -282.1938
  15   2.0000     -10.334203      -281.2080
  16   2.0000     -10.332496      -281.1615
  17   2.0000     -10.330067      -281.0954
  18   2.0000     -10.329769      -281.0873
  19   2.0000     -10.325474      -280.9704
  20   2.0000     -10.323512      -280.9170
  21   2.0000     -10.318329      -280.7760
  22   2.0000     -10.316712      -280.7320
  23   2.0000     -10.314088      -280.6606
  24   2.0000     -10.309100      -280.5249
  25   2.0000     -10.308602      -280.5113
  26   2.0000     -10.308501      -280.5086
  27   2.0000     -10.305637      -280.4306
  28   2.0000     -10.305196      -280.4186
  29   2.0000     -10.304337      -280.3953
  30   2.0000     -10.303249      -280.3657
  31   2.0000     -10.303073      -280.3609
  32   2.0000     -10.300295      -280.2853
  33   2.0000     -10.296650      -280.1861
  34   2.0000     -10.296182      -280.1734
  35   2.0000     -10.295645      -280.1588
  36   2.0000     -10.294101      -280.1167
  37   2.0000     -10.293275      -280.0943
  38   2.0000     -10.292765      -280.0804
  39   2.0000     -10.292027      -280.0603
  40   2.0000     -10.291927      -280.0576
  41   2.0000     -10.291107      -280.0353
  42   2.0000     -10.290247      -280.0118
  43   2.0000     -10.290038      -280.0062
  44   2.0000     -10.289444      -279.9900
  45   2.0000     -10.288887      -279.9749
  46   2.0000     -10.288606      -279.9672
  47   2.0000     -10.285740      -279.8892
  48   2.0000     -10.283159      -279.8190
  49   2.0000     -10.282998      -279.8146
  50   2.0000     -10.282619      -279.8043
  51   2.0000     -10.281872      -279.7840
  52   2.0000     -10.280365      -279.7429
  53   2.0000     -10.278958      -279.7047
  54   2.0000     -10.275816      -279.6192
  55   2.0000     -10.274656      -279.5876
  56   2.0000     -10.274238      -279.5762
  57   2.0000     -10.272732      -279.5353
  58   2.0000     -10.272273      -279.5228
  59   2.0000     -10.271636      -279.5054
  60   2.0000     -10.271217      -279.4940
  61   2.0000     -10.271098      -279.4908
  62   2.0000     -10.270451      -279.4732
  63   2.0000     -10.269023      -279.4343
  64   2.0000     -10.268529      -279.4209
  65   2.0000     -10.263679      -279.2889
  66   2.0000     -10.263096      -279.2730
  67   2.0000     -10.261770      -279.2369
  68   2.0000     -10.255410      -279.0639
  69   2.0000     -10.253171      -279.0030
  70   2.0000      -8.076336      -219.7683
  71   2.0000      -8.076329      -219.7681
  72   2.0000      -8.075626      -219.7490
  73   2.0000      -8.069337      -219.5778
  74   2.0000      -8.046134      -218.9464
  75   2.0000      -8.046055      -218.9443
  76   2.0000      -8.044853      -218.9116
  77   2.0000      -8.042547      -218.8488
  78   2.0000      -6.046081      -164.5222
  79   2.0000      -6.045858      -164.5162
  80   2.0000      -6.045613      -164.5095
  81   2.0000      -6.041836      -164.4067
  82   2.0000      -6.041625      -164.4010
  83   2.0000      -6.041394      -164.3947
  84   2.0000      -6.039000      -164.3296
  85   2.0000      -6.037929      -164.3004
  86   2.0000      -6.037680      -164.2936
  87   2.0000      -6.036456      -164.2603
  88   2.0000      -6.034685      -164.2121
  89   2.0000      -6.030878      -164.1085
  90   2.0000      -6.015895      -163.7008
  91   2.0000      -6.015827      -163.6990
  92   2.0000      -6.014336      -163.6584
  93   2.0000      -6.012100      -163.5976
  94   2.0000      -6.011848      -163.5907
  95   2.0000      -6.011722      -163.5873
  96   2.0000      -6.010145      -163.5443
  97   2.0000      -6.007864      -163.4823
  98   2.0000      -6.007034      -163.4597
  99   2.0000      -6.007018      -163.4593
 100   2.0000      -6.006537      -163.4462
 101   2.0000      -6.004157      -163.3814
 102   2.0000      -1.307348       -35.5747
 103   2.0000      -1.126309       -30.6484
 104   2.0000      -1.089239       -29.6397
 105   2.0000      -1.033134       -28.1130
 106   2.0000      -1.002793       -27.2874
 107   2.0000      -0.999951       -27.2101
 108   2.0000      -0.997492       -27.1431
 109   2.0000      -0.996672       -27.1208
 110   2.0000      -0.993251       -27.0277
 111   2.0000      -0.981240       -26.7009
 112   2.0000      -0.976604       -26.5747
 113   2.0000      -0.969188       -26.3729
 114   2.0000      -0.966575       -26.3018
 115   2.0000      -0.965665       -26.2771
 116   2.0000      -0.944691       -25.7063
 117   2.0000      -0.921044       -25.0629
 118   2.0000      -0.918484       -24.9932
 119   2.0000      -0.907922       -24.7058
 120   2.0000      -0.900107       -24.4932
 121   2.0000      -0.892769       -24.2935
 122   2.0000      -0.884227       -24.0610
 123   2.0000      -0.876482       -23.8503
 124   2.0000      -0.870479       -23.6869
 125   2.0000      -0.868966       -23.6458
 126   2.0000      -0.864544       -23.5254
 127   2.0000      -0.862105       -23.4591
 128   2.0000      -0.853736       -23.2313
 129   2.0000      -0.852206       -23.1897
 130   2.0000      -0.849333       -23.1115
 131   2.0000      -0.845975       -23.0201
 132   2.0000      -0.832464       -22.6525
 133   2.0000      -0.826866       -22.5002
 134   2.0000      -0.820793       -22.3349
 135   2.0000      -0.816436       -22.2163
 136   2.0000      -0.806496       -21.9459
 137   2.0000      -0.804016       -21.8784
 138   2.0000      -0.792267       -21.5587
 139   2.0000      -0.786716       -21.4076
 140   2.0000      -0.780376       -21.2351
 141   2.0000      -0.769682       -20.9441
 142   2.0000      -0.759370       -20.6635
 143   2.0000      -0.751460       -20.4483
 144   2.0000      -0.739962       -20.1354
 145   2.0000      -0.726448       -19.7677
 146   2.0000      -0.723639       -19.6912
 147   2.0000      -0.715843       -19.4791
 148   2.0000      -0.709037       -19.2939
 149   2.0000      -0.699617       -19.0375
 150   2.0000      -0.693298       -18.8656
 151   2.0000      -0.688937       -18.7469
 152   2.0000      -0.684081       -18.6148
 153   2.0000      -0.682871       -18.5819
 154   2.0000      -0.675620       -18.3845
 155   2.0000      -0.673598       -18.3295
 156   2.0000      -0.661688       -18.0055
 157   2.0000      -0.653119       -17.7723
 158   2.0000      -0.648722       -17.6526
 159   2.0000      -0.642897       -17.4941
 160   2.0000      -0.641441       -17.4545
 161   2.0000      -0.637677       -17.3521
 162   2.0000      -0.632129       -17.2011
 163   2.0000      -0.631305       -17.1787
 164   2.0000      -0.630144       -17.1471
 165   2.0000      -0.621543       -16.9131
 166   2.0000      -0.620451       -16.8833
 167   2.0000      -0.618978       -16.8432
 168   2.0000      -0.616637       -16.7796
 169   2.0000      -0.614418       -16.7192
 170   2.0000      -0.605031       -16.4637
 171   2.0000      -0.602680       -16.3998
 172   2.0000      -0.600155       -16.3310
 173   2.0000      -0.592685       -16.1278
 174   2.0000      -0.585618       -15.9355
 175   2.0000      -0.581557       -15.8250
 176   2.0000      -0.580681       -15.8011
 177   2.0000      -0.575711       -15.6659
 178   2.0000      -0.559810       -15.2332
 179   2.0000      -0.555425       -15.1139
 180   2.0000      -0.550567       -14.9817
 181   2.0000      -0.547344       -14.8940
 182   2.0000      -0.541863       -14.7449
 183   2.0000      -0.540501       -14.7078
 184   2.0000      -0.535122       -14.5614
 185   2.0000      -0.534442       -14.5429
 186   2.0000      -0.533434       -14.5155
 187   2.0000      -0.532211       -14.4822
 188   2.0000      -0.531889       -14.4734
 189   2.0000      -0.527255       -14.3473
 190   2.0000      -0.524990       -14.2857
 191   2.0000      -0.514091       -13.9891
 192   2.0000      -0.510930       -13.9031
 193   2.0000      -0.510849       -13.9009
 194   2.0000      -0.508143       -13.8273
 195   2.0000      -0.504474       -13.7274
 196   2.0000      -0.503753       -13.7078
 197   2.0000      -0.501213       -13.6387
 198   2.0000      -0.500388       -13.6162
 199   2.0000      -0.499852       -13.6017
 200   2.0000      -0.497348       -13.5335
 201   2.0000      -0.494153       -13.4466
 202   2.0000      -0.493793       -13.4368
 203   2.0000      -0.489546       -13.3212
 204   2.0000      -0.487384       -13.2624
 205   2.0000      -0.485659       -13.2155
 206   2.0000      -0.481422       -13.1002
 207   2.0000      -0.480550       -13.0764
 208   2.0000      -0.480360       -13.0713
 209   2.0000      -0.479247       -13.0410
 210   2.0000      -0.473484       -12.8842
 211   2.0000      -0.471688       -12.8353
 212   2.0000      -0.471032       -12.8174
 213   2.0000      -0.470115       -12.7925
 214   2.0000      -0.464737       -12.6461
 215   2.0000      -0.459198       -12.4954
 216   2.0000      -0.458469       -12.4756
 217   2.0000      -0.456575       -12.4240
 218   2.0000      -0.456210       -12.4141
 219   2.0000      -0.453444       -12.3388
 220   2.0000      -0.450887       -12.2693
 221   2.0000      -0.448980       -12.2174
 222   2.0000      -0.448728       -12.2105
 223   2.0000      -0.446154       -12.1405
 224   2.0000      -0.440907       -11.9977
 225   2.0000      -0.439189       -11.9509
 226   2.0000      -0.437365       -11.9013
 227   2.0000      -0.435741       -11.8571
 228   2.0000      -0.431964       -11.7543
 229   2.0000      -0.430365       -11.7108
 230   2.0000      -0.426097       -11.5947
 231   2.0000      -0.425592       -11.5809
 232   2.0000      -0.425197       -11.5702
 233   2.0000      -0.423169       -11.5150
 234   2.0000      -0.421316       -11.4646
 235   2.0000      -0.419592       -11.4177
 236   2.0000      -0.418634       -11.3916
 237   2.0000      -0.416644       -11.3375
 238   2.0000      -0.412119       -11.2143
 239   2.0000      -0.411503       -11.1976
 240   2.0000      -0.410100       -11.1594
 241   2.0000      -0.408997       -11.1294
 242   2.0000      -0.406957       -11.0739
 243   2.0000      -0.395619       -10.7653
 244   2.0000      -0.392866       -10.6904
 245   2.0000      -0.383316       -10.4306
 246   2.0000      -0.378974       -10.3124
 247   2.0000      -0.378225       -10.2920
 248   2.0000      -0.375422       -10.2158
 249   2.0000      -0.373248       -10.1566
 250   2.0000      -0.372162       -10.1270
 251   2.0000      -0.367731       -10.0065
 252   2.0000      -0.366570        -9.9749
 253   2.0000      -0.355765        -9.6809
 254   2.0000      -0.354589        -9.6489
 255   2.0000      -0.347534        -9.4569
 256   2.0000      -0.343915        -9.3584
 257   2.0000      -0.342690        -9.3251
 258   2.0000      -0.336812        -9.1651
 259   2.0000      -0.329167        -8.9571
 260   2.0000      -0.322082        -8.7643
 261   2.0000      -0.321210        -8.7406
 262   2.0000      -0.308465        -8.3938
 263   2.0000      -0.289035        -7.8650
 264   2.0000      -0.285729        -7.7751
 265   2.0000      -0.275101        -7.4859
 266   2.0000      -0.267983        -7.2922
 267   2.0000      -0.266419        -7.2496
 268   2.0000      -0.254742        -6.9319
 269   2.0000      -0.250813        -6.8250
 270   2.0000      -0.209826        -5.7096
 271   0.0000      -0.103459        -2.8153
 272   0.0000      -0.080412        -2.1881
 273   0.0000      -0.051364        -1.3977
 274   0.0000      -0.046914        -1.2766
 275   0.0000      -0.023191        -0.6311

MULLIKEN ATOMIC CHARGES
-----------------------
   0 C :    0.006074
   1 C :   -0.055855
   2 S :    0.113151
   3 C :   -0.132839
   4 C :    0.061607
   5 C :   -0.094537
   6 C :    0.052731
   7 C :    0.021413
   8 C :   -0.119388
   9 C :    0.051132
  10 C :    0.049017
  11 C :    0.124112
  12 C :   -0.006696
  13 C :   -0.095846
  14 S :    0.121443
  15 C :   -0.151235
  16 C :   -0.097729
  17 C :    0.102927
  18 N :   -0.044755
  19 C :   -0.102113
  20 S :    0.152337
  21 C :   -0.006237
  22 N :    0.278988
  23 O :   -0.251022
  24 O :   -0.274301
  25 C :    0.005369
  26 C :    0.124458
  27 C :   -0.048670
  28 C :   -0.010432
  29 C :   -0.081050
  30 C :   -0.018823
  31 C :   -0.327444
  32 N :    0.212554
  33 C :    0.157617
  34 C :   -0.228771
  35 S :    0.125040
  36 S :    0.176369
  37 C :   -0.232870
  38 C :    0.170249
  39 C :   -0.040219
  40 C :   -0.324897
  41 N :    0.194799
  42 C :   -0.064285
  43 S :    0.134015
  44 C :   -0.059913
  45 C :   -0.020802
  46 C :    0.025301
  47 C :    0.038202
  48 C :   -0.042710
  49 S :    0.050805
  50 C :   -0.020642
  51 C :    0.022729
  52 C :    0.042446
  53 C :   -0.029828
  54 S :    0.047363
  55 C :   -0.003307
  56 C :    0.056176
  57 C :   -0.034557
  58 C :    0.064913
  59 C :    0.004256
  60 C :    0.044900
  61 C :   -0.016157
  62 C :    0.061092
  63 C :   -0.026065
  64 C :    0.059904
  65 C :    0.003310
  66 C :    0.040335
  67 C :   -0.026617
  68 C :    0.011196
  69 C :   -0.023224
  70 H :   -0.014309
  71 H :    0.023422
  72 H :    0.006140
  73 H :   -0.007343
  74 H :    0.012340
  75 H :    0.014937
  76 H :    0.013616
  77 H :    0.007220
  78 H :   -0.010871
  79 H :    0.010767
  80 H :    0.010459
  81 H :   -0.007735
  82 H :    0.011165
  83 H :    0.019134
  84 H :    0.042567
  85 H :    0.134350
  86 H :    0.019391
  87 H :   -0.028872
  88 H :    0.015958
  89 H :    0.012406
  90 H :   -0.005272
  91 H :   -0.011206
  92 H :   -0.012957
  93 H :   -0.010106
  94 H :   -0.020434
  95 H :   -0.026884
  96 H :   -0.024186
  97 H :   -0.021976
  98 H :   -0.026097
  99 H :   -0.024302
 100 H :   -0.007086
 101 H :   -0.018705
 102 H :    0.007987
 103 H :    0.021982
Sum of atomic charges:   -0.0000000

LOEWDIN ATOMIC CHARGES
----------------------
   0 C :   -0.063923
   1 C :   -0.166155
   2 S :    0.401115
   3 C :   -0.181676
   4 C :   -0.047282
   5 C :   -0.021048
   6 C :   -0.028492
   7 C :   -0.049492
   8 C :   -0.024281
   9 C :   -0.029623
  10 C :   -0.049983
  11 C :   -0.045625
  12 C :   -0.068401
  13 C :   -0.171622
  14 S :    0.408472
  15 C :   -0.178671
  16 C :   -0.065378
  17 C :    0.024856
  18 N :    0.032728
  19 C :   -0.088658
  20 S :    0.457860
  21 C :   -0.214219
  22 N :    0.273824
  23 O :   -0.217652
  24 O :   -0.240666
  25 C :    0.012078
  26 C :   -0.118177
  27 C :   -0.021994
  28 C :   -0.041956
  29 C :   -0.126603
  30 C :   -0.098013
  31 C :   -0.041142
  32 N :   -0.034295
  33 C :   -0.062536
  34 C :   -0.333122
  35 S :    0.427018
  36 S :    0.414297
  37 C :   -0.343428
  38 C :   -0.058825
  39 C :   -0.115715
  40 C :   -0.042243
  41 N :   -0.048885
  42 C :   -0.124347
  43 S :    0.432377
  44 C :   -0.090636
  45 C :   -0.135826
  46 C :   -0.039441
  47 C :   -0.025072
  48 C :   -0.192890
  49 S :    0.361491
  50 C :   -0.161160
  51 C :   -0.044883
  52 C :   -0.017851
  53 C :   -0.160865
  54 S :    0.377877
  55 C :   -0.030105
  56 C :   -0.067013
  57 C :    0.018527
  58 C :   -0.061051
  59 C :    0.076618
  60 C :   -0.063753
  61 C :    0.051554
  62 C :   -0.058336
  63 C :    0.017280
  64 C :   -0.057915
  65 C :    0.071584
  66 C :   -0.061016
  67 C :    0.028631
  68 C :   -0.021466
  69 C :   -0.052266
  70 H :    0.029046
  71 H :    0.023960
  72 H :    0.026892
  73 H :    0.023787
  74 H :    0.022833
  75 H :    0.024321
  76 H :    0.022774
  77 H :    0.025894
  78 H :    0.024517
  79 H :    0.023791
  80 H :    0.023910
  81 H :    0.015940
  82 H :    0.021804
  83 H :    0.028239
  84 H :    0.027555
  85 H :    0.093072
  86 H :    0.048344
  87 H :    0.012608
  88 H :    0.043489
  89 H :    0.048627
  90 H :    0.036293
  91 H :    0.033437
  92 H :    0.032395
  93 H :    0.034521
  94 H :    0.036740
  95 H :    0.024289
  96 H :    0.035462
  97 H :    0.025877
  98 H :    0.024858
  99 H :    0.035675
 100 H :    0.013740
 101 H :    0.029632
 102 H :    0.017896
 103 H :    0.025266

  Mayer bond orders larger than 0.100000
B(  0-C ,  1-C ) :   1.6389 B(  0-C ,  4-C ) :   1.1869 B(  0-C , 70-H ) :   0.9847
B(  1-C ,  2-S ) :   1.1178 B(  1-C , 71-H ) :   0.9662 B(  2-S ,  3-C ) :   1.0730
B(  3-C ,  4-C ) :   1.3913 B(  3-C , 15-C ) :   1.3785 B(  4-C ,  5-C ) :   1.2371
B(  5-C ,  6-C ) :   1.0778 B(  5-C ,  8-C ) :   1.5195 B(  6-C ,  7-C ) :   1.1076
B(  6-C , 72-H ) :   0.9181 B(  6-C , 73-H ) :   0.9182 B(  7-C , 74-H ) :   0.9675
B(  7-C , 75-H ) :   0.9666 B(  7-C , 76-H ) :   0.9591 B(  8-C ,  9-C ) :   1.0661
B(  8-C , 11-C ) :   1.2598 B(  9-C , 10-C ) :   1.1076 B(  9-C , 77-H ) :   0.9207
B(  9-C , 78-H ) :   0.9021 B( 10-C , 79-H ) :   0.9649 B( 10-C , 80-H ) :   0.9627
B( 10-C , 81-H ) :   0.9545 B( 11-C , 12-C ) :   1.1871 B( 11-C , 15-C ) :   1.3664
B( 12-C , 13-C ) :   1.6498 B( 12-C , 16-C ) :   0.9893 B( 13-C , 14-S ) :   1.1093
B( 13-C , 82-H ) :   0.9675 B( 14-S , 15-C ) :   1.0827 B( 16-C , 17-C ) :   1.8508
B( 16-C , 83-H ) :   0.9419 B( 17-C , 18-N ) :   1.0746 B( 17-C , 84-H ) :   0.9449
B( 18-N , 19-C ) :   1.2553 B( 18-N , 85-H ) :   0.9162 B( 19-C , 20-S ) :   1.1373
B( 19-C , 26-C ) :   1.3339 B( 20-S , 21-C ) :   1.0580 B( 21-C , 22-N ) :   0.9822
B( 21-C , 25-C ) :   1.4942 B( 22-N , 23-O ) :   1.5295 B( 22-N , 24-O ) :   1.5002
B( 23-O , 24-O ) :   0.2533 B( 25-C , 26-C ) :   1.2306 B( 25-C , 86-H ) :   1.0018
B( 26-C , 27-C ) :   1.0774 B( 27-C , 28-C ) :   1.6923 B( 27-C , 87-H ) :   0.9660
B( 28-C , 29-C ) :   1.1768 B( 28-C , 88-H ) :   0.9643 B( 29-C , 30-C ) :   1.4924
B( 29-C , 35-S ) :   1.1060 B( 30-C , 31-C ) :   1.1782 B( 30-C , 33-C ) :   1.2405
B( 31-C , 32-N ) :   2.9859 B( 33-C , 34-C ) :   1.4205 B( 33-C , 38-C ) :   1.0516
B( 34-C , 35-S ) :   1.0820 B( 34-C , 36-S ) :   1.0863 B( 36-S , 37-C ) :   1.0734
B( 37-C , 38-C ) :   1.4074 B( 37-C , 43-S ) :   1.0823 B( 38-C , 39-C ) :   1.2688
B( 39-C , 40-C ) :   1.1931 B( 39-C , 42-C ) :   1.4407 B( 40-C , 41-N ) :   2.9734
B( 42-C , 43-S ) :   1.0975 B( 42-C , 44-C ) :   1.2346 B( 44-C , 45-C ) :   1.5397
B( 44-C , 89-H ) :   0.9611 B( 45-C , 46-C ) :   1.1499 B( 45-C , 49-S ) :   1.0486
B( 46-C , 47-C ) :   1.5823 B( 46-C , 90-H ) :   1.0009 B( 47-C , 48-C ) :   1.1927
B( 47-C , 91-H ) :   0.9929 B( 48-C , 49-S ) :   1.0266 B( 48-C , 50-C ) :   1.5054
B( 50-C , 51-C ) :   1.1866 B( 50-C , 54-S ) :   1.0559 B( 51-C , 52-C ) :   1.5901
B( 51-C , 92-H ) :   0.9931 B( 52-C , 53-C ) :   1.1428 B( 52-C , 93-H ) :   0.9986
B( 53-C , 54-S ) :   1.0142 B( 53-C , 55-C ) :   1.5773 B( 55-C , 56-C ) :   1.1364
B( 55-C , 94-H ) :   0.9694 B( 56-C , 57-C ) :   1.4270 B( 56-C , 67-C ) :   1.1327
B( 57-C , 58-C ) :   1.1223 B( 57-C , 95-H ) :   1.0189 B( 58-C , 59-C ) :   1.4159
B( 58-C , 66-C ) :   1.1334 B( 59-C , 60-C ) :   1.1491 B( 59-C , 96-H ) :   1.0047
B( 60-C , 61-C ) :   1.4202 B( 60-C , 64-C ) :   1.1275 B( 61-C , 62-C ) :   1.1550
B( 61-C , 97-H ) :   1.0081 B( 62-C , 63-C ) :   1.4976 B( 62-C , 68-C ) :   1.0835
B( 63-C , 64-C ) :   1.0883 B( 63-C , 98-H ) :   1.0167 B( 64-C , 65-C ) :   1.4627
B( 65-C , 66-C ) :   1.1250 B( 65-C , 99-H ) :   1.0044 B( 66-C , 67-C ) :   1.4620
B( 67-C ,100-H ) :   0.9901 B( 68-C , 69-C ) :   1.9354 B( 68-C ,101-H ) :   0.9665
B( 69-C ,102-H ) :   0.9528 B( 69-C ,103-H ) :   0.9490

-----------------------------------------------------------------------------
         ABSORPTION SPECTRUM VIA TRANSITION ELECTRIC DIPOLE MOMENTS
-----------------------------------------------------------------------------
State   Energy  Wavelength   fosc         T2         TX        TY        TZ
        (cm-1)    (nm)                  (au**2)     (au)      (au)      (au)
-----------------------------------------------------------------------------
   0    6702.9   1491.9   0.017011343   0.83551   0.15386  -0.56672   0.70047
   1   14448.6    692.1   1.507357844  34.34518   1.57261  -2.63346   4.99369
   2   15297.1    653.7   0.031724774   0.68276  -0.35712   0.10246  -0.73805
   3   22319.0    448.0   0.083187609   1.22704  -0.13106  -1.01358   0.42723
   4   23441.0    426.6   0.063198776   0.88758  -0.48505  -0.69092  -0.41825
   5   24044.6    415.9   0.199710475   2.73438   0.81468   1.25273   0.70805
   6   24656.6    405.6   0.003633422   0.04851   0.05582   0.20378  -0.06223
   7   25550.7    391.4   0.957311385  12.33461  -1.77337  -1.88088  -2.37741
   8   25921.5    385.8   0.239322162   3.03948  -0.52568   0.08540  -1.66007
   9   27070.7    369.4   0.944736021  11.48913  -1.43714  -3.06942  -0.04931
  10   27081.7    369.3   0.008013373   0.09741  -0.05726   0.12063   0.28210
  11   27642.6    361.8   0.534228820   6.36244  -1.70392  -1.85926  -0.04729
  12   28054.3    356.5   0.426903612   5.00963   0.52601   2.17274  -0.11024
  13   28276.3    353.7   0.046903103   0.54608  -0.58019  -0.42498   0.16986
  14   30182.7    331.3   0.023287476   0.25400   0.23711   0.41339   0.16399
  15   30275.9    330.3   0.000422839   0.00460  -0.03446  -0.00915  -0.05768
  16   30659.1    326.2   0.001706083   0.01832   0.02712  -0.12726  -0.03725
  17   30829.5    324.4   0.000068369   0.00073   0.00862  -0.01051   0.02335
  18   31814.7    314.3   0.070120470   0.72559  -0.04937  -0.73139   0.43385
  19   31885.2    313.6   0.039992008   0.41291   0.11499   0.61472  -0.14770
  20   33107.8    302.0   0.013032934   0.12959   0.10314   0.34163  -0.04742
  21   33569.6    297.9   0.003009154   0.02951   0.00912   0.15480  -0.07393
  22   33621.7    297.4   0.049668361   0.48634   0.29284   0.61840   0.13478
  23   33692.1    296.8   0.078495461   0.76699  -0.10203  -0.83190   0.25401
  24   34032.2    293.8   0.025220194   0.24397  -0.04842  -0.39943   0.28650
  25   34240.1    292.1   0.001711803   0.01646  -0.03907   0.11752  -0.03348
  26   34704.7    288.1   0.088025660   0.83502   0.05731   0.68514  -0.60192
  27   34857.4    286.9   0.096921244   0.91538   0.17278  -0.21653   0.91577
  28   35019.7    285.6   0.019646733   0.18469  -0.13812  -0.40674   0.01337
  29   35139.3    284.6   0.005795910   0.05430   0.14578   0.17954   0.02857
  30   35507.8    281.6   0.001448960   0.01343  -0.02662  -0.09924   0.05364
  31   35853.4    278.9   0.056834047   0.52186   0.03430   0.44588  -0.56734
  32   36081.1    277.2   0.044615983   0.40709  -0.24309  -0.37412   0.45610
  33   36292.7    275.5   0.015439238   0.14005   0.09646   0.21944   0.28739
  34   36421.7    274.6   0.201122117   1.81792   0.31574   0.69142  -1.11363
  35   36685.4    272.6   0.037886725   0.33999  -0.20627  -0.53021  -0.12776
  36   37043.5    270.0   0.098322440   0.87381   0.26209   0.89635  -0.04085
  37   37174.9    269.0   0.002290725   0.02029  -0.02150  -0.04287  -0.13411
  38   37220.0    268.7   0.101655296   0.89914   0.30974   0.88959   0.10875
  39   37836.9    264.3   0.071862935   0.62527  -0.17996   0.37829  -0.67065
  40   38186.8    261.9   0.155700914   1.34231   0.22330  -1.11304  -0.23148
  41   38261.5    261.4   0.011922404   0.10258   0.05945   0.30759  -0.06662
  42   38292.9    261.1   0.147349329   1.26679   0.34107   1.07213  -0.03160
  43   39258.0    254.7   0.054252278   0.45495  -0.32520  -0.21051  -0.55216
  44   39335.7    254.2   0.037567731   0.31442   0.26460   0.21852   0.44346
  45   39684.9    252.0   0.005656759   0.04693  -0.04132   0.15424  -0.14638
  46   40024.3    249.8   0.009976223   0.08206   0.10231   0.26282  -0.05016
  47   40320.2    248.0   0.019160814   0.15645   0.20432   0.26156   0.21514

FINAL SINGLE POINT ENERGY     -5704.972147544750

DIPOLE MOMENT
-------------
                                X             Y             Z
Electronic contribution:    -42.26766     -22.94448      10.05635
Nuclear contribution   :     42.24488      25.92393     -15.64813
                        -----------------------------------------
Total Dipole Moment    :     -0.02277       2.97945      -5.59178
                        -----------------------------------------
Magnitude (a.u.)       :      6.33606
Magnitude (Debye)      :     16.10498

Rotational constants in cm-1:     0.000906     0.000217     0.000181
Rotational constants in MHz :    27.150689     6.494657     5.436746

                             ****ORCA TERMINATED NORMALLY****
TOTAL RUN TIME: 0 days 0 hours 11 minutes 28 seconds 464 msec
