                         Program Version 4.2.0 -  RELEASE  -
|  1> # ORCA input file
|  2> # SCF done       -180.089041948334          0.000467906764
|  3> ! CAM-B3LYP def2-SVP def2/J RIJCOSX Grid4 TightSCF
|  4> %maxcore 5000
|  5> %tddft
|  6>     Mode sTDDFT
|  7>     Ethresh 5.0
|  8>     maxcore 5000
|  9> end
| 10>
| 11> %pal
| 12>   nprocs 6
| 13>   end
| 14> * xyz 0 1
| 15>    C       -1.65765        -2.34699         1.25490
| 16>    S       -0.88976        -2.99296        -0.11494
| 17>    C       -1.72479        -4.51383         0.00939
| 18>    C       -2.60542        -4.48643         1.09180
| 19>    C       -2.55026        -3.24125         1.81016
| 20>    C       -3.36145        -3.04844         2.94373
| 21>    C       -4.22739        -4.02160         3.37214
| 22>    C       -5.02923        -3.70309         4.59511
| 23>    O       -4.90569        -2.65235         5.16975
| 24>    O       -5.88885        -4.62410         5.03523
| 25>    C       -4.31410        -5.24070         2.62730
| 26>    O       -5.20965        -6.20183         3.03264
| 27>    C       -3.53215        -5.45763         1.52685
| 28>    C       -1.37652        -5.52007        -0.94220
| 29>    C       -1.62759        -6.83981        -0.85841
| 30>    C       -1.25475        -7.78150        -1.89458
| 31>    C       -1.35374        -7.42809        -3.20893
| 32>    S       -0.95512        -8.67291        -4.32272
| 33>    C       -0.61065        -9.74058        -2.99709
| 34>    C       -0.80293        -9.14780        -1.74106
| 35>    C       -0.47710        -9.89899        -0.58537
| 36>    C       -0.57798        -9.22421         0.75996
| 37>    C       -1.95295        -9.43202         1.40258
| 38>    C       -0.05608       -11.21872        -0.69304
| 39>    C        0.25549       -12.01733         0.54750
| 40>    C        1.76306       -12.11079         0.78854
| 41>    C        0.12626       -11.81520        -1.96720
| 42>    C        0.64325       -13.11088        -2.36372
| 43>    C        0.73030       -13.22683        -3.72131
| 44>    S        0.18911       -11.85817        -4.60017
| 45>    C       -0.14679       -11.04005        -3.10651
| 46>    C        1.06320       -14.21721        -1.53105
| 47>    C        2.06678       -15.05157        -1.86417
| 48>    C        2.50542       -16.16045        -1.07998
| 49>    S        4.14141       -16.70937        -1.27135
| 50>    C        3.94032       -17.85221        -0.00318
| 51>    C        2.70265       -17.82646         0.55488
| 52>    C        2.29237       -18.77144         1.63634
| 53>    C        1.85020       -16.85678        -0.06708
| 54>    C        0.44931       -16.68694         0.19111
| 55>    C       -0.16063       -16.80909         1.39818
| 56>    C       -1.55797       -16.71686         1.62811
| 57>    C       -2.52092       -16.60866         0.66411
| 58>    C       -3.89784       -16.58022         0.91719
| 59>    C       -4.84017       -16.51637        -0.08447
| 60>    C       -6.24882       -16.53629         0.03277
| 61>    C       -6.91110       -16.49462        -1.16029
| 62>    C       -6.05680       -16.43164        -2.28080
| 63>    S       -4.38540       -16.42215        -1.77878
| 64>    C       -6.36985       -16.38707        -3.62875
| 65>    C       -7.62562       -16.41359        -4.26711
| 66>    C       -7.54769       -16.36544        -5.62766
| 67>    C       -6.22467       -16.29311        -6.13629
| 68>    S       -5.08320       -16.29336        -4.80955
| 69>    C       -5.88548       -16.23025        -7.46545
| 70>    C       -4.59626       -16.14454        -8.02480
| 71>    S       -4.42597       -16.06776        -9.77592
| 72>    C       -2.70876       -15.97180        -9.74432
| 73>    C       -2.25874       -15.99699        -8.44656
| 74>    C       -3.31899       -16.09510        -7.48886
| 75>    O       -2.81804       -16.11716        -6.23491
| 76>    C       -1.47069       -16.03434        -6.37425
| 77>    N       -0.69024       -16.03441        -5.20429
| 78>    O        0.51952       -15.94403        -5.35712
| 79>    O       -1.24599       -16.11262        -4.12731
| 80>    C       -1.06224       -15.95791        -7.68146
| 81>    H       -1.42602        -1.35709         1.59233
| 82>    H       -3.31431        -2.12228         3.49583
| 83>    H       -5.88816        -5.41614         4.47090
| 84>    H       -5.17357        -6.95545         2.43100
| 85>    H       -3.65436        -6.37653         0.97356
| 86>    H       -0.78867        -5.15929        -1.77707
| 87>    H       -2.14464        -7.23320        -0.00217
| 88>    H       -1.69522        -6.48616        -3.59186
| 89>    H       -0.38785        -8.15850         0.62871
| 90>    H        0.19523        -9.59509         1.43209
| 91>    H       -2.74742        -9.18206         0.70174
| 92>    H       -2.05301        -8.81247         2.29232
| 93>    H       -2.09419       -10.47145         1.68988
| 94>    H       -0.17436       -13.01325         0.45200
| 95>    H       -0.21250       -11.57114         1.42144
| 96>    H        2.26325       -12.57648        -0.05645
| 97>    H        1.96704       -12.70233         1.67859
| 98>    H        2.18389       -11.11707         0.92804
| 99>    H        1.07136       -14.08525        -4.26704
|100>    H        0.54968       -14.37685        -0.59827
|101>    H        2.65759       -14.85075        -2.74794
|102>    H        4.75893       -18.49515         0.25517
|103>    H        2.95828       -19.63133         1.65127
|104>    H        1.27214       -19.11376         1.47553
|105>    H        2.34469       -18.28895         2.61236
|106>    H       -0.14337       -16.44317        -0.68139
|107>    H        0.45126       -16.95677         2.27678
|108>    H       -1.87968       -16.76425         2.66161
|109>    H       -2.22714       -16.56461        -0.37644
|110>    H       -4.24740       -16.63422         1.94022
|111>    H       -6.73162       -16.58917         0.99316
|112>    H       -7.98173       -16.50856        -1.26159
|113>    H       -8.54663       -16.47081        -3.71449
|114>    H       -8.39784       -16.37858        -6.28685
|115>    H       -6.69986       -16.24369        -8.17728
|116>    H       -2.15586       -15.90439       -10.65700
|117>    H       -0.05103       -15.88505        -8.02382
|118> *
|119>
|120>                          ****END OF INPUT****

CARTESIAN COORDINATES (ANGSTROEM)
---------------------------------
  C     -1.657650   -2.346990    1.254900
  S     -0.889760   -2.992960   -0.114940
  C     -1.724790   -4.513830    0.009390
  C     -2.605420   -4.486430    1.091800
  C     -2.550260   -3.241250    1.810160
  C     -3.361450   -3.048440    2.943730
  C     -4.227390   -4.021600    3.372140
  C     -5.029230   -3.703090    4.595110
  O     -4.905690   -2.652350    5.169750
  O     -5.888850   -4.624100    5.035230
  C     -4.314100   -5.240700    2.627300
  O     -5.209650   -6.201830    3.032640
  C     -3.532150   -5.457630    1.526850
  C     -1.376520   -5.520070   -0.942200
  C     -1.627590   -6.839810   -0.858410
  C     -1.254750   -7.781500   -1.894580
  C     -1.353740   -7.428090   -3.208930
  S     -0.955120   -8.672910   -4.322720
  C     -0.610650   -9.740580   -2.997090
  C     -0.802930   -9.147800   -1.741060
  C     -0.477100   -9.898990   -0.585370
  C     -0.577980   -9.224210    0.759960
  C     -1.952950   -9.432020    1.402580
  C     -0.056080  -11.218720   -0.693040
  C      0.255490  -12.017330    0.547500
  C      1.763060  -12.110790    0.788540
  C      0.126260  -11.815200   -1.967200
  C      0.643250  -13.110880   -2.363720
  C      0.730300  -13.226830   -3.721310
  S      0.189110  -11.858170   -4.600170
  C     -0.146790  -11.040050   -3.106510
  C      1.063200  -14.217210   -1.531050
  C      2.066780  -15.051570   -1.864170
  C      2.505420  -16.160450   -1.079980
  S      4.141410  -16.709370   -1.271350
  C      3.940320  -17.852210   -0.003180
  C      2.702650  -17.826460    0.554880
  C      2.292370  -18.771440    1.636340
  C      1.850200  -16.856780   -0.067080
  C      0.449310  -16.686940    0.191110
  C     -0.160630  -16.809090    1.398180
  C     -1.557970  -16.716860    1.628110
  C     -2.520920  -16.608660    0.664110
  C     -3.897840  -16.580220    0.917190
  C     -4.840170  -16.516370   -0.084470
  C     -6.248820  -16.536290    0.032770
  C     -6.911100  -16.494620   -1.160290
  C     -6.056800  -16.431640   -2.280800
  S     -4.385400  -16.422150   -1.778780
  C     -6.369850  -16.387070   -3.628750
  C     -7.625620  -16.413590   -4.267110
  C     -7.547690  -16.365440   -5.627660
  C     -6.224670  -16.293110   -6.136290
  S     -5.083200  -16.293360   -4.809550
  C     -5.885480  -16.230250   -7.465450
  C     -4.596260  -16.144540   -8.024800
  S     -4.425970  -16.067760   -9.775920
  C     -2.708760  -15.971800   -9.744320
  C     -2.258740  -15.996990   -8.446560
  C     -3.318990  -16.095100   -7.488860
  O     -2.818040  -16.117160   -6.234910
  C     -1.470690  -16.034340   -6.374250
  N     -0.690240  -16.034410   -5.204290
  O      0.519520  -15.944030   -5.357120
  O     -1.245990  -16.112620   -4.127310
  C     -1.062240  -15.957910   -7.681460
  H     -1.426020   -1.357090    1.592330
  H     -3.314310   -2.122280    3.495830
  H     -5.888160   -5.416140    4.470900
  H     -5.173570   -6.955450    2.431000
  H     -3.654360   -6.376530    0.973560
  H     -0.788670   -5.159290   -1.777070
  H     -2.144640   -7.233200   -0.002170
  H     -1.695220   -6.486160   -3.591860
  H     -0.387850   -8.158500    0.628710
  H      0.195230   -9.595090    1.432090
  H     -2.747420   -9.182060    0.701740
  H     -2.053010   -8.812470    2.292320
  H     -2.094190  -10.471450    1.689880
  H     -0.174360  -13.013250    0.452000
  H     -0.212500  -11.571140    1.421440
  H      2.263250  -12.576480   -0.056450
  H      1.967040  -12.702330    1.678590
  H      2.183890  -11.117070    0.928040
  H      1.071360  -14.085250   -4.267040
  H      0.549680  -14.376850   -0.598270
  H      2.657590  -14.850750   -2.747940
  H      4.758930  -18.495150    0.255170
  H      2.958280  -19.631330    1.651270
  H      1.272140  -19.113760    1.475530
  H      2.344690  -18.288950    2.612360
  H     -0.143370  -16.443170   -0.681390
  H      0.451260  -16.956770    2.276780
  H     -1.879680  -16.764250    2.661610
  H     -2.227140  -16.564610   -0.376440
  H     -4.247400  -16.634220    1.940220
  H     -6.731620  -16.589170    0.993160
  H     -7.981730  -16.508560   -1.261590
  H     -8.546630  -16.470810   -3.714490
  H     -8.397840  -16.378580   -6.286850
  H     -6.699860  -16.243690   -8.177280
  H     -2.155860  -15.904390  -10.657000
  H     -0.051030  -15.885050   -8.023820

 Total Charge           Charge          ....    0
 Multiplicity           Mult            ....    1
 Number of Electrons    NEL             ....  516
 Basis Dimension        Dim             .... 1137

ORBITAL ENERGIES
----------------

  NO   OCC          E(Eh)            E(eV)
   0   2.0000     -88.971971     -2421.0504
   1   2.0000     -88.968104     -2420.9452
   2   2.0000     -88.943544     -2420.2769
   3   2.0000     -88.940282     -2420.1881
   4   2.0000     -88.938448     -2420.1382
   5   2.0000     -88.934418     -2420.0286
   6   2.0000     -88.933565     -2420.0053
   7   2.0000     -19.306289      -525.3508
   8   2.0000     -19.276303      -524.5349
   9   2.0000     -19.250702      -523.8382
  10   2.0000     -19.246680      -523.7288
  11   2.0000     -19.231641      -523.3195
  12   2.0000     -19.174590      -521.7671
  13   2.0000     -14.659404      -398.9027
  14   2.0000     -10.388355      -282.6815
  15   2.0000     -10.384729      -282.5828
  16   2.0000     -10.352167      -281.6968
  17   2.0000     -10.344690      -281.4933
  18   2.0000     -10.317242      -280.7464
  19   2.0000     -10.313223      -280.6371
  20   2.0000     -10.308682      -280.5135
  21   2.0000     -10.305671      -280.4316
  22   2.0000     -10.304478      -280.3991
  23   2.0000     -10.300007      -280.2774
  24   2.0000     -10.299908      -280.2747
  25   2.0000     -10.297775      -280.2167
  26   2.0000     -10.297327      -280.2045
  27   2.0000     -10.297139      -280.1994
  28   2.0000     -10.289050      -279.9793
  29   2.0000     -10.287848      -279.9466
  30   2.0000     -10.287521      -279.9377
  31   2.0000     -10.286977      -279.9229
  32   2.0000     -10.286556      -279.9114
  33   2.0000     -10.286204      -279.9018
  34   2.0000     -10.285880      -279.8930
  35   2.0000     -10.283061      -279.8163
  36   2.0000     -10.282710      -279.8068
  37   2.0000     -10.282640      -279.8049
  38   2.0000     -10.281584      -279.7761
  39   2.0000     -10.280641      -279.7505
  40   2.0000     -10.279833      -279.7285
  41   2.0000     -10.278255      -279.6855
  42   2.0000     -10.277695      -279.6703
  43   2.0000     -10.277209      -279.6571
  44   2.0000     -10.275702      -279.6161
  45   2.0000     -10.274460      -279.5823
  46   2.0000     -10.274453      -279.5821
  47   2.0000     -10.273941      -279.5681
  48   2.0000     -10.270067      -279.4627
  49   2.0000     -10.269730      -279.4536
  50   2.0000     -10.269277      -279.4412
  51   2.0000     -10.268705      -279.4257
  52   2.0000     -10.267445      -279.3914
  53   2.0000     -10.266392      -279.3627
  54   2.0000     -10.266329      -279.3610
  55   2.0000     -10.265975      -279.3514
  56   2.0000     -10.265909      -279.3496
  57   2.0000     -10.265268      -279.3321
  58   2.0000     -10.264684      -279.3163
  59   2.0000     -10.264408      -279.3087
  60   2.0000     -10.262419      -279.2546
  61   2.0000     -10.260385      -279.1993
  62   2.0000     -10.259446      -279.1737
  63   2.0000     -10.257166      -279.1117
  64   2.0000     -10.255423      -279.0643
  65   2.0000     -10.244073      -278.7554
  66   2.0000      -8.066923      -219.5121
  67   2.0000      -8.063680      -219.4239
  68   2.0000      -8.039863      -218.7758
  69   2.0000      -8.036620      -218.6876
  70   2.0000      -8.034643      -218.6338
  71   2.0000      -8.030863      -218.5309
  72   2.0000      -8.029786      -218.5016
  73   2.0000      -6.036268      -164.2552
  74   2.0000      -6.032477      -164.1520
  75   2.0000      -6.031981      -164.1386
  76   2.0000      -6.029216      -164.0633
  77   2.0000      -6.028282      -164.0379
  78   2.0000      -6.026911      -164.0006
  79   2.0000      -6.009348      -163.5227
  80   2.0000      -6.006070      -163.4335
  81   2.0000      -6.005157      -163.4086
  82   2.0000      -6.003838      -163.3727
  83   2.0000      -6.001880      -163.3195
  84   2.0000      -6.001509      -163.3094
  85   2.0000      -6.000583      -163.2842
  86   2.0000      -5.999701      -163.2602
  87   2.0000      -5.999531      -163.2555
  88   2.0000      -5.998362      -163.2237
  89   2.0000      -5.996933      -163.1849
  90   2.0000      -5.996521      -163.1736
  91   2.0000      -5.995399      -163.1431
  92   2.0000      -5.991726      -163.0432
  93   2.0000      -5.990578      -163.0119
  94   2.0000      -1.329496       -36.1774
  95   2.0000      -1.229019       -33.4433
  96   2.0000      -1.172138       -31.8955
  97   2.0000      -1.153962       -31.4009
  98   2.0000      -1.144514       -31.1438
  99   2.0000      -1.072800       -29.1924
 100   2.0000      -0.996579       -27.1183
 101   2.0000      -0.993986       -27.0477
 102   2.0000      -0.992154       -26.9979
 103   2.0000      -0.987350       -26.8672
 104   2.0000      -0.970912       -26.4198
 105   2.0000      -0.966192       -26.2914
 106   2.0000      -0.961174       -26.1549
 107   2.0000      -0.937191       -25.5023
 108   2.0000      -0.934530       -25.4299
 109   2.0000      -0.916998       -24.9528
 110   2.0000      -0.908424       -24.7195
 111   2.0000      -0.899354       -24.4727
 112   2.0000      -0.897746       -24.4289
 113   2.0000      -0.887138       -24.1403
 114   2.0000      -0.881736       -23.9933
 115   2.0000      -0.869425       -23.6583
 116   2.0000      -0.864849       -23.5337
 117   2.0000      -0.858059       -23.3490
 118   2.0000      -0.851389       -23.1675
 119   2.0000      -0.847841       -23.0709
 120   2.0000      -0.840815       -22.8798
 121   2.0000      -0.839385       -22.8408
 122   2.0000      -0.832575       -22.6555
 123   2.0000      -0.822498       -22.3813
 124   2.0000      -0.819353       -22.2957
 125   2.0000      -0.812605       -22.1121
 126   2.0000      -0.806610       -21.9490
 127   2.0000      -0.796284       -21.6680
 128   2.0000      -0.792966       -21.5777
 129   2.0000      -0.783407       -21.3176
 130   2.0000      -0.774764       -21.0824
 131   2.0000      -0.765916       -20.8416
 132   2.0000      -0.754732       -20.5373
 133   2.0000      -0.742607       -20.2074
 134   2.0000      -0.738153       -20.0862
 135   2.0000      -0.727818       -19.8049
 136   2.0000      -0.716906       -19.5080
 137   2.0000      -0.714443       -19.4410
 138   2.0000      -0.708029       -19.2664
 139   2.0000      -0.700857       -19.0713
 140   2.0000      -0.698217       -18.9994
 141   2.0000      -0.688538       -18.7361
 142   2.0000      -0.681872       -18.5547
 143   2.0000      -0.679528       -18.4909
 144   2.0000      -0.675154       -18.3719
 145   2.0000      -0.673213       -18.3190
 146   2.0000      -0.664460       -18.0809
 147   2.0000      -0.652740       -17.7620
 148   2.0000      -0.652269       -17.7491
 149   2.0000      -0.644982       -17.5508
 150   2.0000      -0.638749       -17.3812
 151   2.0000      -0.636944       -17.3321
 152   2.0000      -0.629588       -17.1320
 153   2.0000      -0.625986       -17.0339
 154   2.0000      -0.624930       -17.0052
 155   2.0000      -0.621685       -16.9169
 156   2.0000      -0.618466       -16.8293
 157   2.0000      -0.615243       -16.7416
 158   2.0000      -0.613489       -16.6939
 159   2.0000      -0.609657       -16.5896
 160   2.0000      -0.601062       -16.3557
 161   2.0000      -0.598059       -16.2740
 162   2.0000      -0.591458       -16.0944
 163   2.0000      -0.589433       -16.0393
 164   2.0000      -0.584120       -15.8947
 165   2.0000      -0.581319       -15.8185
 166   2.0000      -0.572153       -15.5691
 167   2.0000      -0.565319       -15.3831
 168   2.0000      -0.562025       -15.2935
 169   2.0000      -0.551334       -15.0026
 170   2.0000      -0.545771       -14.8512
 171   2.0000      -0.539960       -14.6930
 172   2.0000      -0.538378       -14.6500
 173   2.0000      -0.533694       -14.5226
 174   2.0000      -0.532868       -14.5001
 175   2.0000      -0.531584       -14.4651
 176   2.0000      -0.529790       -14.4163
 177   2.0000      -0.525340       -14.2952
 178   2.0000      -0.522483       -14.2175
 179   2.0000      -0.519636       -14.1400
 180   2.0000      -0.515962       -14.0400
 181   2.0000      -0.515446       -14.0260
 182   2.0000      -0.509566       -13.8660
 183   2.0000      -0.505717       -13.7613
 184   2.0000      -0.502464       -13.6727
 185   2.0000      -0.499401       -13.5894
 186   2.0000      -0.498594       -13.5674
 187   2.0000      -0.497966       -13.5503
 188   2.0000      -0.495844       -13.4926
 189   2.0000      -0.492366       -13.3980
 190   2.0000      -0.491656       -13.3786
 191   2.0000      -0.490716       -13.3531
 192   2.0000      -0.489994       -13.3334
 193   2.0000      -0.485963       -13.2237
 194   2.0000      -0.484921       -13.1954
 195   2.0000      -0.481579       -13.1044
 196   2.0000      -0.477934       -13.0052
 197   2.0000      -0.475788       -12.9468
 198   2.0000      -0.473235       -12.8774
 199   2.0000      -0.471237       -12.8230
 200   2.0000      -0.470162       -12.7938
 201   2.0000      -0.463839       -12.6217
 202   2.0000      -0.461371       -12.5545
 203   2.0000      -0.460603       -12.5337
 204   2.0000      -0.456199       -12.4138
 205   2.0000      -0.455815       -12.4034
 206   2.0000      -0.454173       -12.3587
 207   2.0000      -0.452546       -12.3144
 208   2.0000      -0.448535       -12.2053
 209   2.0000      -0.444666       -12.1000
 210   2.0000      -0.443959       -12.0807
 211   2.0000      -0.437624       -11.9084
 212   2.0000      -0.437182       -11.8963
 213   2.0000      -0.435063       -11.8387
 214   2.0000      -0.433055       -11.7840
 215   2.0000      -0.432261       -11.7624
 216   2.0000      -0.429279       -11.6813
 217   2.0000      -0.425460       -11.5774
 218   2.0000      -0.425103       -11.5676
 219   2.0000      -0.423674       -11.5287
 220   2.0000      -0.420469       -11.4415
 221   2.0000      -0.417298       -11.3552
 222   2.0000      -0.415041       -11.2938
 223   2.0000      -0.414252       -11.2724
 224   2.0000      -0.411818       -11.2061
 225   2.0000      -0.411079       -11.1860
 226   2.0000      -0.406816       -11.0700
 227   2.0000      -0.404459       -11.0059
 228   2.0000      -0.402006       -10.9391
 229   2.0000      -0.400965       -10.9108
 230   2.0000      -0.396449       -10.7879
 231   2.0000      -0.395663       -10.7666
 232   2.0000      -0.384406       -10.4602
 233   2.0000      -0.382941       -10.4204
 234   2.0000      -0.381366       -10.3775
 235   2.0000      -0.380315       -10.3489
 236   2.0000      -0.375738       -10.2243
 237   2.0000      -0.374987       -10.2039
 238   2.0000      -0.369716       -10.0605
 239   2.0000      -0.367836       -10.0093
 240   2.0000      -0.363313        -9.8863
 241   2.0000      -0.350076        -9.5260
 242   2.0000      -0.347430        -9.4541
 243   2.0000      -0.333591        -9.0775
 244   2.0000      -0.331634        -9.0242
 245   2.0000      -0.325116        -8.8469
 246   2.0000      -0.321527        -8.7492
 247   2.0000      -0.316503        -8.6125
 248   2.0000      -0.314819        -8.5667
 249   2.0000      -0.314067        -8.5462
 250   2.0000      -0.307362        -8.3638
 251   2.0000      -0.290328        -7.9002
 252   2.0000      -0.277851        -7.5607
 253   2.0000      -0.270275        -7.3545
 254   2.0000      -0.258828        -7.0431
 255   2.0000      -0.238376        -6.4865
 256   2.0000      -0.236470        -6.4347
 257   2.0000      -0.197497        -5.3742
 258   0.0000      -0.080395        -2.1877
 259   0.0000      -0.064690        -1.7603
 260   0.0000      -0.045717        -1.2440
 261   0.0000      -0.025524        -0.6945
 262   0.0000      -0.006923        -0.1884

MULLIKEN ATOMIC CHARGES
-----------------------
   0 C :   -0.114445
   1 S :    0.164289
   2 C :   -0.171636
   3 C :    0.142994
   4 C :    0.106092
   5 C :   -0.049010
   6 C :   -0.097389
   7 C :    0.153053
   8 O :   -0.189022
   9 O :   -0.158619
  10 C :    0.177647
  11 O :   -0.230692
  12 C :   -0.100046
  13 C :    0.043947
  14 C :   -0.035610
  15 C :    0.068818
  16 C :   -0.125292
  17 S :    0.120891
  18 C :   -0.141424
  19 C :    0.107985
  20 C :   -0.122807
  21 C :    0.007723
  22 C :    0.041764
  23 C :   -0.118395
  24 C :    0.039003
  25 C :    0.038469
  26 C :    0.113729
  27 C :    0.075750
  28 C :   -0.137662
  29 S :    0.115209
  30 C :   -0.147414
  31 C :   -0.046486
  32 C :    0.050597
  33 C :   -0.144677
  34 S :    0.111761
  35 C :   -0.131373
  36 C :   -0.071978
  37 C :    0.105613
  38 C :    0.098622
  39 C :   -0.044928
  40 C :   -0.011283
  41 C :    0.007591
  42 C :   -0.002517
  43 C :    0.002697
  44 C :   -0.029189
  45 C :    0.038834
  46 C :    0.018072
  47 C :   -0.038326
  48 S :    0.075768
  49 C :   -0.044721
  50 C :    0.039314
  51 C :    0.022499
  52 C :   -0.026352
  53 S :    0.085472
  54 C :    0.039817
  55 C :   -0.226042
  56 S :    0.143371
  57 C :   -0.141029
  58 C :    0.126227
  59 C :    0.193904
  60 O :   -0.194100
  61 C :    0.247825
  62 N :    0.287750
  63 O :   -0.258110
  64 O :   -0.216799
  65 C :   -0.079912
  66 H :    0.024085
  67 H :    0.002912
  68 H :    0.177349
  69 H :    0.197310
  70 H :   -0.055011
  71 H :   -0.019411
  72 H :   -0.025403
  73 H :    0.016376
  74 H :    0.016187
  75 H :    0.006117
  76 H :    0.009171
  77 H :    0.012205
  78 H :    0.011189
  79 H :    0.006535
  80 H :   -0.012796
  81 H :    0.026986
  82 H :    0.011028
  83 H :    0.001837
  84 H :    0.022557
  85 H :    0.011888
  86 H :   -0.013453
  87 H :    0.007963
  88 H :    0.006163
  89 H :    0.030308
  90 H :    0.029067
  91 H :    0.028533
  92 H :   -0.021118
  93 H :   -0.021637
  94 H :    0.018877
  95 H :   -0.020010
  96 H :   -0.015907
  97 H :   -0.015597
  98 H :   -0.017268
  99 H :   -0.017042
 100 H :   -0.026442
 101 H :    0.029417
 102 H :    0.011218
Sum of atomic charges:   -0.0000000

LOEWDIN ATOMIC CHARGES
----------------------
   0 C :   -0.185364
   1 S :    0.496639
   2 C :   -0.192736
   3 C :   -0.036150
   4 C :   -0.063900
   5 C :    0.053941
   6 C :   -0.111492
   7 C :    0.079529
   8 O :   -0.175964
   9 O :   -0.032203
  10 C :    0.062459
  11 O :   -0.052403
  12 C :   -0.083638
  13 C :   -0.046705
  14 C :   -0.029282
  15 C :   -0.061984
  16 C :   -0.173092
  17 S :    0.408522
  18 C :   -0.177460
  19 C :   -0.045714
  20 C :   -0.024555
  21 C :   -0.032025
  22 C :   -0.054941
  23 C :   -0.018717
  24 C :   -0.030436
  25 C :   -0.049513
  26 C :   -0.038021
  27 C :   -0.063748
  28 C :   -0.166744
  29 S :    0.406945
  30 C :   -0.178009
  31 C :   -0.010860
  32 C :   -0.039117
  33 C :   -0.162417
  34 S :    0.428713
  35 C :   -0.199619
  36 C :   -0.053880
  37 C :   -0.046178
  38 C :   -0.067123
  39 C :   -0.001568
  40 C :   -0.051570
  41 C :   -0.022897
  42 C :   -0.034734
  43 C :   -0.045182
  44 C :   -0.153026
  45 C :   -0.030775
  46 C :   -0.039672
  47 C :   -0.171179
  48 S :    0.385173
  49 C :   -0.192194
  50 C :   -0.028631
  51 C :   -0.044040
  52 C :   -0.139339
  53 S :    0.398578
  54 C :   -0.100267
  55 C :   -0.193352
  56 S :    0.470095
  57 C :   -0.195802
  58 C :   -0.081129
  59 C :    0.007102
  60 O :   -0.000993
  61 C :    0.023863
  62 N :    0.280423
  63 O :   -0.217035
  64 O :   -0.181906
  65 C :   -0.005353
  66 H :    0.027210
  67 H :    0.043182
  68 H :    0.062083
  69 H :    0.104462
  70 H :    0.023475
  71 H :    0.026081
  72 H :    0.023445
  73 H :    0.020838
  74 H :    0.030690
  75 H :    0.027349
  76 H :    0.017415
  77 H :    0.022332
  78 H :    0.024927
  79 H :    0.026926
  80 H :    0.022983
  81 H :    0.027031
  82 H :    0.023994
  83 H :    0.021757
  84 H :    0.013841
  85 H :    0.028980
  86 H :    0.027634
  87 H :    0.018566
  88 H :    0.030770
  89 H :    0.035025
  90 H :    0.032319
  91 H :    0.034585
  92 H :    0.026204
  93 H :    0.025951
  94 H :    0.022513
  95 H :    0.030976
  96 H :    0.032116
  97 H :    0.030572
  98 H :    0.030648
  99 H :    0.030519
 100 H :    0.031521
 101 H :    0.027446
 102 H :    0.046282

  Mayer bond orders larger than 0.100000
B(  0-C ,  1-S ) :   1.2265 B(  0-C ,  2-C ) :   0.1089 B(  0-C ,  4-C ) :   1.3971
B(  0-C , 66-H ) :   0.9705 B(  1-S ,  2-C ) :   1.1637 B(  2-C ,  3-C ) :   1.3768
B(  2-C , 13-C ) :   1.1115 B(  3-C ,  4-C ) :   1.1983 B(  3-C , 12-C ) :   1.1859
B(  4-C ,  5-C ) :   1.1230 B(  5-C ,  6-C ) :   1.5763 B(  5-C , 67-H ) :   1.0052
B(  6-C ,  7-C ) :   0.8687 B(  6-C , 10-C ) :   1.1560 B(  7-C ,  8-O ) :   2.1700
B(  7-C ,  9-O ) :   1.2942 B(  9-O , 68-H ) :   0.9198 B( 10-C , 11-O ) :   1.1102
B( 10-C , 12-C ) :   1.5127 B( 11-O , 68-H ) :   0.1015 B( 11-O , 69-H ) :   0.9463
B( 12-C , 70-H ) :   0.9727 B( 13-C , 14-C ) :   1.7505 B( 13-C , 71-H ) :   0.9518
B( 14-C , 15-C ) :   1.0321 B( 14-C , 72-H ) :   0.9497 B( 15-C , 16-C ) :   1.6104
B( 15-C , 19-C ) :   1.1402 B( 16-C , 17-S ) :   1.1114 B( 16-C , 73-H ) :   0.9610
B( 17-S , 18-C ) :   1.0765 B( 18-C , 19-C ) :   1.3766 B( 18-C , 30-C ) :   1.3758
B( 19-C , 20-C ) :   1.2628 B( 20-C , 21-C ) :   1.0547 B( 20-C , 23-C ) :   1.5190
B( 21-C , 22-C ) :   1.1109 B( 21-C , 74-H ) :   0.9234 B( 21-C , 75-H ) :   0.9143
B( 22-C , 76-H ) :   0.9539 B( 22-C , 77-H ) :   0.9652 B( 22-C , 78-H ) :   0.9566
B( 23-C , 24-C ) :   1.0629 B( 23-C , 26-C ) :   1.2535 B( 24-C , 25-C ) :   1.1080
B( 24-C , 79-H ) :   0.9270 B( 24-C , 80-H ) :   0.9053 B( 25-C , 81-H ) :   0.9644
B( 25-C , 82-H ) :   0.9657 B( 25-C , 83-H ) :   0.9565 B( 26-C , 27-C ) :   1.1373
B( 26-C , 30-C ) :   1.3757 B( 27-C , 28-C ) :   1.6093 B( 27-C , 31-C ) :   1.0409
B( 28-C , 29-S ) :   1.1117 B( 28-C , 84-H ) :   0.9415 B( 29-S , 30-C ) :   1.0778
B( 31-C , 32-C ) :   1.7364 B( 31-C , 85-H ) :   0.9563 B( 32-C , 33-C ) :   1.1173
B( 32-C , 86-H ) :   0.9566 B( 33-C , 34-S ) :   1.1444 B( 33-C , 38-C ) :   1.4368
B( 34-S , 35-C ) :   1.1322 B( 35-C , 36-C ) :   1.5995 B( 35-C , 87-H ) :   0.9679
B( 36-C , 37-C ) :   1.0905 B( 36-C , 38-C ) :   1.2361 B( 37-C , 88-H ) :   0.9483
B( 37-C , 89-H ) :   0.9455 B( 37-C , 90-H ) :   0.9447 B( 38-C , 39-C ) :   1.1129
B( 39-C , 40-C ) :   1.6777 B( 39-C , 91-H ) :   0.9414 B( 40-C , 41-C ) :   1.1416
B( 40-C , 92-H ) :   0.9754 B( 41-C , 42-C ) :   1.6291 B( 41-C , 93-H ) :   0.9807
B( 42-C , 43-C ) :   1.1793 B( 42-C , 94-H ) :   0.9598 B( 43-C , 44-C ) :   1.5355
B( 43-C , 95-H ) :   0.9870 B( 44-C , 45-C ) :   1.1532 B( 44-C , 48-S ) :   1.0316
B( 45-C , 46-C ) :   1.5734 B( 45-C , 96-H ) :   0.9993 B( 46-C , 47-C ) :   1.1974
B( 46-C , 97-H ) :   0.9954 B( 47-C , 48-S ) :   1.0606 B( 47-C , 49-C ) :   1.4847
B( 49-C , 50-C ) :   1.1972 B( 49-C , 53-S ) :   1.0320 B( 50-C , 51-C ) :   1.5808
B( 50-C , 98-H ) :   0.9936 B( 51-C , 52-C ) :   1.1478 B( 51-C , 99-H ) :   1.0000
B( 52-C , 53-S ) :   1.0536 B( 52-C , 54-C ) :   1.5864 B( 54-C , 55-C ) :   1.1583
B( 54-C ,100-H ) :   0.9439 B( 55-C , 56-S ) :   1.1341 B( 55-C , 57-C ) :   0.1079
B( 55-C , 59-C ) :   1.4238 B( 56-S , 57-C ) :   1.1742 B( 57-C , 58-C ) :   1.4304
B( 57-C ,101-H ) :   0.9770 B( 58-C , 59-C ) :   1.2312 B( 58-C , 65-C ) :   1.0683
B( 59-C , 60-O ) :   1.0834 B( 60-O , 61-C ) :   1.1214 B( 61-C , 62-N ) :   0.9278
B( 61-C , 65-C ) :   1.5618 B( 62-N , 63-O ) :   1.4819 B( 62-N , 64-O ) :   1.5154
B( 63-O , 64-O ) :   0.2691 B( 65-C ,102-H ) :   1.0268

-----------------------------------------------------------------------------
         ABSORPTION SPECTRUM VIA TRANSITION ELECTRIC DIPOLE MOMENTS
-----------------------------------------------------------------------------
State   Energy  Wavelength   fosc         T2         TX        TY        TZ
        (cm-1)    (nm)                  (au**2)     (au)      (au)      (au)
-----------------------------------------------------------------------------
   0   10609.0    942.6   0.189755726   5.88836  -0.51226  -0.00576  -2.37190
   1   13697.4    730.1   0.545545142  13.11195  -1.98598  -0.18836  -3.02198
   2   18972.7    527.1   0.074175028   1.28707  -0.45381  -0.23175   1.01362
   3   20812.2    480.5   0.015744006   0.24904   0.26734   0.29568  -0.30024
   4   22633.7    441.8   0.411336555   5.98298   1.27644   1.11070  -1.76635
   5   24107.0    414.8   0.047414168   0.64750   0.61816   0.34622  -0.38145
   6   24479.8    408.5   0.240846914   3.23898  -1.47958  -0.33354   0.96880
   7   24948.8    400.8   0.000740749   0.00977   0.00032  -0.09478  -0.02813
   8   25644.8    389.9   0.487265313   6.25521  -0.41436   2.02052   1.41457
   9   26258.7    380.8   0.300729069   3.77032  -1.64181  -0.12281   1.02941
  10   26682.0    374.8   0.007486309   0.09237   0.27855   0.05038  -0.11064
  11   27836.3    359.2   0.344395749   4.07307   1.99474  -0.29116   0.09651
  12   29213.9    342.3   0.120855267   1.36192  -1.12980   0.29168   0.01964
  13   30090.9    332.3   0.005757983   0.06300  -0.21053   0.13601   0.01315
  14   30593.1    326.9   0.010244694   0.11024  -0.19020   0.27208   0.00631
  15   30603.7    326.8   0.049619809   0.53377  -0.19941   0.54434   0.44464
  16   30831.9    324.3   0.233689432   2.49525   0.93061  -0.75519   1.02903
  17   31356.6    318.9   0.150917910   1.58448   0.45729  -1.03770   0.54639
  18   31617.1    316.3   0.087530938   0.91141  -0.64177   0.68205  -0.18535
  19   32261.6    310.0   0.011411527   0.11645  -0.16980   0.18872   0.22804
  20   32355.3    309.1   0.385411320   3.92152  -0.76470   0.92328   1.57617
  21   32485.8    307.8   0.091247943   0.92471  -0.87820   0.19809  -0.33797
  22   32792.2    305.0   0.004374214   0.04391  -0.12088   0.00163   0.17117
  23   32925.5    303.7   0.000226373   0.00226  -0.00348  -0.02648   0.03937
  24   33113.4    302.0   0.010773442   0.10711  -0.31383  -0.08821   0.02892
  25   33514.9    298.4   0.098645259   0.96898   0.26916  -0.51413  -0.79511
  26   33630.9    297.3   0.099818461   0.97712   0.79042  -0.00158   0.59359
  27   34420.8    290.5   0.087060120   0.83267   0.40187  -0.81922   0.00690
  28   34627.1    288.8   0.104334389   0.99194   0.43752   0.41415   0.79309
  29   35066.8    285.2   0.219832294   2.06381   0.76953  -0.19068   1.19803
  30   35340.0    283.0   0.102347143   0.95342  -0.63445  -0.06237  -0.73960
  31   35939.8    278.2   0.013059460   0.11963  -0.06594  -0.19860   0.27538
  32   36048.4    277.4   0.013720881   0.12531   0.28812  -0.17142   0.11362
  33   36076.3    277.2   0.014567688   0.13294  -0.28893   0.18109  -0.12907
  34   36382.1    274.9   0.019553334   0.17693   0.28293  -0.31113  -0.00905
  35   36536.3    273.7   0.180289136   1.62450   0.93426  -0.49777   0.70986
  36   36995.9    270.3   0.205904111   1.83226   0.02648  -0.68185  -1.16903
  37   37195.0    268.9   0.056811434   0.50284  -0.36416   0.19860  -0.57514
  38   37860.9    264.1   0.017142141   0.14906   0.03978   0.15208   0.35263
  39   37973.8    263.3   0.408062661   3.53768  -0.79112   1.63506  -0.48824
  40   38513.0    259.7   0.014279403   0.12206  -0.03014   0.30170   0.17357
  41   38670.8    258.6   0.055064564   0.46877   0.49626  -0.20798   0.42337
  42   38725.3    258.2   0.007260968   0.06173   0.07884  -0.09537   0.21544
  43   39416.1    253.7   0.306825511   2.56268   1.10465   0.03040  -1.15823
  44   39637.4    252.3   0.003211775   0.02668  -0.00860   0.14595  -0.07281
  45   40074.2    249.5   0.018135163   0.14898   0.07360  -0.32037   0.20230
  46   40097.1    249.4   0.116582794   0.95719  -0.65998   0.71272   0.11680

FINAL SINGLE POINT ENERGY     -5293.055592051152

DIPOLE MOMENT
-------------
                                X             Y             Z
Electronic contribution:    -13.57994       7.96213     -55.90058
Nuclear contribution   :     13.19317      -9.91597      53.76721
                        -----------------------------------------
Total Dipole Moment    :     -0.38677      -1.95384      -2.13337
                        -----------------------------------------
Magnitude (a.u.)       :      2.91862
Magnitude (Debye)      :      7.41854

Rotational constants in cm-1:     0.001051     0.000453     0.000420
Rotational constants in MHz :    31.516824    13.592602    12.590583

                             ****ORCA TERMINATED NORMALLY****
TOTAL RUN TIME: 0 days 0 hours 10 minutes 1 seconds 276 msec
