                         Program Version 4.2.0 -  RELEASE  -
|  1> # ORCA input file
|  2> # SCF done       -220.352965597528          0.000687137387
|  3> ! CAM-B3LYP def2-SVP def2/J RIJCOSX Grid4 TightSCF
|  4> %maxcore 5000
|  5> %tddft
|  6>     Mode sTDDFT
|  7>     Ethresh 5.0
|  8>     maxcore 5000
|  9> end
| 10>
| 11> %pal
| 12>   nprocs 6
| 13>   end
| 14> * xyz 0 1
| 15>    O       -3.57774         0.83876         0.24895
| 16>    C       -4.36651         1.80485        -0.29341
| 17>    N       -5.41292         1.32885        -0.89769
| 18>    C       -5.32949        -0.03017        -0.75862
| 19>    C       -4.18772        -0.31355        -0.04703
| 20>    C       -6.33154        -0.93468        -1.30689
| 21>    O       -6.29820        -2.13419        -1.21197
| 22>    C       -4.00847         3.18198        -0.16584
| 23>    C       -2.91703         3.69801         0.46728
| 24>    C       -2.85881         5.11205         0.40566
| 25>    C       -1.85282         5.95818         0.91578
| 26>    C       -0.76374         5.43147         1.71299
| 27>    C       -0.82759         4.49011         2.70075
| 28>    C        0.43373         4.21412         3.27021
| 29>    C        1.46505         4.92746         2.73057
| 30>    S        0.87521         5.97757         1.48878
| 31>    C        2.90868         4.87276         3.07194
| 32>   Cl        0.64111         3.07222         4.54316
| 33>    C       -1.97273         7.30939         0.61831
| 34>    C       -3.05114         7.85275        -0.12588
| 35>    C       -4.07524         7.01183        -0.60526
| 36>    C       -3.94799         5.65285        -0.32177
| 37>    S       -5.03258         4.39957        -0.86842
| 38>    C       -5.20294         7.50537        -1.36857
| 39>    C       -6.49885         7.07688        -1.31071
| 40>    C       -7.33690         7.74058        -2.23188
| 41>    C       -6.70224         8.66351        -3.01152
| 42>    S       -5.02474         8.73357        -2.59381
| 43>    C       -7.27171         9.54116        -4.06458
| 44>   Cl       -9.01970         7.40122        -2.35366
| 45>    C       -2.94616         9.25930        -0.24386
| 46>    C       -1.84346         9.78136         0.36880
| 47>    S       -0.86783         8.55025         1.14112
| 48>    C       -1.44257        11.14493         0.41980
| 49>    C       -0.38776        11.68724         1.12380
| 50>    C       -0.28712        13.06766         0.93271
| 51>    C       -1.27101        13.57102         0.06770
| 52>    S       -2.32502        12.35453        -0.49979
| 53>    C       -1.08153        14.97224        -0.06927
| 54>    C        0.01576        15.35247         0.71898
| 55>    C        0.55094        14.16992         1.37649
| 56>    C        1.61220        14.11247         2.23138
| 57>    C        2.05141        12.90106         2.80599
| 58>    N        2.41274        11.92051         3.27776
| 59>    C        2.33897        15.26443         2.59850
| 60>    N        2.93053        16.19867         2.90269
| 61>    C        0.28877        16.71925         0.64788
| 62>    C       -0.58794        17.37708        -0.19358
| 63>    S       -1.77058        16.29232        -0.90197
| 64>    C       -0.59992        18.76539        -0.50863
| 65>    C        0.20815        19.73811         0.00932
| 66>    C       -0.05021        21.02866        -0.51042
| 67>    C        0.62129        22.23192        -0.21494
| 68>    C        1.65418        22.31968         0.79634
| 69>    C        2.79537        23.06995         0.77118
| 70>    C        3.54794        22.96120         1.96036
| 71>    C        2.99599        22.14869         2.90800
| 72>    S        1.51000        21.48489         2.32166
| 73>    C        3.50689        21.80697         4.25868
| 74>   Cl        5.03761        23.79509         2.18105
| 75>    C        0.22314        23.35528        -0.93577
| 76>    C       -0.80677        23.33504        -1.91015
| 77>    C       -1.48512        22.13239        -2.19744
| 78>    C       -1.08721        21.01200        -1.47659
| 79>    S       -1.73328        19.40734        -1.67793
| 80>    C       -2.52801        22.03964        -3.19852
| 81>    C       -3.67382        21.29754        -3.14620
| 82>    C       -4.43675        21.38829        -4.32977
| 83>    C       -3.88811        22.17929        -5.29728
| 84>    S       -2.39143        22.84436        -4.73882
| 85>    C       -4.40530        22.48264        -6.65519
| 86>   Cl       -5.93501        20.56239        -4.52185
| 87>    C       -1.05300        24.62440        -2.44188
| 88>    C       -0.24540        25.58463        -1.90963
| 89>    S        0.86819        24.95997        -0.72433
| 90>    C       -0.24578        26.97421        -2.23840
| 91>    N       -1.01461        27.56328        -3.10630
| 92>    C       -0.65055        28.88281        -3.07561
| 93>    C        0.35934        29.02451        -2.15286
| 94>    O        0.61580        27.82506        -1.62489
| 95>    C       -1.28462        29.88813        -3.91775
| 96>    O       -1.00030        31.05775        -3.92406
| 97>    H       -3.74831        -1.23354         0.27941
| 98>    H       -7.14459        -0.40312        -1.83098
| 99>    H       -2.16927         3.08370         0.93338
|100>    H       -1.74023         4.04072         3.04611
|101>    H        3.03528         4.47755         4.07737
|102>    H        3.35221         5.86424         3.01535
|103>    H        3.44229         4.22231         2.37750
|104>    H       -6.86081         6.34211        -0.61654
|105>    H       -8.25058         9.17117        -4.35936
|106>    H       -6.62018         9.56912        -4.93566
|107>    H       -7.38347        10.56099        -3.69476
|108>    H       -3.66464         9.87546        -0.75228
|109>    H        0.26302        11.09399         1.74074
|110>    H        1.08358        17.21484         1.17296
|111>    H        0.97480        19.53221         0.73107
|112>    H        3.11829        23.65122        -0.07206
|113>    H        4.44268        22.32973         4.43917
|114>    H        3.67783        20.73416         4.34311
|115>    H        2.78727        22.09245         5.02534
|116>    H       -3.99240        20.73495        -2.28855
|117>    H       -3.81819        21.96405        -7.41379
|118>    H       -4.34750        23.55042        -6.85824
|119>    H       -5.43986        22.15772        -6.73460
|120>    H       -1.79878        24.85826        -3.17711
|121>    H        0.92298        29.87182        -1.82093
|122>    H       -2.07254        29.46639        -4.56567
|123> *
|124>
|125>                          ****END OF INPUT****

CARTESIAN COORDINATES (ANGSTROEM)
---------------------------------
  O     -3.577740    0.838760    0.248950
  C     -4.366510    1.804850   -0.293410
  N     -5.412920    1.328850   -0.897690
  C     -5.329490   -0.030170   -0.758620
  C     -4.187720   -0.313550   -0.047030
  C     -6.331540   -0.934680   -1.306890
  O     -6.298200   -2.134190   -1.211970
  C     -4.008470    3.181980   -0.165840
  C     -2.917030    3.698010    0.467280
  C     -2.858810    5.112050    0.405660
  C     -1.852820    5.958180    0.915780
  C     -0.763740    5.431470    1.712990
  C     -0.827590    4.490110    2.700750
  C      0.433730    4.214120    3.270210
  C      1.465050    4.927460    2.730570
  S      0.875210    5.977570    1.488780
  C      2.908680    4.872760    3.071940
  Cl     0.641110    3.072220    4.543160
  C     -1.972730    7.309390    0.618310
  C     -3.051140    7.852750   -0.125880
  C     -4.075240    7.011830   -0.605260
  C     -3.947990    5.652850   -0.321770
  S     -5.032580    4.399570   -0.868420
  C     -5.202940    7.505370   -1.368570
  C     -6.498850    7.076880   -1.310710
  C     -7.336900    7.740580   -2.231880
  C     -6.702240    8.663510   -3.011520
  S     -5.024740    8.733570   -2.593810
  C     -7.271710    9.541160   -4.064580
  Cl    -9.019700    7.401220   -2.353660
  C     -2.946160    9.259300   -0.243860
  C     -1.843460    9.781360    0.368800
  S     -0.867830    8.550250    1.141120
  C     -1.442570   11.144930    0.419800
  C     -0.387760   11.687240    1.123800
  C     -0.287120   13.067660    0.932710
  C     -1.271010   13.571020    0.067700
  S     -2.325020   12.354530   -0.499790
  C     -1.081530   14.972240   -0.069270
  C      0.015760   15.352470    0.718980
  C      0.550940   14.169920    1.376490
  C      1.612200   14.112470    2.231380
  C      2.051410   12.901060    2.805990
  N      2.412740   11.920510    3.277760
  C      2.338970   15.264430    2.598500
  N      2.930530   16.198670    2.902690
  C      0.288770   16.719250    0.647880
  C     -0.587940   17.377080   -0.193580
  S     -1.770580   16.292320   -0.901970
  C     -0.599920   18.765390   -0.508630
  C      0.208150   19.738110    0.009320
  C     -0.050210   21.028660   -0.510420
  C      0.621290   22.231920   -0.214940
  C      1.654180   22.319680    0.796340
  C      2.795370   23.069950    0.771180
  C      3.547940   22.961200    1.960360
  C      2.995990   22.148690    2.908000
  S      1.510000   21.484890    2.321660
  C      3.506890   21.806970    4.258680
  Cl     5.037610   23.795090    2.181050
  C      0.223140   23.355280   -0.935770
  C     -0.806770   23.335040   -1.910150
  C     -1.485120   22.132390   -2.197440
  C     -1.087210   21.012000   -1.476590
  S     -1.733280   19.407340   -1.677930
  C     -2.528010   22.039640   -3.198520
  C     -3.673820   21.297540   -3.146200
  C     -4.436750   21.388290   -4.329770
  C     -3.888110   22.179290   -5.297280
  S     -2.391430   22.844360   -4.738820
  C     -4.405300   22.482640   -6.655190
  Cl    -5.935010   20.562390   -4.521850
  C     -1.053000   24.624400   -2.441880
  C     -0.245400   25.584630   -1.909630
  S      0.868190   24.959970   -0.724330
  C     -0.245780   26.974210   -2.238400
  N     -1.014610   27.563280   -3.106300
  C     -0.650550   28.882810   -3.075610
  C      0.359340   29.024510   -2.152860
  O      0.615800   27.825060   -1.624890
  C     -1.284620   29.888130   -3.917750
  O     -1.000300   31.057750   -3.924060
  H     -3.748310   -1.233540    0.279410
  H     -7.144590   -0.403120   -1.830980
  H     -2.169270    3.083700    0.933380
  H     -1.740230    4.040720    3.046110
  H      3.035280    4.477550    4.077370
  H      3.352210    5.864240    3.015350
  H      3.442290    4.222310    2.377500
  H     -6.860810    6.342110   -0.616540
  H     -8.250580    9.171170   -4.359360
  H     -6.620180    9.569120   -4.935660
  H     -7.383470   10.560990   -3.694760
  H     -3.664640    9.875460   -0.752280
  H      0.263020   11.093990    1.740740
  H      1.083580   17.214840    1.172960
  H      0.974800   19.532210    0.731070
  H      3.118290   23.651220   -0.072060
  H      4.442680   22.329730    4.439170
  H      3.677830   20.734160    4.343110
  H      2.787270   22.092450    5.025340
  H     -3.992400   20.734950   -2.288550
  H     -3.818190   21.964050   -7.413790
  H     -4.347500   23.550420   -6.858240
  H     -5.439860   22.157720   -6.734600
  H     -1.798780   24.858260   -3.177110
  H      0.922980   29.871820   -1.820930
  H     -2.072540   29.466390   -4.565670

 Total Charge           Charge          ....    0
 Multiplicity           Mult            ....    1
 Number of Electrons    NEL             ....  674
 Basis Dimension        Dim             .... 1334

ORBITAL ENERGIES
----------------

  NO   OCC          E(Eh)            E(eV)
   0   2.0000    -101.587395     -2764.3336
   1   2.0000    -101.585838     -2764.2912
   2   2.0000    -101.585501     -2764.2820
   3   2.0000    -101.584570     -2764.2567
   4   2.0000     -88.993707     -2421.6419
   5   2.0000     -88.992530     -2421.6098
   6   2.0000     -88.963218     -2420.8122
   7   2.0000     -88.962754     -2420.7996
   8   2.0000     -88.962731     -2420.7990
   9   2.0000     -88.962715     -2420.7985
  10   2.0000     -88.961410     -2420.7630
  11   2.0000     -88.960853     -2420.7479
  12   2.0000     -88.960676     -2420.7431
  13   2.0000     -88.960085     -2420.7270
  14   2.0000     -19.323244      -525.8122
  15   2.0000     -19.321352      -525.7607
  16   2.0000     -19.214061      -522.8412
  17   2.0000     -19.212642      -522.8026
  18   2.0000     -14.433625      -392.7589
  19   2.0000     -14.432528      -392.7291
  20   2.0000     -14.420959      -392.4142
  21   2.0000     -14.420885      -392.4122
  22   2.0000     -10.380449      -282.4664
  23   2.0000     -10.379635      -282.4442
  24   2.0000     -10.367121      -282.1037
  25   2.0000     -10.358896      -281.8799
  26   2.0000     -10.357635      -281.8456
  27   2.0000     -10.354569      -281.7622
  28   2.0000     -10.352532      -281.7067
  29   2.0000     -10.352454      -281.7046
  30   2.0000     -10.335374      -281.2398
  31   2.0000     -10.334126      -281.2059
  32   2.0000     -10.334087      -281.2048
  33   2.0000     -10.332772      -281.1690
  34   2.0000     -10.329624      -281.0833
  35   2.0000     -10.328384      -281.0496
  36   2.0000     -10.322954      -280.9018
  37   2.0000     -10.322322      -280.8847
  38   2.0000     -10.321855      -280.8719
  39   2.0000     -10.321249      -280.8555
  40   2.0000     -10.320684      -280.8401
  41   2.0000     -10.320254      -280.8284
  42   2.0000     -10.318626      -280.7841
  43   2.0000     -10.317959      -280.7659
  44   2.0000     -10.315055      -280.6869
  45   2.0000     -10.314583      -280.6741
  46   2.0000     -10.313080      -280.6332
  47   2.0000     -10.312433      -280.6156
  48   2.0000     -10.311955      -280.6026
  49   2.0000     -10.311058      -280.5782
  50   2.0000     -10.310369      -280.5594
  51   2.0000     -10.310028      -280.5501
  52   2.0000     -10.309106      -280.5250
  53   2.0000     -10.308419      -280.5063
  54   2.0000     -10.308285      -280.5027
  55   2.0000     -10.307466      -280.4804
  56   2.0000     -10.307358      -280.4775
  57   2.0000     -10.306575      -280.4562
  58   2.0000     -10.306376      -280.4507
  59   2.0000     -10.305869      -280.4369
  60   2.0000     -10.305639      -280.4307
  61   2.0000     -10.305576      -280.4290
  62   2.0000     -10.304968      -280.4124
  63   2.0000     -10.304665      -280.4042
  64   2.0000     -10.303674      -280.3772
  65   2.0000     -10.303586      -280.3748
  66   2.0000     -10.298100      -280.2255
  67   2.0000     -10.297699      -280.2146
  68   2.0000     -10.297144      -280.1995
  69   2.0000     -10.295355      -280.1509
  70   2.0000     -10.288982      -279.9774
  71   2.0000     -10.287964      -279.9497
  72   2.0000     -10.285064      -279.8708
  73   2.0000     -10.284975      -279.8684
  74   2.0000     -10.284345      -279.8513
  75   2.0000     -10.283446      -279.8268
  76   2.0000     -10.282554      -279.8025
  77   2.0000     -10.282519      -279.8016
  78   2.0000     -10.280165      -279.7375
  79   2.0000     -10.279870      -279.7295
  80   2.0000     -10.277556      -279.6665
  81   2.0000     -10.276252      -279.6310
  82   2.0000      -9.542164      -259.6555
  83   2.0000      -9.540587      -259.6126
  84   2.0000      -9.540292      -259.6045
  85   2.0000      -9.539334      -259.5785
  86   2.0000      -8.088371      -220.0958
  87   2.0000      -8.087025      -220.0591
  88   2.0000      -8.058655      -219.2872
  89   2.0000      -8.058360      -219.2791
  90   2.0000      -8.058283      -219.2770
  91   2.0000      -8.057841      -219.2650
  92   2.0000      -8.057147      -219.2461
  93   2.0000      -8.056467      -219.2276
  94   2.0000      -8.055974      -219.2142
  95   2.0000      -8.055026      -219.1884
  96   2.0000      -7.312416      -198.9810
  97   2.0000      -7.310820      -198.9375
  98   2.0000      -7.310557      -198.9304
  99   2.0000      -7.309595      -198.9042
 100   2.0000      -7.302252      -198.7044
 101   2.0000      -7.302135      -198.7012
 102   2.0000      -7.300716      -198.6626
 103   2.0000      -7.300547      -198.6580
 104   2.0000      -7.300387      -198.6536
 105   2.0000      -7.300227      -198.6493
 106   2.0000      -7.299401      -198.6268
 107   2.0000      -7.299312      -198.6244
 108   2.0000      -6.057632      -164.8366
 109   2.0000      -6.056282      -164.7998
 110   2.0000      -6.053373      -164.7207
 111   2.0000      -6.052137      -164.6870
 112   2.0000      -6.050770      -164.6498
 113   2.0000      -6.049352      -164.6112
 114   2.0000      -6.028402      -164.0411
 115   2.0000      -6.027671      -164.0213
 116   2.0000      -6.027598      -164.0193
 117   2.0000      -6.027489      -164.0163
 118   2.0000      -6.026379      -163.9861
 119   2.0000      -6.025796      -163.9702
 120   2.0000      -6.025700      -163.9676
 121   2.0000      -6.024835      -163.9441
 122   2.0000      -6.024164      -163.9258
 123   2.0000      -6.023504      -163.9079
 124   2.0000      -6.023436      -163.9060
 125   2.0000      -6.023278      -163.9017
 126   2.0000      -6.022260      -163.8740
 127   2.0000      -6.021605      -163.8562
 128   2.0000      -6.021505      -163.8535
 129   2.0000      -6.020454      -163.8249
 130   2.0000      -6.020416      -163.8238
 131   2.0000      -6.020372      -163.8226
 132   2.0000      -6.019880      -163.8093
 133   2.0000      -6.019275      -163.7928
 134   2.0000      -6.019227      -163.7915
 135   2.0000      -6.018521      -163.7723
 136   2.0000      -6.017156      -163.7351
 137   2.0000      -6.016245      -163.7104
 138   2.0000      -1.252383       -34.0791
 139   2.0000      -1.249616       -34.0038
 140   2.0000      -1.127549       -30.6822
 141   2.0000      -1.126204       -30.6456
 142   2.0000      -1.047504       -28.5040
 143   2.0000      -1.031158       -28.0592
 144   2.0000      -1.030482       -28.0408
 145   2.0000      -1.025182       -27.8966
 146   2.0000      -1.021136       -27.7865
 147   2.0000      -1.019162       -27.7328
 148   2.0000      -1.010698       -27.5025
 149   2.0000      -1.006177       -27.3795
 150   2.0000      -1.005692       -27.3663
 151   2.0000      -1.005321       -27.3562
 152   2.0000      -0.999718       -27.2037
 153   2.0000      -0.998248       -27.1637
 154   2.0000      -0.990688       -26.9580
 155   2.0000      -0.983234       -26.7552
 156   2.0000      -0.961351       -26.1597
 157   2.0000      -0.948551       -25.8114
 158   2.0000      -0.947892       -25.7935
 159   2.0000      -0.944862       -25.7110
 160   2.0000      -0.944440       -25.6995
 161   2.0000      -0.929686       -25.2980
 162   2.0000      -0.925786       -25.1919
 163   2.0000      -0.910251       -24.7692
 164   2.0000      -0.905718       -24.6458
 165   2.0000      -0.904554       -24.6142
 166   2.0000      -0.887710       -24.1558
 167   2.0000      -0.884908       -24.0796
 168   2.0000      -0.872623       -23.7453
 169   2.0000      -0.865967       -23.5641
 170   2.0000      -0.864029       -23.5114
 171   2.0000      -0.860501       -23.4154
 172   2.0000      -0.854412       -23.2497
 173   2.0000      -0.852976       -23.2106
 174   2.0000      -0.849622       -23.1194
 175   2.0000      -0.844545       -22.9813
 176   2.0000      -0.838389       -22.8137
 177   2.0000      -0.822644       -22.3853
 178   2.0000      -0.814246       -22.1568
 179   2.0000      -0.813664       -22.1409
 180   2.0000      -0.811404       -22.0794
 181   2.0000      -0.810821       -22.0636
 182   2.0000      -0.804952       -21.9039
 183   2.0000      -0.803973       -21.8772
 184   2.0000      -0.794063       -21.6076
 185   2.0000      -0.788712       -21.4619
 186   2.0000      -0.780577       -21.2406
 187   2.0000      -0.778523       -21.1847
 188   2.0000      -0.773520       -21.0486
 189   2.0000      -0.769283       -20.9332
 190   2.0000      -0.755317       -20.5532
 191   2.0000      -0.749641       -20.3988
 192   2.0000      -0.748962       -20.3803
 193   2.0000      -0.733606       -19.9624
 194   2.0000      -0.713170       -19.4063
 195   2.0000      -0.707380       -19.2488
 196   2.0000      -0.703420       -19.1410
 197   2.0000      -0.702077       -19.1045
 198   2.0000      -0.697800       -18.9881
 199   2.0000      -0.696666       -18.9572
 200   2.0000      -0.686705       -18.6862
 201   2.0000      -0.680693       -18.5226
 202   2.0000      -0.670817       -18.2539
 203   2.0000      -0.666871       -18.1465
 204   2.0000      -0.656594       -17.8668
 205   2.0000      -0.655235       -17.8299
 206   2.0000      -0.646968       -17.6049
 207   2.0000      -0.645975       -17.5779
 208   2.0000      -0.636966       -17.3327
 209   2.0000      -0.636832       -17.3291
 210   2.0000      -0.632796       -17.2192
 211   2.0000      -0.629464       -17.1286
 212   2.0000      -0.625249       -17.0139
 213   2.0000      -0.618853       -16.8398
 214   2.0000      -0.613101       -16.6833
 215   2.0000      -0.612475       -16.6663
 216   2.0000      -0.610449       -16.6112
 217   2.0000      -0.607706       -16.5365
 218   2.0000      -0.606493       -16.5035
 219   2.0000      -0.605450       -16.4751
 220   2.0000      -0.594871       -16.1872
 221   2.0000      -0.592628       -16.1262
 222   2.0000      -0.590855       -16.0780
 223   2.0000      -0.589230       -16.0338
 224   2.0000      -0.587295       -15.9811
 225   2.0000      -0.584501       -15.9051
 226   2.0000      -0.582531       -15.8515
 227   2.0000      -0.582474       -15.8499
 228   2.0000      -0.572713       -15.5843
 229   2.0000      -0.570646       -15.5281
 230   2.0000      -0.559768       -15.2320
 231   2.0000      -0.557472       -15.1696
 232   2.0000      -0.550219       -14.9722
 233   2.0000      -0.547960       -14.9108
 234   2.0000      -0.546490       -14.8707
 235   2.0000      -0.539280       -14.6746
 236   2.0000      -0.532524       -14.4907
 237   2.0000      -0.528562       -14.3829
 238   2.0000      -0.526720       -14.3328
 239   2.0000      -0.525617       -14.3028
 240   2.0000      -0.525498       -14.2995
 241   2.0000      -0.523459       -14.2440
 242   2.0000      -0.522360       -14.2141
 243   2.0000      -0.521966       -14.2034
 244   2.0000      -0.519936       -14.1482
 245   2.0000      -0.517614       -14.0850
 246   2.0000      -0.517104       -14.0711
 247   2.0000      -0.513848       -13.9825
 248   2.0000      -0.513060       -13.9611
 249   2.0000      -0.511645       -13.9226
 250   2.0000      -0.508017       -13.8238
 251   2.0000      -0.506810       -13.7910
 252   2.0000      -0.505855       -13.7650
 253   2.0000      -0.502218       -13.6661
 254   2.0000      -0.500356       -13.6154
 255   2.0000      -0.499205       -13.5841
 256   2.0000      -0.498440       -13.5632
 257   2.0000      -0.496780       -13.5181
 258   2.0000      -0.493543       -13.4300
 259   2.0000      -0.489997       -13.3335
 260   2.0000      -0.487595       -13.2681
 261   2.0000      -0.484982       -13.1970
 262   2.0000      -0.483784       -13.1644
 263   2.0000      -0.482683       -13.1345
 264   2.0000      -0.482096       -13.1185
 265   2.0000      -0.479609       -13.0508
 266   2.0000      -0.477966       -13.0061
 267   2.0000      -0.477090       -12.9823
 268   2.0000      -0.476409       -12.9638
 269   2.0000      -0.475336       -12.9345
 270   2.0000      -0.474974       -12.9247
 271   2.0000      -0.473299       -12.8791
 272   2.0000      -0.472005       -12.8439
 273   2.0000      -0.469559       -12.7773
 274   2.0000      -0.467808       -12.7297
 275   2.0000      -0.466049       -12.6818
 276   2.0000      -0.464569       -12.6416
 277   2.0000      -0.463574       -12.6145
 278   2.0000      -0.463046       -12.6001
 279   2.0000      -0.461662       -12.5625
 280   2.0000      -0.457927       -12.4608
 281   2.0000      -0.455297       -12.3893
 282   2.0000      -0.453265       -12.3340
 283   2.0000      -0.450076       -12.2472
 284   2.0000      -0.447330       -12.1725
 285   2.0000      -0.444003       -12.0819
 286   2.0000      -0.443309       -12.0630
 287   2.0000      -0.442592       -12.0435
 288   2.0000      -0.441616       -12.0170
 289   2.0000      -0.436299       -11.8723
 290   2.0000      -0.434583       -11.8256
 291   2.0000      -0.430756       -11.7215
 292   2.0000      -0.427403       -11.6302
 293   2.0000      -0.425967       -11.5911
 294   2.0000      -0.425619       -11.5817
 295   2.0000      -0.424493       -11.5510
 296   2.0000      -0.422408       -11.4943
 297   2.0000      -0.421666       -11.4741
 298   2.0000      -0.420671       -11.4470
 299   2.0000      -0.418467       -11.3871
 300   2.0000      -0.414535       -11.2801
 301   2.0000      -0.411358       -11.1936
 302   2.0000      -0.410737       -11.1767
 303   2.0000      -0.409483       -11.1426
 304   2.0000      -0.405805       -11.0425
 305   2.0000      -0.398879       -10.8540
 306   2.0000      -0.394596       -10.7375
 307   2.0000      -0.385350       -10.4859
 308   2.0000      -0.384712       -10.4685
 309   2.0000      -0.384569       -10.4646
 310   2.0000      -0.383026       -10.4227
 311   2.0000      -0.382394       -10.4055
 312   2.0000      -0.381079       -10.3697
 313   2.0000      -0.379387       -10.3237
 314   2.0000      -0.379239       -10.3196
 315   2.0000      -0.371155       -10.0996
 316   2.0000      -0.353328        -9.6146
 317   2.0000      -0.349562        -9.5121
 318   2.0000      -0.343640        -9.3509
 319   2.0000      -0.338963        -9.2237
 320   2.0000      -0.335152        -9.1200
 321   2.0000      -0.333877        -9.0853
 322   2.0000      -0.326866        -8.8945
 323   2.0000      -0.323571        -8.8048
 324   2.0000      -0.321261        -8.7419
 325   2.0000      -0.320126        -8.7111
 326   2.0000      -0.319003        -8.6805
 327   2.0000      -0.316698        -8.6178
 328   2.0000      -0.306466        -8.3394
 329   2.0000      -0.305489        -8.3128
 330   2.0000      -0.303833        -8.2677
 331   2.0000      -0.295742        -8.0475
 332   2.0000      -0.292202        -7.9512
 333   2.0000      -0.285298        -7.7634
 334   2.0000      -0.265504        -7.2247
 335   2.0000      -0.251903        -6.8546
 336   2.0000      -0.240548        -6.5456
 337   0.0000      -0.107730        -2.9315
 338   0.0000      -0.067342        -1.8325
 339   0.0000      -0.056750        -1.5442
 340   0.0000      -0.025967        -0.7066
 341   0.0000      -0.020994        -0.5713

MULLIKEN ATOMIC CHARGES
-----------------------
   0 O :   -0.169117
   1 C :    0.100273
   2 N :   -0.073537
   3 C :   -0.051445
   4 C :    0.137586
   5 C :    0.170078
   6 O :   -0.177043
   7 C :   -0.075294
   8 C :   -0.062970
   9 C :    0.080658
  10 C :    0.143038
  11 C :   -0.213958
  12 C :    0.034615
  13 C :    0.081145
  14 C :   -0.262141
  15 S :    0.148160
  16 C :    0.120222
  17 Cl:   -0.087932
  18 C :   -0.141119
  19 C :    0.085707
  20 C :    0.142585
  21 C :   -0.140925
  22 S :    0.175277
  23 C :   -0.211694
  24 C :    0.033163
  25 C :    0.084381
  26 C :   -0.264096
  27 S :    0.131641
  28 C :    0.122838
  29 Cl:   -0.085533
  30 C :   -0.092754
  31 C :   -0.011151
  32 S :    0.126684
  33 C :   -0.049393
  34 C :   -0.056734
  35 C :    0.011516
  36 C :   -0.100596
  37 S :    0.188838
  38 C :   -0.100526
  39 C :    0.015444
  40 C :    0.302864
  41 C :   -0.296694
  42 C :   -0.190338
  43 N :    0.178348
  44 C :   -0.185861
  45 N :    0.167121
  46 C :   -0.051679
  47 C :   -0.047161
  48 S :    0.196612
  49 C :   -0.014156
  50 C :   -0.086341
  51 C :    0.090987
  52 C :    0.144380
  53 C :   -0.211175
  54 C :    0.030473
  55 C :    0.084824
  56 C :   -0.264065
  57 S :    0.137750
  58 C :    0.122481
  59 Cl:   -0.086975
  60 C :   -0.134599
  61 C :    0.071822
  62 C :    0.143597
  63 C :   -0.136065
  64 S :    0.109558
  65 C :   -0.210415
  66 C :    0.029723
  67 C :    0.086815
  68 C :   -0.267494
  69 S :    0.145591
  70 C :    0.121785
  71 Cl:   -0.088777
  72 C :   -0.059352
  73 C :   -0.072911
  74 S :    0.151674
  75 C :    0.105431
  76 N :   -0.073725
  77 C :   -0.048504
  78 C :    0.135238
  79 O :   -0.165589
  80 C :    0.168866
  81 O :   -0.175805
  82 H :    0.035658
  83 H :   -0.008630
  84 H :   -0.000976
  85 H :   -0.010310
  86 H :    0.028842
  87 H :    0.028934
  88 H :    0.044094
  89 H :   -0.002121
  90 H :    0.028437
  91 H :    0.028429
  92 H :    0.039287
  93 H :   -0.012014
  94 H :    0.015719
  95 H :    0.006696
  96 H :   -0.006175
  97 H :   -0.005921
  98 H :    0.024611
  99 H :    0.043971
 100 H :    0.035112
 101 H :   -0.006770
 102 H :    0.041379
 103 H :    0.032164
 104 H :    0.026169
 105 H :    0.003173
 106 H :    0.036665
 107 H :   -0.010572
Sum of atomic charges:   -0.0000000

LOEWDIN ATOMIC CHARGES
----------------------
   0 O :    0.028802
   1 C :    0.029362
   2 N :   -0.098194
   3 C :   -0.106822
   4 C :    0.075625
   5 C :    0.104653
   6 O :   -0.131991
   7 C :   -0.185941
   8 C :   -0.034870
   9 C :   -0.039824
  10 C :   -0.050904
  11 C :   -0.178412
  12 C :   -0.065868
  13 C :   -0.179186
  14 C :   -0.195876
  15 S :    0.441868
  16 C :   -0.060113
  17 Cl:    0.127517
  18 C :   -0.149791
  19 C :   -0.036261
  20 C :   -0.055347
  21 C :   -0.140831
  22 S :    0.454219
  23 C :   -0.173745
  24 C :   -0.073635
  25 C :   -0.176762
  26 C :   -0.198248
  27 S :    0.445057
  28 C :   -0.060492
  29 Cl:    0.131091
  30 C :   -0.073850
  31 C :   -0.166173
  32 S :    0.410617
  33 C :   -0.177815
  34 C :   -0.031068
  35 C :   -0.071816
  36 C :   -0.176619
  37 S :    0.482157
  38 C :   -0.183756
  39 C :   -0.068333
  40 C :    0.083575
  41 C :   -0.102080
  42 C :   -0.017300
  43 N :   -0.031046
  44 C :   -0.014948
  45 N :   -0.035664
  46 C :   -0.022261
  47 C :   -0.179935
  48 S :    0.478040
  49 C :   -0.169709
  50 C :   -0.059065
  51 C :   -0.037542
  52 C :   -0.053407
  53 C :   -0.174882
  54 C :   -0.074588
  55 C :   -0.177782
  56 C :   -0.194191
  57 S :    0.449027
  58 C :   -0.061079
  59 Cl:    0.130023
  60 C :   -0.140260
  61 C :   -0.044504
  62 C :   -0.050197
  63 C :   -0.141867
  64 S :    0.407920
  65 C :   -0.174764
  66 C :   -0.075638
  67 C :   -0.178118
  68 C :   -0.196228
  69 S :    0.452695
  70 C :   -0.060858
  71 Cl:    0.128383
  72 C :   -0.029749
  73 C :   -0.186867
  74 S :    0.436449
  75 C :    0.029516
  76 N :   -0.094303
  77 C :   -0.106236
  78 C :    0.073566
  79 O :    0.027674
  80 C :    0.104089
  81 O :   -0.131317
  82 H :    0.036701
  83 H :    0.003040
  84 H :    0.035629
  85 H :    0.033849
  86 H :    0.036302
  87 H :    0.037621
  88 H :    0.042260
  89 H :    0.027927
  90 H :    0.035778
  91 H :    0.037000
  92 H :    0.040502
  93 H :    0.010829
  94 H :    0.038124
  95 H :    0.040875
  96 H :    0.019413
  97 H :    0.026621
  98 H :    0.034419
  99 H :    0.042913
 100 H :    0.039659
 101 H :    0.026554
 102 H :    0.041542
 103 H :    0.038392
 104 H :    0.034887
 105 H :    0.027190
 106 H :    0.036968
 107 H :    0.002004

  Mayer bond orders larger than 0.100000
B(  0-O ,  1-C ) :   1.1937 B(  0-O ,  4-C ) :   1.1654 B(  1-C ,  2-N ) :   1.7842
B(  1-C ,  7-C ) :   1.0571 B(  2-N ,  3-C ) :   1.2969 B(  3-C ,  4-C ) :   1.5140
B(  3-C ,  5-C ) :   0.9701 B(  4-C , 82-H ) :   0.9913 B(  5-C ,  6-O ) :   2.2038
B(  5-C , 83-H ) :   0.9516 B(  7-C ,  8-C ) :   1.5628 B(  7-C , 22-S ) :   1.0777
B(  8-C ,  9-C ) :   1.1643 B(  8-C , 84-H ) :   1.0021 B(  9-C , 10-C ) :   1.3119
B(  9-C , 21-C ) :   1.2810 B( 10-C , 11-C ) :   0.9858 B( 10-C , 18-C ) :   1.4050
B( 11-C , 12-C ) :   1.5417 B( 11-C , 15-S ) :   1.1362 B( 12-C , 13-C ) :   1.2240
B( 12-C , 85-H ) :   1.0089 B( 13-C , 14-C ) :   1.5930 B( 13-C , 17-Cl) :   1.0153
B( 14-C , 15-S ) :   1.1330 B( 14-C , 16-C ) :   1.0863 B( 16-C , 86-H ) :   0.9457
B( 16-C , 87-H ) :   0.9462 B( 16-C , 88-H ) :   0.9497 B( 18-C , 19-C ) :   1.2709
B( 18-C , 32-S ) :   1.0551 B( 19-C , 20-C ) :   1.3070 B( 19-C , 30-C ) :   1.1868
B( 20-C , 21-C ) :   1.4046 B( 20-C , 23-C ) :   0.9894 B( 21-C , 22-S ) :   1.0569
B( 23-C , 24-C ) :   1.5497 B( 23-C , 27-S ) :   1.1286 B( 24-C , 25-C ) :   1.2253
B( 24-C , 89-H ) :   0.9943 B( 25-C , 26-C ) :   1.6030 B( 25-C , 29-Cl) :   1.0136
B( 26-C , 27-S ) :   1.1281 B( 26-C , 28-C ) :   1.0830 B( 28-C , 90-H ) :   0.9448
B( 28-C , 91-H ) :   0.9474 B( 28-C , 92-H ) :   0.9494 B( 30-C , 31-C ) :   1.5716
B( 30-C , 93-H ) :   0.9684 B( 31-C , 32-S ) :   1.0733 B( 31-C , 33-C ) :   1.1509
B( 33-C , 34-C ) :   1.4723 B( 33-C , 37-S ) :   1.1031 B( 34-C , 35-C ) :   1.2814
B( 34-C , 94-H ) :   0.9915 B( 35-C , 36-C ) :   1.4515 B( 35-C , 40-C ) :   0.9961
B( 36-C , 37-S ) :   1.1256 B( 36-C , 38-C ) :   1.1824 B( 38-C , 39-C ) :   1.4434
B( 38-C , 48-S ) :   1.1257 B( 39-C , 40-C ) :   0.9940 B( 39-C , 46-C ) :   1.2865
B( 40-C , 41-C ) :   1.7133 B( 41-C , 42-C ) :   1.1322 B( 41-C , 44-C ) :   1.1353
B( 42-C , 43-N ) :   2.9959 B( 44-C , 45-N ) :   2.9867 B( 46-C , 47-C ) :   1.4927
B( 46-C , 95-H ) :   0.9942 B( 47-C , 48-S ) :   1.1020 B( 47-C , 49-C ) :   1.1061
B( 49-C , 50-C ) :   1.6024 B( 49-C , 64-S ) :   1.0564 B( 50-C , 51-C ) :   1.1722
B( 50-C , 96-H ) :   0.9764 B( 51-C , 52-C ) :   1.3026 B( 51-C , 63-C ) :   1.2659
B( 52-C , 53-C ) :   0.9909 B( 52-C , 60-C ) :   1.4094 B( 53-C , 54-C ) :   1.5480
B( 53-C , 57-S ) :   1.1284 B( 54-C , 55-C ) :   1.2222 B( 54-C , 97-H ) :   0.9948
B( 55-C , 56-C ) :   1.6044 B( 55-C , 59-Cl) :   1.0069 B( 56-C , 57-S ) :   1.1319
B( 56-C , 58-C ) :   1.0830 B( 58-C , 98-H ) :   0.9435 B( 58-C , 99-H ) :   0.9477
B( 58-C ,100-H ) :   0.9477 B( 60-C , 61-C ) :   1.2770 B( 60-C , 74-S ) :   1.0620
B( 61-C , 62-C ) :   1.2865 B( 61-C , 72-C ) :   1.1580 B( 62-C , 63-C ) :   1.4288
B( 62-C , 65-C ) :   0.9895 B( 63-C , 64-S ) :   1.0570 B( 65-C , 66-C ) :   1.5474
B( 65-C , 69-S ) :   1.1332 B( 66-C , 67-C ) :   1.2244 B( 66-C ,101-H ) :   0.9948
B( 67-C , 68-C ) :   1.6014 B( 67-C , 71-Cl) :   1.0084 B( 68-C , 69-S ) :   1.1344
B( 68-C , 70-C ) :   1.0839 B( 70-C ,102-H ) :   0.9489 B( 70-C ,103-H ) :   0.9471
B( 70-C ,104-H ) :   0.9445 B( 72-C , 73-C ) :   1.6175 B( 72-C ,105-H ) :   0.9892
B( 73-C , 74-S ) :   1.0629 B( 73-C , 75-C ) :   1.0282 B( 75-C , 76-N ) :   1.7740
B( 75-C , 79-O ) :   1.2074 B( 76-N , 77-C ) :   1.2997 B( 77-C , 78-C ) :   1.5121
B( 77-C , 80-C ) :   0.9681 B( 78-C , 79-O ) :   1.1640 B( 78-C ,106-H ) :   0.9911
B( 80-C , 81-O ) :   2.2054 B( 80-C ,107-H ) :   0.9518

-----------------------------------------------------------------------------
         ABSORPTION SPECTRUM VIA TRANSITION ELECTRIC DIPOLE MOMENTS
-----------------------------------------------------------------------------
State   Energy  Wavelength   fosc         T2         TX        TY        TZ
        (cm-1)    (nm)                  (au**2)     (au)      (au)      (au)
-----------------------------------------------------------------------------
   0   11929.2    838.3   0.184504602   5.09180   0.43187   2.21146  -0.12131
   1   18702.0    534.7   0.009843051   0.17327  -0.11562   0.38860  -0.09431
   2   20218.2    494.6   0.109086960   1.77625   0.74517   1.04108   0.37030
   3   23298.2    429.2   2.506200196  35.41347   1.97375   5.59614   0.44835
   4   24969.1    400.5   0.038355246   0.50570  -0.65996  -0.23242  -0.12702
   5   25869.3    386.6   0.069407402   0.88328   0.80909  -0.13860   0.45765
   6   26789.2    373.3   0.778684170   9.56925  -1.53855   2.12156  -1.64350
   7   27940.8    357.9   0.110749563   1.30490   0.81984  -0.05339   0.79367
   8   29037.5    344.4   0.021799468   0.24715  -0.07799  -0.48075   0.09976
   9   29543.7    338.5   0.023291961   0.25955  -0.36276  -0.24550  -0.26016
  10   30327.9    329.7   0.048006438   0.52111   0.01445   0.71368  -0.10754
  11   30514.7    327.7   0.295774590   3.19100   1.24583  -0.45329   1.19726
  12   30710.9    325.6   0.113249068   1.21400   0.61195  -0.65165   0.64411
  13   30810.1    324.6   0.129468301   1.38339  -0.74249   0.49290  -0.76756
  14   31574.3    316.7   0.024214267   0.25247  -0.27533   0.36555  -0.20746
  15   31835.7    314.1   0.588064613   6.08116  -1.73188  -0.56990  -1.66041
  16   32594.5    306.8   0.116089574   1.17253  -0.95943  -0.40870  -0.29152
  17   32906.3    303.9   0.630469212   6.30755  -0.71600   2.19019  -0.99898
  18   33196.8    301.2   0.064974825   0.64435   0.32117  -0.66617   0.31213
  19   33526.4    298.3   0.160613563   1.57714  -0.35271  -1.19006   0.19102
  20   33681.4    296.9   0.067006931   0.65494  -0.00687   0.80597  -0.07282
  21   33807.6    295.8   0.172626520   1.68101  -0.36764   1.05337  -0.66050
  22   34102.8    293.2   0.424418696   4.09713   0.02288   2.00568  -0.27174
  23   34192.9    292.5   0.060900028   0.58635  -0.13832   0.69235  -0.29643
  24   34496.8    289.9   0.090147415   0.86030   0.69880  -0.05608   0.60732
  25   34759.4    287.7   0.002414470   0.02287   0.14861   0.00272  -0.02787
  26   35031.1    285.5   0.039566484   0.37183   0.29478  -0.39167   0.36268
  27   35218.3    283.9   0.005171331   0.04834   0.17196   0.12451   0.05716
  28   35811.5    279.2   0.005840897   0.05369  -0.09386  -0.00837  -0.21169
  29   36157.0    276.6   0.142128691   1.29409   0.57325  -0.84792   0.49649
  30   36446.2    274.4   0.031307402   0.28279  -0.25394   0.30446  -0.35442
  31   36589.9    273.3   0.005508151   0.04956   0.02873   0.20622   0.07878
  32   36824.8    271.6   0.130446817   1.16619   0.56996  -0.68975   0.60462
  33   36946.3    270.7   0.073820817   0.65778   0.30438   0.75166  -0.01184
  34   37385.3    267.5   0.007524149   0.06626  -0.15701  -0.20387   0.00651
  35   38110.7    262.4   0.021341080   0.18435  -0.37520   0.12513  -0.16709
  36   38286.1    261.2   0.086129808   0.74061  -0.59465  -0.09452  -0.61487
  37   38720.9    258.3   0.005106935   0.04342  -0.10709   0.05205  -0.17100
  38   39052.1    256.1   0.010699333   0.09020  -0.27009  -0.13055  -0.01438
  39   39101.6    255.7   0.004469266   0.03763   0.06460   0.09149  -0.15838
  40   39382.1    253.9   0.010319706   0.08627  -0.27277  -0.00376  -0.10885
  41   39551.2    252.8   0.055784206   0.46433   0.13728   0.50925  -0.43145
  42   39929.0    250.4   0.029669547   0.24462   0.34421  -0.30668   0.17915
  43   40055.6    249.7   0.012314343   0.10121   0.24246   0.10593   0.17664
  44   40154.6    249.0   0.043183911   0.35405   0.40822   0.33613  -0.27280

FINAL SINGLE POINT ENERGY     -8639.345176269075

DIPOLE MOMENT
-------------
                                X             Y             Z
Electronic contribution:     -3.23121      -5.69922       7.67621
Nuclear contribution   :      3.39566       6.07714      -8.13213
                        -----------------------------------------
Total Dipole Moment    :      0.16444       0.37792      -0.45592
                        -----------------------------------------
Magnitude (a.u.)       :      0.61459
Magnitude (Debye)      :      1.56217

Rotational constants in cm-1:     0.000977     0.000162     0.000141
Rotational constants in MHz :    29.297599     4.866295     4.215766

                             ****ORCA TERMINATED NORMALLY****
TOTAL RUN TIME: 0 days 0 hours 11 minutes 38 seconds 455 msec
