                         Program Version 4.2.0 -  RELEASE  -
|  1> # ORCA input file
|  2> # SCF done       -148.478072226618          0.000500043298
|  3> ! CAM-B3LYP def2-SVP def2/J RIJCOSX Grid4 TightSCF
|  4> %maxcore 5000
|  5> %tddft
|  6>     Mode sTDDFT
|  7>     Ethresh 5.0
|  8>     maxcore 5000
|  9> end
| 10>
| 11> %pal
| 12>   nprocs 6
| 13>   end
| 14> * xyz 0 1
| 15>    C        7.64672        -3.07057        -0.67463
| 16>    O        6.93637        -1.93587        -0.69699
| 17>    C        7.71047        -0.96574        -0.15301
| 18>    C        8.92796        -1.50564         0.21536
| 19>    C        8.88569        -2.87533        -0.12372
| 20>    C        9.95972        -3.88508         0.07602
| 21>    C        7.22246         0.36359        -0.02959
| 22>    C        5.98389         0.74376        -0.43007
| 23>    C        5.46605         2.05247        -0.30307
| 24>    S        6.40775         3.32742         0.39830
| 25>    C        5.13224         4.49553         0.24444
| 26>    C        4.00995         3.91462        -0.36662
| 27>    C        4.19413         2.52615        -0.66884
| 28>    C        3.13026         1.80533        -1.27160
| 29>    C        3.20175         0.43762        -1.61613
| 30>    N        3.16382        -0.66413        -1.93507
| 31>    C        1.93987         2.44900        -1.56170
| 32>    C        1.77379         3.80677        -1.29607
| 33>    C        2.78843         4.54666        -0.71626
| 34>    C        2.55920         5.93196        -0.56029
| 35>    N        2.31029         7.05100        -0.51437
| 36>    C        5.26395         5.80222         0.75351
| 37>    C        6.42803         6.33619         1.20508
| 38>    C        6.57859         7.63363         1.75757
| 39>    S        8.12177         8.42231         1.57321
| 40>    C        7.56575         9.90131         2.31662
| 41>    C        6.23613         9.76621         2.71003
| 42>    C        5.69065         8.48956         2.40152
| 43>    N        4.39385         8.14366         2.87342
| 44>    O        4.13138         6.96578         3.03472
| 45>    O        3.63670         9.05757         3.12776
| 46>    C        5.52333        10.76389         3.39934
| 47>    N        5.01019        11.61009         3.98140
| 48>    C        8.46872        10.98436         2.40332
| 49>    C        8.20243        12.21399         2.92179
| 50>    C        9.12081        13.27692         2.94828
| 51>    S       10.74851        13.19029         2.28524
| 52>    C       11.12607        14.84495         2.68346
| 53>    C       10.02889        15.43122         3.31562
| 54>    C        8.92506        14.54975         3.45492
| 55>    S        7.61591        15.36086         4.24072
| 56>    C        8.64805        16.78388         4.31168
| 57>    N        9.82028        16.68109         3.81525
| 58>    C       12.37359        15.41118         2.35819
| 59>    C       12.67970        16.70821         2.64001
| 60>    C       13.90280        17.33175         2.32177
| 61>    O       14.90104        16.65104         1.69097
| 62>    C       15.92728        17.50589         1.51721
| 63>    C       15.63391        18.74244         2.01917
| 64>    O       16.39592        19.86803         2.03863
| 65>    C       17.67419        19.75104         1.45840
| 66>    C       14.31005        18.65107         2.55263
| 67>    N       13.56431        19.61305         3.16170
| 68>    C       13.93728        20.91400         3.39902
| 69>    C       13.14751        21.79506         4.00460
| 70>    H        7.17880        -3.95010        -1.07149
| 71>    H        9.74236        -0.98070         0.67184
| 72>    H       10.23966        -3.93691         1.12696
| 73>    H       10.84674        -3.61206        -0.49391
| 74>    H        9.62241        -4.86582        -0.24786
| 75>    H        7.90165         1.07671         0.41674
| 76>    H        5.33739        -0.00032        -0.87017
| 77>    H        1.13467         1.89064        -2.01505
| 78>    H        0.84561         4.29329        -1.55533
| 79>    H        4.36139         6.39138         0.77334
| 80>    H        7.34638         5.77518         1.08067
| 81>    H        9.45644        10.80067         1.99800
| 82>    H        7.23190        12.43328         3.34280
| 83>    H        8.27492        17.68397         4.75978
| 84>    H       13.09539        14.78063         1.86070
| 85>    H       11.93487        17.31152         3.13831
| 86>    H       16.79851        17.11822         1.02941
| 87>    H       18.13892        20.72993         1.55894
| 88>    H       17.60434        19.48401         0.39957
| 89>    H       18.27762        19.00202         1.98002
| 90>    H       12.64143        19.33789         3.47030
| 91>    H       14.92715        21.16709         3.05493
| 92>    H       12.16070        21.53297         4.34727
| 93>    H       13.47108        22.80331         4.17554
| 94> *
| 95>
| 96>                          ****END OF INPUT****

CARTESIAN COORDINATES (ANGSTROEM)
---------------------------------
  C      7.646720   -3.070570   -0.674630
  O      6.936370   -1.935870   -0.696990
  C      7.710470   -0.965740   -0.153010
  C      8.927960   -1.505640    0.215360
  C      8.885690   -2.875330   -0.123720
  C      9.959720   -3.885080    0.076020
  C      7.222460    0.363590   -0.029590
  C      5.983890    0.743760   -0.430070
  C      5.466050    2.052470   -0.303070
  S      6.407750    3.327420    0.398300
  C      5.132240    4.495530    0.244440
  C      4.009950    3.914620   -0.366620
  C      4.194130    2.526150   -0.668840
  C      3.130260    1.805330   -1.271600
  C      3.201750    0.437620   -1.616130
  N      3.163820   -0.664130   -1.935070
  C      1.939870    2.449000   -1.561700
  C      1.773790    3.806770   -1.296070
  C      2.788430    4.546660   -0.716260
  C      2.559200    5.931960   -0.560290
  N      2.310290    7.051000   -0.514370
  C      5.263950    5.802220    0.753510
  C      6.428030    6.336190    1.205080
  C      6.578590    7.633630    1.757570
  S      8.121770    8.422310    1.573210
  C      7.565750    9.901310    2.316620
  C      6.236130    9.766210    2.710030
  C      5.690650    8.489560    2.401520
  N      4.393850    8.143660    2.873420
  O      4.131380    6.965780    3.034720
  O      3.636700    9.057570    3.127760
  C      5.523330   10.763890    3.399340
  N      5.010190   11.610090    3.981400
  C      8.468720   10.984360    2.403320
  C      8.202430   12.213990    2.921790
  C      9.120810   13.276920    2.948280
  S     10.748510   13.190290    2.285240
  C     11.126070   14.844950    2.683460
  C     10.028890   15.431220    3.315620
  C      8.925060   14.549750    3.454920
  S      7.615910   15.360860    4.240720
  C      8.648050   16.783880    4.311680
  N      9.820280   16.681090    3.815250
  C     12.373590   15.411180    2.358190
  C     12.679700   16.708210    2.640010
  C     13.902800   17.331750    2.321770
  O     14.901040   16.651040    1.690970
  C     15.927280   17.505890    1.517210
  C     15.633910   18.742440    2.019170
  O     16.395920   19.868030    2.038630
  C     17.674190   19.751040    1.458400
  C     14.310050   18.651070    2.552630
  N     13.564310   19.613050    3.161700
  C     13.937280   20.914000    3.399020
  C     13.147510   21.795060    4.004600
  H      7.178800   -3.950100   -1.071490
  H      9.742360   -0.980700    0.671840
  H     10.239660   -3.936910    1.126960
  H     10.846740   -3.612060   -0.493910
  H      9.622410   -4.865820   -0.247860
  H      7.901650    1.076710    0.416740
  H      5.337390   -0.000320   -0.870170
  H      1.134670    1.890640   -2.015050
  H      0.845610    4.293290   -1.555330
  H      4.361390    6.391380    0.773340
  H      7.346380    5.775180    1.080670
  H      9.456440   10.800670    1.998000
  H      7.231900   12.433280    3.342800
  H      8.274920   17.683970    4.759780
  H     13.095390   14.780630    1.860700
  H     11.934870   17.311520    3.138310
  H     16.798510   17.118220    1.029410
  H     18.138920   20.729930    1.558940
  H     17.604340   19.484010    0.399570
  H     18.277620   19.002020    1.980020
  H     12.641430   19.337890    3.470300
  H     14.927150   21.167090    3.054930
  H     12.160700   21.532970    4.347270
  H     13.471080   22.803310    4.175540

 Total Charge           Charge          ....    0
 Multiplicity           Mult            ....    1
 Number of Electrons    NEL             ....  410
 Basis Dimension        Dim             ....  906

ORBITAL ENERGIES
----------------

  NO   OCC          E(Eh)            E(eV)
   0   2.0000     -88.980260     -2421.2760
   1   2.0000     -88.975882     -2421.1568
   2   2.0000     -88.960811     -2420.7467
   3   2.0000     -88.960264     -2420.7319
   4   2.0000     -19.286726      -524.8185
   5   2.0000     -19.281253      -524.6696
   6   2.0000     -19.259447      -524.0762
   7   2.0000     -19.234481      -523.3968
   8   2.0000     -19.230301      -523.2831
   9   2.0000     -14.642358      -398.4388
  10   2.0000     -14.445451      -393.0807
  11   2.0000     -14.418927      -392.3590
  12   2.0000     -14.416589      -392.2953
  13   2.0000     -14.414073      -392.2269
  14   2.0000     -14.393662      -391.6714
  15   2.0000     -10.337863      -281.3076
  16   2.0000     -10.335213      -281.2354
  17   2.0000     -10.334110      -281.2054
  18   2.0000     -10.332753      -281.1685
  19   2.0000     -10.332361      -281.1578
  20   2.0000     -10.332312      -281.1565
  21   2.0000     -10.331650      -281.1385
  22   2.0000     -10.330195      -281.0989
  23   2.0000     -10.327372      -281.0221
  24   2.0000     -10.327057      -281.0135
  25   2.0000     -10.325420      -280.9690
  26   2.0000     -10.322890      -280.9001
  27   2.0000     -10.319366      -280.8042
  28   2.0000     -10.319122      -280.7976
  29   2.0000     -10.318647      -280.7847
  30   2.0000     -10.315949      -280.7112
  31   2.0000     -10.315664      -280.7035
  32   2.0000     -10.313477      -280.6440
  33   2.0000     -10.313274      -280.6384
  34   2.0000     -10.313125      -280.6344
  35   2.0000     -10.312201      -280.6092
  36   2.0000     -10.309840      -280.5450
  37   2.0000     -10.308689      -280.5137
  38   2.0000     -10.306253      -280.4474
  39   2.0000     -10.303358      -280.3686
  40   2.0000     -10.302294      -280.3397
  41   2.0000     -10.299120      -280.2533
  42   2.0000     -10.298820      -280.2451
  43   2.0000     -10.294804      -280.1359
  44   2.0000     -10.294504      -280.1277
  45   2.0000     -10.291971      -280.0588
  46   2.0000     -10.291912      -280.0572
  47   2.0000     -10.286217      -279.9022
  48   2.0000     -10.284369      -279.8519
  49   2.0000     -10.282813      -279.8096
  50   2.0000     -10.274341      -279.5790
  51   2.0000     -10.273895      -279.5669
  52   2.0000     -10.271006      -279.4883
  53   2.0000     -10.270342      -279.4702
  54   2.0000     -10.241703      -278.6909
  55   2.0000      -8.075227      -219.7381
  56   2.0000      -8.071797      -219.6448
  57   2.0000      -8.056925      -219.2401
  58   2.0000      -8.055259      -219.1947
  59   2.0000      -6.044101      -164.4684
  60   2.0000      -6.041058      -164.3855
  61   2.0000      -6.040141      -164.3606
  62   2.0000      -6.038099      -164.3050
  63   2.0000      -6.036984      -164.2747
  64   2.0000      -6.033774      -164.1873
  65   2.0000      -6.026347      -163.9852
  66   2.0000      -6.024582      -163.9372
  67   2.0000      -6.022324      -163.8758
  68   2.0000      -6.020642      -163.8300
  69   2.0000      -6.018420      -163.7695
  70   2.0000      -6.017208      -163.7366
  71   2.0000      -1.314239       -35.7623
  72   2.0000      -1.206488       -32.8302
  73   2.0000      -1.200956       -32.6797
  74   2.0000      -1.159782       -31.5593
  75   2.0000      -1.132060       -30.8049
  76   2.0000      -1.069277       -29.0965
  77   2.0000      -1.045870       -28.4596
  78   2.0000      -1.025387       -27.9022
  79   2.0000      -1.015501       -27.6332
  80   2.0000      -1.002213       -27.2716
  81   2.0000      -0.997057       -27.1313
  82   2.0000      -0.977524       -26.5998
  83   2.0000      -0.976195       -26.5636
  84   2.0000      -0.961963       -26.1763
  85   2.0000      -0.931433       -25.3456
  86   2.0000      -0.922822       -25.1113
  87   2.0000      -0.912243       -24.8234
  88   2.0000      -0.906293       -24.6615
  89   2.0000      -0.902383       -24.5551
  90   2.0000      -0.901224       -24.5236
  91   2.0000      -0.896516       -24.3954
  92   2.0000      -0.886869       -24.1329
  93   2.0000      -0.882899       -24.0249
  94   2.0000      -0.861016       -23.4294
  95   2.0000      -0.857634       -23.3374
  96   2.0000      -0.842021       -22.9126
  97   2.0000      -0.835323       -22.7303
  98   2.0000      -0.821389       -22.3511
  99   2.0000      -0.817923       -22.2568
 100   2.0000      -0.806942       -21.9580
 101   2.0000      -0.799382       -21.7523
 102   2.0000      -0.795685       -21.6517
 103   2.0000      -0.787507       -21.4292
 104   2.0000      -0.779178       -21.2025
 105   2.0000      -0.764819       -20.8118
 106   2.0000      -0.745418       -20.2838
 107   2.0000      -0.730960       -19.8904
 108   2.0000      -0.718400       -19.5487
 109   2.0000      -0.711724       -19.3670
 110   2.0000      -0.702331       -19.1114
 111   2.0000      -0.695684       -18.9305
 112   2.0000      -0.692567       -18.8457
 113   2.0000      -0.685445       -18.6519
 114   2.0000      -0.682457       -18.5706
 115   2.0000      -0.675399       -18.3785
 116   2.0000      -0.664897       -18.0928
 117   2.0000      -0.652797       -17.7635
 118   2.0000      -0.646930       -17.6039
 119   2.0000      -0.645476       -17.5643
 120   2.0000      -0.637166       -17.3382
 121   2.0000      -0.633628       -17.2419
 122   2.0000      -0.626716       -17.0538
 123   2.0000      -0.619818       -16.8661
 124   2.0000      -0.615024       -16.7357
 125   2.0000      -0.610743       -16.6192
 126   2.0000      -0.609681       -16.5903
 127   2.0000      -0.598160       -16.2767
 128   2.0000      -0.590629       -16.0718
 129   2.0000      -0.588172       -16.0050
 130   2.0000      -0.585974       -15.9452
 131   2.0000      -0.572277       -15.5725
 132   2.0000      -0.571620       -15.5546
 133   2.0000      -0.569172       -15.4880
 134   2.0000      -0.562614       -15.3095
 135   2.0000      -0.558192       -15.1892
 136   2.0000      -0.552436       -15.0326
 137   2.0000      -0.552192       -15.0259
 138   2.0000      -0.549151       -14.9431
 139   2.0000      -0.540928       -14.7194
 140   2.0000      -0.539517       -14.6810
 141   2.0000      -0.535722       -14.5777
 142   2.0000      -0.533504       -14.5174
 143   2.0000      -0.531943       -14.4749
 144   2.0000      -0.526795       -14.3348
 145   2.0000      -0.524049       -14.2601
 146   2.0000      -0.523389       -14.2421
 147   2.0000      -0.518730       -14.1153
 148   2.0000      -0.516425       -14.0526
 149   2.0000      -0.508333       -13.8324
 150   2.0000      -0.503573       -13.7029
 151   2.0000      -0.496415       -13.5081
 152   2.0000      -0.494044       -13.4436
 153   2.0000      -0.490624       -13.3506
 154   2.0000      -0.487651       -13.2697
 155   2.0000      -0.486045       -13.2260
 156   2.0000      -0.481161       -13.0931
 157   2.0000      -0.478973       -13.0335
 158   2.0000      -0.474838       -12.9210
 159   2.0000      -0.474370       -12.9083
 160   2.0000      -0.472425       -12.8553
 161   2.0000      -0.471271       -12.8239
 162   2.0000      -0.469636       -12.7795
 163   2.0000      -0.467388       -12.7183
 164   2.0000      -0.466381       -12.6909
 165   2.0000      -0.458807       -12.4848
 166   2.0000      -0.455875       -12.4050
 167   2.0000      -0.451948       -12.2981
 168   2.0000      -0.450596       -12.2614
 169   2.0000      -0.449477       -12.2309
 170   2.0000      -0.444955       -12.1078
 171   2.0000      -0.441938       -12.0257
 172   2.0000      -0.437811       -11.9135
 173   2.0000      -0.436679       -11.8827
 174   2.0000      -0.431635       -11.7454
 175   2.0000      -0.429830       -11.6963
 176   2.0000      -0.429607       -11.6902
 177   2.0000      -0.423832       -11.5331
 178   2.0000      -0.422691       -11.5020
 179   2.0000      -0.418537       -11.3890
 180   2.0000      -0.415598       -11.3090
 181   2.0000      -0.413519       -11.2524
 182   2.0000      -0.412943       -11.2367
 183   2.0000      -0.408387       -11.1128
 184   2.0000      -0.405779       -11.0418
 185   2.0000      -0.398988       -10.8570
 186   2.0000      -0.394156       -10.7255
 187   2.0000      -0.374175       -10.1818
 188   2.0000      -0.371530       -10.1099
 189   2.0000      -0.366944        -9.9851
 190   2.0000      -0.365878        -9.9560
 191   2.0000      -0.355872        -9.6838
 192   2.0000      -0.354214        -9.6387
 193   2.0000      -0.347628        -9.4595
 194   2.0000      -0.343081        -9.3357
 195   2.0000      -0.340955        -9.2779
 196   2.0000      -0.337765        -9.1910
 197   2.0000      -0.334638        -9.1059
 198   2.0000      -0.317873        -8.6498
 199   2.0000      -0.312245        -8.4966
 200   2.0000      -0.297929        -8.1071
 201   2.0000      -0.284461        -7.7406
 202   2.0000      -0.262474        -7.1423
 203   2.0000      -0.236899        -6.4463
 204   2.0000      -0.214486        -5.8365
 205   0.0000      -0.095651        -2.6028
 206   0.0000      -0.066621        -1.8128
 207   0.0000      -0.052387        -1.4255
 208   0.0000      -0.027378        -0.7450
 209   0.0000      -0.020431        -0.5560

MULLIKEN ATOMIC CHARGES
-----------------------
   0 C :    0.085958
   1 O :   -0.184645
   2 C :    0.162167
   3 C :   -0.073416
   4 C :   -0.082824
   5 C :    0.123226
   6 C :   -0.005146
   7 C :   -0.020814
   8 C :   -0.106212
   9 S :    0.147926
  10 C :   -0.147537
  11 C :    0.166636
  12 C :    0.161951
  13 C :   -0.093760
  14 C :   -0.172732
  15 N :    0.109236
  16 C :    0.014574
  17 C :    0.019310
  18 C :   -0.087419
  19 C :   -0.178243
  20 N :    0.115427
  21 C :    0.048612
  22 C :    0.011139
  23 C :   -0.178393
  24 S :    0.159605
  25 C :   -0.067616
  26 C :   -0.094208
  27 C :    0.232244
  28 N :    0.246182
  29 O :   -0.244166
  30 O :   -0.211857
  31 C :   -0.205966
  32 N :    0.134079
  33 C :    0.015262
  34 C :    0.014729
  35 C :   -0.178360
  36 S :    0.130804
  37 C :   -0.116237
  38 C :    0.069464
  39 C :    0.000044
  40 S :    0.121098
  41 C :    0.012896
  42 N :   -0.060906
  43 C :   -0.004567
  44 C :   -0.060397
  45 C :    0.092381
  46 O :   -0.208020
  47 C :    0.001168
  48 C :    0.169107
  49 O :   -0.322017
  50 C :    0.181999
  51 C :    0.062997
  52 N :   -0.022125
  53 C :    0.047761
  54 C :   -0.075717
  55 H :    0.004094
  56 H :   -0.023525
  57 H :    0.027188
  58 H :    0.027375
  59 H :    0.009796
  60 H :   -0.003332
  61 H :    0.018629
  62 H :    0.006786
  63 H :    0.007680
  64 H :    0.016161
  65 H :   -0.011107
  66 H :   -0.019412
  67 H :    0.006098
  68 H :    0.042403
  69 H :   -0.021078
  70 H :   -0.002299
  71 H :   -0.002014
  72 H :    0.042392
  73 H :    0.023675
  74 H :    0.023725
  75 H :    0.123156
  76 H :    0.029387
  77 H :    0.001461
  78 H :    0.018084
Sum of atomic charges:   -0.0000000

LOEWDIN ATOMIC CHARGES
----------------------
   0 C :    0.035680
   1 O :    0.021904
   2 C :    0.019433
   3 C :   -0.055480
   4 C :   -0.075218
   5 C :   -0.043732
   6 C :   -0.020762
   7 C :   -0.052583
   8 C :   -0.150005
   9 S :    0.493588
  10 C :   -0.175219
  11 C :   -0.022785
  12 C :   -0.036913
  13 C :   -0.042305
  14 C :   -0.025173
  15 N :   -0.046782
  16 C :    0.009718
  17 C :    0.016914
  18 C :   -0.044721
  19 C :   -0.026060
  20 N :   -0.043046
  21 C :   -0.001774
  22 C :   -0.073331
  23 C :   -0.142238
  24 S :    0.467088
  25 C :   -0.123799
  26 C :   -0.110029
  27 C :   -0.055946
  28 N :    0.285146
  29 O :   -0.206776
  30 O :   -0.169878
  31 C :   -0.032777
  32 N :   -0.058097
  33 C :   -0.087582
  34 C :   -0.001149
  35 C :   -0.211361
  36 S :    0.439371
  37 C :   -0.145844
  38 C :   -0.083405
  39 C :   -0.186173
  40 S :    0.397960
  41 C :   -0.099458
  42 N :   -0.090801
  43 C :   -0.068266
  44 C :   -0.009795
  45 C :   -0.022621
  46 O :   -0.000361
  47 C :   -0.003036
  48 C :   -0.014035
  49 O :   -0.104758
  50 C :    0.081474
  51 C :   -0.002919
  52 N :    0.031855
  53 C :    0.029894
  54 C :   -0.133063
  55 H :    0.023273
  56 H :    0.027984
  57 H :    0.036429
  58 H :    0.036437
  59 H :    0.033007
  60 H :    0.029608
  61 H :    0.042839
  62 H :    0.045642
  63 H :    0.046475
  64 H :    0.038384
  65 H :    0.020851
  66 H :    0.021098
  67 H :    0.041732
  68 H :    0.019940
  69 H :    0.028749
  70 H :    0.031831
  71 H :    0.021802
  72 H :    0.030607
  73 H :    0.016055
  74 H :    0.015899
  75 H :    0.090672
  76 H :    0.029929
  77 H :    0.015458
  78 H :    0.025328

  Mayer bond orders larger than 0.100000
B(  0-C ,  1-O ) :   1.1483 B(  0-C ,  4-C ) :   1.5374 B(  0-C , 55-H ) :   1.0092
B(  1-O ,  2-C ) :   1.1500 B(  2-C ,  3-C ) :   1.4463 B(  2-C ,  6-C ) :   1.1552
B(  3-C ,  4-C ) :   1.2443 B(  3-C , 56-H ) :   1.0180 B(  4-C ,  5-C ) :   1.0744
B(  5-C , 57-H ) :   0.9536 B(  5-C , 58-H ) :   0.9533 B(  5-C , 59-H ) :   0.9552
B(  6-C ,  7-C ) :   1.6176 B(  6-C , 60-H ) :   0.9642 B(  7-C ,  8-C ) :   1.1727
B(  7-C , 61-H ) :   0.9600 B(  8-C ,  9-S ) :   1.1519 B(  8-C , 12-C ) :   1.3286
B(  9-S , 10-C ) :   1.1166 B( 10-C , 11-C ) :   1.3364 B( 10-C , 21-C ) :   1.2311
B( 11-C , 12-C ) :   1.1805 B( 11-C , 18-C ) :   1.2101 B( 12-C , 13-C ) :   1.2109
B( 13-C , 14-C ) :   1.0871 B( 13-C , 16-C ) :   1.5319 B( 14-C , 15-N ) :   2.9679
B( 16-C , 17-C ) :   1.2034 B( 16-C , 62-H ) :   0.9932 B( 17-C , 18-C ) :   1.5340
B( 17-C , 63-H ) :   0.9937 B( 18-C , 19-C ) :   1.0833 B( 19-C , 20-N ) :   2.9752
B( 21-C , 22-C ) :   1.6427 B( 21-C , 64-H ) :   0.9361 B( 22-C , 23-C ) :   1.1249
B( 22-C , 65-H ) :   0.9436 B( 23-C , 24-S ) :   1.1349 B( 23-C , 27-C ) :   1.4461
B( 24-S , 25-C ) :   1.1008 B( 25-C , 26-C ) :   1.4824 B( 25-C , 33-C ) :   1.1855
B( 26-C , 27-C ) :   1.2622 B( 26-C , 31-C ) :   1.1414 B( 27-C , 28-N ) :   0.9238
B( 28-N , 29-O ) :   1.5102 B( 28-N , 30-O ) :   1.5273 B( 29-O , 30-O ) :   0.2648
B( 31-C , 32-N ) :   2.9315 B( 33-C , 34-C ) :   1.6120 B( 33-C , 66-H ) :   0.9407
B( 34-C , 35-C ) :   1.2330 B( 34-C , 67-H ) :   0.9545 B( 35-C , 36-S ) :   1.0737
B( 35-C , 37-C ) :   0.1004 B( 35-C , 39-C ) :   1.4647 B( 36-S , 37-C ) :   1.1347
B( 37-C , 38-C ) :   1.3839 B( 37-C , 43-C ) :   1.1580 B( 38-C , 39-C ) :   1.2660
B( 38-C , 42-N ) :   1.2807 B( 39-C , 40-S ) :   1.0639 B( 40-S , 41-C ) :   1.0890
B( 40-S , 42-N ) :   0.1054 B( 41-C , 42-N ) :   1.7738 B( 41-C , 68-H ) :   0.9640
B( 43-C , 44-C ) :   1.6075 B( 43-C , 69-H ) :   0.9736 B( 44-C , 45-C ) :   1.1913
B( 44-C , 70-H ) :   0.9404 B( 45-C , 46-O ) :   1.1167 B( 45-C , 51-C ) :   1.3414
B( 46-O , 47-C ) :   1.1217 B( 47-C , 48-C ) :   1.4345 B( 47-C , 71-H ) :   1.0286
B( 48-C , 49-O ) :   1.1071 B( 48-C , 51-C ) :   1.2648 B( 49-O , 50-C ) :   0.9568
B( 50-C , 72-H ) :   0.9816 B( 50-C , 73-H ) :   0.9674 B( 50-C , 74-H ) :   0.9672
B( 51-C , 52-N ) :   1.2142 B( 52-N , 53-C ) :   1.1094 B( 52-N , 75-H ) :   0.9074
B( 53-C , 54-C ) :   1.8999 B( 53-C , 76-H ) :   0.9582 B( 54-C , 77-H ) :   0.9604
B( 54-C , 78-H ) :   0.9548

-----------------------------------------------------------------------------
         ABSORPTION SPECTRUM VIA TRANSITION ELECTRIC DIPOLE MOMENTS
-----------------------------------------------------------------------------
State   Energy  Wavelength   fosc         T2         TX        TY        TZ
        (cm-1)    (nm)                  (au**2)     (au)      (au)      (au)
-----------------------------------------------------------------------------
   0   13302.2    751.8   1.321740712  32.71133  -1.20346  -5.47586  -1.13047
   1   17286.4    578.5   0.659834602  12.56628  -3.06045  -1.78881   0.00911
   2   18698.7    534.8   0.518746937   9.13313   1.48073   2.63443  -0.01863
   3   20748.9    482.0   0.097747033   1.55090  -0.71119   0.58919   0.83545
   4   24746.0    404.1   0.050818613   0.67607   0.47670   0.57753   0.33953
   5   25445.6    393.0   0.061489071   0.79554  -0.82321   0.23665  -0.24871
   6   26244.0    381.0   0.020578347   0.25814   0.05618   0.46672   0.19275
   7   26593.0    376.0   0.053970942   0.66814  -0.29476   0.67622   0.35212
   8   28092.3    356.0   0.287449488   3.36860   1.31148  -1.23672   0.34517
   9   28501.0    350.9   0.021917747   0.25317   0.31449   0.02571  -0.39192
  10   29746.3    336.2   0.024489309   0.27103  -0.38976  -0.26224   0.22439
  11   32206.1    310.5   0.063928015   0.65347   0.45646  -0.49802  -0.44395
  12   32711.1    305.7   0.022535059   0.22680  -0.01875  -0.05376  -0.47282
  13   33051.9    302.6   0.020332505   0.20252   0.38226  -0.09487   0.21772
  14   33479.3    298.7   0.121456654   1.19432   0.76483  -0.77928  -0.04570
  15   33995.7    294.2   0.010719998   0.10381   0.29672  -0.01667  -0.12447
  16   34325.8    291.3   0.005462741   0.05239   0.00135   0.07131   0.21750
  17   34626.0    288.8   0.041199978   0.39171  -0.49741   0.23790   0.29615
  18   35459.5    282.0   0.056333627   0.52301  -0.65546   0.17828  -0.24819
  19   36190.6    276.3   0.045792088   0.41655   0.57601  -0.28971  -0.02880
  20   36563.5    273.5   0.038728661   0.34871   0.57820   0.04507   0.11119
  21   36637.4    272.9   0.162735062   1.46229  -0.67089  -0.97115  -0.26281
  22   37033.5    270.0   0.103110593   0.91661  -0.89138  -0.04507  -0.34644
  23   37203.6    268.8   0.304436992   2.69394  -1.53912  -0.21750  -0.52702
  24   37893.9    263.9   0.061968679   0.53837   0.66504   0.29530  -0.09426
  25   38363.2    260.7   0.070961414   0.60895  -0.67318   0.20827  -0.33527
  26   38632.0    258.9   0.021280044   0.18134  -0.29593  -0.18405  -0.24473
  27   38657.0    258.7   0.027319692   0.23266  -0.09434  -0.40932  -0.23711
  28   39167.9    255.3   0.101394212   0.85223   0.40091  -0.79016  -0.25912
  29   39226.1    254.9   0.047765503   0.40088   0.12017  -0.62160  -0.00769
  30   39602.0    252.5   0.001066510   0.00887  -0.01311   0.00398   0.09316
  31   40268.1    248.3   0.018765330   0.15342   0.06992   0.34487   0.17203

FINAL SINGLE POINT ENERGY     -3832.560635320781

DIPOLE MOMENT
-------------
                                X             Y             Z
Electronic contribution:    -44.74253     -14.12270       2.23099
Nuclear contribution   :     49.11399      13.98273      -3.27364
                        -----------------------------------------
Total Dipole Moment    :      4.37146      -0.13997      -1.04265
                        -----------------------------------------
Magnitude (a.u.)       :      4.49626
Magnitude (Debye)      :     11.42859

Rotational constants in cm-1:     0.002511     0.000335     0.000305
Rotational constants in MHz :    75.270318    10.049289     9.129416

                             ****ORCA TERMINATED NORMALLY****
TOTAL RUN TIME: 0 days 0 hours 5 minutes 41 seconds 770 msec
