                         Program Version 4.2.0 -  RELEASE  -
|  1> # ORCA input file
|  2> # SCF done       -204.877687129212          0.000915306083
|  3> ! CAM-B3LYP def2-SVP def2/J RIJCOSX Grid4 TightSCF
|  4> %maxcore 5000
|  5> %tddft
|  6>     Mode sTDDFT
|  7>     Ethresh 5.0
|  8>     maxcore 5000
|  9> end
| 10>
| 11> %pal
| 12>   nprocs 6
| 13>   end
| 14> * xyz 0 1
| 15>    C       -2.24704        -0.32975        -0.08894
| 16>    C       -1.91866         0.38015        -1.34841
| 17>    O       -1.94766        -0.02129        -2.49121
| 18>    C       -1.48977         1.73732        -0.94005
| 19>    C       -1.59175         1.87397         0.45295
| 20>    C       -2.09915         0.62398         1.00726
| 21>    C       -2.43282         0.43511         2.32334
| 22>    C       -2.28109         1.41852         3.32505
| 23>    N       -2.18960         2.16494         4.19235
| 24>    C       -2.99633        -0.72571         2.89630
| 25>    N       -3.46284        -1.60925         3.46418
| 26>    C       -1.22668         3.07488         1.04694
| 27>    C       -0.77315         4.10834         0.24276
| 28>    C       -0.68314         3.95395        -1.13670
| 29>    C       -1.04074         2.75963        -1.75025
| 30>   Cl       -0.11699         5.26711        -2.09747
| 31>    C       -2.53033        -1.64788         0.13233
| 32>    C       -2.80422        -2.77551        -0.70256
| 33>    C       -2.90847        -4.01128        -0.03583
| 34>    C       -3.21456        -5.13995        -0.76301
| 35>    C       -3.43457        -5.07415        -2.16655
| 36>    C       -3.33648        -3.84787        -2.81900
| 37>    C       -3.02469        -2.72109        -2.09625
| 38>    C       -3.73267        -6.40450        -2.58702
| 39>    C       -3.67330        -7.21769        -1.42499
| 40>    N       -3.37244        -6.43677        -0.33743
| 41>    C       -3.22667        -6.87859         1.02058
| 42>    C       -3.90782        -8.58188        -1.49760
| 43>    C       -4.22782        -9.13707        -2.72988
| 44>    C       -4.29785        -8.32740        -3.87544
| 45>    C       -4.04613        -6.97637        -3.81731
| 46>    C       -4.49830       -10.57740        -2.82875
| 47>    C       -3.68142       -11.50174        -2.18058
| 48>    C       -3.94425       -12.85374        -2.25999
| 49>    C       -5.05256       -13.32242        -2.96325
| 50>    C       -5.86002       -12.39934        -3.62645
| 51>    C       -5.58223       -11.05008        -3.56653
| 52>    C       -5.33999       -14.76399        -3.02687
| 53>    C       -4.18216       -15.62488        -3.31451
| 54>    C       -3.26046       -15.25510        -4.29240
| 55>    C       -2.15916       -16.04754        -4.55565
| 56>    C       -1.95271       -17.21348        -3.83738
| 57>    C       -2.85246       -17.57958        -2.84952
| 58>    C       -3.95755       -16.79306        -2.58796
| 59>    C       -6.58466       -15.25460        -2.82424
| 60>    C       -6.93247       -16.65943        -3.09058
| 61>    C       -6.52596       -17.28810        -4.26618
| 62>    C       -6.87658       -18.60070        -4.51631
| 63>    C       -7.63869       -19.30658        -3.59963
| 64>    C       -8.05869       -18.68704        -2.43437
| 65>    C       -7.71524       -17.37192        -2.18404
| 66>    C       -7.68017       -14.41467        -2.31784
| 67>    C       -8.95955       -14.51133        -2.86267
| 68>    C       -9.99084       -13.72840        -2.38516
| 69>    C       -9.77978       -12.82565        -1.34519
| 70>    C       -8.50552       -12.74765        -0.78526
| 71>    C       -7.47553       -13.53208        -1.25766
| 72>    C      -10.86820       -11.97774        -0.84062
| 73>    C      -12.13443       -12.51318        -0.63714
| 74>    C      -13.12915       -11.68509        -0.14230
| 75>    C      -12.87342       -10.32249         0.14563
| 76>    C      -11.60611        -9.79745        -0.07291
| 77>    C      -10.61876       -10.62711        -0.55740
| 78>    C      -14.10012        -9.77890         0.64710
| 79>    C      -15.03994       -10.84021         0.64233
| 80>    N      -14.44004       -11.97489         0.15201
| 81>    C      -15.06019       -13.25821        -0.01047
| 82>    C      -16.33621       -10.64848         1.09138
| 83>    C      -16.70141        -9.38214         1.53056
| 84>    C      -15.77176        -8.33431         1.53727
| 85>    C      -14.47883        -8.52101         1.09732
| 86>    C      -18.05263        -9.14607         2.05183
| 87>    C      -18.24210        -8.56261         3.32970
| 88>    C      -19.55101        -8.48375         3.69872
| 89>    S      -20.27327        -7.85919         5.16480
| 90>    C      -18.80377        -7.30610         6.07647
| 91>    S      -20.59891        -9.12170         2.47656
| 92>    C      -19.23601        -9.49582         1.44309
| 93>    C      -19.53026       -10.02174         0.13430
| 94>    C      -18.72801        -9.99484        -0.92660
| 95>    H       -1.28170         3.21999         2.11309
| 96>    H       -0.48436         5.04669         0.68967
| 97>    H       -0.97424         2.62618        -2.81845
| 98>    H       -2.55571        -1.91701         1.18267
| 99>    H       -2.74687        -4.06167         1.03090
|100>    H       -3.50589        -3.78388        -3.88286
|101>    H       -2.94602        -1.77488        -2.60106
|102>    H       -3.71800        -7.84123         1.14533
|103>    H       -3.69342        -6.16051         1.69614
|104>    H       -2.17146        -6.98203         1.29172
|105>    H       -3.86903        -9.20990        -0.62025
|106>    H       -4.53186        -8.78995        -4.82247
|107>    H       -4.08995        -6.36538        -4.70601
|108>    H       -2.81927       -11.15503        -1.62888
|109>    H       -3.29838       -13.56022        -1.75757
|110>    H       -6.70778       -12.74953        -4.19685
|111>    H       -6.22631       -10.34773        -4.07534
|112>    H       -3.42126       -14.34614        -4.85518
|113>    H       -1.45762       -15.75372        -5.32301
|114>    H       -1.09103       -17.83150        -4.04225
|115>    H       -2.68958       -18.48140        -2.27742
|116>    H       -4.64920       -17.07486        -1.80766
|117>    H       -5.94184       -16.73707        -4.98861
|118>    H       -6.55649       -19.07539        -5.43243
|119>    H       -7.90862       -20.33385        -3.79541
|120>    H       -8.65764       -19.23111        -1.71832
|121>    H       -8.04149       -16.88980        -1.27303
|122>    H       -9.13644       -15.19623        -3.68030
|123>    H      -10.96930       -13.79829        -2.83847
|124>    H       -8.33142       -12.08019         0.04617
|125>    H       -6.50145       -13.47495        -0.79446
|126>    H      -12.31854       -13.55889        -0.83307
|127>    H      -11.40102        -8.75821         0.13602
|128>    H       -9.63134       -10.23194        -0.74548
|129>    H      -16.13993       -13.13503        -0.07593
|130>    H      -14.83010       -13.92103         0.83035
|131>    H      -14.70711       -13.72529        -0.93093
|132>    H      -17.05949       -11.44951         1.11099
|133>    H      -16.08883        -7.36064         1.88074
|134>    H      -13.77074        -7.70603         1.10264
|135>    H      -17.41761        -8.24533         3.94155
|136>    H      -19.17173        -6.89137         7.00951
|137>    H      -18.28590        -6.54016         5.50704
|138>    H      -18.15491        -8.15374         6.27579
|139>    H      -20.53024       -10.42700         0.03576
|140>    H      -17.74115        -9.56802        -0.89070
|141>    H      -19.04788       -10.39734        -1.87199
|142> *
|143>
|144>                          ****END OF INPUT****

CARTESIAN COORDINATES (ANGSTROEM)
---------------------------------
  C     -2.247040   -0.329750   -0.088940
  C     -1.918660    0.380150   -1.348410
  O     -1.947660   -0.021290   -2.491210
  C     -1.489770    1.737320   -0.940050
  C     -1.591750    1.873970    0.452950
  C     -2.099150    0.623980    1.007260
  C     -2.432820    0.435110    2.323340
  C     -2.281090    1.418520    3.325050
  N     -2.189600    2.164940    4.192350
  C     -2.996330   -0.725710    2.896300
  N     -3.462840   -1.609250    3.464180
  C     -1.226680    3.074880    1.046940
  C     -0.773150    4.108340    0.242760
  C     -0.683140    3.953950   -1.136700
  C     -1.040740    2.759630   -1.750250
  Cl    -0.116990    5.267110   -2.097470
  C     -2.530330   -1.647880    0.132330
  C     -2.804220   -2.775510   -0.702560
  C     -2.908470   -4.011280   -0.035830
  C     -3.214560   -5.139950   -0.763010
  C     -3.434570   -5.074150   -2.166550
  C     -3.336480   -3.847870   -2.819000
  C     -3.024690   -2.721090   -2.096250
  C     -3.732670   -6.404500   -2.587020
  C     -3.673300   -7.217690   -1.424990
  N     -3.372440   -6.436770   -0.337430
  C     -3.226670   -6.878590    1.020580
  C     -3.907820   -8.581880   -1.497600
  C     -4.227820   -9.137070   -2.729880
  C     -4.297850   -8.327400   -3.875440
  C     -4.046130   -6.976370   -3.817310
  C     -4.498300  -10.577400   -2.828750
  C     -3.681420  -11.501740   -2.180580
  C     -3.944250  -12.853740   -2.259990
  C     -5.052560  -13.322420   -2.963250
  C     -5.860020  -12.399340   -3.626450
  C     -5.582230  -11.050080   -3.566530
  C     -5.339990  -14.763990   -3.026870
  C     -4.182160  -15.624880   -3.314510
  C     -3.260460  -15.255100   -4.292400
  C     -2.159160  -16.047540   -4.555650
  C     -1.952710  -17.213480   -3.837380
  C     -2.852460  -17.579580   -2.849520
  C     -3.957550  -16.793060   -2.587960
  C     -6.584660  -15.254600   -2.824240
  C     -6.932470  -16.659430   -3.090580
  C     -6.525960  -17.288100   -4.266180
  C     -6.876580  -18.600700   -4.516310
  C     -7.638690  -19.306580   -3.599630
  C     -8.058690  -18.687040   -2.434370
  C     -7.715240  -17.371920   -2.184040
  C     -7.680170  -14.414670   -2.317840
  C     -8.959550  -14.511330   -2.862670
  C     -9.990840  -13.728400   -2.385160
  C     -9.779780  -12.825650   -1.345190
  C     -8.505520  -12.747650   -0.785260
  C     -7.475530  -13.532080   -1.257660
  C    -10.868200  -11.977740   -0.840620
  C    -12.134430  -12.513180   -0.637140
  C    -13.129150  -11.685090   -0.142300
  C    -12.873420  -10.322490    0.145630
  C    -11.606110   -9.797450   -0.072910
  C    -10.618760  -10.627110   -0.557400
  C    -14.100120   -9.778900    0.647100
  C    -15.039940  -10.840210    0.642330
  N    -14.440040  -11.974890    0.152010
  C    -15.060190  -13.258210   -0.010470
  C    -16.336210  -10.648480    1.091380
  C    -16.701410   -9.382140    1.530560
  C    -15.771760   -8.334310    1.537270
  C    -14.478830   -8.521010    1.097320
  C    -18.052630   -9.146070    2.051830
  C    -18.242100   -8.562610    3.329700
  C    -19.551010   -8.483750    3.698720
  S    -20.273270   -7.859190    5.164800
  C    -18.803770   -7.306100    6.076470
  S    -20.598910   -9.121700    2.476560
  C    -19.236010   -9.495820    1.443090
  C    -19.530260  -10.021740    0.134300
  C    -18.728010   -9.994840   -0.926600
  H     -1.281700    3.219990    2.113090
  H     -0.484360    5.046690    0.689670
  H     -0.974240    2.626180   -2.818450
  H     -2.555710   -1.917010    1.182670
  H     -2.746870   -4.061670    1.030900
  H     -3.505890   -3.783880   -3.882860
  H     -2.946020   -1.774880   -2.601060
  H     -3.718000   -7.841230    1.145330
  H     -3.693420   -6.160510    1.696140
  H     -2.171460   -6.982030    1.291720
  H     -3.869030   -9.209900   -0.620250
  H     -4.531860   -8.789950   -4.822470
  H     -4.089950   -6.365380   -4.706010
  H     -2.819270  -11.155030   -1.628880
  H     -3.298380  -13.560220   -1.757570
  H     -6.707780  -12.749530   -4.196850
  H     -6.226310  -10.347730   -4.075340
  H     -3.421260  -14.346140   -4.855180
  H     -1.457620  -15.753720   -5.323010
  H     -1.091030  -17.831500   -4.042250
  H     -2.689580  -18.481400   -2.277420
  H     -4.649200  -17.074860   -1.807660
  H     -5.941840  -16.737070   -4.988610
  H     -6.556490  -19.075390   -5.432430
  H     -7.908620  -20.333850   -3.795410
  H     -8.657640  -19.231110   -1.718320
  H     -8.041490  -16.889800   -1.273030
  H     -9.136440  -15.196230   -3.680300
  H    -10.969300  -13.798290   -2.838470
  H     -8.331420  -12.080190    0.046170
  H     -6.501450  -13.474950   -0.794460
  H    -12.318540  -13.558890   -0.833070
  H    -11.401020   -8.758210    0.136020
  H     -9.631340  -10.231940   -0.745480
  H    -16.139930  -13.135030   -0.075930
  H    -14.830100  -13.921030    0.830350
  H    -14.707110  -13.725290   -0.930930
  H    -17.059490  -11.449510    1.110990
  H    -16.088830   -7.360640    1.880740
  H    -13.770740   -7.706030    1.102640
  H    -17.417610   -8.245330    3.941550
  H    -19.171730   -6.891370    7.009510
  H    -18.285900   -6.540160    5.507040
  H    -18.154910   -8.153740    6.275790
  H    -20.530240  -10.427000    0.035760
  H    -17.741150   -9.568020   -0.890700
  H    -19.047880  -10.397340   -1.871990

 Total Charge           Charge          ....    0
 Multiplicity           Mult            ....    1
 Number of Electrons    NEL             ....  564
 Basis Dimension        Dim             .... 1367

ORBITAL ENERGIES
----------------

  NO   OCC          E(Eh)            E(eV)
   0   2.0000    -101.594554     -2764.5284
   1   2.0000     -88.942976     -2420.2614
   2   2.0000     -88.926363     -2419.8094
   3   2.0000     -19.219619      -522.9924
   4   2.0000     -14.458530      -393.4366
   5   2.0000     -14.445027      -393.0692
   6   2.0000     -14.416904      -392.3039
   7   2.0000     -14.413251      -392.2045
   8   2.0000     -10.371132      -282.2128
   9   2.0000     -10.347415      -281.5675
  10   2.0000     -10.341735      -281.4129
  11   2.0000     -10.341146      -281.3969
  12   2.0000     -10.320381      -280.8318
  13   2.0000     -10.317959      -280.7659
  14   2.0000     -10.316574      -280.7283
  15   2.0000     -10.315446      -280.6975
  16   2.0000     -10.312103      -280.6066
  17   2.0000     -10.310912      -280.5742
  18   2.0000     -10.308929      -280.5202
  19   2.0000     -10.308121      -280.4982
  20   2.0000     -10.307188      -280.4729
  21   2.0000     -10.300991      -280.3042
  22   2.0000     -10.300907      -280.3019
  23   2.0000     -10.300515      -280.2913
  24   2.0000     -10.297052      -280.1970
  25   2.0000     -10.296859      -280.1918
  26   2.0000     -10.296770      -280.1893
  27   2.0000     -10.296541      -280.1831
  28   2.0000     -10.293766      -280.1076
  29   2.0000     -10.288981      -279.9774
  30   2.0000     -10.285630      -279.8862
  31   2.0000     -10.283713      -279.8340
  32   2.0000     -10.280414      -279.7443
  33   2.0000     -10.280359      -279.7428
  34   2.0000     -10.275401      -279.6079
  35   2.0000     -10.274112      -279.5728
  36   2.0000     -10.272988      -279.5422
  37   2.0000     -10.271778      -279.5093
  38   2.0000     -10.271515      -279.5021
  39   2.0000     -10.271064      -279.4899
  40   2.0000     -10.270792      -279.4825
  41   2.0000     -10.270283      -279.4686
  42   2.0000     -10.270237      -279.4674
  43   2.0000     -10.269117      -279.4369
  44   2.0000     -10.268483      -279.4196
  45   2.0000     -10.268237      -279.4129
  46   2.0000     -10.268119      -279.4097
  47   2.0000     -10.268047      -279.4078
  48   2.0000     -10.267787      -279.4007
  49   2.0000     -10.267462      -279.3918
  50   2.0000     -10.265654      -279.3426
  51   2.0000     -10.265518      -279.3389
  52   2.0000     -10.264306      -279.3060
  53   2.0000     -10.264130      -279.3012
  54   2.0000     -10.263557      -279.2856
  55   2.0000     -10.263314      -279.2790
  56   2.0000     -10.262942      -279.2688
  57   2.0000     -10.262522      -279.2574
  58   2.0000     -10.262029      -279.2440
  59   2.0000     -10.261803      -279.2379
  60   2.0000     -10.261598      -279.2323
  61   2.0000     -10.261574      -279.2316
  62   2.0000     -10.261411      -279.2272
  63   2.0000     -10.261269      -279.2233
  64   2.0000     -10.260809      -279.2108
  65   2.0000     -10.260758      -279.2094
  66   2.0000     -10.260750      -279.2092
  67   2.0000     -10.260497      -279.2023
  68   2.0000     -10.260450      -279.2010
  69   2.0000     -10.260246      -279.1955
  70   2.0000     -10.259853      -279.1848
  71   2.0000     -10.259709      -279.1809
  72   2.0000     -10.259662      -279.1796
  73   2.0000     -10.259595      -279.1778
  74   2.0000     -10.259367      -279.1716
  75   2.0000     -10.257850      -279.1303
  76   2.0000     -10.257614      -279.1239
  77   2.0000     -10.253603      -279.0147
  78   2.0000     -10.253301      -279.0065
  79   2.0000     -10.252044      -278.9723
  80   2.0000      -9.549663      -259.8595
  81   2.0000      -8.039207      -218.7580
  82   2.0000      -8.022028      -218.2905
  83   2.0000      -7.319859      -199.1835
  84   2.0000      -7.309934      -198.9134
  85   2.0000      -7.309406      -198.8991
  86   2.0000      -6.008639      -163.5034
  87   2.0000      -6.004496      -163.3906
  88   2.0000      -6.000925      -163.2935
  89   2.0000      -5.992599      -163.0669
  90   2.0000      -5.988367      -162.9517
  91   2.0000      -5.981521      -162.7655
  92   2.0000      -1.134919       -30.8827
  93   2.0000      -1.089604       -29.6496
  94   2.0000      -1.075490       -29.2656
  95   2.0000      -1.020087       -27.7580
  96   2.0000      -1.005844       -27.3704
  97   2.0000      -0.993484       -27.0341
  98   2.0000      -0.981562       -26.7097
  99   2.0000      -0.977461       -26.5981
 100   2.0000      -0.968693       -26.3595
 101   2.0000      -0.957462       -26.0539
 102   2.0000      -0.956277       -26.0216
 103   2.0000      -0.949630       -25.8407
 104   2.0000      -0.941451       -25.6182
 105   2.0000      -0.937071       -25.4990
 106   2.0000      -0.936475       -25.4828
 107   2.0000      -0.930980       -25.3333
 108   2.0000      -0.929553       -25.2944
 109   2.0000      -0.907789       -24.7022
 110   2.0000      -0.900849       -24.5133
 111   2.0000      -0.896693       -24.4003
 112   2.0000      -0.892067       -24.2744
 113   2.0000      -0.879619       -23.9357
 114   2.0000      -0.869171       -23.6514
 115   2.0000      -0.859317       -23.3832
 116   2.0000      -0.857098       -23.3228
 117   2.0000      -0.854111       -23.2415
 118   2.0000      -0.847232       -23.0544
 119   2.0000      -0.844930       -22.9917
 120   2.0000      -0.838623       -22.8201
 121   2.0000      -0.834896       -22.7187
 122   2.0000      -0.832428       -22.6515
 123   2.0000      -0.829690       -22.5770
 124   2.0000      -0.828674       -22.5494
 125   2.0000      -0.824562       -22.4375
 126   2.0000      -0.823001       -22.3950
 127   2.0000      -0.822141       -22.3716
 128   2.0000      -0.815611       -22.1939
 129   2.0000      -0.806492       -21.9458
 130   2.0000      -0.792384       -21.5619
 131   2.0000      -0.786011       -21.3884
 132   2.0000      -0.782580       -21.2951
 133   2.0000      -0.773522       -21.0486
 134   2.0000      -0.770907       -20.9775
 135   2.0000      -0.768622       -20.9153
 136   2.0000      -0.763550       -20.7773
 137   2.0000      -0.734391       -19.9838
 138   2.0000      -0.727565       -19.7981
 139   2.0000      -0.717561       -19.5258
 140   2.0000      -0.709535       -19.3074
 141   2.0000      -0.705220       -19.1900
 142   2.0000      -0.700763       -19.0687
 143   2.0000      -0.697047       -18.9676
 144   2.0000      -0.694477       -18.8977
 145   2.0000      -0.688183       -18.7264
 146   2.0000      -0.687407       -18.7053
 147   2.0000      -0.684143       -18.6165
 148   2.0000      -0.679683       -18.4951
 149   2.0000      -0.677764       -18.4429
 150   2.0000      -0.676460       -18.4074
 151   2.0000      -0.674656       -18.3583
 152   2.0000      -0.671025       -18.2595
 153   2.0000      -0.662568       -18.0294
 154   2.0000      -0.660622       -17.9765
 155   2.0000      -0.653205       -17.7746
 156   2.0000      -0.652634       -17.7591
 157   2.0000      -0.643857       -17.5202
 158   2.0000      -0.627820       -17.0838
 159   2.0000      -0.626051       -17.0357
 160   2.0000      -0.617614       -16.8061
 161   2.0000      -0.616130       -16.7657
 162   2.0000      -0.611844       -16.6491
 163   2.0000      -0.606809       -16.5121
 164   2.0000      -0.602667       -16.3994
 165   2.0000      -0.601163       -16.3585
 166   2.0000      -0.600296       -16.3349
 167   2.0000      -0.589776       -16.0486
 168   2.0000      -0.581483       -15.8230
 169   2.0000      -0.580477       -15.7956
 170   2.0000      -0.574375       -15.6295
 171   2.0000      -0.572724       -15.5846
 172   2.0000      -0.571471       -15.5505
 173   2.0000      -0.563802       -15.3418
 174   2.0000      -0.562902       -15.3174
 175   2.0000      -0.557031       -15.1576
 176   2.0000      -0.553814       -15.0701
 177   2.0000      -0.551322       -15.0022
 178   2.0000      -0.547684       -14.9032
 179   2.0000      -0.547134       -14.8883
 180   2.0000      -0.543015       -14.7762
 181   2.0000      -0.539725       -14.6867
 182   2.0000      -0.538379       -14.6500
 183   2.0000      -0.536903       -14.6099
 184   2.0000      -0.535311       -14.5666
 185   2.0000      -0.531399       -14.4601
 186   2.0000      -0.528779       -14.3888
 187   2.0000      -0.528117       -14.3708
 188   2.0000      -0.527537       -14.3550
 189   2.0000      -0.527184       -14.3454
 190   2.0000      -0.524553       -14.2738
 191   2.0000      -0.520840       -14.1728
 192   2.0000      -0.519428       -14.1344
 193   2.0000      -0.517024       -14.0689
 194   2.0000      -0.516819       -14.0634
 195   2.0000      -0.513711       -13.9788
 196   2.0000      -0.512995       -13.9593
 197   2.0000      -0.511614       -13.9217
 198   2.0000      -0.510449       -13.8900
 199   2.0000      -0.507111       -13.7992
 200   2.0000      -0.503565       -13.7027
 201   2.0000      -0.502573       -13.6757
 202   2.0000      -0.499742       -13.5987
 203   2.0000      -0.499570       -13.5940
 204   2.0000      -0.496894       -13.5212
 205   2.0000      -0.495233       -13.4760
 206   2.0000      -0.494060       -13.4440
 207   2.0000      -0.492911       -13.4128
 208   2.0000      -0.492110       -13.3910
 209   2.0000      -0.490949       -13.3594
 210   2.0000      -0.489635       -13.3236
 211   2.0000      -0.488081       -13.2814
 212   2.0000      -0.483349       -13.1526
 213   2.0000      -0.482054       -13.1174
 214   2.0000      -0.480931       -13.0868
 215   2.0000      -0.479238       -13.0407
 216   2.0000      -0.477134       -12.9835
 217   2.0000      -0.472203       -12.8493
 218   2.0000      -0.469735       -12.7821
 219   2.0000      -0.464232       -12.6324
 220   2.0000      -0.462045       -12.5729
 221   2.0000      -0.459138       -12.4938
 222   2.0000      -0.457020       -12.4361
 223   2.0000      -0.454665       -12.3721
 224   2.0000      -0.449733       -12.2379
 225   2.0000      -0.448933       -12.2161
 226   2.0000      -0.447725       -12.1832
 227   2.0000      -0.444822       -12.1042
 228   2.0000      -0.444110       -12.0849
 229   2.0000      -0.442521       -12.0416
 230   2.0000      -0.439835       -11.9685
 231   2.0000      -0.437548       -11.9063
 232   2.0000      -0.436419       -11.8756
 233   2.0000      -0.433415       -11.7938
 234   2.0000      -0.433122       -11.7859
 235   2.0000      -0.432157       -11.7596
 236   2.0000      -0.427685       -11.6379
 237   2.0000      -0.426937       -11.6176
 238   2.0000      -0.426109       -11.5950
 239   2.0000      -0.420242       -11.4354
 240   2.0000      -0.418719       -11.3939
 241   2.0000      -0.417492       -11.3605
 242   2.0000      -0.416124       -11.3233
 243   2.0000      -0.414460       -11.2780
 244   2.0000      -0.411816       -11.2061
 245   2.0000      -0.410317       -11.1653
 246   2.0000      -0.410061       -11.1583
 247   2.0000      -0.406867       -11.0714
 248   2.0000      -0.404916       -11.0183
 249   2.0000      -0.404079       -10.9956
 250   2.0000      -0.401786       -10.9332
 251   2.0000      -0.400589       -10.9006
 252   2.0000      -0.396191       -10.7809
 253   2.0000      -0.393429       -10.7057
 254   2.0000      -0.391811       -10.6617
 255   2.0000      -0.391666       -10.6578
 256   2.0000      -0.388029       -10.5588
 257   2.0000      -0.377817       -10.2809
 258   2.0000      -0.373563       -10.1652
 259   2.0000      -0.363995        -9.9048
 260   2.0000      -0.352358        -9.5882
 261   2.0000      -0.349508        -9.5106
 262   2.0000      -0.340752        -9.2723
 263   2.0000      -0.337282        -9.1779
 264   2.0000      -0.331541        -9.0217
 265   2.0000      -0.328746        -8.9456
 266   2.0000      -0.325939        -8.8692
 267   2.0000      -0.323140        -8.7931
 268   2.0000      -0.318868        -8.6768
 269   2.0000      -0.316476        -8.6118
 270   2.0000      -0.313324        -8.5260
 271   2.0000      -0.311736        -8.4828
 272   2.0000      -0.308892        -8.4054
 273   2.0000      -0.306807        -8.3486
 274   2.0000      -0.303688        -8.2638
 275   2.0000      -0.299289        -8.1441
 276   2.0000      -0.271543        -7.3891
 277   2.0000      -0.270113        -7.3501
 278   2.0000      -0.263498        -7.1701
 279   2.0000      -0.257351        -7.0029
 280   2.0000      -0.245585        -6.6827
 281   2.0000      -0.238360        -6.4861
 282   0.0000      -0.086007        -2.3404
 283   0.0000      -0.062309        -1.6955
 284   0.0000      -0.024477        -0.6660
 285   0.0000      -0.011904        -0.3239
 286   0.0000      -0.005298        -0.1442

MULLIKEN ATOMIC CHARGES
-----------------------
   0 C :   -0.049940
   1 C :    0.156979
   2 O :   -0.145193
   3 C :   -0.024550
   4 C :    0.037397
   5 C :    0.306216
   6 C :   -0.360159
   7 C :   -0.189612
   8 N :    0.150958
   9 C :   -0.197287
  10 N :    0.154175
  11 C :   -0.031845
  12 C :    0.049199
  13 C :    0.074614
  14 C :   -0.017164
  15 Cl:   -0.070428
  16 C :   -0.025155
  17 C :    0.076965
  18 C :   -0.157508
  19 C :    0.180867
  20 C :    0.080446
  21 C :   -0.050078
  22 C :    0.004874
  23 C :    0.051437
  24 C :    0.172531
  25 N :   -0.189101
  26 C :    0.124581
  27 C :   -0.139475
  28 C :    0.088200
  29 C :   -0.014699
  30 C :   -0.035075
  31 C :    0.073663
  32 C :   -0.026197
  33 C :    0.022582
  34 C :   -0.042123
  35 C :    0.051801
  36 C :   -0.025272
  37 C :    0.048772
  38 C :   -0.037474
  39 C :    0.009064
  40 C :    0.015145
  41 C :    0.026203
  42 C :    0.013678
  43 C :    0.043695
  44 C :    0.058273
  45 C :   -0.043227
  46 C :    0.041648
  47 C :    0.015540
  48 C :    0.025685
  49 C :    0.014284
  50 C :    0.010159
  51 C :   -0.031551
  52 C :    0.011342
  53 C :   -0.023529
  54 C :    0.081221
  55 C :   -0.029596
  56 C :    0.052941
  57 C :    0.088537
  58 C :   -0.142161
  59 C :    0.163859
  60 C :    0.064021
  61 C :   -0.047325
  62 C :   -0.018177
  63 C :    0.068782
  64 C :    0.162753
  65 N :   -0.191899
  66 C :    0.126157
  67 C :   -0.124767
  68 C :    0.012400
  69 C :   -0.007455
  70 C :   -0.050921
  71 C :    0.094232
  72 C :   -0.016721
  73 C :   -0.131967
  74 S :   -0.003441
  75 C :   -0.091647
  76 S :    0.117611
  77 C :   -0.156002
  78 C :    0.017220
  79 C :   -0.026259
  80 H :    0.009014
  81 H :   -0.001343
  82 H :   -0.003697
  83 H :    0.004836
  84 H :   -0.022860
  85 H :   -0.027012
  86 H :   -0.005381
  87 H :    0.039319
  88 H :    0.046312
  89 H :    0.038747
  90 H :   -0.043603
  91 H :   -0.025589
  92 H :   -0.028755
  93 H :   -0.027598
  94 H :   -0.015931
  95 H :   -0.017029
  96 H :   -0.023659
  97 H :   -0.016898
  98 H :   -0.019070
  99 H :   -0.018176
 100 H :   -0.019635
 101 H :   -0.017618
 102 H :   -0.016449
 103 H :   -0.019483
 104 H :   -0.018169
 105 H :   -0.019193
 106 H :   -0.016134
 107 H :   -0.016626
 108 H :   -0.031184
 109 H :   -0.027554
 110 H :   -0.023182
 111 H :   -0.049080
 112 H :   -0.036239
 113 H :   -0.030324
 114 H :    0.041343
 115 H :    0.035403
 116 H :    0.034205
 117 H :   -0.038670
 118 H :   -0.032316
 119 H :   -0.035276
 120 H :   -0.028872
 121 H :    0.063475
 122 H :    0.069109
 123 H :    0.070845
 124 H :   -0.013423
 125 H :    0.041292
 126 H :    0.016397
Sum of atomic charges:   -0.0000000

LOEWDIN ATOMIC CHARGES
----------------------
   0 C :   -0.104237
   1 C :    0.088157
   2 O :   -0.131183
   3 C :   -0.035518
   4 C :   -0.020807
   5 C :    0.079748
   6 C :   -0.142962
   7 C :   -0.018152
   8 N :   -0.054366
   9 C :   -0.024094
  10 N :   -0.056049
  11 C :    0.008755
  12 C :   -0.019807
  13 C :   -0.105439
  14 C :   -0.006594
  15 Cl:    0.142016
  16 C :    0.087680
  17 C :   -0.044150
  18 C :   -0.024027
  19 C :    0.022205
  20 C :   -0.013601
  21 C :   -0.014952
  22 C :   -0.005478
  23 C :   -0.053319
  24 C :    0.040898
  25 N :    0.013934
  26 C :    0.037966
  27 C :   -0.058376
  28 C :    0.000697
  29 C :   -0.041060
  30 C :   -0.000736
  31 C :   -0.019385
  32 C :   -0.022881
  33 C :   -0.014381
  34 C :   -0.023223
  35 C :   -0.005214
  36 C :   -0.018670
  37 C :   -0.014213
  38 C :   -0.025451
  39 C :   -0.018261
  40 C :   -0.026670
  41 C :   -0.026236
  42 C :   -0.024978
  43 C :   -0.009526
  44 C :   -0.011332
  45 C :   -0.025426
  46 C :   -0.009188
  47 C :   -0.024906
  48 C :   -0.026343
  49 C :   -0.027366
  50 C :   -0.017776
  51 C :   -0.028389
  52 C :   -0.014751
  53 C :   -0.023774
  54 C :   -0.013946
  55 C :   -0.020952
  56 C :   -0.006705
  57 C :   -0.011666
  58 C :   -0.058650
  59 C :    0.031907
  60 C :   -0.045290
  61 C :   -0.010410
  62 C :   -0.043306
  63 C :   -0.045339
  64 C :    0.030445
  65 N :    0.010401
  66 C :    0.036571
  67 C :   -0.048744
  68 C :   -0.017403
  69 C :   -0.044951
  70 C :   -0.012396
  71 C :   -0.044352
  72 C :   -0.101438
  73 C :   -0.318407
  74 S :    0.279877
  75 C :   -0.149792
  76 S :    0.412437
  77 C :   -0.182894
  78 C :   -0.047900
  79 C :   -0.047941
  80 H :    0.042776
  81 H :    0.039237
  82 H :    0.042840
  83 H :    0.044516
  84 H :    0.031809
  85 H :    0.031397
  86 H :    0.027944
  87 H :    0.035073
  88 H :    0.034816
  89 H :    0.028378
  90 H :    0.024852
  91 H :    0.026935
  92 H :    0.030219
  93 H :    0.025908
  94 H :    0.030445
  95 H :    0.031760
  96 H :    0.028242
  97 H :    0.028659
  98 H :    0.026801
  99 H :    0.025968
 100 H :    0.027129
 101 H :    0.030145
 102 H :    0.030242
 103 H :    0.027189
 104 H :    0.025958
 105 H :    0.026548
 106 H :    0.028870
 107 H :    0.029774
 108 H :    0.025196
 109 H :    0.027009
 110 H :    0.030000
 111 H :    0.023254
 112 H :    0.027179
 113 H :    0.024673
 114 H :    0.034730
 115 H :    0.026543
 116 H :    0.030312
 117 H :    0.027081
 118 H :    0.024668
 119 H :    0.027164
 120 H :    0.024690
 121 H :    0.034357
 122 H :    0.027481
 123 H :    0.027726
 124 H :    0.025710
 125 H :    0.027417
 126 H :    0.022415

  Mayer bond orders larger than 0.100000
B(  0-C ,  1-C ) :   0.9321 B(  0-C ,  5-C ) :   1.0811 B(  0-C , 16-C ) :   1.5304
B(  1-C ,  2-O ) :   2.1839 B(  1-C ,  3-C ) :   0.9472 B(  3-C ,  4-C ) :   1.3350
B(  3-C , 14-C ) :   1.3655 B(  4-C ,  5-C ) :   0.9914 B(  4-C , 11-C ) :   1.3525
B(  5-C ,  6-C ) :   1.6199 B(  6-C ,  7-C ) :   1.1467 B(  6-C ,  9-C ) :   1.1403
B(  7-C ,  8-N ) :   2.9756 B(  9-C , 10-N ) :   2.9892 B( 11-C , 12-C ) :   1.3792
B( 11-C , 80-H ) :   0.9831 B( 12-C , 13-C ) :   1.3806 B( 12-C , 81-H ) :   0.9867
B( 13-C , 14-C ) :   1.3312 B( 13-C , 15-Cl) :   0.9860 B( 14-C , 82-H ) :   1.0125
B( 16-C , 17-C ) :   1.1734 B( 16-C , 83-H ) :   0.9397 B( 17-C , 18-C ) :   1.2442
B( 17-C , 22-C ) :   1.2946 B( 18-C , 19-C ) :   1.2955 B( 18-C , 84-H ) :   1.0176
B( 19-C , 20-C ) :   1.2688 B( 19-C , 25-N ) :   1.1240 B( 20-C , 21-C ) :   1.2989
B( 20-C , 23-C ) :   1.1085 B( 21-C , 22-C ) :   1.4337 B( 21-C , 85-H ) :   1.0002
B( 22-C , 86-H ) :   0.9692 B( 23-C , 24-C ) :   1.2872 B( 23-C , 30-C ) :   1.3098
B( 24-C , 25-N ) :   1.1268 B( 24-C , 27-C ) :   1.2749 B( 25-N , 26-C ) :   0.9776
B( 26-C , 87-H ) :   0.9686 B( 26-C , 88-H ) :   0.9667 B( 26-C , 89-H ) :   0.9732
B( 27-C , 28-C ) :   1.3946 B( 27-C , 90-H ) :   1.0052 B( 28-C , 29-C ) :   1.3335
B( 28-C , 31-C ) :   0.9531 B( 29-C , 30-C ) :   1.4153 B( 29-C , 91-H ) :   0.9892
B( 30-C , 92-H ) :   0.9996 B( 31-C , 32-C ) :   1.3758 B( 31-C , 36-C ) :   1.3710
B( 32-C , 33-C ) :   1.3701 B( 32-C , 93-H ) :   0.9942 B( 33-C , 34-C ) :   1.3778
B( 33-C , 94-H ) :   0.9939 B( 34-C , 35-C ) :   1.3734 B( 34-C , 37-C ) :   0.9738
B( 35-C , 36-C ) :   1.3806 B( 35-C , 95-H ) :   0.9914 B( 36-C , 96-H ) :   0.9965
B( 37-C , 38-C ) :   0.9788 B( 37-C , 44-C ) :   1.7974 B( 38-C , 39-C ) :   1.3856
B( 38-C , 43-C ) :   1.3841 B( 39-C , 40-C ) :   1.3794 B( 39-C , 97-H ) :   0.9934
B( 40-C , 41-C ) :   1.3825 B( 40-C , 98-H ) :   0.9915 B( 41-C , 42-C ) :   1.3778
B( 41-C , 99-H ) :   0.9937 B( 42-C , 43-C ) :   1.3891 B( 42-C ,100-H ) :   0.9918
B( 43-C ,101-H ) :   0.9905 B( 44-C , 45-C ) :   0.9746 B( 44-C , 51-C ) :   0.9800
B( 45-C , 46-C ) :   1.3851 B( 45-C , 50-C ) :   1.3870 B( 46-C , 47-C ) :   1.3891
B( 46-C ,102-H ) :   0.9907 B( 47-C , 48-C ) :   1.3778 B( 47-C ,103-H ) :   0.9914
B( 48-C , 49-C ) :   1.3835 B( 48-C ,104-H ) :   0.9933 B( 49-C , 50-C ) :   1.3810
B( 49-C ,105-H ) :   0.9908 B( 50-C ,106-H ) :   0.9927 B( 51-C , 52-C ) :   1.3751
B( 51-C , 56-C ) :   1.3685 B( 52-C , 53-C ) :   1.3686 B( 52-C ,107-H ) :   0.9938
B( 53-C , 54-C ) :   1.3774 B( 53-C ,108-H ) :   0.9938 B( 54-C , 55-C ) :   1.3694
B( 54-C , 57-C ) :   0.9542 B( 55-C , 56-C ) :   1.3802 B( 55-C ,109-H ) :   0.9966
B( 56-C ,110-H ) :   0.9894 B( 57-C , 58-C ) :   1.3738 B( 57-C , 62-C ) :   1.3504
B( 58-C , 59-C ) :   1.2865 B( 58-C ,111-H ) :   1.0056 B( 59-C , 60-C ) :   1.2989
B( 59-C , 65-N ) :   1.1201 B( 60-C , 61-C ) :   1.3285 B( 60-C , 63-C ) :   1.0830
B( 61-C , 62-C ) :   1.3992 B( 61-C ,112-H ) :   0.9981 B( 62-C ,113-H ) :   0.9874
B( 63-C , 64-C ) :   1.2924 B( 63-C , 70-C ) :   1.3321 B( 64-C , 65-N ) :   1.1193
B( 64-C , 67-C ) :   1.2855 B( 65-N , 66-C ) :   0.9819 B( 66-C ,114-H ) :   0.9688
B( 66-C ,115-H ) :   0.9737 B( 66-C ,116-H ) :   0.9668 B( 67-C , 68-C ) :   1.3874
B( 67-C ,117-H ) :   1.0097 B( 68-C , 69-C ) :   1.3516 B( 68-C , 71-C ) :   0.9582
B( 69-C , 70-C ) :   1.3864 B( 69-C ,118-H ) :   0.9899 B( 70-C ,119-H ) :   0.9993
B( 71-C , 72-C ) :   1.2450 B( 71-C , 77-C ) :   1.5704 B( 72-C , 73-C ) :   1.5375
B( 72-C ,120-H ) :   0.9990 B( 73-C , 74-S ) :   1.0060 B( 73-C , 76-S ) :   1.1227
B( 74-S , 75-C ) :   1.0274 B( 75-C ,121-H ) :   0.9714 B( 75-C ,122-H ) :   0.9663
B( 75-C ,123-H ) :   0.9662 B( 76-S , 77-C ) :   1.0952 B( 77-C , 78-C ) :   1.0843
B( 78-C , 79-C ) :   1.9571 B( 78-C ,124-H ) :   0.9467 B( 79-C ,125-H ) :   0.9506
B( 79-C ,126-H ) :   0.9486

-----------------------------------------------------------------------------
         ABSORPTION SPECTRUM VIA TRANSITION ELECTRIC DIPOLE MOMENTS
-----------------------------------------------------------------------------
State   Energy  Wavelength   fosc         T2         TX        TY        TZ
        (cm-1)    (nm)                  (au**2)     (au)      (au)      (au)
-----------------------------------------------------------------------------
   0   23022.3    434.4   1.229754523  17.58511  -1.04166  -3.82356  -1.37129
   1   23904.9    418.3   0.076487309   1.05336   0.28881   0.41914   0.89122
   2   26454.5    378.0   0.074407512   0.92596  -0.20431   0.63554   0.69304
   3   27862.6    358.9   0.163258445   1.92899  -0.66693  -1.18933   0.26399
   4   28282.9    353.6   0.065244720   0.75945  -0.00102   0.78241   0.38376
   5   30029.0    333.0   0.048351505   0.53008  -0.38811  -0.57491   0.22121
   6   30089.3    332.3   0.002383560   0.02608  -0.02032  -0.15867   0.02211
   7   30553.3    327.3   0.094027438   1.01315  -0.77286  -0.62632  -0.15350
   8   31008.4    322.5   0.812386475   8.62499  -2.80115  -0.30322   0.82863
   9   31494.4    317.5   0.192741557   2.01473   0.53980  -1.20782   0.51431
  10   31900.7    313.5   0.050839955   0.52466  -0.00549  -0.69905   0.18963
  11   32327.7    309.3   0.156064961   1.58930   1.11146   0.44942  -0.38983
  12   32472.4    308.0   0.052918455   0.53650  -0.56301  -0.34914   0.31245
  13   33095.0    302.2   0.147780959   1.47005  -0.46313   1.01826  -0.46765
  14   33845.3    295.5   0.145593562   1.41618   1.15769   0.20559  -0.18348
  15   34027.8    293.9   0.059777922   0.57834  -0.29086   0.25161  -0.65607
  16   35231.3    283.8   0.427043539   3.99042   0.53417   1.06339  -1.60445
  17   35866.2    278.8   0.000441154   0.00405  -0.04761  -0.03389   0.02517
  18   36432.6    274.5   0.179120917   1.61857  -0.46189  -1.15994   0.24449
  19   36612.3    273.1   0.654957850   5.88928   1.10618  -1.91540  -0.99844
  20   36811.0    271.7   0.356615253   3.18932  -1.00597   0.98745   1.09649
  21   37369.4    267.6   0.041036568   0.36152  -0.03002   0.19279   0.56873
  22   37681.5    265.4   0.018801669   0.16426  -0.08902   0.21889   0.32928
  23   38238.1    261.5   0.304249256   2.61944  -0.24890   1.24466   1.00415
  24   38478.8    259.9   0.005452993   0.04665   0.21095   0.04538  -0.00977
  25   38662.8    258.6   0.225950872   1.92396  -0.23604  -0.98268  -0.95005
  26   38773.7    257.9   0.205662370   1.74620   0.33188   0.17610  -1.26690
  27   39011.1    256.3   0.015326314   0.12934  -0.06136   0.26494   0.23533
  28   39307.3    254.4   0.199617424   1.67186   0.26878  -1.25287  -0.17300
  29   39636.1    252.3   0.065631031   0.54512  -0.07033   0.44587  -0.58427
  30   40064.3    249.6   0.060225431   0.49488  -0.04392   0.44606   0.54220

FINAL SINGLE POINT ENERGY     -4318.468567559860

DIPOLE MOMENT
-------------
                                X             Y             Z
Electronic contribution:     36.85724     107.79645       9.30922
Nuclear contribution   :    -36.33490    -109.86278     -10.14864
                        -----------------------------------------
Total Dipole Moment    :      0.52233      -2.06634      -0.83942
                        -----------------------------------------
Magnitude (a.u.)       :      2.29068
Magnitude (Debye)      :      5.82244

Rotational constants in cm-1:     0.000480     0.000267     0.000179
Rotational constants in MHz :    14.386694     7.998276     5.363345

                             ****ORCA TERMINATED NORMALLY****
TOTAL RUN TIME: 0 days 0 hours 13 minutes 9 seconds 465 msec
