                         Program Version 4.2.0 -  RELEASE  -
|  1> # ORCA input file
|  2> # SCF done       -194.674335249045          0.000519724470
|  3> ! CAM-B3LYP def2-SVP def2/J RIJCOSX Grid4 TightSCF
|  4> %maxcore 5000
|  5> %tddft
|  6>     Mode sTDDFT
|  7>     Ethresh 5.0
|  8>     maxcore 5000
|  9> end
| 10>
| 11> %pal
| 12>   nprocs 6
| 13>   end
| 14> * xyz 0 1
| 15>    C       -1.23952        -1.51510        -2.80444
| 16>    C       -2.18064        -1.77157        -3.92212
| 17>    O       -2.84455        -2.75753        -4.16077
| 18>    C       -2.19546        -0.52183        -4.71671
| 19>    C       -1.27302         0.39493        -4.18746
| 20>    C       -0.61736        -0.21768        -3.03864
| 21>    C        0.45084         0.30857        -2.36280
| 22>    C        1.02417         1.56528        -2.65200
| 23>    N        1.53111         2.57908        -2.83340
| 24>    C        1.16044        -0.32960        -1.32211
| 25>    N        1.80918        -0.78043        -0.48865
| 26>    C       -1.13233         1.64161        -4.78144
| 27>    C       -1.90905         1.94575        -5.88831
| 28>    C       -2.81355         1.02217        -6.40161
| 29>    C       -2.97126        -0.22979        -5.81963
| 30>   Cl       -3.75580         1.44141        -7.78206
| 31>    C       -1.10189        -2.20868        -1.63683
| 32>    C       -1.60628        -3.48629        -1.23694
| 33>    C       -1.93168        -4.50095        -2.14336
| 34>    C       -2.43652        -5.68631        -1.64815
| 35>    C       -2.60026        -5.90214        -0.25320
| 36>    C       -2.23377        -4.90178         0.64575
| 37>    C       -1.73646        -3.72159         0.15377
| 38>    C       -3.13707        -7.21567        -0.11109
| 39>    C       -3.27422        -7.73803        -1.42376
| 40>    N       -2.85058        -6.80191        -2.33226
| 41>    C       -2.88113        -6.92771        -3.76214
| 42>    C       -3.78140        -9.01125        -1.63586
| 43>    C       -4.17748        -9.75975        -0.53550
| 44>    C       -4.04347        -9.23755         0.76190
| 45>    C       -3.52294        -7.98432         0.98388
| 46>    C       -4.75405       -11.09883        -0.72436
| 47>    C       -4.16374       -11.99907        -1.60350
| 48>    C       -4.74257       -13.24908        -1.75623
| 49>    C       -5.92486       -13.59670        -1.05801
| 50>    C       -6.50695       -12.68586        -0.18584
| 51>    C       -5.91363       -11.45393        -0.02049
| 52>    C       -6.25838       -14.92788        -1.46551
| 53>    C       -5.25721       -15.32912        -2.38372
| 54>    N       -4.34648       -14.31032        -2.53499
| 55>    C       -3.19047       -14.33671        -3.38413
| 56>    C       -5.29377       -16.58001        -2.97977
| 57>    C       -6.34365       -17.43369        -2.66375
| 58>    C       -7.33317       -17.03181        -1.75494
| 59>    C       -7.29716       -15.79457        -1.15118
| 60>    C       -6.42730       -18.76814        -3.27551
| 61>    C       -7.64514       -19.22563        -3.76174
| 62>    C       -7.70885       -20.49925        -4.30435
| 63>    C       -6.55804       -21.32719        -4.35572
| 64>    C       -5.34172       -20.85269        -3.87457
| 65>    C       -5.28651       -19.58255        -3.34771
| 66>    C       -6.97463       -22.56424        -4.93559
| 67>    C       -8.35762       -22.42147        -5.22404
| 68>    N       -8.77680       -21.17361        -4.84328
| 69>    C      -10.13039       -20.70893        -4.95233
| 70>    C       -9.08082       -23.44561        -5.80495
| 71>    C       -8.43691       -24.66380        -6.02776
| 72>    C       -7.06359       -24.80219        -5.74328
| 73>    C       -6.32959       -23.76264        -5.22354
| 74>    C       -9.18755       -25.76328        -6.57594
| 75>    C       -9.03106       -27.08330        -6.31555
| 76>    C       -9.60035       -28.10697        -7.23193
| 77>    O      -10.40857       -27.92857        -8.11251
| 78>    C       -8.91895       -29.36982        -6.86475
| 79>    C       -8.10844       -29.15661        -5.73383
| 80>    C       -8.27693       -27.77779        -5.28621
| 81>    C       -8.00131       -27.30808        -4.03079
| 82>    C       -7.32378       -28.05556        -3.04586
| 83>    N       -6.75771       -28.61836        -2.22096
| 84>    C       -8.45083       -26.06292        -3.54048
| 85>    N       -8.86081       -25.10745        -3.05478
| 86>    C       -7.35335       -30.20275        -5.22362
| 87>    C       -7.42291       -31.44036        -5.84329
| 88>    C       -8.23864       -31.63746        -6.95291
| 89>    C       -8.99918       -30.60126        -7.48219
| 90>   Cl       -8.30445       -33.19629        -7.68364
| 91>    H       -0.44233         2.37567        -4.39899
| 92>    H       -1.81408         2.91110        -6.36017
| 93>    H       -3.67174        -0.95231        -6.20762
| 94>    H       -0.56847        -1.69212        -0.84600
| 95>    H       -1.77172        -4.36097        -3.19701
| 96>    H       -2.33657        -5.05898         1.70850
| 97>    H       -1.45131        -2.93535         0.83704
| 98>    H       -3.67716        -7.61199        -4.05234
| 99>    H       -1.92967        -7.30737        -4.14750
|100>    H       -3.07926        -5.95319        -4.20788
|101>    H       -3.89624        -9.41349        -2.63121
|102>    H       -4.34009        -9.85188         1.59858
|103>    H       -3.41653        -7.59767         1.98601
|104>    H       -3.26267       -11.72540        -2.13213
|105>    H       -7.40843       -12.94161         0.35009
|106>    H       -6.36100       -10.72777         0.64157
|107>    H       -2.83207       -15.36055        -3.48297
|108>    H       -2.39710       -13.73361        -2.94285
|109>    H       -3.41750       -13.94589        -4.38169
|110>    H       -4.54809       -16.88657        -3.69810
|111>    H       -8.12428       -17.72474        -1.50999
|112>    H       -8.06073       -15.50006        -0.44720
|113>    H       -8.51095       -18.58182        -3.72269
|114>    H       -4.46132       -21.47634        -3.90965
|115>    H       -4.35565       -19.20623        -2.95036
|116>    H      -10.43071       -20.63885        -6.00147
|117>    H      -10.21602       -19.72517        -4.49822
|118>    H      -10.80771       -21.39436        -4.43742
|119>    H      -10.13190       -23.34327        -6.02673
|120>    H       -6.57665       -25.73704        -5.98076
|121>    H       -5.27418       -23.87697        -5.02876
|122>    H       -9.93511       -25.52023        -7.32473
|123>    H       -6.71175       -30.06825        -4.36771
|124>    H       -6.84007       -32.26438        -5.46268
|125>    H       -9.63337       -30.74615        -8.34239
|126> *
|127>
|128>                          ****END OF INPUT****

CARTESIAN COORDINATES (ANGSTROEM)
---------------------------------
  C     -1.239520   -1.515100   -2.804440
  C     -2.180640   -1.771570   -3.922120
  O     -2.844550   -2.757530   -4.160770
  C     -2.195460   -0.521830   -4.716710
  C     -1.273020    0.394930   -4.187460
  C     -0.617360   -0.217680   -3.038640
  C      0.450840    0.308570   -2.362800
  C      1.024170    1.565280   -2.652000
  N      1.531110    2.579080   -2.833400
  C      1.160440   -0.329600   -1.322110
  N      1.809180   -0.780430   -0.488650
  C     -1.132330    1.641610   -4.781440
  C     -1.909050    1.945750   -5.888310
  C     -2.813550    1.022170   -6.401610
  C     -2.971260   -0.229790   -5.819630
  Cl    -3.755800    1.441410   -7.782060
  C     -1.101890   -2.208680   -1.636830
  C     -1.606280   -3.486290   -1.236940
  C     -1.931680   -4.500950   -2.143360
  C     -2.436520   -5.686310   -1.648150
  C     -2.600260   -5.902140   -0.253200
  C     -2.233770   -4.901780    0.645750
  C     -1.736460   -3.721590    0.153770
  C     -3.137070   -7.215670   -0.111090
  C     -3.274220   -7.738030   -1.423760
  N     -2.850580   -6.801910   -2.332260
  C     -2.881130   -6.927710   -3.762140
  C     -3.781400   -9.011250   -1.635860
  C     -4.177480   -9.759750   -0.535500
  C     -4.043470   -9.237550    0.761900
  C     -3.522940   -7.984320    0.983880
  C     -4.754050  -11.098830   -0.724360
  C     -4.163740  -11.999070   -1.603500
  C     -4.742570  -13.249080   -1.756230
  C     -5.924860  -13.596700   -1.058010
  C     -6.506950  -12.685860   -0.185840
  C     -5.913630  -11.453930   -0.020490
  C     -6.258380  -14.927880   -1.465510
  C     -5.257210  -15.329120   -2.383720
  N     -4.346480  -14.310320   -2.534990
  C     -3.190470  -14.336710   -3.384130
  C     -5.293770  -16.580010   -2.979770
  C     -6.343650  -17.433690   -2.663750
  C     -7.333170  -17.031810   -1.754940
  C     -7.297160  -15.794570   -1.151180
  C     -6.427300  -18.768140   -3.275510
  C     -7.645140  -19.225630   -3.761740
  C     -7.708850  -20.499250   -4.304350
  C     -6.558040  -21.327190   -4.355720
  C     -5.341720  -20.852690   -3.874570
  C     -5.286510  -19.582550   -3.347710
  C     -6.974630  -22.564240   -4.935590
  C     -8.357620  -22.421470   -5.224040
  N     -8.776800  -21.173610   -4.843280
  C    -10.130390  -20.708930   -4.952330
  C     -9.080820  -23.445610   -5.804950
  C     -8.436910  -24.663800   -6.027760
  C     -7.063590  -24.802190   -5.743280
  C     -6.329590  -23.762640   -5.223540
  C     -9.187550  -25.763280   -6.575940
  C     -9.031060  -27.083300   -6.315550
  C     -9.600350  -28.106970   -7.231930
  O    -10.408570  -27.928570   -8.112510
  C     -8.918950  -29.369820   -6.864750
  C     -8.108440  -29.156610   -5.733830
  C     -8.276930  -27.777790   -5.286210
  C     -8.001310  -27.308080   -4.030790
  C     -7.323780  -28.055560   -3.045860
  N     -6.757710  -28.618360   -2.220960
  C     -8.450830  -26.062920   -3.540480
  N     -8.860810  -25.107450   -3.054780
  C     -7.353350  -30.202750   -5.223620
  C     -7.422910  -31.440360   -5.843290
  C     -8.238640  -31.637460   -6.952910
  C     -8.999180  -30.601260   -7.482190
  Cl    -8.304450  -33.196290   -7.683640
  H     -0.442330    2.375670   -4.398990
  H     -1.814080    2.911100   -6.360170
  H     -3.671740   -0.952310   -6.207620
  H     -0.568470   -1.692120   -0.846000
  H     -1.771720   -4.360970   -3.197010
  H     -2.336570   -5.058980    1.708500
  H     -1.451310   -2.935350    0.837040
  H     -3.677160   -7.611990   -4.052340
  H     -1.929670   -7.307370   -4.147500
  H     -3.079260   -5.953190   -4.207880
  H     -3.896240   -9.413490   -2.631210
  H     -4.340090   -9.851880    1.598580
  H     -3.416530   -7.597670    1.986010
  H     -3.262670  -11.725400   -2.132130
  H     -7.408430  -12.941610    0.350090
  H     -6.361000  -10.727770    0.641570
  H     -2.832070  -15.360550   -3.482970
  H     -2.397100  -13.733610   -2.942850
  H     -3.417500  -13.945890   -4.381690
  H     -4.548090  -16.886570   -3.698100
  H     -8.124280  -17.724740   -1.509990
  H     -8.060730  -15.500060   -0.447200
  H     -8.510950  -18.581820   -3.722690
  H     -4.461320  -21.476340   -3.909650
  H     -4.355650  -19.206230   -2.950360
  H    -10.430710  -20.638850   -6.001470
  H    -10.216020  -19.725170   -4.498220
  H    -10.807710  -21.394360   -4.437420
  H    -10.131900  -23.343270   -6.026730
  H     -6.576650  -25.737040   -5.980760
  H     -5.274180  -23.876970   -5.028760
  H     -9.935110  -25.520230   -7.324730
  H     -6.711750  -30.068250   -4.367710
  H     -6.840070  -32.264380   -5.462680
  H     -9.633370  -30.746150   -8.342390

 Total Charge           Charge          ....    0
 Multiplicity           Mult            ....    1
 Number of Electrons    NEL             ....  524
 Basis Dimension        Dim             .... 1247

ORBITAL ENERGIES
----------------

  NO   OCC          E(Eh)            E(eV)
   0   2.0000    -101.597025     -2764.5956
   1   2.0000    -101.596111     -2764.5707
   2   2.0000     -19.222696      -523.0762
   3   2.0000     -19.218504      -522.9621
   4   2.0000     -14.456634      -393.3850
   5   2.0000     -14.456078      -393.3699
   6   2.0000     -14.451063      -393.2334
   7   2.0000     -14.416138      -392.2831
   8   2.0000     -14.415256      -392.2591
   9   2.0000     -14.415173      -392.2568
  10   2.0000     -14.410332      -392.1251
  11   2.0000     -10.374655      -282.3087
  12   2.0000     -10.369313      -282.1634
  13   2.0000     -10.350025      -281.6385
  14   2.0000     -10.349267      -281.6179
  15   2.0000     -10.343749      -281.4677
  16   2.0000     -10.343532      -281.4618
  17   2.0000     -10.341871      -281.4166
  18   2.0000     -10.341755      -281.4135
  19   2.0000     -10.318434      -280.7789
  20   2.0000     -10.318065      -280.7688
  21   2.0000     -10.317971      -280.7663
  22   2.0000     -10.317323      -280.7486
  23   2.0000     -10.316308      -280.7210
  24   2.0000     -10.315072      -280.6874
  25   2.0000     -10.314848      -280.6813
  26   2.0000     -10.314308      -280.6666
  27   2.0000     -10.312526      -280.6181
  28   2.0000     -10.310808      -280.5713
  29   2.0000     -10.310297      -280.5574
  30   2.0000     -10.309817      -280.5444
  31   2.0000     -10.308959      -280.5210
  32   2.0000     -10.308759      -280.5156
  33   2.0000     -10.308285      -280.5027
  34   2.0000     -10.303997      -280.3860
  35   2.0000     -10.303924      -280.3840
  36   2.0000     -10.303737      -280.3789
  37   2.0000     -10.303450      -280.3711
  38   2.0000     -10.303304      -280.3671
  39   2.0000     -10.303027      -280.3596
  40   2.0000     -10.302601      -280.3480
  41   2.0000     -10.302456      -280.3441
  42   2.0000     -10.300188      -280.2824
  43   2.0000     -10.299757      -280.2706
  44   2.0000     -10.298487      -280.2361
  45   2.0000     -10.295529      -280.1556
  46   2.0000     -10.287795      -279.9451
  47   2.0000     -10.287759      -279.9442
  48   2.0000     -10.281697      -279.7792
  49   2.0000     -10.279431      -279.7175
  50   2.0000     -10.279270      -279.7131
  51   2.0000     -10.278988      -279.7055
  52   2.0000     -10.276694      -279.6431
  53   2.0000     -10.276617      -279.6410
  54   2.0000     -10.276304      -279.6324
  55   2.0000     -10.275902      -279.6215
  56   2.0000     -10.274688      -279.5885
  57   2.0000     -10.274477      -279.5827
  58   2.0000     -10.274137      -279.5735
  59   2.0000     -10.273317      -279.5512
  60   2.0000     -10.273166      -279.5470
  61   2.0000     -10.271857      -279.5114
  62   2.0000     -10.270742      -279.4811
  63   2.0000     -10.269271      -279.4411
  64   2.0000     -10.268152      -279.4106
  65   2.0000     -10.267955      -279.4053
  66   2.0000     -10.267798      -279.4010
  67   2.0000     -10.267504      -279.3930
  68   2.0000     -10.266869      -279.3757
  69   2.0000     -10.266623      -279.3690
  70   2.0000     -10.262993      -279.2702
  71   2.0000     -10.262524      -279.2575
  72   2.0000     -10.262328      -279.2521
  73   2.0000     -10.260815      -279.2110
  74   2.0000     -10.258623      -279.1513
  75   2.0000     -10.258033      -279.1353
  76   2.0000      -9.552119      -259.9264
  77   2.0000      -9.551210      -259.9016
  78   2.0000      -7.322324      -199.2506
  79   2.0000      -7.321418      -199.2259
  80   2.0000      -7.312386      -198.9801
  81   2.0000      -7.311863      -198.9659
  82   2.0000      -7.311467      -198.9551
  83   2.0000      -7.310962      -198.9414
  84   2.0000      -1.137598       -30.9556
  85   2.0000      -1.133491       -30.8439
  86   2.0000      -1.088104       -29.6088
  87   2.0000      -1.087234       -29.5851
  88   2.0000      -1.081035       -29.4165
  89   2.0000      -1.021207       -27.7885
  90   2.0000      -1.020490       -27.7690
  91   2.0000      -1.006962       -27.4008
  92   2.0000      -1.005588       -27.3634
  93   2.0000      -0.993684       -27.0395
  94   2.0000      -0.991972       -26.9929
  95   2.0000      -0.983665       -26.7669
  96   2.0000      -0.982429       -26.7332
  97   2.0000      -0.957554       -26.0564
  98   2.0000      -0.956768       -26.0350
  99   2.0000      -0.956450       -26.0263
 100   2.0000      -0.955044       -25.9881
 101   2.0000      -0.937412       -25.5083
 102   2.0000      -0.934326       -25.4243
 103   2.0000      -0.932215       -25.3669
 104   2.0000      -0.930796       -25.3282
 105   2.0000      -0.907546       -24.6956
 106   2.0000      -0.905276       -24.6338
 107   2.0000      -0.897228       -24.4148
 108   2.0000      -0.893206       -24.3054
 109   2.0000      -0.881852       -23.9964
 110   2.0000      -0.869033       -23.6476
 111   2.0000      -0.864403       -23.5216
 112   2.0000      -0.859186       -23.3796
 113   2.0000      -0.856138       -23.2967
 114   2.0000      -0.847736       -23.0681
 115   2.0000      -0.846904       -23.0454
 116   2.0000      -0.841945       -22.9105
 117   2.0000      -0.840551       -22.8726
 118   2.0000      -0.835957       -22.7476
 119   2.0000      -0.833329       -22.6760
 120   2.0000      -0.827876       -22.5276
 121   2.0000      -0.812390       -22.1062
 122   2.0000      -0.797102       -21.6903
 123   2.0000      -0.785770       -21.3819
 124   2.0000      -0.781208       -21.2577
 125   2.0000      -0.776009       -21.1163
 126   2.0000      -0.771585       -20.9959
 127   2.0000      -0.769322       -20.9343
 128   2.0000      -0.767384       -20.8816
 129   2.0000      -0.762968       -20.7614
 130   2.0000      -0.735925       -20.0255
 131   2.0000      -0.722723       -19.6663
 132   2.0000      -0.710566       -19.3355
 133   2.0000      -0.708249       -19.2724
 134   2.0000      -0.705010       -19.1843
 135   2.0000      -0.701132       -19.0788
 136   2.0000      -0.697719       -18.9859
 137   2.0000      -0.692915       -18.8552
 138   2.0000      -0.691831       -18.8257
 139   2.0000      -0.686804       -18.6889
 140   2.0000      -0.681234       -18.5373
 141   2.0000      -0.680926       -18.5289
 142   2.0000      -0.674429       -18.3521
 143   2.0000      -0.669773       -18.2255
 144   2.0000      -0.662886       -18.0380
 145   2.0000      -0.661234       -17.9931
 146   2.0000      -0.653193       -17.7743
 147   2.0000      -0.647173       -17.6105
 148   2.0000      -0.631234       -17.1767
 149   2.0000      -0.622450       -16.9377
 150   2.0000      -0.617461       -16.8020
 151   2.0000      -0.616243       -16.7688
 152   2.0000      -0.612441       -16.6654
 153   2.0000      -0.612024       -16.6540
 154   2.0000      -0.606968       -16.5164
 155   2.0000      -0.602650       -16.3989
 156   2.0000      -0.594175       -16.1683
 157   2.0000      -0.592342       -16.1184
 158   2.0000      -0.589742       -16.0477
 159   2.0000      -0.579987       -15.7823
 160   2.0000      -0.577139       -15.7048
 161   2.0000      -0.575943       -15.6722
 162   2.0000      -0.569311       -15.4917
 163   2.0000      -0.564219       -15.3532
 164   2.0000      -0.561080       -15.2678
 165   2.0000      -0.560720       -15.2580
 166   2.0000      -0.559023       -15.2118
 167   2.0000      -0.557048       -15.1580
 168   2.0000      -0.552070       -15.0226
 169   2.0000      -0.548905       -14.9365
 170   2.0000      -0.546493       -14.8708
 171   2.0000      -0.544609       -14.8196
 172   2.0000      -0.543571       -14.7913
 173   2.0000      -0.541171       -14.7260
 174   2.0000      -0.539331       -14.6759
 175   2.0000      -0.536906       -14.6100
 176   2.0000      -0.535574       -14.5737
 177   2.0000      -0.534762       -14.5516
 178   2.0000      -0.530451       -14.4343
 179   2.0000      -0.528544       -14.3824
 180   2.0000      -0.526811       -14.3353
 181   2.0000      -0.524963       -14.2850
 182   2.0000      -0.523494       -14.2450
 183   2.0000      -0.521700       -14.1962
 184   2.0000      -0.518924       -14.1207
 185   2.0000      -0.518161       -14.0999
 186   2.0000      -0.516947       -14.0669
 187   2.0000      -0.514332       -13.9957
 188   2.0000      -0.512261       -13.9393
 189   2.0000      -0.509602       -13.8670
 190   2.0000      -0.503675       -13.7057
 191   2.0000      -0.501504       -13.6466
 192   2.0000      -0.501183       -13.6379
 193   2.0000      -0.497326       -13.5329
 194   2.0000      -0.495966       -13.4959
 195   2.0000      -0.491929       -13.3861
 196   2.0000      -0.488172       -13.2838
 197   2.0000      -0.486538       -13.2394
 198   2.0000      -0.484621       -13.1872
 199   2.0000      -0.483808       -13.1651
 200   2.0000      -0.483284       -13.1508
 201   2.0000      -0.482749       -13.1363
 202   2.0000      -0.481606       -13.1052
 203   2.0000      -0.478859       -13.0304
 204   2.0000      -0.476425       -12.9642
 205   2.0000      -0.470790       -12.8109
 206   2.0000      -0.468449       -12.7472
 207   2.0000      -0.462899       -12.5961
 208   2.0000      -0.459490       -12.5034
 209   2.0000      -0.456052       -12.4098
 210   2.0000      -0.454925       -12.3791
 211   2.0000      -0.453091       -12.3292
 212   2.0000      -0.450341       -12.2544
 213   2.0000      -0.448244       -12.1973
 214   2.0000      -0.447889       -12.1877
 215   2.0000      -0.446345       -12.1457
 216   2.0000      -0.443030       -12.0554
 217   2.0000      -0.442245       -12.0341
 218   2.0000      -0.440590       -11.9891
 219   2.0000      -0.438453       -11.9309
 220   2.0000      -0.435586       -11.8529
 221   2.0000      -0.433105       -11.7854
 222   2.0000      -0.431244       -11.7348
 223   2.0000      -0.427388       -11.6298
 224   2.0000      -0.426231       -11.5983
 225   2.0000      -0.425025       -11.5655
 226   2.0000      -0.423061       -11.5121
 227   2.0000      -0.421352       -11.4656
 228   2.0000      -0.420003       -11.4289
 229   2.0000      -0.419182       -11.4065
 230   2.0000      -0.416811       -11.3420
 231   2.0000      -0.413868       -11.2619
 232   2.0000      -0.411918       -11.2089
 233   2.0000      -0.408951       -11.1281
 234   2.0000      -0.407722       -11.0947
 235   2.0000      -0.405651       -11.0383
 236   2.0000      -0.400978       -10.9112
 237   2.0000      -0.396630       -10.7929
 238   2.0000      -0.394248       -10.7280
 239   2.0000      -0.394036       -10.7223
 240   2.0000      -0.393700       -10.7131
 241   2.0000      -0.390464       -10.6251
 242   2.0000      -0.372299       -10.1308
 243   2.0000      -0.367265        -9.9938
 244   2.0000      -0.354368        -9.6428
 245   2.0000      -0.352370        -9.5885
 246   2.0000      -0.351902        -9.5757
 247   2.0000      -0.345835        -9.4106
 248   2.0000      -0.340238        -9.2583
 249   2.0000      -0.333261        -9.0685
 250   2.0000      -0.329798        -8.9743
 251   2.0000      -0.328910        -8.9501
 252   2.0000      -0.323649        -8.8069
 253   2.0000      -0.323522        -8.8035
 254   2.0000      -0.309595        -8.4245
 255   2.0000      -0.307596        -8.3701
 256   2.0000      -0.285993        -7.7823
 257   2.0000      -0.269719        -7.3394
 258   2.0000      -0.268338        -7.3018
 259   2.0000      -0.268244        -7.2993
 260   2.0000      -0.262970        -7.1558
 261   2.0000      -0.251325        -6.8389
 262   0.0000      -0.085798        -2.3347
 263   0.0000      -0.083912        -2.2834
 264   0.0000      -0.064404        -1.7525
 265   0.0000      -0.059632        -1.6227
 266   0.0000      -0.020350        -0.5538

MULLIKEN ATOMIC CHARGES
-----------------------
   0 C :   -0.076201
   1 C :    0.153331
   2 O :   -0.153932
   3 C :   -0.027302
   4 C :    0.036392
   5 C :    0.290278
   6 C :   -0.341299
   7 C :   -0.189726
   8 N :    0.154657
   9 C :   -0.206463
  10 N :    0.165828
  11 C :   -0.028082
  12 C :    0.049650
  13 C :    0.072459
  14 C :   -0.015922
  15 Cl:   -0.070032
  16 C :   -0.029428
  17 C :    0.067815
  18 C :   -0.064424
  19 C :    0.143130
  20 C :    0.072687
  21 C :   -0.043488
  22 C :   -0.002505
  23 C :    0.047288
  24 C :    0.180898
  25 N :   -0.192108
  26 C :    0.117217
  27 C :   -0.142631
  28 C :    0.078093
  29 C :   -0.008687
  30 C :   -0.039203
  31 C :    0.073033
  32 C :   -0.139293
  33 C :    0.170423
  34 C :    0.061947
  35 C :   -0.045419
  36 C :   -0.012895
  37 C :    0.064519
  38 C :    0.166686
  39 N :   -0.194110
  40 C :    0.126808
  41 C :   -0.138930
  42 C :    0.073294
  43 C :   -0.014886
  44 C :   -0.047152
  45 C :    0.073372
  46 C :   -0.136434
  47 C :    0.168481
  48 C :    0.058165
  49 C :   -0.040605
  50 C :   -0.011497
  51 C :    0.084232
  52 C :    0.177546
  53 N :   -0.188098
  54 C :    0.129117
  55 C :   -0.114273
  56 C :    0.038630
  57 C :    0.019298
  58 C :   -0.045658
  59 C :    0.034186
  60 C :   -0.110211
  61 C :    0.138048
  62 O :   -0.137075
  63 C :   -0.015075
  64 C :    0.024303
  65 C :    0.249128
  66 C :   -0.325193
  67 C :   -0.187097
  68 N :    0.154920
  69 C :   -0.186221
  70 N :    0.175775
  71 C :   -0.031767
  72 C :    0.048630
  73 C :    0.072678
  74 C :   -0.015454
  75 Cl:   -0.070349
  76 H :    0.009152
  77 H :   -0.001374
  78 H :   -0.006054
  79 H :    0.024716
  80 H :   -0.025301
  81 H :   -0.026475
  82 H :   -0.016442
  83 H :    0.038806
  84 H :    0.034862
  85 H :    0.056062
  86 H :   -0.047987
  87 H :   -0.024737
  88 H :   -0.030908
  89 H :   -0.050927
  90 H :   -0.034932
  91 H :   -0.027902
  92 H :    0.037638
  93 H :    0.038447
  94 H :    0.033381
  95 H :   -0.047366
  96 H :   -0.029423
  97 H :   -0.035027
  98 H :   -0.042276
  99 H :   -0.032558
 100 H :   -0.031521
 101 H :    0.035706
 102 H :    0.036976
 103 H :    0.044613
 104 H :   -0.041073
 105 H :   -0.016511
 106 H :   -0.028660
 107 H :    0.025015
 108 H :    0.009953
 109 H :    0.000157
 110 H :   -0.001850
Sum of atomic charges:    0.0000000

LOEWDIN ATOMIC CHARGES
----------------------
   0 C :   -0.104147
   1 C :    0.087357
   2 O :   -0.140784
   3 C :   -0.036714
   4 C :   -0.019421
   5 C :    0.076527
   6 C :   -0.138458
   7 C :   -0.018708
   8 N :   -0.051815
   9 C :   -0.027038
  10 N :   -0.047332
  11 C :    0.008973
  12 C :   -0.018824
  13 C :   -0.106101
  14 C :   -0.007166
  15 Cl:    0.141701
  16 C :    0.090075
  17 C :   -0.046918
  18 C :   -0.007930
  19 C :    0.024595
  20 C :   -0.017048
  21 C :   -0.017926
  22 C :   -0.015152
  23 C :   -0.053062
  24 C :    0.039952
  25 N :    0.016216
  26 C :    0.036863
  27 C :   -0.059452
  28 C :    0.001032
  29 C :   -0.040621
  30 C :   -0.002586
  31 C :   -0.011998
  32 C :   -0.059072
  33 C :    0.032082
  34 C :   -0.044277
  35 C :   -0.009207
  36 C :   -0.041707
  37 C :   -0.045175
  38 C :    0.032533
  39 N :    0.010488
  40 C :    0.036718
  41 C :   -0.057795
  42 C :   -0.010632
  43 C :   -0.043414
  44 C :   -0.009826
  45 C :   -0.002389
  46 C :   -0.056933
  47 C :    0.039465
  48 C :   -0.049258
  49 C :   -0.004714
  50 C :   -0.042575
  51 C :   -0.020764
  52 C :    0.035383
  53 N :    0.017323
  54 C :    0.038074
  55 C :   -0.026662
  56 C :   -0.043824
  57 C :   -0.027513
  58 C :   -0.007003
  59 C :    0.088178
  60 C :   -0.095299
  61 C :    0.084695
  62 O :   -0.136735
  63 C :   -0.039738
  64 C :   -0.016333
  65 C :    0.065915
  66 C :   -0.129088
  67 C :   -0.019512
  68 N :   -0.050775
  69 C :   -0.016748
  70 N :   -0.042684
  71 C :    0.006086
  72 C :   -0.017818
  73 C :   -0.106916
  74 C :   -0.005287
  75 Cl:    0.142045
  76 H :    0.043012
  77 H :    0.039411
  78 H :    0.041969
  79 H :    0.046474
  80 H :    0.028129
  81 H :    0.031183
  82 H :    0.030282
  83 H :    0.033234
  84 H :    0.026646
  85 H :    0.039701
  86 H :    0.023934
  87 H :    0.027356
  88 H :    0.029427
  89 H :    0.022500
  90 H :    0.027885
  91 H :    0.025644
  92 H :    0.032849
  93 H :    0.032456
  94 H :    0.025559
  95 H :    0.023738
  96 H :    0.024632
  97 H :    0.027743
  98 H :    0.024765
  99 H :    0.028673
 100 H :    0.024591
 101 H :    0.028353
 102 H :    0.035377
 103 H :    0.032995
 104 H :    0.028445
 105 H :    0.026524
 106 H :    0.030886
 107 H :    0.046319
 108 H :    0.042701
 109 H :    0.039577
 110 H :    0.043632

  Mayer bond orders larger than 0.100000
B(  0-C ,  1-C ) :   0.9431 B(  0-C ,  5-C ) :   1.0577 B(  0-C , 16-C ) :   1.5766
B(  1-C ,  2-O ) :   2.1984 B(  1-C ,  3-C ) :   0.9452 B(  3-C ,  4-C ) :   1.3332
B(  3-C , 14-C ) :   1.3651 B(  4-C ,  5-C ) :   0.9981 B(  4-C , 11-C ) :   1.3565
B(  5-C ,  6-C ) :   1.6488 B(  6-C ,  7-C ) :   1.1380 B(  6-C ,  9-C ) :   1.1365
B(  7-C ,  8-N ) :   2.9809 B(  9-C , 10-N ) :   3.0015 B( 11-C , 12-C ) :   1.3734
B( 11-C , 76-H ) :   0.9838 B( 12-C , 13-C ) :   1.3822 B( 12-C , 77-H ) :   0.9878
B( 13-C , 14-C ) :   1.3330 B( 13-C , 15-Cl) :   0.9870 B( 14-C , 78-H ) :   1.0119
B( 16-C , 17-C ) :   1.1361 B( 16-C , 79-H ) :   0.9516 B( 17-C , 18-C ) :   1.3248
B( 17-C , 22-C ) :   1.2465 B( 18-C , 19-C ) :   1.3352 B( 18-C , 80-H ) :   0.9867
B( 19-C , 20-C ) :   1.2690 B( 19-C , 25-N ) :   1.1204 B( 20-C , 21-C ) :   1.3027
B( 20-C , 23-C ) :   1.1122 B( 21-C , 22-C ) :   1.4324 B( 21-C , 81-H ) :   0.9995
B( 22-C , 82-H ) :   0.9932 B( 23-C , 24-C ) :   1.2898 B( 23-C , 30-C ) :   1.3073
B( 24-C , 25-N ) :   1.1321 B( 24-C , 27-C ) :   1.2706 B( 25-N , 26-C ) :   0.9749
B( 26-C , 83-H ) :   0.9677 B( 26-C , 84-H ) :   0.9743 B( 26-C , 85-H ) :   0.9661
B( 27-C , 28-C ) :   1.3912 B( 27-C , 86-H ) :   1.0067 B( 28-C , 29-C ) :   1.3344
B( 28-C , 31-C ) :   0.9493 B( 29-C , 30-C ) :   1.4150 B( 29-C , 87-H ) :   0.9886
B( 30-C , 88-H ) :   0.9998 B( 31-C , 32-C ) :   1.3769 B( 31-C , 36-C ) :   1.3524
B( 32-C , 33-C ) :   1.2813 B( 32-C , 89-H ) :   1.0056 B( 33-C , 34-C ) :   1.2962
B( 33-C , 39-N ) :   1.1196 B( 34-C , 35-C ) :   1.3273 B( 34-C , 37-C ) :   1.0892
B( 35-C , 36-C ) :   1.3983 B( 35-C , 90-H ) :   0.9995 B( 36-C , 91-H ) :   0.9876
B( 37-C , 38-C ) :   1.2955 B( 37-C , 44-C ) :   1.3274 B( 38-C , 39-N ) :   1.1196
B( 38-C , 41-C ) :   1.2828 B( 39-N , 40-C ) :   0.9828 B( 40-C , 92-H ) :   0.9678
B( 40-C , 93-H ) :   0.9677 B( 40-C , 94-H ) :   0.9742 B( 41-C , 42-C ) :   1.3786
B( 41-C , 95-H ) :   1.0064 B( 42-C , 43-C ) :   1.3511 B( 42-C , 45-C ) :   0.9488
B( 43-C , 44-C ) :   1.3983 B( 43-C , 96-H ) :   0.9867 B( 44-C , 97-H ) :   0.9994
B( 45-C , 46-C ) :   1.3951 B( 45-C , 50-C ) :   1.3421 B( 46-C , 47-C ) :   1.2773
B( 46-C , 98-H ) :   1.0026 B( 47-C , 48-C ) :   1.2929 B( 47-C , 53-N ) :   1.1204
B( 48-C , 49-C ) :   1.3166 B( 48-C , 51-C ) :   1.1038 B( 49-C , 50-C ) :   1.4106
B( 49-C , 99-H ) :   0.9985 B( 50-C ,100-H ) :   0.9864 B( 51-C , 52-C ) :   1.2742
B( 51-C , 58-C ) :   1.3164 B( 52-C , 53-N ) :   1.1333 B( 52-C , 55-C ) :   1.2944
B( 53-N , 54-C ) :   0.9802 B( 54-C ,101-H ) :   0.9698 B( 54-C ,102-H ) :   0.9707
B( 54-C ,103-H ) :   0.9684 B( 55-C , 56-C ) :   1.3138 B( 55-C ,104-H ) :   1.0114
B( 56-C , 57-C ) :   1.3095 B( 56-C , 59-C ) :   1.0380 B( 57-C , 58-C ) :   1.4226
B( 57-C ,105-H ) :   0.9838 B( 58-C ,106-H ) :   0.9984 B( 59-C , 60-C ) :   1.7060
B( 59-C ,107-H ) :   0.9488 B( 60-C , 61-C ) :   0.9389 B( 60-C , 65-C ) :   1.0182
B( 61-C , 62-O ) :   2.2778 B( 61-C , 63-C ) :   0.9148 B( 63-C , 64-C ) :   1.3332
B( 63-C , 74-C ) :   1.3664 B( 64-C , 65-C ) :   1.0104 B( 64-C , 71-C ) :   1.3611
B( 65-C , 66-C ) :   1.6785 B( 66-C , 67-C ) :   1.1323 B( 66-C , 69-C ) :   1.1526
B( 67-C , 68-N ) :   2.9931 B( 69-C , 70-N ) :   3.0077 B( 71-C , 72-C ) :   1.3740
B( 71-C ,108-H ) :   0.9865 B( 72-C , 73-C ) :   1.3790 B( 72-C ,109-H ) :   0.9887
B( 73-C , 74-C ) :   1.3372 B( 73-C , 75-Cl) :   0.9875 B( 74-C ,110-H ) :   1.0121

-----------------------------------------------------------------------------
         ABSORPTION SPECTRUM VIA TRANSITION ELECTRIC DIPOLE MOMENTS
-----------------------------------------------------------------------------
State   Energy  Wavelength   fosc         T2         TX        TY        TZ
        (cm-1)    (nm)                  (au**2)     (au)      (au)      (au)
-----------------------------------------------------------------------------
   0   21896.4    456.7   0.650971613   9.78734   0.75187   3.03678   0.00246
   1   22815.5    438.3   0.898289713  12.96170   1.12901   3.37424  -0.54910
   2   23158.8    431.8   0.073073190   1.03877  -0.34423   0.94125   0.18524
   3   23836.8    419.5   0.347003692   4.79249  -0.75353  -1.78551   1.01816
   4   27023.9    370.0   0.087684596   1.06820   0.00039   0.91067  -0.48874
   5   28475.7    351.2   0.389956451   4.50834   0.67553   1.89200   0.68727
   6   28593.6    349.7   0.059739493   0.68781  -0.26529  -0.44811  -0.64547
   7   29341.9    340.8   0.015889107   0.17827   0.21131   0.00900  -0.36543
   8   29572.3    338.2   0.013664173   0.15212  -0.29464   0.07341   0.24478
   9   30009.6    333.2   0.056066733   0.61506   0.12488   0.19314   0.74978
  10   30217.7    330.9   0.023522526   0.25627  -0.37816   0.32195   0.09806
  11   30362.3    329.4   0.008632307   0.09360  -0.17668  -0.23517  -0.08412
  12   30811.7    324.6   0.099110664   1.05896   0.22911   0.93727   0.35775
  13   30979.6    322.8   0.105977963   1.12620   0.23054   0.93918  -0.43704
  14   31931.1    313.2   0.213995449   2.20631   0.74364  -0.72883   1.05930
  15   32328.8    309.3   0.640653922   6.52393  -0.40091  -2.03651  -1.48857
  16   32875.7    304.2   0.001293323   0.01295   0.10772  -0.01277  -0.03440
  17   32976.3    303.2   0.057050464   0.56955  -0.07506   0.74904   0.05342
  18   34261.4    291.9   0.045793130   0.44002   0.32736  -0.17669  -0.54921
  19   34420.1    290.5   0.082249256   0.78668  -0.39461  -0.58081  -0.54186
  20   34438.8    290.4   0.259373948   2.47944  -0.87865  -0.98241  -0.86156
  21   35022.2    285.5   0.051514829   0.48424   0.38989  -0.45840   0.34942
  22   35056.9    285.3   0.234848210   2.20541   0.85775  -0.97749   0.71707
  23   35286.6    283.4   0.672043499   6.26994   1.00966   2.16555   0.74896
  24   35445.9    282.1   0.250339311   2.32509   0.23879   1.13978   0.98436
  25   35455.7    282.0   0.287870837   2.67293  -0.16763  -1.12804  -1.17148
  26   35626.0    280.7   0.198212216   1.83163   0.68378  -0.38512   1.10261
  27   35976.4    278.0   0.003629027   0.03321  -0.16748  -0.04814  -0.05330
  28   36173.8    276.4   0.014972125   0.13626  -0.21779   0.28967   0.07012
  29   36607.2    273.2   0.712692857   6.40931   0.85956   2.25613   0.76182
  30   36968.8    270.5   0.131299227   1.16924  -0.08055   0.76966  -0.75523
  31   37069.0    269.8   0.013945957   0.12385   0.31730   0.15211  -0.00608
  32   37528.7    266.5   0.020473817   0.17960   0.28648  -0.30455   0.06911
  33   38249.8    261.4   0.086385025   0.74351   0.13015  -0.10939  -0.84534
  34   38835.7    257.5   0.017864926   0.15144  -0.32506   0.19898  -0.07862
  35   38938.2    256.8   0.252566269   2.13538  -1.03684  -0.68755  -0.76657
  36   39079.7    255.9   0.075110223   0.63274   0.24941  -0.41663   0.63004
  37   39138.4    255.5   0.137212059   1.15416  -0.32874  -0.35411  -0.95953
  38   39214.4    255.0   0.002139010   0.01796   0.13049   0.02525  -0.01712
  39   39613.3    252.4   0.032961633   0.27393  -0.32234  -0.40897   0.05268
  40   40215.7    248.7   0.071807864   0.58783   0.00530   0.61309  -0.46035

FINAL SINGLE POINT ENERGY     -3947.999498778780

DIPOLE MOMENT
-------------
                                X             Y             Z
Electronic contribution:      0.58932      -7.52694     -24.30814
Nuclear contribution   :     -1.75488       6.85021      22.29088
                        -----------------------------------------
Total Dipole Moment    :     -1.16556      -0.67672      -2.01726
                        -----------------------------------------
Magnitude (a.u.)       :      2.42607
Magnitude (Debye)      :      6.16657

Rotational constants in cm-1:     0.002542     0.000123     0.000120
Rotational constants in MHz :    76.214424     3.675817     3.588272

                             ****ORCA TERMINATED NORMALLY****
TOTAL RUN TIME: 0 days 0 hours 10 minutes 4 seconds 650 msec
