                         Program Version 4.2.0 -  RELEASE  -
|  1> # ORCA input file
|  2> # SCF done       -127.363536642455          0.000447239856
|  3> ! CAM-B3LYP def2-SVP def2/J RIJCOSX Grid4 TightSCF
|  4> %maxcore 5000
|  5> %tddft
|  6>     Mode sTDDFT
|  7>     Ethresh 5.0
|  8>     maxcore 5000
|  9> end
| 10>
| 11> %pal
| 12>   nprocs 6
| 13>   end
| 14> * xyz 0 1
| 15>    C       -1.67446        -2.29467        -0.12277
| 16>    N       -0.92206        -3.37423        -0.08583
| 17>    C        0.37204        -3.16091        -0.34466
| 18>    N        0.91138        -1.96274        -0.57400
| 19>    C        0.05379        -0.96353        -0.57248
| 20>    N       -1.25004        -1.06667        -0.37751
| 21>    N        1.16284        -4.26558        -0.36484
| 22>    C        2.51054        -4.27381        -0.64346
| 23>    S        3.56425        -5.26330         0.31507
| 24>    C        4.92816        -4.60563        -0.52816
| 25>    N        6.20474        -5.08095        -0.19072
| 26>    O        7.15587        -4.60848        -0.78182
| 27>    O        6.26146        -5.93610         0.67407
| 28>    C        4.58309        -3.67924        -1.47364
| 29>    C        3.18792        -3.49729        -1.57894
| 30>    C        2.57534        -2.64928        -2.57222
| 31>    C        1.42204        -2.94815        -3.21427
| 32>    C        0.73411        -2.13021        -4.14483
| 33>    C        0.86505        -0.78337        -4.34274
| 34>    C        0.09069        -0.01206        -5.25503
| 35>    C        0.32730         1.32374        -5.21097
| 36>    C        1.31086         1.69967        -4.26342
| 37>    S        1.93478         0.28154        -3.44540
| 38>    C        1.75766         2.96708        -3.96369
| 39>    C        1.36950         4.18953        -4.56401
| 40>    C        1.96121         5.28918        -4.03179
| 41>    C        2.86978         5.00449        -2.97247
| 42>    S        2.94471         3.26238        -2.70949
| 43>    C        3.65756         5.82723        -2.22686
| 44>    N        3.60177         7.20125        -2.18072
| 45>    C        2.51254         8.00040        -2.24843
| 46>    S        0.89849         7.37621        -2.12684
| 47>    C        0.28373         9.00643        -2.14380
| 48>    N       -1.10145         9.15742        -2.09828
| 49>    O       -1.55655        10.28718        -2.11948
| 50>    O       -1.75921         8.12844        -2.04441
| 51>    C        1.26088         9.95933        -2.22674
| 52>    C        2.55483         9.40885        -2.29037
| 53>    C        3.77245        10.15450        -2.40011
| 54>    C        3.88590        11.49530        -2.34446
| 55>    C        5.16420        12.14734        -2.46490
| 56>    N        6.26855        11.40215        -2.62616
| 57>    C        7.39268        12.07656        -2.72616
| 58>    N        7.51409        13.39452        -2.67779
| 59>    C        6.36918        14.04121        -2.51452
| 60>    N        5.18314        13.48407        -2.40446
| 61>    H       -2.73078        -2.42588         0.07332
| 62>    H        0.45798         0.02504        -0.74721
| 63>    H        0.73722        -5.10183         0.01419
| 64>    H        5.30745        -3.17858        -2.09041
| 65>    H        3.14156        -1.77136        -2.84312
| 66>    H        0.96510        -3.91275        -3.02711
| 67>    H       -0.03682        -2.61536        -4.73026
| 68>    H       -0.62532        -0.48126        -5.90651
| 69>    H       -0.18278         2.04945        -5.81808
| 70>    H        0.67021         4.22040        -5.37981
| 71>    H        1.81942         6.28481        -4.40954
| 72>    H        4.42388         5.38904        -1.60295
| 73>    H        4.46479         7.67025        -1.93227
| 74>    H        1.03770        11.00950        -2.25387
| 75>    H        4.69035         9.60065        -2.55080
| 76>    H        3.04421        12.15330        -2.20225
| 77>    H        8.30233        11.50249        -2.85782
| 78>    H        6.41447        15.12254        -2.46819
| 79> *
| 80>
| 81>                          ****END OF INPUT****

CARTESIAN COORDINATES (ANGSTROEM)
---------------------------------
  C     -1.674460   -2.294670   -0.122770
  N     -0.922060   -3.374230   -0.085830
  C      0.372040   -3.160910   -0.344660
  N      0.911380   -1.962740   -0.574000
  C      0.053790   -0.963530   -0.572480
  N     -1.250040   -1.066670   -0.377510
  N      1.162840   -4.265580   -0.364840
  C      2.510540   -4.273810   -0.643460
  S      3.564250   -5.263300    0.315070
  C      4.928160   -4.605630   -0.528160
  N      6.204740   -5.080950   -0.190720
  O      7.155870   -4.608480   -0.781820
  O      6.261460   -5.936100    0.674070
  C      4.583090   -3.679240   -1.473640
  C      3.187920   -3.497290   -1.578940
  C      2.575340   -2.649280   -2.572220
  C      1.422040   -2.948150   -3.214270
  C      0.734110   -2.130210   -4.144830
  C      0.865050   -0.783370   -4.342740
  C      0.090690   -0.012060   -5.255030
  C      0.327300    1.323740   -5.210970
  C      1.310860    1.699670   -4.263420
  S      1.934780    0.281540   -3.445400
  C      1.757660    2.967080   -3.963690
  C      1.369500    4.189530   -4.564010
  C      1.961210    5.289180   -4.031790
  C      2.869780    5.004490   -2.972470
  S      2.944710    3.262380   -2.709490
  C      3.657560    5.827230   -2.226860
  N      3.601770    7.201250   -2.180720
  C      2.512540    8.000400   -2.248430
  S      0.898490    7.376210   -2.126840
  C      0.283730    9.006430   -2.143800
  N     -1.101450    9.157420   -2.098280
  O     -1.556550   10.287180   -2.119480
  O     -1.759210    8.128440   -2.044410
  C      1.260880    9.959330   -2.226740
  C      2.554830    9.408850   -2.290370
  C      3.772450   10.154500   -2.400110
  C      3.885900   11.495300   -2.344460
  C      5.164200   12.147340   -2.464900
  N      6.268550   11.402150   -2.626160
  C      7.392680   12.076560   -2.726160
  N      7.514090   13.394520   -2.677790
  C      6.369180   14.041210   -2.514520
  N      5.183140   13.484070   -2.404460
  H     -2.730780   -2.425880    0.073320
  H      0.457980    0.025040   -0.747210
  H      0.737220   -5.101830    0.014190
  H      5.307450   -3.178580   -2.090410
  H      3.141560   -1.771360   -2.843120
  H      0.965100   -3.912750   -3.027110
  H     -0.036820   -2.615360   -4.730260
  H     -0.625320   -0.481260   -5.906510
  H     -0.182780    2.049450   -5.818080
  H      0.670210    4.220400   -5.379810
  H      1.819420    6.284810   -4.409540
  H      4.423880    5.389040   -1.602950
  H      4.464790    7.670250   -1.932270
  H      1.037700   11.009500   -2.253870
  H      4.690350    9.600650   -2.550800
  H      3.044210   12.153300   -2.202250
  H      8.302330   11.502490   -2.857820
  H      6.414470   15.122540   -2.468190

 Total Charge           Charge          ....    0
 Multiplicity           Mult            ....    1
 Number of Electrons    NEL             ....  352
 Basis Dimension        Dim             ....  750

ORBITAL ENERGIES
----------------

  NO   OCC          E(Eh)            E(eV)
   0   2.0000     -88.982553     -2421.3384
   1   2.0000     -88.982552     -2421.3383
   2   2.0000     -88.955014     -2420.5890
   3   2.0000     -88.952597     -2420.5232
   4   2.0000     -19.236584      -523.4541
   5   2.0000     -19.235914      -523.4358
   6   2.0000     -19.231859      -523.3255
   7   2.0000     -19.231531      -523.3166
   8   2.0000     -14.648171      -398.5970
   9   2.0000     -14.643514      -398.4703
  10   2.0000     -14.489227      -394.2719
  11   2.0000     -14.477667      -393.9574
  12   2.0000     -14.422709      -392.4619
  13   2.0000     -14.420021      -392.3887
  14   2.0000     -14.419813      -392.3831
  15   2.0000     -14.416022      -392.2799
  16   2.0000     -14.413765      -392.2185
  17   2.0000     -14.410030      -392.1169
  18   2.0000     -10.400127      -283.0018
  19   2.0000     -10.372963      -282.2627
  20   2.0000     -10.362032      -281.9652
  21   2.0000     -10.360361      -281.9198
  22   2.0000     -10.354426      -281.7583
  23   2.0000     -10.352481      -281.7053
  24   2.0000     -10.352227      -281.6984
  25   2.0000     -10.350711      -281.6572
  26   2.0000     -10.341874      -281.4167
  27   2.0000     -10.337445      -281.2962
  28   2.0000     -10.336146      -281.2608
  29   2.0000     -10.321102      -280.8515
  30   2.0000     -10.319573      -280.8099
  31   2.0000     -10.317312      -280.7483
  32   2.0000     -10.313778      -280.6522
  33   2.0000     -10.308285      -280.5027
  34   2.0000     -10.305665      -280.4314
  35   2.0000     -10.303134      -280.3625
  36   2.0000     -10.300254      -280.2842
  37   2.0000     -10.298697      -280.2418
  38   2.0000     -10.297710      -280.2149
  39   2.0000     -10.295919      -280.1662
  40   2.0000     -10.293376      -280.0970
  41   2.0000     -10.291125      -280.0358
  42   2.0000     -10.285241      -279.8756
  43   2.0000     -10.285142      -279.8729
  44   2.0000     -10.280004      -279.7331
  45   2.0000     -10.279922      -279.7309
  46   2.0000      -8.078379      -219.8239
  47   2.0000      -8.077692      -219.8052
  48   2.0000      -8.050384      -219.0621
  49   2.0000      -8.049041      -219.0255
  50   2.0000      -6.047909      -164.5720
  51   2.0000      -6.047466      -164.5599
  52   2.0000      -6.043589      -164.4544
  53   2.0000      -6.042939      -164.4367
  54   2.0000      -6.039998      -164.3567
  55   2.0000      -6.038966      -164.3286
  56   2.0000      -6.020145      -163.8165
  57   2.0000      -6.019002      -163.7854
  58   2.0000      -6.016035      -163.7046
  59   2.0000      -6.014963      -163.6755
  60   2.0000      -6.011449      -163.5798
  61   2.0000      -6.009466      -163.5259
  62   2.0000      -1.318329       -35.8736
  63   2.0000      -1.311972       -35.7006
  64   2.0000      -1.139656       -31.0116
  65   2.0000      -1.137341       -30.9486
  66   2.0000      -1.131080       -30.7783
  67   2.0000      -1.120542       -30.4915
  68   2.0000      -1.092278       -29.7224
  69   2.0000      -1.077103       -29.3095
  70   2.0000      -1.008177       -27.4339
  71   2.0000      -1.004713       -27.3396
  72   2.0000      -1.000120       -27.2147
  73   2.0000      -0.997864       -27.1533
  74   2.0000      -0.993726       -27.0406
  75   2.0000      -0.989950       -26.9379
  76   2.0000      -0.979806       -26.6619
  77   2.0000      -0.971995       -26.4493
  78   2.0000      -0.920919       -25.0595
  79   2.0000      -0.917896       -24.9772
  80   2.0000      -0.896461       -24.3939
  81   2.0000      -0.887104       -24.1393
  82   2.0000      -0.877289       -23.8723
  83   2.0000      -0.864515       -23.5247
  84   2.0000      -0.856401       -23.3039
  85   2.0000      -0.850479       -23.1427
  86   2.0000      -0.833943       -22.6927
  87   2.0000      -0.828900       -22.5555
  88   2.0000      -0.807781       -21.9808
  89   2.0000      -0.795869       -21.6567
  90   2.0000      -0.783835       -21.3292
  91   2.0000      -0.777989       -21.1701
  92   2.0000      -0.769923       -20.9507
  93   2.0000      -0.763926       -20.7875
  94   2.0000      -0.747388       -20.3375
  95   2.0000      -0.732335       -19.9278
  96   2.0000      -0.717949       -19.5364
  97   2.0000      -0.699253       -19.0276
  98   2.0000      -0.686034       -18.6679
  99   2.0000      -0.681452       -18.5432
 100   2.0000      -0.673124       -18.3166
 101   2.0000      -0.671010       -18.2591
 102   2.0000      -0.664332       -18.0774
 103   2.0000      -0.649202       -17.6657
 104   2.0000      -0.641757       -17.4631
 105   2.0000      -0.637399       -17.3445
 106   2.0000      -0.631891       -17.1946
 107   2.0000      -0.629374       -17.1261
 108   2.0000      -0.628103       -17.0915
 109   2.0000      -0.625503       -17.0208
 110   2.0000      -0.624728       -16.9997
 111   2.0000      -0.619898       -16.8683
 112   2.0000      -0.616658       -16.7801
 113   2.0000      -0.607050       -16.5187
 114   2.0000      -0.595366       -16.2007
 115   2.0000      -0.593331       -16.1454
 116   2.0000      -0.589538       -16.0421
 117   2.0000      -0.582207       -15.8427
 118   2.0000      -0.575059       -15.6481
 119   2.0000      -0.569883       -15.5073
 120   2.0000      -0.563356       -15.3297
 121   2.0000      -0.559095       -15.2137
 122   2.0000      -0.557616       -15.1735
 123   2.0000      -0.545469       -14.8430
 124   2.0000      -0.544582       -14.8188
 125   2.0000      -0.537894       -14.6369
 126   2.0000      -0.532633       -14.4937
 127   2.0000      -0.525883       -14.3100
 128   2.0000      -0.522587       -14.2203
 129   2.0000      -0.515627       -14.0309
 130   2.0000      -0.512643       -13.9497
 131   2.0000      -0.508301       -13.8316
 132   2.0000      -0.506424       -13.7805
 133   2.0000      -0.504662       -13.7325
 134   2.0000      -0.499316       -13.5871
 135   2.0000      -0.496118       -13.5001
 136   2.0000      -0.489041       -13.3075
 137   2.0000      -0.487531       -13.2664
 138   2.0000      -0.476338       -12.9618
 139   2.0000      -0.468930       -12.7602
 140   2.0000      -0.465734       -12.6733
 141   2.0000      -0.464289       -12.6339
 142   2.0000      -0.457610       -12.4522
 143   2.0000      -0.452769       -12.3205
 144   2.0000      -0.448983       -12.2175
 145   2.0000      -0.445288       -12.1169
 146   2.0000      -0.444129       -12.0854
 147   2.0000      -0.440888       -11.9972
 148   2.0000      -0.436288       -11.8720
 149   2.0000      -0.431604       -11.7445
 150   2.0000      -0.429082       -11.6759
 151   2.0000      -0.418395       -11.3851
 152   2.0000      -0.404999       -11.0206
 153   2.0000      -0.403598       -10.9825
 154   2.0000      -0.399107       -10.8603
 155   2.0000      -0.383779       -10.4432
 156   2.0000      -0.382948       -10.4205
 157   2.0000      -0.382508       -10.4086
 158   2.0000      -0.379217       -10.3190
 159   2.0000      -0.376512       -10.2454
 160   2.0000      -0.370956       -10.0942
 161   2.0000      -0.366641        -9.9768
 162   2.0000      -0.363912        -9.9026
 163   2.0000      -0.360614        -9.8128
 164   2.0000      -0.348928        -9.4948
 165   2.0000      -0.348684        -9.4882
 166   2.0000      -0.345798        -9.4096
 167   2.0000      -0.343904        -9.3581
 168   2.0000      -0.340092        -9.2544
 169   2.0000      -0.338810        -9.2195
 170   2.0000      -0.334010        -9.0889
 171   2.0000      -0.321479        -8.7479
 172   2.0000      -0.307603        -8.3703
 173   2.0000      -0.294521        -8.0143
 174   2.0000      -0.272140        -7.4053
 175   2.0000      -0.221355        -6.0234
 176   0.0000      -0.085017        -2.3134
 177   0.0000      -0.056066        -1.5256
 178   0.0000      -0.053095        -1.4448
 179   0.0000      -0.042480        -1.1559
 180   0.0000      -0.010926        -0.2973

MULLIKEN ATOMIC CHARGES
-----------------------
   0 C :    0.096394
   1 N :   -0.093898
   2 C :   -0.048636
   3 N :   -0.105309
   4 C :    0.114978
   5 N :   -0.138045
   6 N :    0.004400
   7 C :   -0.126584
   8 S :    0.180711
   9 C :   -0.009749
  10 N :    0.275105
  11 O :   -0.248152
  12 O :   -0.261761
  13 C :    0.001394
  14 C :    0.132826
  15 C :   -0.002928
  16 C :    0.007607
  17 C :   -0.013798
  18 C :   -0.029966
  19 C :    0.043322
  20 C :    0.031927
  21 C :   -0.044857
  22 S :    0.064177
  23 C :   -0.049885
  24 C :    0.018868
  25 C :    0.045529
  26 C :   -0.093939
  27 S :    0.083601
  28 C :    0.039592
  29 N :   -0.027222
  30 C :   -0.112679
  31 S :    0.171504
  32 C :   -0.016484
  33 N :    0.280182
  34 O :   -0.255638
  35 O :   -0.271556
  36 C :    0.014971
  37 C :    0.128470
  38 C :   -0.009307
  39 C :    0.030983
  40 C :   -0.066212
  41 N :   -0.101016
  42 C :    0.092872
  43 N :   -0.129666
  44 C :    0.094202
  45 N :   -0.078336
  46 H :    0.025682
  47 H :    0.023568
  48 H :    0.145731
  49 H :    0.010100
  50 H :    0.009557
  51 H :   -0.005464
  52 H :   -0.011470
  53 H :   -0.009299
  54 H :   -0.010496
  55 H :   -0.004049
  56 H :    0.006670
  57 H :    0.013167
  58 H :    0.153024
  59 H :    0.012244
  60 H :   -0.010947
  61 H :   -0.012585
  62 H :    0.020389
  63 H :    0.026184
Sum of atomic charges:    0.0000000

LOEWDIN ATOMIC CHARGES
----------------------
   0 C :    0.074403
   1 N :   -0.130829
   2 C :    0.067810
   3 N :   -0.107405
   4 C :    0.081313
   5 N :   -0.124156
   6 N :    0.023460
   7 C :   -0.114374
   8 S :    0.458946
   9 C :   -0.207345
  10 N :    0.273344
  11 O :   -0.213773
  12 O :   -0.227960
  13 C :    0.002611
  14 C :   -0.075643
  15 C :   -0.015200
  16 C :   -0.041224
  17 C :   -0.060622
  18 C :   -0.141897
  19 C :   -0.026985
  20 C :   -0.033625
  21 C :   -0.179058
  22 S :    0.390179
  23 C :   -0.177636
  24 C :   -0.015257
  25 C :   -0.054858
  26 C :   -0.180665
  27 S :    0.362995
  28 C :   -0.031951
  29 N :    0.039923
  30 C :   -0.096018
  31 S :    0.482641
  32 C :   -0.215067
  33 N :    0.273570
  34 O :   -0.221089
  35 O :   -0.238329
  36 C :    0.009758
  37 C :   -0.117702
  38 C :    0.021354
  39 C :   -0.053586
  40 C :    0.052202
  41 N :   -0.111240
  42 C :    0.069096
  43 N :   -0.114831
  44 C :    0.072896
  45 N :   -0.104377
  46 H :    0.023628
  47 H :    0.017214
  48 H :    0.097558
  49 H :    0.046323
  50 H :    0.017152
  51 H :    0.028623
  52 H :    0.034926
  53 H :    0.035000
  54 H :    0.033095
  55 H :    0.036136
  56 H :    0.027691
  57 H :    0.028904
  58 H :    0.100051
  59 H :    0.045923
  60 H :    0.025941
  61 H :    0.033305
  62 H :    0.021310
  63 H :    0.023425

  Mayer bond orders larger than 0.100000
B(  0-C ,  1-N ) :   1.5217 B(  0-C ,  5-N ) :   1.5068 B(  0-C , 46-H ) :   0.9777
B(  1-N ,  2-C ) :   1.5061 B(  2-C ,  3-N ) :   1.4762 B(  2-C ,  6-N ) :   1.1668
B(  3-N ,  4-C ) :   1.5013 B(  4-C ,  5-N ) :   1.5080 B(  4-C , 47-H ) :   0.9713
B(  6-N ,  7-C ) :   1.1091 B(  6-N , 48-H ) :   0.8921 B(  7-C ,  8-S ) :   1.1396
B(  7-C , 14-C ) :   1.4390 B(  8-S ,  9-C ) :   1.0985 B(  9-C , 10-N ) :   0.9608
B(  9-C , 13-C ) :   1.4837 B( 10-N , 11-O ) :   1.5414 B( 10-N , 12-O ) :   1.5179
B( 11-O , 12-O ) :   0.2607 B( 13-C , 14-C ) :   1.2249 B( 13-C , 49-H ) :   1.0079
B( 14-C , 15-C ) :   1.0720 B( 15-C , 16-C ) :   1.6946 B( 15-C , 50-H ) :   0.9421
B( 16-C , 17-C ) :   1.1793 B( 16-C , 51-H ) :   0.9531 B( 17-C , 18-C ) :   1.6086
B( 17-C , 52-H ) :   0.9630 B( 18-C , 19-C ) :   1.1308 B( 18-C , 22-S ) :   1.0346
B( 19-C , 20-C ) :   1.6101 B( 19-C , 53-H ) :   0.9974 B( 20-C , 21-C ) :   1.1728
B( 20-C , 54-H ) :   0.9926 B( 21-C , 22-S ) :   1.0334 B( 21-C , 23-C ) :   1.5327
B( 23-C , 24-C ) :   1.1773 B( 23-C , 27-S ) :   1.0414 B( 24-C , 25-C ) :   1.6350
B( 24-C , 55-H ) :   0.9944 B( 25-C , 26-C ) :   1.1077 B( 25-C , 56-H ) :   0.9833
B( 26-C , 27-S ) :   1.0199 B( 26-C , 28-C ) :   1.6540 B( 28-C , 29-N ) :   1.1193
B( 28-C , 57-H ) :   0.9495 B( 29-N , 30-C ) :   1.2479 B( 29-N , 58-H ) :   0.9091
B( 30-C , 31-S ) :   1.1369 B( 30-C , 37-C ) :   1.3228 B( 31-S , 32-C ) :   1.0582
B( 32-C , 33-N ) :   0.9819 B( 32-C , 36-C ) :   1.4902 B( 33-N , 34-O ) :   1.5264
B( 33-N , 35-O ) :   1.5037 B( 34-O , 35-O ) :   0.2539 B( 36-C , 37-C ) :   1.2357
B( 36-C , 59-H ) :   1.0022 B( 37-C , 38-C ) :   1.0571 B( 38-C , 39-C ) :   1.7025
B( 38-C , 60-H ) :   0.9611 B( 39-C , 40-C ) :   1.0699 B( 39-C , 61-H ) :   0.9724
B( 40-C , 41-N ) :   1.4998 B( 40-C , 45-N ) :   1.5270 B( 41-N , 42-C ) :   1.5273
B( 42-C , 43-N ) :   1.5007 B( 42-C , 62-H ) :   0.9776 B( 43-N , 44-C ) :   1.5036
B( 44-C , 45-N ) :   1.5192 B( 44-C , 63-H ) :   0.9769

-----------------------------------------------------------------------------
         ABSORPTION SPECTRUM VIA TRANSITION ELECTRIC DIPOLE MOMENTS
-----------------------------------------------------------------------------
State   Energy  Wavelength   fosc         T2         TX        TY        TZ
        (cm-1)    (nm)                  (au**2)     (au)      (au)      (au)
-----------------------------------------------------------------------------
   0   15346.5    651.6   1.363463295  29.24899  -0.40832  -5.38921  -0.19656
   1   21817.5    458.3   0.055425197   0.83633   0.58948  -0.36789  -0.59456
   2   23251.3    430.1   0.218732219   3.09700  -1.46938  -0.95728   0.14673
   3   24295.7    411.6   0.013293756   0.18013  -0.40183  -0.13538   0.01837
   4   25396.8    393.8   0.116412668   1.50903   0.14029  -0.02516   1.22013
   5   28926.6    345.7   0.008814466   0.10032   0.09642  -0.00213   0.30169
   6   29513.1    338.8   0.009427133   0.10516  -0.20490   0.24720  -0.04545
   7   30718.2    325.5   0.063690513   0.68258  -0.22089  -0.28395  -0.74375
   8   31482.6    317.6   0.364761636   3.81430   1.92840   0.30707   0.03594
   9   32453.7    308.1   0.274727576   2.78685  -0.65854   1.43312  -0.54711
  10   32698.2    305.8   0.286018876   2.87969  -1.68315  -0.18836   0.10585
  11   32946.6    303.5   0.025669397   0.25650  -0.07693   0.15008   0.47755
  12   33613.6    297.5   0.040195212   0.39367   0.41555   0.34352   0.32091
  13   34709.0    288.1   0.032396371   0.30728  -0.33410   0.27559  -0.34598
  14   34941.3    286.2   0.000272816   0.00257   0.02109  -0.01927  -0.04189
  15   35278.1    283.5   0.298721252   2.78764   1.20490  -0.89206   0.73491
  16   35918.4    278.4   0.372504985   3.41421  -1.48434  -1.07542  -0.23330
  17   36154.6    276.6   0.037223296   0.33894  -0.04451   0.57877  -0.04462
  18   36389.6    274.8   0.049686671   0.44951  -0.50391  -0.34390  -0.27806
  19   37262.3    268.4   0.103585088   0.91517   0.89413  -0.29251   0.17362
  20   38250.2    261.4   0.066260474   0.57029   0.23352  -0.58652  -0.41443
  21   39538.0    252.9   0.151263557   1.25949   1.09223   0.12444   0.22592
  22   39660.8    252.1   0.044241931   0.36724  -0.04462  -0.59068   0.12786
  23   39778.6    251.4   0.110442508   0.91403  -0.55276   0.07918  -0.77603
  24   40026.5    249.8   0.061594657   0.50661   0.51621   0.09505   0.48073

FINAL SINGLE POINT ENERGY     -3515.872137533710

DIPOLE MOMENT
-------------
                                X             Y             Z
Electronic contribution:      1.86774     -12.55738      10.80979
Nuclear contribution   :     -2.05132      12.03316     -11.93664
                        -----------------------------------------
Total Dipole Moment    :     -0.18358      -0.52422      -1.12686
                        -----------------------------------------
Magnitude (a.u.)       :      1.25631
Magnitude (Debye)      :      3.19329

Rotational constants in cm-1:     0.003112     0.000599     0.000540
Rotational constants in MHz :    93.285812    17.968084    16.183699

                             ****ORCA TERMINATED NORMALLY****
TOTAL RUN TIME: 0 days 0 hours 4 minutes 17 seconds 123 msec
