                         Program Version 4.2.0 -  RELEASE  -
|  1> # ORCA input file
|  2> # SCF done       -201.628882229120          0.000859998479
|  3> ! CAM-B3LYP def2-SVP def2/J RIJCOSX Grid4 TightSCF
|  4> %maxcore 5000
|  5> %tddft
|  6>     Mode sTDDFT
|  7>     Ethresh 5.0
|  8>     maxcore 5000
|  9> end
| 10>
| 11> %pal
| 12>   nprocs 6
| 13>   end
| 14> * xyz 0 1
| 15>    C       -1.02830        -0.98845        -0.49942
| 16>    C       -0.73638        -1.45816        -1.85604
| 17>    O       -1.09961        -2.49861        -2.37688
| 18>    C        0.10350        -0.41694        -2.47805
| 19>    C        0.28674         0.63738        -1.56583
| 20>    C       -0.43189         0.32456        -0.33190
| 21>    C       -0.53225         1.15296         0.75495
| 22>    C        0.07464         2.42460         0.83717
| 23>    N        0.54156         3.46461         0.97051
| 24>    C       -1.26011         0.88258         1.93336
| 25>    N       -1.83434         0.74293         2.91805
| 26>    C        1.05917         1.72858        -1.93649
| 27>    C        1.62820         1.74777        -3.20106
| 28>    C        1.43181         0.69675        -4.09020
| 29>    C        0.66232        -0.40679        -3.73895
| 30>   Cl        2.15638         0.76311        -5.65098
| 31>    C       -1.70008        -1.69963         0.46362
| 32>    C       -2.29304        -2.96833         0.40759
| 33>    C       -2.88130        -3.55609         1.53492
| 34>    C       -3.40174        -4.80715         1.27154
| 35>    C       -3.22695        -5.18717        -0.08490
| 36>    S       -2.40788        -4.01507        -1.01083
| 37>    C       -3.78250        -6.47489        -0.25095
| 38>    C       -4.30169        -6.91165         0.98299
| 39>    C       -4.07298        -5.88043         1.98218
| 40>    C       -4.39816        -5.93855         3.30666
| 41>    C       -5.01694        -7.07333         3.86984
| 42>    N       -5.51098        -8.00718         4.31746
| 43>    C       -4.11748        -4.88429         4.20133
| 44>    N       -3.88900        -4.03520         4.93662
| 45>    C       -4.86467        -8.17987         0.92438
| 46>    C       -4.78530        -8.72953        -0.34855
| 47>    S       -3.99823        -7.64286        -1.48381
| 48>    C       -5.23092       -10.01871        -0.75745
| 49>    C       -5.87151       -10.87697         0.10888
| 50>    C       -6.29017       -12.16551        -0.20332
| 51>    C       -6.20305       -12.67079        -1.58021
| 52>    C       -5.61630       -11.99853        -2.59465
| 53>    S       -4.88511       -10.45550        -2.42460
| 54>    C       -6.85211       -13.93595        -1.56030
| 55>    C       -7.30190       -14.21221        -0.26724
| 56>    C       -7.94884       -15.46487        -0.18459
| 57>    C       -7.97586       -16.09072        -1.39001
| 58>    S       -7.21894       -15.19715        -2.66635
| 59>    C       -6.93143       -13.12987         0.60486
| 60>    C       -7.18538       -13.12148         1.99712
| 61>    C       -6.54748       -12.34933         2.91896
| 62>    C       -6.84948       -12.29604         4.29933
| 63>    C       -7.81788       -12.97740         5.02868
| 64>    C       -7.80551       -12.61937         6.37068
| 65>    C       -6.82773       -11.64905         6.67667
| 66>    S       -5.92096       -11.19411         5.30674
| 67>    C       -6.90902       -11.34326         8.05307
| 68>    C       -7.93482       -12.12968         8.62535
| 69>    C       -8.53182       -12.94881         7.58829
| 70>    C       -9.56990       -13.82329         7.73024
| 71>    C      -10.19126       -14.02987         8.97966
| 72>    N      -10.68210       -14.19417        10.00302
| 73>    C      -10.07244       -14.57277         6.64719
| 74>    N      -10.46850       -15.18216         5.75994
| 75>    C       -8.11316       -11.88474         9.97821
| 76>    C       -7.24378       -10.91296        10.45776
| 77>    S       -6.16377       -10.32489         9.19270
| 78>    C       -7.09854       -10.41894        11.76817
| 79>    C       -7.95439       -10.52661        12.82584
| 80>    C       -7.41369       -10.33949        14.19982
| 81>    O       -6.33629        -9.87990        14.49791
| 82>    C       -8.45189       -10.88901        15.09954
| 83>    C       -9.58209       -11.24882        14.34311
| 84>    C       -9.35017       -10.88868        12.94547
| 85>    C      -10.33942       -10.68536        12.01821
| 86>    C      -11.70692       -10.93412        12.26024
| 87>    N      -12.83150       -11.10979        12.40515
| 88>    C      -10.12490       -10.11227        10.74978
| 89>    N      -10.00156        -9.63111         9.71449
| 90>    C      -10.67160       -11.83320        14.97034
| 91>    C      -10.62038       -12.03787        16.34073
| 92>    C       -9.50313       -11.65883        17.07723
| 93>    C       -8.39726       -11.07939        16.46473
| 94>   Cl       -9.48742       -11.91997        18.77976
| 95>    H        1.22944         2.55560        -1.26720
| 96>    H        2.23297         2.58872        -3.50203
| 97>    H        0.50411        -1.22841        -4.41941
| 98>    H       -1.78632        -1.23878         1.44029
| 99>    H       -2.90593        -3.06183         2.49023
|100>    H       -5.30493        -8.67813         1.76715
|101>    H       -6.08709       -10.49892         1.09474
|102>    H       -5.55345       -12.39567        -3.59544
|103>    H       -8.37363       -15.88280         0.70971
|104>    H       -8.40161       -17.04686        -1.62375
|105>    H       -7.93291       -13.82560         2.33734
|106>    H       -5.71779       -11.72957         2.61312
|107>    H       -8.48941       -13.69391         4.59331
|108>    H       -8.80450       -12.41346        10.60854
|109>    H       -6.14762        -9.94905        12.00085
|110>    H      -11.54245       -12.14239        14.41532
|111>    H      -11.45572       -12.49707        16.84556
|112>    H       -7.52531       -10.78780        17.02839
|113> *
|114>
|115>                          ****END OF INPUT****

CARTESIAN COORDINATES (ANGSTROEM)
---------------------------------
  C     -1.028300   -0.988450   -0.499420
  C     -0.736380   -1.458160   -1.856040
  O     -1.099610   -2.498610   -2.376880
  C      0.103500   -0.416940   -2.478050
  C      0.286740    0.637380   -1.565830
  C     -0.431890    0.324560   -0.331900
  C     -0.532250    1.152960    0.754950
  C      0.074640    2.424600    0.837170
  N      0.541560    3.464610    0.970510
  C     -1.260110    0.882580    1.933360
  N     -1.834340    0.742930    2.918050
  C      1.059170    1.728580   -1.936490
  C      1.628200    1.747770   -3.201060
  C      1.431810    0.696750   -4.090200
  C      0.662320   -0.406790   -3.738950
  Cl     2.156380    0.763110   -5.650980
  C     -1.700080   -1.699630    0.463620
  C     -2.293040   -2.968330    0.407590
  C     -2.881300   -3.556090    1.534920
  C     -3.401740   -4.807150    1.271540
  C     -3.226950   -5.187170   -0.084900
  S     -2.407880   -4.015070   -1.010830
  C     -3.782500   -6.474890   -0.250950
  C     -4.301690   -6.911650    0.982990
  C     -4.072980   -5.880430    1.982180
  C     -4.398160   -5.938550    3.306660
  C     -5.016940   -7.073330    3.869840
  N     -5.510980   -8.007180    4.317460
  C     -4.117480   -4.884290    4.201330
  N     -3.889000   -4.035200    4.936620
  C     -4.864670   -8.179870    0.924380
  C     -4.785300   -8.729530   -0.348550
  S     -3.998230   -7.642860   -1.483810
  C     -5.230920  -10.018710   -0.757450
  C     -5.871510  -10.876970    0.108880
  C     -6.290170  -12.165510   -0.203320
  C     -6.203050  -12.670790   -1.580210
  C     -5.616300  -11.998530   -2.594650
  S     -4.885110  -10.455500   -2.424600
  C     -6.852110  -13.935950   -1.560300
  C     -7.301900  -14.212210   -0.267240
  C     -7.948840  -15.464870   -0.184590
  C     -7.975860  -16.090720   -1.390010
  S     -7.218940  -15.197150   -2.666350
  C     -6.931430  -13.129870    0.604860
  C     -7.185380  -13.121480    1.997120
  C     -6.547480  -12.349330    2.918960
  C     -6.849480  -12.296040    4.299330
  C     -7.817880  -12.977400    5.028680
  C     -7.805510  -12.619370    6.370680
  C     -6.827730  -11.649050    6.676670
  S     -5.920960  -11.194110    5.306740
  C     -6.909020  -11.343260    8.053070
  C     -7.934820  -12.129680    8.625350
  C     -8.531820  -12.948810    7.588290
  C     -9.569900  -13.823290    7.730240
  C    -10.191260  -14.029870    8.979660
  N    -10.682100  -14.194170   10.003020
  C    -10.072440  -14.572770    6.647190
  N    -10.468500  -15.182160    5.759940
  C     -8.113160  -11.884740    9.978210
  C     -7.243780  -10.912960   10.457760
  S     -6.163770  -10.324890    9.192700
  C     -7.098540  -10.418940   11.768170
  C     -7.954390  -10.526610   12.825840
  C     -7.413690  -10.339490   14.199820
  O     -6.336290   -9.879900   14.497910
  C     -8.451890  -10.889010   15.099540
  C     -9.582090  -11.248820   14.343110
  C     -9.350170  -10.888680   12.945470
  C    -10.339420  -10.685360   12.018210
  C    -11.706920  -10.934120   12.260240
  N    -12.831500  -11.109790   12.405150
  C    -10.124900  -10.112270   10.749780
  N    -10.001560   -9.631110    9.714490
  C    -10.671600  -11.833200   14.970340
  C    -10.620380  -12.037870   16.340730
  C     -9.503130  -11.658830   17.077230
  C     -8.397260  -11.079390   16.464730
  Cl    -9.487420  -11.919970   18.779760
  H      1.229440    2.555600   -1.267200
  H      2.232970    2.588720   -3.502030
  H      0.504110   -1.228410   -4.419410
  H     -1.786320   -1.238780    1.440290
  H     -2.905930   -3.061830    2.490230
  H     -5.304930   -8.678130    1.767150
  H     -6.087090  -10.498920    1.094740
  H     -5.553450  -12.395670   -3.595440
  H     -8.373630  -15.882800    0.709710
  H     -8.401610  -17.046860   -1.623750
  H     -7.932910  -13.825600    2.337340
  H     -5.717790  -11.729570    2.613120
  H     -8.489410  -13.693910    4.593310
  H     -8.804500  -12.413460   10.608540
  H     -6.147620   -9.949050   12.000850
  H    -11.542450  -12.142390   14.415320
  H    -11.455720  -12.497070   16.845560
  H     -7.525310  -10.787800   17.028390

 Total Charge           Charge          ....    0
 Multiplicity           Mult            ....    1
 Number of Electrons    NEL             ....  592
 Basis Dimension        Dim             .... 1242

ORBITAL ENERGIES
----------------

  NO   OCC          E(Eh)            E(eV)
   0   2.0000    -101.601325     -2764.7126
   1   2.0000    -101.592272     -2764.4663
   2   2.0000     -89.004100     -2421.9247
   3   2.0000     -88.997010     -2421.7318
   4   2.0000     -88.992232     -2421.6017
   5   2.0000     -88.991614     -2421.5849
   6   2.0000     -88.987100     -2421.4621
   7   2.0000     -88.967516     -2420.9292
   8   2.0000     -19.234813      -523.4059
   9   2.0000     -19.215766      -522.8876
  10   2.0000     -14.444129      -393.0447
  11   2.0000     -14.438245      -392.8846
  12   2.0000     -14.430907      -392.6849
  13   2.0000     -14.430610      -392.6768
  14   2.0000     -14.423355      -392.4795
  15   2.0000     -14.419969      -392.3873
  16   2.0000     -14.415023      -392.2527
  17   2.0000     -14.410672      -392.1343
  18   2.0000     -10.382251      -282.5154
  19   2.0000     -10.375465      -282.3308
  20   2.0000     -10.366804      -282.0951
  21   2.0000     -10.364301      -282.0270
  22   2.0000     -10.363837      -282.0143
  23   2.0000     -10.354681      -281.7652
  24   2.0000     -10.352415      -281.7035
  25   2.0000     -10.349894      -281.6349
  26   2.0000     -10.349075      -281.6126
  27   2.0000     -10.347550      -281.5711
  28   2.0000     -10.345289      -281.5096
  29   2.0000     -10.345160      -281.5061
  30   2.0000     -10.344025      -281.4752
  31   2.0000     -10.343107      -281.4503
  32   2.0000     -10.342227      -281.4263
  33   2.0000     -10.341731      -281.4128
  34   2.0000     -10.341630      -281.4100
  35   2.0000     -10.341014      -281.3933
  36   2.0000     -10.340870      -281.3894
  37   2.0000     -10.337853      -281.3073
  38   2.0000     -10.334213      -281.2082
  39   2.0000     -10.333275      -281.1827
  40   2.0000     -10.331514      -281.1348
  41   2.0000     -10.331031      -281.1217
  42   2.0000     -10.328239      -281.0457
  43   2.0000     -10.325944      -280.9832
  44   2.0000     -10.325535      -280.9721
  45   2.0000     -10.323165      -280.9076
  46   2.0000     -10.322793      -280.8975
  47   2.0000     -10.322583      -280.8918
  48   2.0000     -10.321164      -280.8532
  49   2.0000     -10.320838      -280.8443
  50   2.0000     -10.316142      -280.7165
  51   2.0000     -10.315869      -280.7091
  52   2.0000     -10.315120      -280.6887
  53   2.0000     -10.313526      -280.6453
  54   2.0000     -10.313176      -280.6358
  55   2.0000     -10.312979      -280.6304
  56   2.0000     -10.312718      -280.6233
  57   2.0000     -10.310436      -280.5612
  58   2.0000     -10.310068      -280.5512
  59   2.0000     -10.308332      -280.5040
  60   2.0000     -10.307904      -280.4923
  61   2.0000     -10.307497      -280.4813
  62   2.0000     -10.307079      -280.4699
  63   2.0000     -10.306654      -280.4583
  64   2.0000     -10.306080      -280.4427
  65   2.0000     -10.305975      -280.4398
  66   2.0000     -10.303507      -280.3727
  67   2.0000     -10.300153      -280.2814
  68   2.0000     -10.300028      -280.2780
  69   2.0000     -10.299635      -280.2673
  70   2.0000     -10.299567      -280.2655
  71   2.0000     -10.299258      -280.2571
  72   2.0000     -10.298829      -280.2454
  73   2.0000     -10.296862      -280.1919
  74   2.0000     -10.296350      -280.1779
  75   2.0000     -10.296308      -280.1768
  76   2.0000     -10.295894      -280.1655
  77   2.0000     -10.292195      -280.0649
  78   2.0000     -10.285638      -279.8864
  79   2.0000     -10.284956      -279.8679
  80   2.0000      -9.556426      -260.0436
  81   2.0000      -9.547380      -259.7974
  82   2.0000      -8.098535      -220.3723
  83   2.0000      -8.089335      -220.1220
  84   2.0000      -8.087165      -220.0630
  85   2.0000      -8.086972      -220.0577
  86   2.0000      -8.081738      -219.9153
  87   2.0000      -8.062960      -219.4043
  88   2.0000      -7.326640      -199.3680
  89   2.0000      -7.317573      -199.1213
  90   2.0000      -7.316688      -199.0972
  91   2.0000      -7.316158      -199.0828
  92   2.0000      -7.307639      -198.8510
  93   2.0000      -7.307142      -198.8374
  94   2.0000      -6.067863      -165.1149
  95   2.0000      -6.063585      -164.9985
  96   2.0000      -6.060853      -164.9242
  97   2.0000      -6.058780      -164.8678
  98   2.0000      -6.056819      -164.8144
  99   2.0000      -6.056107      -164.7950
 100   2.0000      -6.054019      -164.7382
 101   2.0000      -6.052230      -164.6895
 102   2.0000      -6.052009      -164.6835
 103   2.0000      -6.051850      -164.6792
 104   2.0000      -6.050895      -164.6532
 105   2.0000      -6.049439      -164.6136
 106   2.0000      -6.048892      -164.5987
 107   2.0000      -6.046677      -164.5385
 108   2.0000      -6.044241      -164.4722
 109   2.0000      -6.032408      -164.1502
 110   2.0000      -6.028138      -164.0340
 111   2.0000      -6.024974      -163.9479
 112   2.0000      -1.150150       -31.2972
 113   2.0000      -1.131253       -30.7830
 114   2.0000      -1.056743       -28.7554
 115   2.0000      -1.046126       -28.4665
 116   2.0000      -1.033633       -28.1266
 117   2.0000      -1.027655       -27.9639
 118   2.0000      -1.022507       -27.8238
 119   2.0000      -1.021678       -27.8013
 120   2.0000      -1.018483       -27.7143
 121   2.0000      -1.018131       -27.7047
 122   2.0000      -1.013052       -27.5666
 123   2.0000      -1.010634       -27.5008
 124   2.0000      -1.008490       -27.4424
 125   2.0000      -1.003662       -27.3110
 126   2.0000      -1.000013       -27.2117
 127   2.0000      -0.998887       -27.1811
 128   2.0000      -0.990462       -26.9518
 129   2.0000      -0.990299       -26.9474
 130   2.0000      -0.985233       -26.8096
 131   2.0000      -0.979761       -26.6607
 132   2.0000      -0.968140       -26.3444
 133   2.0000      -0.961391       -26.1608
 134   2.0000      -0.942774       -25.6542
 135   2.0000      -0.940410       -25.5899
 136   2.0000      -0.931905       -25.3584
 137   2.0000      -0.928834       -25.2749
 138   2.0000      -0.920033       -25.0354
 139   2.0000      -0.911761       -24.8103
 140   2.0000      -0.904076       -24.6011
 141   2.0000      -0.900105       -24.4931
 142   2.0000      -0.890470       -24.2309
 143   2.0000      -0.888010       -24.1640
 144   2.0000      -0.878057       -23.8931
 145   2.0000      -0.873407       -23.7666
 146   2.0000      -0.869578       -23.6624
 147   2.0000      -0.865048       -23.5391
 148   2.0000      -0.863520       -23.4976
 149   2.0000      -0.857703       -23.3393
 150   2.0000      -0.856223       -23.2990
 151   2.0000      -0.849681       -23.1210
 152   2.0000      -0.833060       -22.6687
 153   2.0000      -0.815876       -22.2011
 154   2.0000      -0.811163       -22.0729
 155   2.0000      -0.797528       -21.7019
 156   2.0000      -0.789725       -21.4895
 157   2.0000      -0.784582       -21.3496
 158   2.0000      -0.777570       -21.1587
 159   2.0000      -0.774036       -21.0626
 160   2.0000      -0.765774       -20.8378
 161   2.0000      -0.760774       -20.7017
 162   2.0000      -0.744682       -20.2638
 163   2.0000      -0.742844       -20.2138
 164   2.0000      -0.721296       -19.6275
 165   2.0000      -0.715236       -19.4626
 166   2.0000      -0.710634       -19.3373
 167   2.0000      -0.705673       -19.2023
 168   2.0000      -0.702010       -19.1027
 169   2.0000      -0.698471       -19.0064
 170   2.0000      -0.694450       -18.8969
 171   2.0000      -0.693160       -18.8619
 172   2.0000      -0.686915       -18.6919
 173   2.0000      -0.683311       -18.5938
 174   2.0000      -0.676931       -18.4202
 175   2.0000      -0.669048       -18.2057
 176   2.0000      -0.666060       -18.1244
 177   2.0000      -0.657710       -17.8972
 178   2.0000      -0.651507       -17.7284
 179   2.0000      -0.645744       -17.5716
 180   2.0000      -0.636551       -17.3214
 181   2.0000      -0.634557       -17.2672
 182   2.0000      -0.632990       -17.2245
 183   2.0000      -0.629945       -17.1417
 184   2.0000      -0.624188       -16.9850
 185   2.0000      -0.622683       -16.9441
 186   2.0000      -0.617818       -16.8117
 187   2.0000      -0.613422       -16.6921
 188   2.0000      -0.607738       -16.5374
 189   2.0000      -0.604131       -16.4392
 190   2.0000      -0.596368       -16.2280
 191   2.0000      -0.591242       -16.0885
 192   2.0000      -0.587534       -15.9876
 193   2.0000      -0.583862       -15.8877
 194   2.0000      -0.579066       -15.7572
 195   2.0000      -0.573139       -15.5959
 196   2.0000      -0.565033       -15.3753
 197   2.0000      -0.560154       -15.2426
 198   2.0000      -0.559328       -15.2201
 199   2.0000      -0.557406       -15.1678
 200   2.0000      -0.552665       -15.0388
 201   2.0000      -0.550492       -14.9796
 202   2.0000      -0.548912       -14.9367
 203   2.0000      -0.548320       -14.9205
 204   2.0000      -0.544406       -14.8140
 205   2.0000      -0.541467       -14.7341
 206   2.0000      -0.539613       -14.6836
 207   2.0000      -0.537934       -14.6379
 208   2.0000      -0.534348       -14.5404
 209   2.0000      -0.530358       -14.4318
 210   2.0000      -0.528195       -14.3729
 211   2.0000      -0.526004       -14.3133
 212   2.0000      -0.524293       -14.2667
 213   2.0000      -0.520646       -14.1675
 214   2.0000      -0.516096       -14.0437
 215   2.0000      -0.515415       -14.0251
 216   2.0000      -0.513328       -13.9684
 217   2.0000      -0.507745       -13.8164
 218   2.0000      -0.506629       -13.7861
 219   2.0000      -0.506115       -13.7721
 220   2.0000      -0.505692       -13.7606
 221   2.0000      -0.503603       -13.7037
 222   2.0000      -0.500992       -13.6327
 223   2.0000      -0.498705       -13.5705
 224   2.0000      -0.496621       -13.5137
 225   2.0000      -0.492298       -13.3961
 226   2.0000      -0.491737       -13.3808
 227   2.0000      -0.489121       -13.3097
 228   2.0000      -0.486275       -13.2322
 229   2.0000      -0.480153       -13.0656
 230   2.0000      -0.479431       -13.0460
 231   2.0000      -0.478529       -13.0214
 232   2.0000      -0.477479       -12.9929
 233   2.0000      -0.475594       -12.9416
 234   2.0000      -0.473399       -12.8818
 235   2.0000      -0.471710       -12.8359
 236   2.0000      -0.467749       -12.7281
 237   2.0000      -0.466027       -12.6812
 238   2.0000      -0.464543       -12.6409
 239   2.0000      -0.462070       -12.5736
 240   2.0000      -0.461525       -12.5587
 241   2.0000      -0.458574       -12.4784
 242   2.0000      -0.457029       -12.4364
 243   2.0000      -0.456188       -12.4135
 244   2.0000      -0.454553       -12.3690
 245   2.0000      -0.451671       -12.2906
 246   2.0000      -0.450454       -12.2575
 247   2.0000      -0.448648       -12.2083
 248   2.0000      -0.448253       -12.1976
 249   2.0000      -0.447447       -12.1756
 250   2.0000      -0.444578       -12.0976
 251   2.0000      -0.443233       -12.0610
 252   2.0000      -0.442396       -12.0382
 253   2.0000      -0.442181       -12.0323
 254   2.0000      -0.441045       -12.0015
 255   2.0000      -0.438814       -11.9407
 256   2.0000      -0.438645       -11.9361
 257   2.0000      -0.438385       -11.9291
 258   2.0000      -0.437506       -11.9051
 259   2.0000      -0.436547       -11.8791
 260   2.0000      -0.433085       -11.7848
 261   2.0000      -0.432168       -11.7599
 262   2.0000      -0.429573       -11.6893
 263   2.0000      -0.426521       -11.6062
 264   2.0000      -0.425397       -11.5756
 265   2.0000      -0.424690       -11.5564
 266   2.0000      -0.423562       -11.5257
 267   2.0000      -0.421717       -11.4755
 268   2.0000      -0.418161       -11.3787
 269   2.0000      -0.413837       -11.2611
 270   2.0000      -0.412443       -11.2232
 271   2.0000      -0.408210       -11.1079
 272   2.0000      -0.407957       -11.1011
 273   2.0000      -0.398952       -10.8560
 274   2.0000      -0.398536       -10.8447
 275   2.0000      -0.389989       -10.6121
 276   2.0000      -0.388927       -10.5832
 277   2.0000      -0.381715       -10.3870
 278   2.0000      -0.368325       -10.0226
 279   2.0000      -0.362321        -9.8593
 280   2.0000      -0.357171        -9.7191
 281   2.0000      -0.350370        -9.5341
 282   2.0000      -0.350194        -9.5293
 283   2.0000      -0.347755        -9.4629
 284   2.0000      -0.347160        -9.4467
 285   2.0000      -0.342457        -9.3187
 286   2.0000      -0.337501        -9.1839
 287   2.0000      -0.332021        -9.0347
 288   2.0000      -0.325526        -8.8580
 289   2.0000      -0.319485        -8.6936
 290   2.0000      -0.316696        -8.6177
 291   2.0000      -0.306619        -8.3435
 292   2.0000      -0.297324        -8.0906
 293   2.0000      -0.284791        -7.7496
 294   2.0000      -0.266610        -7.2548
 295   2.0000      -0.232080        -6.3152
 296   0.0000      -0.122704        -3.3390
 297   0.0000      -0.108119        -2.9421
 298   0.0000      -0.094782        -2.5791
 299   0.0000      -0.085548        -2.3279
 300   0.0000      -0.076781        -2.0893

MULLIKEN ATOMIC CHARGES
-----------------------
   0 C :   -0.094539
   1 C :    0.166549
   2 O :   -0.184577
   3 C :   -0.028248
   4 C :    0.033337
   5 C :    0.324174
   6 C :   -0.352602
   7 C :   -0.187452
   8 N :    0.157354
   9 C :   -0.189505
  10 N :    0.154966
  11 C :   -0.032137
  12 C :    0.050654
  13 C :    0.073489
  14 C :   -0.014805
  15 Cl:   -0.067766
  16 C :   -0.030147
  17 C :   -0.053209
  18 C :   -0.058319
  19 C :    0.042014
  20 C :   -0.067170
  21 S :    0.242131
  22 C :   -0.109983
  23 C :    0.020811
  24 C :    0.315314
  25 C :   -0.297594
  26 C :   -0.177112
  27 N :    0.160034
  28 C :   -0.195985
  29 N :    0.187788
  30 C :   -0.054362
  31 C :   -0.048812
  32 S :    0.200288
  33 C :   -0.037637
  34 C :   -0.074327
  35 C :    0.049951
  36 C :    0.067340
  37 C :   -0.128304
  38 S :    0.128566
  39 C :   -0.107597
  40 C :    0.054093
  41 C :    0.010497
  42 C :   -0.065659
  43 S :    0.135907
  44 C :    0.084470
  45 C :   -0.022448
  46 C :    0.027462
  47 C :   -0.078846
  48 C :   -0.038189
  49 C :    0.014501
  50 C :   -0.118250
  51 S :    0.229505
  52 C :   -0.064832
  53 C :   -0.009428
  54 C :    0.308098
  55 C :   -0.287967
  56 C :   -0.184497
  57 N :    0.168091
  58 C :   -0.185282
  59 N :    0.166556
  60 C :   -0.001149
  61 C :   -0.114061
  62 S :    0.215383
  63 C :    0.084364
  64 C :   -0.140861
  65 C :    0.134174
  66 O :   -0.140679
  67 C :   -0.005899
  68 C :    0.013656
  69 C :    0.263019
  70 C :   -0.327307
  71 C :   -0.173264
  72 N :    0.158276
  73 C :   -0.204087
  74 N :    0.170780
  75 C :   -0.023999
  76 C :    0.048341
  77 C :    0.066675
  78 C :   -0.014453
  79 Cl:   -0.071041
  80 H :    0.009509
  81 H :    0.000982
  82 H :   -0.003846
  83 H :    0.016749
  84 H :    0.029014
  85 H :    0.004040
  86 H :   -0.017315
  87 H :    0.040683
  88 H :   -0.009239
  89 H :    0.031654
  90 H :   -0.010219
  91 H :   -0.019587
  92 H :    0.005239
  93 H :    0.026092
  94 H :    0.020121
  95 H :    0.014142
  96 H :    0.000772
  97 H :   -0.003014
Sum of atomic charges:   -0.0000000

LOEWDIN ATOMIC CHARGES
----------------------
   0 C :   -0.115624
   1 C :    0.086549
   2 O :   -0.170402
   3 C :   -0.038213
   4 C :   -0.017110
   5 C :    0.075406
   6 C :   -0.137479
   7 C :   -0.018992
   8 N :   -0.048790
   9 C :   -0.023047
  10 N :   -0.044876
  11 C :    0.009669
  12 C :   -0.017302
  13 C :   -0.106115
  14 C :   -0.005972
  15 Cl:    0.144317
  16 C :    0.056691
  17 C :   -0.185737
  18 C :    0.015724
  19 C :   -0.082378
  20 C :   -0.160468
  21 S :    0.544615
  22 C :   -0.196172
  23 C :   -0.050065
  24 C :    0.080957
  25 C :   -0.102255
  26 C :   -0.008154
  27 N :   -0.046205
  28 C :   -0.021591
  29 N :   -0.020380
  30 C :   -0.034889
  31 C :   -0.166149
  32 S :    0.475398
  33 C :   -0.193137
  34 C :   -0.009514
  35 C :   -0.023030
  36 C :   -0.044721
  37 C :   -0.138165
  38 S :    0.439543
  39 C :   -0.201261
  40 C :   -0.038286
  41 C :   -0.060886
  42 C :   -0.158713
  43 S :    0.427926
  44 C :   -0.041040
  45 C :   -0.003440
  46 C :   -0.056507
  47 C :   -0.150983
  48 C :   -0.032540
  49 C :   -0.052091
  50 C :   -0.198875
  51 S :    0.508649
  52 C :   -0.149432
  53 C :   -0.072045
  54 C :    0.084328
  55 C :   -0.101700
  56 C :   -0.013512
  57 N :   -0.033760
  58 C :   -0.014593
  59 N :   -0.036161
  60 C :    0.012963
  61 C :   -0.186319
  62 S :    0.499116
  63 C :    0.044757
  64 C :   -0.099675
  65 C :    0.083842
  66 O :   -0.140045
  67 C :   -0.039628
  68 C :   -0.015281
  69 C :    0.064797
  70 C :   -0.137320
  71 C :   -0.019802
  72 N :   -0.046528
  73 C :   -0.016376
  74 N :   -0.044734
  75 C :    0.008658
  76 C :   -0.017766
  77 C :   -0.107665
  78 C :   -0.005907
  79 Cl:    0.141351
  80 H :    0.043541
  81 H :    0.040315
  82 H :    0.042901
  83 H :    0.053985
  84 H :    0.048757
  85 H :    0.037071
  86 H :    0.037616
  87 H :    0.038755
  88 H :    0.033547
  89 H :    0.025865
  90 H :    0.033528
  91 H :    0.024747
  92 H :    0.038456
  93 H :    0.042594
  94 H :    0.045720
  95 H :    0.044234
  96 H :    0.039705
  97 H :    0.043214

  Mayer bond orders larger than 0.100000
B(  0-C ,  1-C ) :   0.9905 B(  0-C ,  5-C ) :   1.0784 B(  0-C , 16-C ) :   1.4806
B(  1-C ,  2-O ) :   2.1174 B(  1-C ,  3-C ) :   0.9575 B(  3-C ,  4-C ) :   1.3322
B(  3-C , 14-C ) :   1.3653 B(  4-C ,  5-C ) :   0.9893 B(  4-C , 11-C ) :   1.3668
B(  5-C ,  6-C ) :   1.6312 B(  6-C ,  7-C ) :   1.1449 B(  6-C ,  9-C ) :   1.1430
B(  7-C ,  8-N ) :   2.9743 B(  9-C , 10-N ) :   2.9634 B( 11-C , 12-C ) :   1.3703
B( 11-C , 80-H ) :   0.9821 B( 12-C , 13-C ) :   1.3848 B( 12-C , 81-H ) :   0.9874
B( 13-C , 14-C ) :   1.3293 B( 13-C , 15-Cl) :   0.9879 B( 14-C , 82-H ) :   1.0118
B( 16-C , 17-C ) :   1.2792 B( 16-C , 83-H ) :   0.9408 B( 17-C , 18-C ) :   1.3232
B( 17-C , 21-S ) :   1.0608 B( 18-C , 19-C ) :   1.3352 B( 18-C , 84-H ) :   1.0090
B( 19-C , 20-C ) :   1.3420 B( 19-C , 24-C ) :   0.9907 B( 20-C , 21-S ) :   1.1306
B( 20-C , 22-C ) :   1.2235 B( 22-C , 23-C ) :   1.4188 B( 22-C , 32-S ) :   1.1017
B( 23-C , 24-C ) :   1.0010 B( 23-C , 30-C ) :   1.3172 B( 24-C , 25-C ) :   1.7066
B( 25-C , 26-C ) :   1.1361 B( 25-C , 28-C ) :   1.1343 B( 26-C , 27-N ) :   2.9802
B( 28-C , 29-N ) :   2.9968 B( 30-C , 31-C ) :   1.4579 B( 30-C , 85-H ) :   0.9828
B( 31-C , 32-S ) :   1.1191 B( 31-C , 33-C ) :   1.1336 B( 33-C , 34-C ) :   1.5363
B( 33-C , 38-S ) :   1.0387 B( 34-C , 35-C ) :   1.2451 B( 34-C , 86-H ) :   0.9647
B( 35-C , 36-C ) :   1.0524 B( 35-C , 44-C ) :   1.3677 B( 36-C , 37-C ) :   1.6120
B( 36-C , 39-C ) :   1.1789 B( 37-C , 38-S ) :   1.1354 B( 37-C , 87-H ) :   0.9402
B( 39-C , 40-C ) :   1.4340 B( 39-C , 43-S ) :   1.0795 B( 40-C , 41-C ) :   1.2202
B( 40-C , 44-C ) :   1.1014 B( 41-C , 42-C ) :   1.5885 B( 41-C , 88-H ) :   0.9986
B( 42-C , 43-S ) :   1.1549 B( 42-C , 89-H ) :   0.9657 B( 44-C , 45-C ) :   1.1705
B( 45-C , 46-C ) :   1.6374 B( 45-C , 90-H ) :   0.9613 B( 46-C , 47-C ) :   1.1363
B( 46-C , 91-H ) :   0.9532 B( 47-C , 48-C ) :   1.4211 B( 47-C , 51-S ) :   1.1321
B( 48-C , 49-C ) :   1.3278 B( 48-C , 92-H ) :   0.9901 B( 49-C , 50-C ) :   1.4093
B( 49-C , 54-C ) :   0.9943 B( 50-C , 51-S ) :   1.1269 B( 50-C , 52-C ) :   1.2144
B( 52-C , 53-C ) :   1.3899 B( 52-C , 62-S ) :   1.1637 B( 53-C , 54-C ) :   1.0047
B( 53-C , 60-C ) :   1.3691 B( 54-C , 55-C ) :   1.7110 B( 55-C , 56-C ) :   1.1338
B( 55-C , 58-C ) :   1.1336 B( 56-C , 57-N ) :   2.9822 B( 58-C , 59-N ) :   2.9867
B( 60-C , 61-C ) :   1.3818 B( 60-C , 93-H ) :   0.9782 B( 61-C , 62-S ) :   1.0772
B( 61-C , 63-C ) :   1.1595 B( 63-C , 64-C ) :   1.6473 B( 63-C , 94-H ) :   0.9280
B( 64-C , 65-C ) :   0.9535 B( 64-C , 69-C ) :   1.0438 B( 65-C , 66-O ) :   2.2656
B( 65-C , 67-C ) :   0.9163 B( 67-C , 68-C ) :   1.3334 B( 67-C , 78-C ) :   1.3681
B( 68-C , 69-C ) :   1.0010 B( 68-C , 75-C ) :   1.3726 B( 69-C , 70-C ) :   1.6499
B( 70-C , 71-C ) :   1.1237 B( 70-C , 73-C ) :   1.1711 B( 71-C , 72-N ) :   2.9976
B( 73-C , 74-N ) :   2.9983 B( 75-C , 76-C ) :   1.3691 B( 75-C , 95-H ) :   0.9848
B( 76-C , 77-C ) :   1.3865 B( 76-C , 96-H ) :   0.9879 B( 77-C , 78-C ) :   1.3356
B( 77-C , 79-Cl) :   0.9874 B( 78-C , 97-H ) :   1.0112

-----------------------------------------------------------------------------
         ABSORPTION SPECTRUM VIA TRANSITION ELECTRIC DIPOLE MOMENTS
-----------------------------------------------------------------------------
State   Energy  Wavelength   fosc         T2         TX        TY        TZ
        (cm-1)    (nm)                  (au**2)     (au)      (au)      (au)
-----------------------------------------------------------------------------
   0    9415.6   1062.1   0.443871096  15.51968  -1.73548  -2.83739   2.11116
   1   11283.5    886.3   0.187976535   5.48448  -0.09252   0.88228   2.16737
   2   16030.6    623.8   0.396983429   8.15265   1.14085   1.22148  -2.31498
   3   16671.8    599.8   0.492979893   9.73470  -1.49121  -2.24651   1.56976
   4   18603.6    537.5   0.694149455  12.28379  -0.57749  -2.87595  -1.91813
   5   19563.9    511.1   0.208267175   3.50462   0.56992  -0.69709  -1.64131
   6   20583.8    485.8   0.004009694   0.06413  -0.19022   0.15268  -0.06808
   7   22396.7    446.5   0.095658826   1.40610  -0.23174  -0.72503  -0.90924
   8   22671.5    441.1   0.141345513   2.05247   0.62663   1.13619   0.60735
   9   23529.8    425.0   0.302954708   4.23872  -0.88704  -1.84473  -0.22100
  10   24250.7    412.4   0.035485309   0.48173  -0.36558  -0.30020  -0.50789
  11   24858.1    402.3   0.177596295   2.35202   0.56232   1.29546  -0.59800
  12   25515.7    391.9   0.331220861   4.27351  -0.04732   0.60689   1.97559
  13   25726.4    388.7   0.115577632   1.47901   0.71490   0.83735  -0.51650
  14   26321.4    379.9   0.047926613   0.59944   0.54257  -0.15360  -0.53053
  15   27888.4    358.6   0.010992172   0.12976  -0.32265  -0.11519  -0.11129
  16   28008.7    357.0   0.151725717   1.78337  -0.14865   0.02894  -1.32681
  17   28600.9    349.6   0.015213900   0.17512   0.03568  -0.38052   0.17045
  18   28939.1    345.6   0.006174668   0.07024  -0.12007  -0.01722   0.23565
  19   29447.0    339.6   0.334275728   3.73714   0.15302  -0.29946  -1.90369
  20   29496.6    339.0   0.097863466   1.09225  -0.62648  -0.49328   0.67562
  21   30034.0    333.0   0.410133079   4.49560   1.19765   0.84520  -1.53195
  22   30129.3    331.9   0.230246009   2.51582   0.95882   0.57870  -1.12320
  23   30290.7    330.1   0.150754800   1.63847   0.28058   0.00493  -1.24889
  24   30430.8    328.6   0.275002232   2.97507   0.05557  -0.05859  -1.72295
  25   30589.5    326.9   0.005211815   0.05609   0.18122   0.06775  -0.13660
  26   31086.4    321.7   0.007268348   0.07697   0.02730   0.24523  -0.12686
  27   31417.5    318.3   0.065316030   0.68442   0.30290   0.76807  -0.05234
  28   31523.5    317.2   0.125609673   1.31179   0.60549   0.97134   0.04075
  29   31820.5    314.3   0.060210114   0.62293  -0.77898  -0.04089   0.12019
  30   31955.9    312.9   0.145860993   1.50267  -0.77469  -0.62057   0.71932
  31   32564.0    307.1   0.146820243   1.48431   0.25260   0.02340   1.19162
  32   32720.2    305.6   0.059324056   0.59688   0.16491  -0.05940  -0.75244
  33   33067.3    302.4   0.013917849   0.13856  -0.24348  -0.26954  -0.08144
  34   33142.6    301.7   0.013341093   0.13252   0.20997   0.06480   0.29023
  35   33244.3    300.8   0.031490581   0.31185   0.25317   0.29165  -0.40335
  36   33306.9    300.2   0.021298817   0.21052  -0.08820  -0.43265  -0.12472
  37   33393.6    299.5   0.134560221   1.32657   0.16032  -0.07969   1.13777
  38   33546.7    298.1   0.004944208   0.04852  -0.12317   0.17155   0.06261
  39   33839.1    295.5   0.545098518   5.30312  -0.80689  -1.64661  -1.39310
  40   34101.4    293.2   0.017177567   0.16583  -0.22075  -0.19187   0.28335
  41   34333.8    291.3   0.909266602   8.71856   0.34713  -1.16413  -2.69126
  42   34474.8    290.1   0.182624849   1.74395  -1.05895  -0.71197   0.34011
  43   34853.5    286.9   0.422441657   3.99021  -0.52938   0.39852  -1.88445
  44   34922.2    286.4   0.062631971   0.59043  -0.67308  -0.09461  -0.35839
  45   35305.6    283.2   0.190184798   1.77341  -0.65078  -1.14692  -0.18564
  46   35635.4    280.6   0.141548331   1.30767   0.55592   0.94564  -0.32310
  47   35975.0    278.0   0.099196224   0.90776  -0.41697  -0.69071   0.50677
  48   36085.6    277.1   0.046577959   0.42493   0.27670   0.54265  -0.23217
  49   36434.6    274.5   0.024793407   0.22403   0.16458   0.34901   0.27410
  50   36731.4    272.2   0.043608456   0.39085  -0.41523  -0.30957   0.35014
  51   36930.2    270.8   0.044306326   0.39497   0.06246   0.45084   0.43337
  52   37219.3    268.7   0.105534512   0.93347  -0.07398   0.24145  -0.93258
  53   37238.6    268.5   0.063598681   0.56225   0.08201  -0.53846  -0.51535
  54   37376.3    267.5   0.018251823   0.16076  -0.02368  -0.39540   0.06213
  55   37444.3    267.1   0.077544189   0.68177  -0.55712  -0.24955  -0.55598
  56   37699.3    265.3   0.114664657   1.00132   0.39339   0.63124   0.66940
  57   37794.3    264.6   0.016014410   0.13950  -0.10193   0.35236  -0.07034
  58   38152.7    262.1   0.004573369   0.03946  -0.07826  -0.13864   0.11881
  59   38488.8    259.8   0.007951065   0.06801   0.16985  -0.02547  -0.19624
  60   38579.3    259.2   0.016233986   0.13853   0.17246   0.13120   0.30262
  61   38683.7    258.5   0.019060288   0.16221   0.30366  -0.26058  -0.04585
  62   38898.3    257.1   0.000657527   0.00556   0.05724  -0.04621   0.01238
  63   38958.2    256.7   0.006612591   0.05588   0.07401   0.16658   0.15050
  64   39181.5    255.2   0.034531264   0.29014  -0.31054  -0.26857   0.34867
  65   39401.6    253.8   0.002363358   0.01975  -0.13212  -0.04779   0.00270
  66   39461.4    253.4   0.006660640   0.05557   0.05732   0.19374   0.12144
  67   39603.2    252.5   0.001987717   0.01652  -0.11471  -0.04652   0.03466
  68   39802.9    251.2   0.007536438   0.06233   0.07738   0.19710   0.13229
  69   40184.9    248.8   0.006144788   0.05034  -0.09627   0.07637   0.18772
  70   40326.6    248.0   0.020116342   0.16422   0.03220   0.20789   0.34636

FINAL SINGLE POINT ENERGY     -6266.438961865296

DIPOLE MOMENT
-------------
                                X             Y             Z
Electronic contribution:     10.74915      17.22723       3.16094
Nuclear contribution   :     -8.40400     -19.43215      -7.67926
                        -----------------------------------------
Total Dipole Moment    :      2.34515      -2.20492      -4.51832
                        -----------------------------------------
Magnitude (a.u.)       :      5.54766
Magnitude (Debye)      :     14.10104

Rotational constants in cm-1:     0.000742     0.000224     0.000175
Rotational constants in MHz :    22.229737     6.708667     5.243910

                             ****ORCA TERMINATED NORMALLY****
TOTAL RUN TIME: 0 days 0 hours 11 minutes 15 seconds 775 msec
