                         Program Version 4.2.0 -  RELEASE  -
|  1> # ORCA input file
|  2> # SCF done       -171.969137315408          0.000698258965
|  3> ! CAM-B3LYP def2-SVP def2/J RIJCOSX Grid4 TightSCF
|  4> %maxcore 5000
|  5> %tddft
|  6>     Mode sTDDFT
|  7>     Ethresh 5.0
|  8>     maxcore 5000
|  9> end
| 10>
| 11> %pal
| 12>   nprocs 6
| 13>   end
| 14> * xyz 0 1
| 15>    C       -5.79381         2.80289        -2.86846
| 16>    S       -5.07272         4.01946        -1.87361
| 17>    C       -6.52747         4.14164        -0.93090
| 18>    C       -7.51148         3.25390        -1.39696
| 19>    C       -7.06066         2.49626        -2.51197
| 20>    C       -8.74233         3.21688        -0.71536
| 21>    C       -8.94404         4.08211         0.37240
| 22>    S      -10.49215         3.79844         1.11478
| 23>    C      -10.85073         2.56602        -0.03809
| 24>    C       -9.86144         2.36615        -0.93463
| 25>    C       -7.95789         4.99100         0.79664
| 26>    C       -6.73524         4.99535         0.14779
| 27>    N       -8.16104         5.82607         1.89820
| 28>    C       -9.26383         6.59243         2.10781
| 29>    S      -10.36511         6.94792         0.81443
| 30>    C      -11.26417         7.98595         1.87643
| 31>    N      -12.41264         8.59419         1.37192
| 32>    O      -13.04136         9.32820         2.11460
| 33>    O      -12.70159         8.34840         0.21126
| 34>    C      -10.72704         8.06396         3.13330
| 35>    C       -9.58291         7.26102         3.29584
| 36>    C       -8.90117         7.16521         4.56360
| 37>    C       -8.04743         6.19874         4.94626
| 38>    C       -7.39404         6.07277         6.22616
| 39>    C       -7.11444         7.01015         7.14392
| 40>    C       -7.39588         8.47483         7.01287
| 41>    C       -6.45188         6.61102         8.43539
| 42>    N       -5.14828         7.23125         8.55777
| 43>    C       -4.37128         7.16158         9.64872
| 44>    C       -4.67022         6.46287        10.78459
| 45>    C       -3.88880         6.40823        11.95184
| 46>    C       -2.77615         7.12884        12.31757
| 47>    C       -2.07294         6.96077        13.53426
| 48>    C       -1.02849         7.81831        13.71412
| 49>    C       -0.84607         8.72476        12.64937
| 50>    S       -2.02908         8.43571        11.40244
| 51>    C        0.09464         9.73757        12.54186
| 52>    C        1.11384        10.07231        13.45078
| 53>    C        1.85820        11.15379        13.06800
| 54>    C        1.46192        11.72129        11.84128
| 55>    S        0.11414        10.83667        11.17677
| 56>    C        2.00746        12.84402        11.23710
| 57>    C        1.58042        13.34673        10.02110
| 58>    C        2.01238        14.49411         9.37535
| 59>    C        1.80772        14.62675         7.92321
| 60>    O        1.13239        13.91499         7.20574
| 61>    C        2.63511        15.78438         7.51187
| 62>    C        2.86645        16.27758         6.26224
| 63>    C        3.73339        17.38455         6.10930
| 64>    C        4.34459        17.95540         7.26172
| 65>    C        5.21245        19.05355         7.10352
| 66>    C        5.46039        19.56284         5.85951
| 67>    C        4.85512        18.99838         4.72133
| 68>    C        4.00886        17.93169         4.84183
| 69>    F        5.11676        19.51705         3.50998
| 70>    F        6.28762        20.61026         5.71217
| 71>    C        4.07706        17.42605         8.54681
| 72>    C        3.23079        16.35890         8.66988
| 73>    C        2.75002        15.62748         9.84560
| 74>    C        2.83619        16.09379        11.14067
| 75>    C        2.11588        15.56681        12.22843
| 76>    N        1.51950        15.21829        13.14732
| 77>    C        3.56940        17.23335        11.51742
| 78>    N        4.16983        18.13954        11.89135
| 79>    H       -5.21513         2.38777        -3.67008
| 80>    H       -7.66168         1.76373        -3.01883
| 81>    H      -11.79562         2.06350         0.02880
| 82>    H       -9.90877         1.63968        -1.72481
| 83>    H       -5.95141         5.66428         0.46812
| 84>    H       -7.32713         6.10905         2.39785
| 85>    H      -11.16556         8.66252         3.91130
| 86>    H       -9.19635         7.92602         5.26851
| 87>    H       -7.86864         5.36387         4.28184
| 88>    H       -7.07619         5.06015         6.44685
| 89>    H       -7.27851         8.80675         5.98354
| 90>    H       -6.72883         9.05177         7.65051
| 91>    H       -8.41615         8.69538         7.32803
| 92>    H       -6.35327         5.51996         8.49440
| 93>    H       -7.07317         6.94155         9.27829
| 94>    H       -4.78281         7.67851         7.73272
| 95>    H       -3.44142         7.70461         9.57283
| 96>    H       -5.57151         5.86790        10.80102
| 97>    H       -4.22271         5.69801        12.69901
| 98>    H       -2.36507         6.20895        14.24657
| 99>    H       -0.39926         7.83116        14.58527
|100>    H        1.27677         9.51833        14.35777
|101>    H        2.67102        11.56607        13.63843
|102>    H        2.82089        13.32076        11.76428
|103>    H        0.88462        12.74117         9.44706
|104>    H        2.39640        15.83084         5.39925
|105>    H        5.68214        19.49965         7.96626
|106>    H        3.55292        17.51035         3.95952
|107>    H        4.55716        17.87743         9.40013
|108> *
|109>
|110>                          ****END OF INPUT****

CARTESIAN COORDINATES (ANGSTROEM)
---------------------------------
  C     -5.793810    2.802890   -2.868460
  S     -5.072720    4.019460   -1.873610
  C     -6.527470    4.141640   -0.930900
  C     -7.511480    3.253900   -1.396960
  C     -7.060660    2.496260   -2.511970
  C     -8.742330    3.216880   -0.715360
  C     -8.944040    4.082110    0.372400
  S    -10.492150    3.798440    1.114780
  C    -10.850730    2.566020   -0.038090
  C     -9.861440    2.366150   -0.934630
  C     -7.957890    4.991000    0.796640
  C     -6.735240    4.995350    0.147790
  N     -8.161040    5.826070    1.898200
  C     -9.263830    6.592430    2.107810
  S    -10.365110    6.947920    0.814430
  C    -11.264170    7.985950    1.876430
  N    -12.412640    8.594190    1.371920
  O    -13.041360    9.328200    2.114600
  O    -12.701590    8.348400    0.211260
  C    -10.727040    8.063960    3.133300
  C     -9.582910    7.261020    3.295840
  C     -8.901170    7.165210    4.563600
  C     -8.047430    6.198740    4.946260
  C     -7.394040    6.072770    6.226160
  C     -7.114440    7.010150    7.143920
  C     -7.395880    8.474830    7.012870
  C     -6.451880    6.611020    8.435390
  N     -5.148280    7.231250    8.557770
  C     -4.371280    7.161580    9.648720
  C     -4.670220    6.462870   10.784590
  C     -3.888800    6.408230   11.951840
  C     -2.776150    7.128840   12.317570
  C     -2.072940    6.960770   13.534260
  C     -1.028490    7.818310   13.714120
  C     -0.846070    8.724760   12.649370
  S     -2.029080    8.435710   11.402440
  C      0.094640    9.737570   12.541860
  C      1.113840   10.072310   13.450780
  C      1.858200   11.153790   13.068000
  C      1.461920   11.721290   11.841280
  S      0.114140   10.836670   11.176770
  C      2.007460   12.844020   11.237100
  C      1.580420   13.346730   10.021100
  C      2.012380   14.494110    9.375350
  C      1.807720   14.626750    7.923210
  O      1.132390   13.914990    7.205740
  C      2.635110   15.784380    7.511870
  C      2.866450   16.277580    6.262240
  C      3.733390   17.384550    6.109300
  C      4.344590   17.955400    7.261720
  C      5.212450   19.053550    7.103520
  C      5.460390   19.562840    5.859510
  C      4.855120   18.998380    4.721330
  C      4.008860   17.931690    4.841830
  F      5.116760   19.517050    3.509980
  F      6.287620   20.610260    5.712170
  C      4.077060   17.426050    8.546810
  C      3.230790   16.358900    8.669880
  C      2.750020   15.627480    9.845600
  C      2.836190   16.093790   11.140670
  C      2.115880   15.566810   12.228430
  N      1.519500   15.218290   13.147320
  C      3.569400   17.233350   11.517420
  N      4.169830   18.139540   11.891350
  H     -5.215130    2.387770   -3.670080
  H     -7.661680    1.763730   -3.018830
  H    -11.795620    2.063500    0.028800
  H     -9.908770    1.639680   -1.724810
  H     -5.951410    5.664280    0.468120
  H     -7.327130    6.109050    2.397850
  H    -11.165560    8.662520    3.911300
  H     -9.196350    7.926020    5.268510
  H     -7.868640    5.363870    4.281840
  H     -7.076190    5.060150    6.446850
  H     -7.278510    8.806750    5.983540
  H     -6.728830    9.051770    7.650510
  H     -8.416150    8.695380    7.328030
  H     -6.353270    5.519960    8.494400
  H     -7.073170    6.941550    9.278290
  H     -4.782810    7.678510    7.732720
  H     -3.441420    7.704610    9.572830
  H     -5.571510    5.867900   10.801020
  H     -4.222710    5.698010   12.699010
  H     -2.365070    6.208950   14.246570
  H     -0.399260    7.831160   14.585270
  H      1.276770    9.518330   14.357770
  H      2.671020   11.566070   13.638430
  H      2.820890   13.320760   11.764280
  H      0.884620   12.741170    9.447060
  H      2.396400   15.830840    5.399250
  H      5.682140   19.499650    7.966260
  H      3.552920   17.510350    3.959520
  H      4.557160   17.877430    9.400130

 Total Charge           Charge          ....    0
 Multiplicity           Mult            ....    1
 Number of Electrons    NEL             ....  480
 Basis Dimension        Dim             .... 1061

ORBITAL ENERGIES
----------------

  NO   OCC          E(Eh)            E(eV)
   0   2.0000     -88.981496     -2421.3096
   1   2.0000     -88.964853     -2420.8567
   2   2.0000     -88.963810     -2420.8283
   3   2.0000     -88.959633     -2420.7147
   4   2.0000     -88.953602     -2420.5506
   5   2.0000     -24.780202      -674.3036
   6   2.0000     -24.779172      -674.2755
   7   2.0000     -19.231908      -523.3268
   8   2.0000     -19.231322      -523.3109
   9   2.0000     -19.184205      -522.0288
  10   2.0000     -14.643647      -398.4739
  11   2.0000     -14.475557      -393.8999
  12   2.0000     -14.471820      -393.7982
  13   2.0000     -14.387588      -391.5062
  14   2.0000     -14.385215      -391.4416
  15   2.0000     -10.368381      -282.1380
  16   2.0000     -10.361106      -281.9400
  17   2.0000     -10.360492      -281.9233
  18   2.0000     -10.348408      -281.5945
  19   2.0000     -10.341806      -281.4149
  20   2.0000     -10.336769      -281.2778
  21   2.0000     -10.335800      -281.2514
  22   2.0000     -10.334315      -281.2110
  23   2.0000     -10.333755      -281.1958
  24   2.0000     -10.318979      -280.7937
  25   2.0000     -10.313067      -280.6328
  26   2.0000     -10.312080      -280.6060
  27   2.0000     -10.312020      -280.6043
  28   2.0000     -10.311337      -280.5858
  29   2.0000     -10.310904      -280.5739
  30   2.0000     -10.310881      -280.5733
  31   2.0000     -10.308914      -280.5198
  32   2.0000     -10.307671      -280.4860
  33   2.0000     -10.306545      -280.4554
  34   2.0000     -10.305291      -280.4212
  35   2.0000     -10.304165      -280.3906
  36   2.0000     -10.302599      -280.3480
  37   2.0000     -10.301162      -280.3089
  38   2.0000     -10.298477      -280.2358
  39   2.0000     -10.296817      -280.1906
  40   2.0000     -10.296108      -280.1713
  41   2.0000     -10.295662      -280.1592
  42   2.0000     -10.292331      -280.0686
  43   2.0000     -10.292320      -280.0683
  44   2.0000     -10.291690      -280.0511
  45   2.0000     -10.291289      -280.0402
  46   2.0000     -10.290705      -280.0243
  47   2.0000     -10.289513      -279.9919
  48   2.0000     -10.287899      -279.9480
  49   2.0000     -10.287612      -279.9401
  50   2.0000     -10.287567      -279.9389
  51   2.0000     -10.286745      -279.9166
  52   2.0000     -10.284531      -279.8563
  53   2.0000     -10.283530      -279.8291
  54   2.0000     -10.281850      -279.7834
  55   2.0000     -10.281646      -279.7778
  56   2.0000     -10.281595      -279.7764
  57   2.0000     -10.280436      -279.7449
  58   2.0000     -10.280104      -279.7358
  59   2.0000     -10.278111      -279.6816
  60   2.0000     -10.276539      -279.6388
  61   2.0000     -10.268006      -279.4066
  62   2.0000     -10.266666      -279.3702
  63   2.0000     -10.260176      -279.1936
  64   2.0000      -8.076661      -219.7771
  65   2.0000      -8.060729      -219.3436
  66   2.0000      -8.059206      -219.3021
  67   2.0000      -8.055894      -219.2120
  68   2.0000      -8.049769      -219.0453
  69   2.0000      -6.046288      -164.5279
  70   2.0000      -6.041766      -164.4048
  71   2.0000      -6.038272      -164.3097
  72   2.0000      -6.030328      -164.0936
  73   2.0000      -6.028854      -164.0535
  74   2.0000      -6.026348      -163.9853
  75   2.0000      -6.025452      -163.9609
  76   2.0000      -6.024334      -163.9305
  77   2.0000      -6.021947      -163.8655
  78   2.0000      -6.021213      -163.8455
  79   2.0000      -6.020953      -163.8385
  80   2.0000      -6.019322      -163.7941
  81   2.0000      -6.017467      -163.7436
  82   2.0000      -6.015326      -163.6853
  83   2.0000      -6.011036      -163.5686
  84   2.0000      -1.312146       -35.7053
  85   2.0000      -1.301421       -35.4135
  86   2.0000      -1.286709       -35.0131
  87   2.0000      -1.130832       -30.7715
  88   2.0000      -1.097828       -29.8734
  89   2.0000      -1.087426       -29.5904
  90   2.0000      -1.067917       -29.0595
  91   2.0000      -1.011739       -27.5308
  92   2.0000      -1.006697       -27.3936
  93   2.0000      -0.997754       -27.1503
  94   2.0000      -0.991661       -26.9845
  95   2.0000      -0.982570       -26.7371
  96   2.0000      -0.980220       -26.6731
  97   2.0000      -0.979078       -26.6421
  98   2.0000      -0.965560       -26.2742
  99   2.0000      -0.955546       -26.0017
 100   2.0000      -0.942610       -25.6497
 101   2.0000      -0.923504       -25.1298
 102   2.0000      -0.917047       -24.9541
 103   2.0000      -0.909046       -24.7364
 104   2.0000      -0.904518       -24.6132
 105   2.0000      -0.890518       -24.2322
 106   2.0000      -0.879529       -23.9332
 107   2.0000      -0.873682       -23.7741
 108   2.0000      -0.871350       -23.7106
 109   2.0000      -0.867143       -23.5962
 110   2.0000      -0.861148       -23.4330
 111   2.0000      -0.855273       -23.2732
 112   2.0000      -0.844629       -22.9835
 113   2.0000      -0.842633       -22.9292
 114   2.0000      -0.832538       -22.6545
 115   2.0000      -0.826494       -22.4901
 116   2.0000      -0.817331       -22.2407
 117   2.0000      -0.812592       -22.1117
 118   2.0000      -0.812242       -22.1022
 119   2.0000      -0.804863       -21.9014
 120   2.0000      -0.800402       -21.7800
 121   2.0000      -0.790374       -21.5072
 122   2.0000      -0.765475       -20.8296
 123   2.0000      -0.759113       -20.6565
 124   2.0000      -0.740353       -20.1460
 125   2.0000      -0.734293       -19.9811
 126   2.0000      -0.727003       -19.7828
 127   2.0000      -0.716636       -19.5007
 128   2.0000      -0.713267       -19.4090
 129   2.0000      -0.696853       -18.9623
 130   2.0000      -0.692840       -18.8531
 131   2.0000      -0.692424       -18.8418
 132   2.0000      -0.685811       -18.6619
 133   2.0000      -0.680785       -18.5251
 134   2.0000      -0.669536       -18.2190
 135   2.0000      -0.666629       -18.1399
 136   2.0000      -0.661930       -18.0120
 137   2.0000      -0.655185       -17.8285
 138   2.0000      -0.643240       -17.5034
 139   2.0000      -0.641586       -17.4584
 140   2.0000      -0.634587       -17.2680
 141   2.0000      -0.634136       -17.2557
 142   2.0000      -0.632176       -17.2024
 143   2.0000      -0.628541       -17.1035
 144   2.0000      -0.624912       -17.0047
 145   2.0000      -0.622189       -16.9306
 146   2.0000      -0.620055       -16.8726
 147   2.0000      -0.618808       -16.8386
 148   2.0000      -0.614314       -16.7163
 149   2.0000      -0.609489       -16.5850
 150   2.0000      -0.605028       -16.4636
 151   2.0000      -0.601727       -16.3738
 152   2.0000      -0.588622       -16.0172
 153   2.0000      -0.586064       -15.9476
 154   2.0000      -0.582795       -15.8587
 155   2.0000      -0.577724       -15.7207
 156   2.0000      -0.572758       -15.5855
 157   2.0000      -0.566532       -15.4161
 158   2.0000      -0.565965       -15.4007
 159   2.0000      -0.565057       -15.3760
 160   2.0000      -0.561090       -15.2680
 161   2.0000      -0.553385       -15.0584
 162   2.0000      -0.548775       -14.9329
 163   2.0000      -0.548546       -14.9267
 164   2.0000      -0.544303       -14.8112
 165   2.0000      -0.537533       -14.6270
 166   2.0000      -0.533765       -14.5245
 167   2.0000      -0.533128       -14.5071
 168   2.0000      -0.528799       -14.3894
 169   2.0000      -0.528676       -14.3860
 170   2.0000      -0.520015       -14.1503
 171   2.0000      -0.518774       -14.1165
 172   2.0000      -0.516570       -14.0566
 173   2.0000      -0.512982       -13.9589
 174   2.0000      -0.511482       -13.9181
 175   2.0000      -0.510063       -13.8795
 176   2.0000      -0.509094       -13.8531
 177   2.0000      -0.508718       -13.8429
 178   2.0000      -0.507147       -13.8002
 179   2.0000      -0.504828       -13.7371
 180   2.0000      -0.503343       -13.6967
 181   2.0000      -0.499010       -13.5787
 182   2.0000      -0.496357       -13.5066
 183   2.0000      -0.492789       -13.4095
 184   2.0000      -0.491333       -13.3698
 185   2.0000      -0.485038       -13.1986
 186   2.0000      -0.484142       -13.1742
 187   2.0000      -0.478069       -13.0089
 188   2.0000      -0.475760       -12.9461
 189   2.0000      -0.473403       -12.8820
 190   2.0000      -0.471013       -12.8169
 191   2.0000      -0.470131       -12.7929
 192   2.0000      -0.465880       -12.6772
 193   2.0000      -0.463809       -12.6209
 194   2.0000      -0.460728       -12.5370
 195   2.0000      -0.459773       -12.5111
 196   2.0000      -0.455650       -12.3989
 197   2.0000      -0.453580       -12.3425
 198   2.0000      -0.446921       -12.1613
 199   2.0000      -0.445132       -12.1126
 200   2.0000      -0.443674       -12.0730
 201   2.0000      -0.442621       -12.0443
 202   2.0000      -0.442199       -12.0328
 203   2.0000      -0.439157       -11.9501
 204   2.0000      -0.431926       -11.7533
 205   2.0000      -0.430916       -11.7258
 206   2.0000      -0.429557       -11.6889
 207   2.0000      -0.426352       -11.6016
 208   2.0000      -0.423608       -11.5270
 209   2.0000      -0.421856       -11.4793
 210   2.0000      -0.417368       -11.3572
 211   2.0000      -0.415403       -11.3037
 212   2.0000      -0.412753       -11.2316
 213   2.0000      -0.407184       -11.0800
 214   2.0000      -0.402284       -10.9467
 215   2.0000      -0.398565       -10.8455
 216   2.0000      -0.394106       -10.7242
 217   2.0000      -0.390894       -10.6368
 218   2.0000      -0.386038       -10.5046
 219   2.0000      -0.380514       -10.3543
 220   2.0000      -0.376597       -10.2477
 221   2.0000      -0.374067       -10.1789
 222   2.0000      -0.368631       -10.0310
 223   2.0000      -0.365047        -9.9334
 224   2.0000      -0.360343        -9.8054
 225   2.0000      -0.357736        -9.7345
 226   2.0000      -0.351616        -9.5680
 227   2.0000      -0.347238        -9.4488
 228   2.0000      -0.340814        -9.2740
 229   2.0000      -0.331046        -9.0082
 230   2.0000      -0.320702        -8.7268
 231   2.0000      -0.311738        -8.4828
 232   2.0000      -0.309112        -8.4114
 233   2.0000      -0.297279        -8.0894
 234   2.0000      -0.294548        -8.0150
 235   2.0000      -0.289584        -7.8800
 236   2.0000      -0.281840        -7.6693
 237   2.0000      -0.271571        -7.3898
 238   2.0000      -0.261171        -7.1068
 239   2.0000      -0.215680        -5.8689
 240   0.0000      -0.098050        -2.6681
 241   0.0000      -0.054374        -1.4796
 242   0.0000      -0.045897        -1.2489
 243   0.0000      -0.036483        -0.9928
 244   0.0000      -0.030297        -0.8244

MULLIKEN ATOMIC CHARGES
-----------------------
   0 C :   -0.054250
   1 S :    0.111323
   2 C :   -0.097531
   3 C :    0.072385
   4 C :    0.008091
   5 C :    0.088768
   6 C :   -0.152026
   7 S :    0.134927
   8 C :   -0.041174
   9 C :   -0.002385
  10 C :    0.068506
  11 C :   -0.062076
  12 N :   -0.071070
  13 C :   -0.117242
  14 S :    0.198175
  15 C :   -0.021024
  16 N :    0.280153
  17 O :   -0.258101
  18 O :   -0.269228
  19 C :    0.004146
  20 C :    0.109647
  21 C :   -0.007383
  22 C :   -0.030265
  23 C :    0.026023
  24 C :   -0.238545
  25 C :    0.090513
  26 C :    0.211504
  27 N :   -0.151278
  28 C :    0.077355
  29 C :   -0.081518
  30 C :    0.044833
  31 C :   -0.060832
  32 C :    0.055011
  33 C :    0.008162
  34 C :   -0.009306
  35 S :    0.063803
  36 C :   -0.069693
  37 C :    0.043474
  38 C :    0.027472
  39 C :   -0.012091
  40 S :    0.100820
  41 C :   -0.006394
  42 C :    0.020801
  43 C :   -0.142643
  44 C :    0.137559
  45 O :   -0.168482
  46 C :    0.005783
  47 C :   -0.092065
  48 C :    0.113030
  49 C :    0.111722
  50 C :   -0.109384
  51 C :    0.237370
  52 C :    0.234379
  53 C :   -0.106799
  54 F :   -0.180665
  55 F :   -0.179529
  56 C :   -0.088631
  57 C :    0.039570
  58 C :    0.299503
  59 C :   -0.358764
  60 C :   -0.223892
  61 N :    0.149502
  62 C :   -0.176812
  63 N :    0.122192
  64 H :    0.031349
  65 H :   -0.017057
  66 H :    0.033141
  67 H :   -0.015119
  68 H :   -0.040685
  69 H :    0.141983
  70 H :    0.005210
  71 H :   -0.018856
  72 H :   -0.006578
  73 H :   -0.016940
  74 H :    0.033248
  75 H :    0.009876
  76 H :    0.046129
  77 H :    0.020757
  78 H :    0.030228
  79 H :    0.139437
  80 H :    0.029034
  81 H :   -0.008490
  82 H :   -0.000530
  83 H :   -0.005314
  84 H :   -0.009643
  85 H :   -0.008675
  86 H :   -0.002263
  87 H :    0.005399
  88 H :    0.007310
  89 H :   -0.020585
  90 H :    0.001241
  91 H :   -0.008134
  92 H :   -0.010899
Sum of atomic charges:    0.0000000

LOEWDIN ATOMIC CHARGES
----------------------
   0 C :   -0.161757
   1 S :    0.407911
   2 C :   -0.157997
   3 C :   -0.049338
   4 C :   -0.059699
   5 C :   -0.033263
   6 C :   -0.190461
   7 S :    0.419781
   8 C :   -0.157096
   9 C :   -0.060530
  10 C :   -0.015118
  11 C :   -0.063183
  12 N :    0.013929
  13 C :   -0.105991
  14 S :    0.477185
  15 C :   -0.219287
  16 N :    0.274304
  17 O :   -0.223707
  18 O :   -0.235403
  19 C :   -0.002345
  20 C :   -0.108235
  21 C :   -0.007691
  22 C :   -0.057395
  23 C :   -0.040086
  24 C :   -0.044770
  25 C :   -0.055321
  26 C :    0.047531
  27 N :    0.024784
  28 C :    0.069540
  29 C :   -0.143721
  30 C :    0.006424
  31 C :   -0.189933
  32 C :    0.000054
  33 C :   -0.063550
  34 C :   -0.134842
  35 S :    0.388967
  36 C :   -0.210252
  37 C :   -0.004438
  38 C :   -0.049351
  39 C :   -0.096647
  40 S :    0.399749
  41 C :   -0.079548
  42 C :    0.049762
  43 C :   -0.122589
  44 C :    0.074363
  45 O :   -0.172175
  46 C :   -0.048274
  47 C :    0.018791
  48 C :   -0.012623
  49 C :   -0.008750
  50 C :   -0.031840
  51 C :    0.061555
  52 C :    0.061594
  53 C :   -0.036347
  54 F :   -0.057790
  55 F :   -0.056610
  56 C :    0.005783
  57 C :   -0.015367
  58 C :    0.066906
  59 C :   -0.165374
  60 C :   -0.024015
  61 N :   -0.072678
  62 C :   -0.019578
  63 N :   -0.077502
  64 H :    0.026421
  65 H :    0.031151
  66 H :    0.028278
  67 H :    0.031668
  68 H :    0.029009
  69 H :    0.090687
  70 H :    0.043236
  71 H :    0.032032
  72 H :    0.024160
  73 H :    0.028807
  74 H :    0.036408
  75 H :    0.026477
  76 H :    0.041629
  77 H :    0.025762
  78 H :    0.031280
  79 H :    0.086799
  80 H :    0.018240
  81 H :    0.028156
  82 H :    0.041861
  83 H :    0.036644
  84 H :    0.033217
  85 H :    0.034382
  86 H :    0.038334
  87 H :    0.037055
  88 H :    0.031159
  89 H :    0.035987
  90 H :    0.045414
  91 H :    0.041627
  92 H :    0.037677

  Mayer bond orders larger than 0.100000
B(  0-C ,  1-S ) :   1.1284 B(  0-C ,  4-C ) :   1.6276 B(  0-C , 64-H ) :   0.9661
B(  1-S ,  2-C ) :   1.0722 B(  2-C ,  3-C ) :   1.3602 B(  2-C , 11-C ) :   1.2756
B(  3-C ,  4-C ) :   1.2073 B(  3-C ,  5-C ) :   1.2099 B(  4-C , 65-H ) :   0.9953
B(  5-C ,  6-C ) :   1.3712 B(  5-C ,  9-C ) :   1.2018 B(  6-C ,  7-S ) :   1.0773
B(  6-C , 10-C ) :   1.3240 B(  7-S ,  8-C ) :   1.1290 B(  8-C ,  9-C ) :   1.6265
B(  8-C , 66-H ) :   0.9674 B(  9-C , 67-H ) :   0.9958 B( 10-C , 11-C ) :   1.4512
B( 10-C , 12-N ) :   1.0339 B( 11-C , 68-H ) :   1.0000 B( 12-N , 13-C ) :   1.1888
B( 12-N , 69-H ) :   0.9082 B( 13-C , 14-S ) :   1.1552 B( 13-C , 20-C ) :   1.3697
B( 14-S , 15-C ) :   1.0796 B( 15-C , 16-N ) :   0.9792 B( 15-C , 19-C ) :   1.4746
B( 16-N , 17-O ) :   1.5282 B( 16-N , 18-O ) :   1.5085 B( 17-O , 18-O ) :   0.2545
B( 19-C , 20-C ) :   1.2255 B( 19-C , 70-H ) :   1.0047 B( 20-C , 21-C ) :   1.1036
B( 21-C , 22-C ) :   1.7077 B( 21-C , 71-H ) :   0.9637 B( 22-C , 23-C ) :   1.1156
B( 22-C , 72-H ) :   0.9551 B( 23-C , 24-C ) :   1.8337 B( 23-C , 73-H ) :   0.9490
B( 24-C , 25-C ) :   1.0732 B( 24-C , 26-C ) :   1.0375 B( 25-C , 74-H ) :   0.9460
B( 25-C , 75-H ) :   0.9447 B( 25-C , 76-H ) :   0.9393 B( 26-C , 27-N ) :   0.9642
B( 26-C , 77-H ) :   0.9378 B( 26-C , 78-H ) :   0.9301 B( 27-N , 28-C ) :   1.3214
B( 27-N , 79-H ) :   0.9318 B( 28-C , 29-C ) :   1.5189 B( 28-C , 80-H ) :   0.9486
B( 29-C , 30-C ) :   1.2541 B( 29-C , 81-H ) :   0.9585 B( 30-C , 31-C ) :   1.5385
B( 30-C , 82-H ) :   0.9602 B( 31-C , 32-C ) :   1.1841 B( 31-C , 35-S ) :   1.0096
B( 32-C , 33-C ) :   1.5423 B( 32-C , 83-H ) :   0.9982 B( 33-C , 34-C ) :   1.2275
B( 33-C , 84-H ) :   0.9937 B( 34-C , 35-S ) :   1.0914 B( 34-C , 36-C ) :   1.4242
B( 36-C , 37-C ) :   1.2546 B( 36-C , 40-S ) :   1.0367 B( 37-C , 38-C ) :   1.5030
B( 37-C , 85-H ) :   0.9942 B( 38-C , 39-C ) :   1.2189 B( 38-C , 86-H ) :   1.0009
B( 39-C , 40-S ) :   1.1016 B( 39-C , 41-C ) :   1.4344 B( 41-C , 42-C ) :   1.2898
B( 41-C , 87-H ) :   0.9630 B( 42-C , 43-C ) :   1.4495 B( 42-C , 88-H ) :   0.9404
B( 43-C , 44-C ) :   0.9847 B( 43-C , 58-C ) :   1.1255 B( 44-C , 45-O ) :   2.2389
B( 44-C , 46-C ) :   0.9116 B( 46-C , 47-C ) :   1.4893 B( 46-C , 57-C ) :   1.2212
B( 47-C , 48-C ) :   1.1793 B( 47-C , 89-H ) :   1.0158 B( 48-C , 49-C ) :   1.2656
B( 48-C , 53-C ) :   1.1967 B( 49-C , 50-C ) :   1.1942 B( 49-C , 56-C ) :   1.2003
B( 50-C , 51-C ) :   1.4356 B( 50-C , 53-C ) :   0.1095 B( 50-C , 90-H ) :   1.0074
B( 51-C , 52-C ) :   1.1991 B( 51-C , 55-F ) :   1.1258 B( 52-C , 53-C ) :   1.4381
B( 52-C , 54-F ) :   1.1244 B( 53-C , 91-H ) :   1.0070 B( 56-C , 57-C ) :   1.4712
B( 56-C , 92-H ) :   0.9915 B( 57-C , 58-C ) :   0.9835 B( 58-C , 59-C ) :   1.5673
B( 59-C , 60-C ) :   1.1712 B( 59-C , 62-C ) :   1.1418 B( 60-C , 61-N ) :   3.0101
B( 62-C , 63-N ) :   2.9626

-----------------------------------------------------------------------------
         ABSORPTION SPECTRUM VIA TRANSITION ELECTRIC DIPOLE MOMENTS
-----------------------------------------------------------------------------
State   Energy  Wavelength   fosc         T2         TX        TY        TZ
        (cm-1)    (nm)                  (au**2)     (au)      (au)      (au)
-----------------------------------------------------------------------------
   0   11769.0    849.7   1.301323865  36.40172  -3.62826  -4.78699   0.56764
   1   22012.3    454.3   0.011703922   0.17504   0.38555  -0.16238   0.00482
   2   23450.6    426.4   0.089228825   1.25264   0.87492  -0.39442   0.57584
   3   25100.5    398.4   0.178024150   2.33492   0.98230  -0.11094   1.16521
   4   26703.3    374.5   0.457389303   5.63892   0.23754  -0.46729   2.31606
   5   26891.8    371.9   0.053531956   0.65534   0.32403  -0.42299   0.60944
   6   27071.1    369.4   0.541181716   6.58131  -1.74487   1.66588   0.87269
   7   27490.5    363.8   0.020694134   0.24782  -0.35102   0.29652   0.19153
   8   27581.9    362.6   0.003311383   0.03952  -0.15949  -0.10486   0.05561
   9   28962.6    345.3   0.009354758   0.10633  -0.20369  -0.05194   0.24929
  10   29237.2    342.0   0.002141777   0.02412  -0.05175  -0.02585  -0.14412
  11   30780.3    324.9   0.234838001   2.51172  -0.44184   0.33909  -1.48375
  12   31148.6    321.0   0.442572924   4.67759   0.68549  -0.00738   2.05125
  13   31634.0    316.1   0.073803878   0.76807   0.04180   0.68844  -0.54072
  14   32140.6    311.1   0.109223468   1.11876   0.08564   0.20679  -1.03376
  15   32757.0    305.3   0.034578788   0.34752   0.09955   0.16213  -0.55797
  16   33435.6    299.1   0.006297886   0.06201   0.17497  -0.17639  -0.01683
  17   33501.9    298.5   0.012111519   0.11902   0.31295   0.11935  -0.08268
  18   33737.8    296.4   0.012255773   0.11959  -0.04008  -0.26112  -0.22316
  19   33803.2    295.8   0.008876107   0.08645  -0.04216  -0.27417   0.09745
  20   33852.7    295.4   0.521283135   5.06940   0.56441   0.89090  -1.98926
  21   34797.9    287.4   0.130644100   1.23598   0.17735  -0.13844   1.08874
  22   34936.4    286.2   0.034825519   0.32817   0.50624   0.02240   0.26719
  23   36028.5    277.6   0.140334199   1.28231   1.12946   0.08142   0.00112
  24   36277.6    275.7   0.002649608   0.02404   0.11004  -0.03940   0.10189
  25   36382.1    274.9   0.041552546   0.37600   0.27381  -0.33390   0.43536
  26   36493.5    274.0   0.002301310   0.02076  -0.14105  -0.02932   0.00257
  27   36819.8    271.6   0.118919544   1.06328  -0.21997   0.40780  -0.92119
  28   37198.0    268.8   0.117361294   1.03868   0.41876   0.35992  -0.85660
  29   38030.9    262.9   0.000119525   0.00103   0.00509  -0.00597  -0.03120
  30   38081.7    262.6   0.136863463   1.18317   0.16788   0.26981   1.04028
  31   38391.6    260.5   0.008777963   0.07527   0.11201  -0.11173  -0.22415
  32   39499.4    253.2   0.252465857   2.10420  -0.71383  -0.39082  -1.20080
  33   39575.7    252.7   0.061772529   0.51386  -0.36475  -0.20707  -0.58132
  34   39800.5    251.3   0.084320748   0.69746   0.76743  -0.09001   0.31688
  35   39847.2    251.0   0.020975094   0.17329  -0.31186  -0.13103  -0.24262
  36   39897.0    250.6   0.005978916   0.04934   0.17016   0.01274   0.14219

FINAL SINGLE POINT ENERGY     -4570.718818864389

DIPOLE MOMENT
-------------
                                X             Y             Z
Electronic contribution:     37.40218      53.09266     -24.11170
Nuclear contribution   :    -39.60383     -60.69607      23.56311
                        -----------------------------------------
Total Dipole Moment    :     -2.20165      -7.60341      -0.54859
                        -----------------------------------------
Magnitude (a.u.)       :      7.93474
Magnitude (Debye)      :     20.16850

Rotational constants in cm-1:     0.000978     0.000253     0.000220
Rotational constants in MHz :    29.310327     7.594259     6.608404

                             ****ORCA TERMINATED NORMALLY****
TOTAL RUN TIME: 0 days 0 hours 6 minutes 59 seconds 813 msec
