                         Program Version 4.2.0 -  RELEASE  -
|  1> # ORCA input file
|  2> # SCF done       -188.700276020394          0.000545994314
|  3> ! CAM-B3LYP def2-SVP def2/J RIJCOSX Grid4 TightSCF
|  4> %maxcore 5000
|  5> %tddft
|  6>     Mode sTDDFT
|  7>     Ethresh 5.0
|  8>     maxcore 5000
|  9> end
| 10>
| 11> %pal
| 12>   nprocs 6
| 13>   end
| 14> * xyz 0 1
| 15>    C       -6.24445        -0.44722         6.22582
| 16>    S       -5.60357        -1.39427         4.95171
| 17>    C       -6.76780        -2.67053         5.17645
| 18>    C       -7.60604        -2.32847         6.21594
| 19>    C       -7.30524        -1.07484         6.80313
| 20>    O       -8.02695        -0.56762         7.84723
| 21>    C       -9.06237        -1.27911         8.34103
| 22>    O       -9.70474        -0.85004         9.25328
| 23>    C       -9.39534        -2.64166         7.70900
| 24>    O      -10.30436        -3.30432         8.11597
| 25>    O       -8.64608        -3.08891         6.67985
| 26>    C       -6.74955        -3.84538         4.33523
| 27>    C       -5.76554        -3.95603         3.34079
| 28>    C       -5.74275        -5.06108         2.52684
| 29>    C       -6.67448        -6.09848         2.72153
| 30>    C       -7.65165        -5.99767         3.70187
| 31>    C       -7.69148        -4.86956         4.49639
| 32>    C       -6.37019        -7.17091         1.80396
| 33>    C       -5.24872        -6.80038         1.03826
| 34>    C       -4.80300        -5.39585         1.39113
| 35>    C       -3.32973        -5.34334         1.82099
| 36>    C       -3.02602        -6.29920         2.96909
| 37>    C       -5.06862        -4.51077         0.15003
| 38>    C       -4.87221        -3.01343         0.34696
| 39>    C       -4.73281        -7.65952         0.10269
| 40>    C       -5.32287        -8.92563        -0.08916
| 41>    C       -6.44737        -9.27410         0.68494
| 42>    C       -6.97056        -8.41109         1.62163
| 43>    C       -4.75533        -9.81088        -1.06157
| 44>    C       -5.21554       -11.06270        -1.34390
| 45>    C       -4.66216       -11.94386        -2.28373
| 46>    C       -5.19211       -13.20196        -2.48106
| 47>    C       -4.78388       -14.23186        -3.35701
| 48>    C       -5.54558       -15.36650        -3.27693
| 49>    C       -6.58880       -15.27928        -2.33502
| 50>    S       -6.58519       -13.73012        -1.55436
| 51>    C       -7.56680       -16.19669        -1.95713
| 52>    C       -7.82055       -17.50453        -2.38812
| 53>    C       -8.89654       -18.06705        -1.75308
| 54>    C       -9.53006       -17.23217        -0.80454
| 55>    S       -8.71637       -15.69714        -0.73201
| 56>    C      -10.64246       -17.63133        -0.07687
| 57>    C      -11.41296       -16.98484         0.88942
| 58>    C      -11.21934       -15.66787         1.40501
| 59>    C      -12.08298       -15.11957         2.42940
| 60>    N      -11.87467       -13.86444         2.86755
| 61>    C      -10.88988       -13.15637         2.37466
| 62>    C      -10.02713       -13.69962         1.37908
| 63>    N      -10.22722       -14.93285         0.93121
| 64>    C       -8.96825       -12.92160         0.87788
| 65>    N       -8.12516       -12.23099         0.51396
| 66>    C      -10.65931       -11.83271         2.82758
| 67>    N      -10.40659       -10.76099         3.14432
| 68>    C      -13.14177       -15.83926         3.00350
| 69>    C      -13.39874       -17.11420         2.44326
| 70>    C      -12.54318       -17.67370         1.42637
| 71>    N      -12.96016       -18.87035         1.03008
| 72>    S      -14.30667       -19.25176         1.83329
| 73>    N      -14.42194       -17.91627         2.71684
| 74>    C      -13.90581       -15.25453         4.06206
| 75>    S      -13.82103       -13.54409         4.37688
| 76>    C      -14.99538       -13.63598         5.62800
| 77>    C      -15.39429       -14.92178         5.83221
| 78>    C      -14.77667       -15.84617         4.95849
| 79>    O      -14.98975       -17.18760         5.08753
| 80>    C      -15.85929       -17.63900         6.00686
| 81>    O      -16.03012       -18.81780         6.14638
| 82>    C      -16.61551       -16.62488         6.88232
| 83>    O      -17.45086       -16.98268         7.66155
| 84>    O      -16.30802       -15.31689         6.77302
| 85>    H       -5.81994         0.50062         6.48158
| 86>    H       -5.03041        -3.17090         3.24347
| 87>    H       -8.36832        -6.79086         3.84734
| 88>    H       -8.44890        -4.78320         5.25675
| 89>    H       -3.08314        -4.32706         2.13031
| 90>    H       -2.70352        -5.59493         0.96248
| 91>    H       -3.62545        -6.05173         3.84236
| 92>    H       -1.97566        -6.23361         3.24307
| 93>    H       -3.24440        -7.32621         2.68496
| 94>    H       -6.09733        -4.68920        -0.17387
| 95>    H       -4.40803        -4.85547        -0.64871
| 96>    H       -5.02928        -2.50424        -0.60145
| 97>    H       -3.86614        -2.78488         0.68793
| 98>    H       -5.58685        -2.61798         1.06326
| 99>    H       -3.87075        -7.38377        -0.48848
|100>    H       -6.91784       -10.23425         0.55421
|101>    H       -7.83194        -8.70036         2.20390
|102>    H       -3.89084        -9.44093        -1.60104
|103>    H       -6.07683       -11.43497        -0.80686
|104>    H       -3.80087       -11.64451        -2.86638
|105>    H       -3.94399       -14.11235        -4.01896
|106>    H       -5.38142       -16.25076        -3.86686
|107>    H       -7.22927       -18.00349        -3.13588
|108>    H       -9.25371       -19.06431        -1.94280
|109>    H      -10.99058       -18.63425        -0.29847
|110>    H      -15.30743       -12.76464         6.16459
|111> *
|112>
|113>                          ****END OF INPUT****

CARTESIAN COORDINATES (ANGSTROEM)
---------------------------------
  C     -6.244450   -0.447220    6.225820
  S     -5.603570   -1.394270    4.951710
  C     -6.767800   -2.670530    5.176450
  C     -7.606040   -2.328470    6.215940
  C     -7.305240   -1.074840    6.803130
  O     -8.026950   -0.567620    7.847230
  C     -9.062370   -1.279110    8.341030
  O     -9.704740   -0.850040    9.253280
  C     -9.395340   -2.641660    7.709000
  O    -10.304360   -3.304320    8.115970
  O     -8.646080   -3.088910    6.679850
  C     -6.749550   -3.845380    4.335230
  C     -5.765540   -3.956030    3.340790
  C     -5.742750   -5.061080    2.526840
  C     -6.674480   -6.098480    2.721530
  C     -7.651650   -5.997670    3.701870
  C     -7.691480   -4.869560    4.496390
  C     -6.370190   -7.170910    1.803960
  C     -5.248720   -6.800380    1.038260
  C     -4.803000   -5.395850    1.391130
  C     -3.329730   -5.343340    1.820990
  C     -3.026020   -6.299200    2.969090
  C     -5.068620   -4.510770    0.150030
  C     -4.872210   -3.013430    0.346960
  C     -4.732810   -7.659520    0.102690
  C     -5.322870   -8.925630   -0.089160
  C     -6.447370   -9.274100    0.684940
  C     -6.970560   -8.411090    1.621630
  C     -4.755330   -9.810880   -1.061570
  C     -5.215540  -11.062700   -1.343900
  C     -4.662160  -11.943860   -2.283730
  C     -5.192110  -13.201960   -2.481060
  C     -4.783880  -14.231860   -3.357010
  C     -5.545580  -15.366500   -3.276930
  C     -6.588800  -15.279280   -2.335020
  S     -6.585190  -13.730120   -1.554360
  C     -7.566800  -16.196690   -1.957130
  C     -7.820550  -17.504530   -2.388120
  C     -8.896540  -18.067050   -1.753080
  C     -9.530060  -17.232170   -0.804540
  S     -8.716370  -15.697140   -0.732010
  C    -10.642460  -17.631330   -0.076870
  C    -11.412960  -16.984840    0.889420
  C    -11.219340  -15.667870    1.405010
  C    -12.082980  -15.119570    2.429400
  N    -11.874670  -13.864440    2.867550
  C    -10.889880  -13.156370    2.374660
  C    -10.027130  -13.699620    1.379080
  N    -10.227220  -14.932850    0.931210
  C     -8.968250  -12.921600    0.877880
  N     -8.125160  -12.230990    0.513960
  C    -10.659310  -11.832710    2.827580
  N    -10.406590  -10.760990    3.144320
  C    -13.141770  -15.839260    3.003500
  C    -13.398740  -17.114200    2.443260
  C    -12.543180  -17.673700    1.426370
  N    -12.960160  -18.870350    1.030080
  S    -14.306670  -19.251760    1.833290
  N    -14.421940  -17.916270    2.716840
  C    -13.905810  -15.254530    4.062060
  S    -13.821030  -13.544090    4.376880
  C    -14.995380  -13.635980    5.628000
  C    -15.394290  -14.921780    5.832210
  C    -14.776670  -15.846170    4.958490
  O    -14.989750  -17.187600    5.087530
  C    -15.859290  -17.639000    6.006860
  O    -16.030120  -18.817800    6.146380
  C    -16.615510  -16.624880    6.882320
  O    -17.450860  -16.982680    7.661550
  O    -16.308020  -15.316890    6.773020
  H     -5.819940    0.500620    6.481580
  H     -5.030410   -3.170900    3.243470
  H     -8.368320   -6.790860    3.847340
  H     -8.448900   -4.783200    5.256750
  H     -3.083140   -4.327060    2.130310
  H     -2.703520   -5.594930    0.962480
  H     -3.625450   -6.051730    3.842360
  H     -1.975660   -6.233610    3.243070
  H     -3.244400   -7.326210    2.684960
  H     -6.097330   -4.689200   -0.173870
  H     -4.408030   -4.855470   -0.648710
  H     -5.029280   -2.504240   -0.601450
  H     -3.866140   -2.784880    0.687930
  H     -5.586850   -2.617980    1.063260
  H     -3.870750   -7.383770   -0.488480
  H     -6.917840  -10.234250    0.554210
  H     -7.831940   -8.700360    2.203900
  H     -3.890840   -9.440930   -1.601040
  H     -6.076830  -11.434970   -0.806860
  H     -3.800870  -11.644510   -2.866380
  H     -3.943990  -14.112350   -4.018960
  H     -5.381420  -16.250760   -3.866860
  H     -7.229270  -18.003490   -3.135880
  H     -9.253710  -19.064310   -1.942800
  H    -10.990580  -18.634250   -0.298470
  H    -15.307430  -12.764640    6.164590

 Total Charge           Charge          ....    0
 Multiplicity           Mult            ....    1
 Number of Electrons    NEL             ....  518
 Basis Dimension        Dim             .... 1130

ORBITAL ENERGIES
----------------

  NO   OCC          E(Eh)            E(eV)
   0   2.0000     -89.014058     -2422.1957
   1   2.0000     -88.979858     -2421.2650
   2   2.0000     -88.964858     -2420.8569
   3   2.0000     -88.963842     -2420.8292
   4   2.0000     -88.950393     -2420.4632
   5   2.0000     -19.312767      -525.5271
   6   2.0000     -19.309284      -525.4323
   7   2.0000     -19.285389      -524.7821
   8   2.0000     -19.282789      -524.7114
   9   2.0000     -19.238888      -523.5168
  10   2.0000     -19.237625      -523.4824
  11   2.0000     -19.214738      -522.8596
  12   2.0000     -19.213340      -522.8215
  13   2.0000     -14.454966      -393.3396
  14   2.0000     -14.440806      -392.9543
  15   2.0000     -14.433478      -392.7549
  16   2.0000     -14.427943      -392.6043
  17   2.0000     -14.426370      -392.5615
  18   2.0000     -14.422889      -392.4668
  19   2.0000     -10.441067      -284.1159
  20   2.0000     -10.439982      -284.0864
  21   2.0000     -10.416767      -283.4546
  22   2.0000     -10.416072      -283.4357
  23   2.0000     -10.373672      -282.2820
  24   2.0000     -10.365924      -282.0711
  25   2.0000     -10.364944      -282.0445
  26   2.0000     -10.355714      -281.7933
  27   2.0000     -10.339833      -281.3611
  28   2.0000     -10.339012      -281.3388
  29   2.0000     -10.338895      -281.3356
  30   2.0000     -10.336693      -281.2757
  31   2.0000     -10.331379      -281.1311
  32   2.0000     -10.326320      -280.9934
  33   2.0000     -10.325998      -280.9847
  34   2.0000     -10.325322      -280.9663
  35   2.0000     -10.322847      -280.8990
  36   2.0000     -10.322452      -280.8882
  37   2.0000     -10.322187      -280.8810
  38   2.0000     -10.321693      -280.8675
  39   2.0000     -10.317235      -280.7462
  40   2.0000     -10.315752      -280.7059
  41   2.0000     -10.313310      -280.6394
  42   2.0000     -10.308834      -280.5176
  43   2.0000     -10.306646      -280.4581
  44   2.0000     -10.305116      -280.4165
  45   2.0000     -10.305094      -280.4159
  46   2.0000     -10.303716      -280.3784
  47   2.0000     -10.299590      -280.2661
  48   2.0000     -10.298841      -280.2457
  49   2.0000     -10.290975      -280.0317
  50   2.0000     -10.290217      -280.0110
  51   2.0000     -10.289298      -279.9860
  52   2.0000     -10.287955      -279.9495
  53   2.0000     -10.287928      -279.9488
  54   2.0000     -10.287903      -279.9481
  55   2.0000     -10.282379      -279.7978
  56   2.0000     -10.282328      -279.7964
  57   2.0000     -10.281580      -279.7760
  58   2.0000     -10.281576      -279.7759
  59   2.0000     -10.279614      -279.7225
  60   2.0000     -10.278844      -279.7016
  61   2.0000     -10.277577      -279.6671
  62   2.0000     -10.276420      -279.6356
  63   2.0000     -10.276180      -279.6291
  64   2.0000     -10.274458      -279.5822
  65   2.0000     -10.273333      -279.5516
  66   2.0000     -10.271946      -279.5139
  67   2.0000     -10.271489      -279.5014
  68   2.0000     -10.259513      -279.1755
  69   2.0000     -10.253870      -279.0220
  70   2.0000      -8.105879      -220.5722
  71   2.0000      -8.075069      -219.7338
  72   2.0000      -8.059813      -219.3187
  73   2.0000      -8.057530      -219.2565
  74   2.0000      -8.043754      -218.8817
  75   2.0000      -6.077178      -165.3684
  76   2.0000      -6.069425      -165.1574
  77   2.0000      -6.068085      -165.1210
  78   2.0000      -6.044413      -164.4768
  79   2.0000      -6.040364      -164.3667
  80   2.0000      -6.036998      -164.2751
  81   2.0000      -6.029306      -164.0658
  82   2.0000      -6.027328      -164.0119
  83   2.0000      -6.025097      -163.9512
  84   2.0000      -6.022657      -163.8848
  85   2.0000      -6.021184      -163.8447
  86   2.0000      -6.019317      -163.7939
  87   2.0000      -6.013409      -163.6332
  88   2.0000      -6.008848      -163.5091
  89   2.0000      -6.005656      -163.4222
  90   2.0000      -1.254501       -34.1367
  91   2.0000      -1.229720       -33.4624
  92   2.0000      -1.220297       -33.2060
  93   2.0000      -1.195255       -32.5245
  94   2.0000      -1.157650       -31.5012
  95   2.0000      -1.132760       -30.8240
  96   2.0000      -1.130139       -30.7526
  97   2.0000      -1.117456       -30.4075
  98   2.0000      -1.108193       -30.1555
  99   2.0000      -1.105110       -30.0716
 100   2.0000      -1.037644       -28.2357
 101   2.0000      -1.013914       -27.5900
 102   2.0000      -1.012098       -27.5406
 103   2.0000      -1.010577       -27.4992
 104   2.0000      -1.002100       -27.2685
 105   2.0000      -0.995102       -27.0781
 106   2.0000      -0.988448       -26.8970
 107   2.0000      -0.982131       -26.7251
 108   2.0000      -0.972751       -26.4699
 109   2.0000      -0.957179       -26.0462
 110   2.0000      -0.955486       -26.0001
 111   2.0000      -0.934084       -25.4177
 112   2.0000      -0.919045       -25.0085
 113   2.0000      -0.902256       -24.5516
 114   2.0000      -0.894985       -24.3538
 115   2.0000      -0.891653       -24.2631
 116   2.0000      -0.878612       -23.9082
 117   2.0000      -0.867805       -23.6142
 118   2.0000      -0.866216       -23.5709
 119   2.0000      -0.858289       -23.3552
 120   2.0000      -0.846635       -23.0381
 121   2.0000      -0.844273       -22.9738
 122   2.0000      -0.840231       -22.8639
 123   2.0000      -0.839387       -22.8409
 124   2.0000      -0.837214       -22.7817
 125   2.0000      -0.834723       -22.7140
 126   2.0000      -0.826412       -22.4878
 127   2.0000      -0.816215       -22.2103
 128   2.0000      -0.812300       -22.1038
 129   2.0000      -0.799332       -21.7509
 130   2.0000      -0.793903       -21.6032
 131   2.0000      -0.778931       -21.1958
 132   2.0000      -0.773533       -21.0489
 133   2.0000      -0.772733       -21.0271
 134   2.0000      -0.759627       -20.6705
 135   2.0000      -0.747735       -20.3469
 136   2.0000      -0.736757       -20.0482
 137   2.0000      -0.726880       -19.7794
 138   2.0000      -0.719758       -19.5856
 139   2.0000      -0.719122       -19.5683
 140   2.0000      -0.712672       -19.3928
 141   2.0000      -0.704292       -19.1648
 142   2.0000      -0.698908       -19.0183
 143   2.0000      -0.698055       -18.9951
 144   2.0000      -0.692147       -18.8343
 145   2.0000      -0.686958       -18.6931
 146   2.0000      -0.683535       -18.5999
 147   2.0000      -0.682312       -18.5666
 148   2.0000      -0.679125       -18.4799
 149   2.0000      -0.665864       -18.1191
 150   2.0000      -0.658628       -17.9222
 151   2.0000      -0.653805       -17.7909
 152   2.0000      -0.644115       -17.5273
 153   2.0000      -0.640376       -17.4255
 154   2.0000      -0.637825       -17.3561
 155   2.0000      -0.625895       -17.0315
 156   2.0000      -0.624657       -16.9978
 157   2.0000      -0.614511       -16.7217
 158   2.0000      -0.614045       -16.7090
 159   2.0000      -0.607824       -16.5397
 160   2.0000      -0.602730       -16.4011
 161   2.0000      -0.593849       -16.1595
 162   2.0000      -0.591783       -16.1032
 163   2.0000      -0.590837       -16.0775
 164   2.0000      -0.585180       -15.9236
 165   2.0000      -0.575769       -15.6675
 166   2.0000      -0.571496       -15.5512
 167   2.0000      -0.567952       -15.4548
 168   2.0000      -0.566627       -15.4187
 169   2.0000      -0.560869       -15.2620
 170   2.0000      -0.554176       -15.0799
 171   2.0000      -0.553868       -15.0715
 172   2.0000      -0.550351       -14.9758
 173   2.0000      -0.547661       -14.9026
 174   2.0000      -0.545386       -14.8407
 175   2.0000      -0.543583       -14.7916
 176   2.0000      -0.541537       -14.7360
 177   2.0000      -0.538261       -14.6468
 178   2.0000      -0.535920       -14.5831
 179   2.0000      -0.535150       -14.5622
 180   2.0000      -0.529656       -14.4127
 181   2.0000      -0.528635       -14.3849
 182   2.0000      -0.528145       -14.3715
 183   2.0000      -0.524095       -14.2613
 184   2.0000      -0.522070       -14.2062
 185   2.0000      -0.520787       -14.1713
 186   2.0000      -0.520153       -14.1541
 187   2.0000      -0.518914       -14.1204
 188   2.0000      -0.515682       -14.0324
 189   2.0000      -0.514524       -14.0009
 190   2.0000      -0.512797       -13.9539
 191   2.0000      -0.510413       -13.8890
 192   2.0000      -0.507547       -13.8111
 193   2.0000      -0.501088       -13.6353
 194   2.0000      -0.494897       -13.4668
 195   2.0000      -0.494241       -13.4490
 196   2.0000      -0.490518       -13.3477
 197   2.0000      -0.489159       -13.3107
 198   2.0000      -0.487976       -13.2785
 199   2.0000      -0.487042       -13.2531
 200   2.0000      -0.483197       -13.1485
 201   2.0000      -0.479284       -13.0420
 202   2.0000      -0.476002       -12.9527
 203   2.0000      -0.472192       -12.8490
 204   2.0000      -0.470532       -12.8038
 205   2.0000      -0.469449       -12.7743
 206   2.0000      -0.467347       -12.7172
 207   2.0000      -0.463775       -12.6200
 208   2.0000      -0.461519       -12.5586
 209   2.0000      -0.458899       -12.4873
 210   2.0000      -0.457791       -12.4571
 211   2.0000      -0.455743       -12.4014
 212   2.0000      -0.454462       -12.3665
 213   2.0000      -0.451859       -12.2957
 214   2.0000      -0.448112       -12.1937
 215   2.0000      -0.446075       -12.1383
 216   2.0000      -0.443497       -12.0682
 217   2.0000      -0.439993       -11.9728
 218   2.0000      -0.439851       -11.9689
 219   2.0000      -0.439741       -11.9660
 220   2.0000      -0.437202       -11.8969
 221   2.0000      -0.436779       -11.8854
 222   2.0000      -0.435233       -11.8433
 223   2.0000      -0.430610       -11.7175
 224   2.0000      -0.426729       -11.6119
 225   2.0000      -0.425351       -11.5744
 226   2.0000      -0.423886       -11.5345
 227   2.0000      -0.419360       -11.4114
 228   2.0000      -0.415910       -11.3175
 229   2.0000      -0.413785       -11.2597
 230   2.0000      -0.407570       -11.0905
 231   2.0000      -0.405581       -11.0364
 232   2.0000      -0.401980       -10.9384
 233   2.0000      -0.400256       -10.8915
 234   2.0000      -0.397569       -10.8184
 235   2.0000      -0.395318       -10.7572
 236   2.0000      -0.394149       -10.7254
 237   2.0000      -0.389623       -10.6022
 238   2.0000      -0.386442       -10.5156
 239   2.0000      -0.376978       -10.2581
 240   2.0000      -0.371967       -10.1217
 241   2.0000      -0.368925       -10.0390
 242   2.0000      -0.362133        -9.8541
 243   2.0000      -0.357792        -9.7360
 244   2.0000      -0.351874        -9.5750
 245   2.0000      -0.345638        -9.4053
 246   2.0000      -0.342172        -9.3110
 247   2.0000      -0.336148        -9.1470
 248   2.0000      -0.333935        -9.0868
 249   2.0000      -0.329478        -8.9656
 250   2.0000      -0.328542        -8.9401
 251   2.0000      -0.324165        -8.8210
 252   2.0000      -0.319798        -8.7022
 253   2.0000      -0.319576        -8.6961
 254   2.0000      -0.303725        -8.2648
 255   2.0000      -0.290708        -7.9106
 256   2.0000      -0.277436        -7.5494
 257   2.0000      -0.256765        -6.9869
 258   2.0000      -0.214104        -5.8261
 259   0.0000      -0.122990        -3.3467
 260   0.0000      -0.075955        -2.0668
 261   0.0000      -0.048293        -1.3141
 262   0.0000      -0.043488        -1.1834
 263   0.0000      -0.037850        -1.0299

MULLIKEN ATOMIC CHARGES
-----------------------
   0 C :   -0.136240
   1 S :    0.128139
   2 C :   -0.164626
   3 C :    0.167403
   4 C :    0.201121
   5 O :   -0.190139
   6 C :    0.144557
   7 O :   -0.100818
   8 C :    0.152586
   9 O :   -0.100415
  10 O :   -0.210432
  11 C :    0.151469
  12 C :   -0.144339
  13 C :    0.027154
  14 C :    0.098959
  15 C :   -0.043242
  16 C :   -0.039211
  17 C :    0.113277
  18 C :    0.017516
  19 C :   -0.133071
  20 C :    0.052204
  21 C :    0.025348
  22 C :    0.081234
  23 C :    0.029706
  24 C :   -0.102862
  25 C :    0.117913
  26 C :    0.007253
  27 C :   -0.048016
  28 C :    0.016779
  29 C :   -0.014623
  30 C :    0.050341
  31 C :   -0.040753
  32 C :    0.058063
  33 C :    0.016406
  34 C :   -0.013490
  35 S :    0.102241
  36 C :   -0.033945
  37 C :    0.043714
  38 C :    0.011864
  39 C :    0.035866
  40 S :    0.116601
  41 C :   -0.123269
  42 C :    0.105386
  43 C :   -0.007413
  44 C :   -0.036526
  45 N :   -0.022752
  46 C :   -0.089619
  47 C :   -0.108247
  48 N :   -0.027665
  49 C :   -0.213494
  50 N :    0.189727
  51 C :   -0.238977
  52 N :    0.227779
  53 C :    0.136791
  54 C :   -0.028561
  55 C :   -0.005691
  56 N :   -0.283208
  57 S :    0.509076
  58 N :   -0.267912
  59 C :   -0.277128
  60 S :    0.175941
  61 C :   -0.139269
  62 C :    0.185651
  63 C :    0.185166
  64 O :   -0.172636
  65 C :    0.142760
  66 O :   -0.119989
  67 C :    0.136864
  68 O :   -0.115601
  69 O :   -0.191914
  70 H :    0.034587
  71 H :   -0.019288
  72 H :   -0.013665
  73 H :    0.000654
  74 H :    0.005482
  75 H :   -0.003484
  76 H :    0.021045
  77 H :    0.010792
  78 H :    0.021856
  79 H :    0.007553
  80 H :   -0.005590
  81 H :    0.014261
  82 H :    0.002913
  83 H :    0.020681
  84 H :   -0.040899
  85 H :   -0.031510
  86 H :   -0.017033
  87 H :   -0.018731
  88 H :    0.042717
  89 H :   -0.004598
  90 H :   -0.001501
  91 H :   -0.006745
  92 H :   -0.013226
  93 H :   -0.006662
  94 H :    0.000870
  95 H :    0.022757
Sum of atomic charges:   -0.0000000

LOEWDIN ATOMIC CHARGES
----------------------
   0 C :   -0.200931
   1 S :    0.470246
   2 C :   -0.173955
   3 C :   -0.015638
   4 C :   -0.014519
   5 O :   -0.024381
   6 C :    0.053395
   7 O :   -0.082729
   8 C :    0.054225
   9 O :   -0.082796
  10 O :   -0.020999
  11 C :   -0.037393
  12 C :   -0.031757
  13 C :    0.008064
  14 C :   -0.015346
  15 C :   -0.006142
  16 C :   -0.011573
  17 C :   -0.000607
  18 C :    0.000356
  19 C :   -0.034537
  20 C :   -0.015581
  21 C :   -0.056148
  22 C :   -0.009128
  23 C :   -0.058969
  24 C :   -0.011387
  25 C :   -0.038443
  26 C :    0.008615
  27 C :   -0.010295
  28 C :    0.037953
  29 C :   -0.048871
  30 C :    0.013124
  31 C :   -0.168641
  32 C :   -0.002764
  33 C :   -0.046729
  34 C :   -0.135441
  35 S :    0.450447
  36 C :   -0.219718
  37 C :   -0.019230
  38 C :   -0.044845
  39 C :   -0.125919
  40 S :    0.480042
  41 C :   -0.037636
  42 C :   -0.024993
  43 C :   -0.002419
  44 C :   -0.005539
  45 N :   -0.051974
  46 C :   -0.012166
  47 C :   -0.083239
  48 N :   -0.031443
  49 C :   -0.022202
  50 N :   -0.061289
  51 C :   -0.025680
  52 N :   -0.023066
  53 C :   -0.089355
  54 C :   -0.040539
  55 C :   -0.050099
  56 N :   -0.284460
  57 S :    0.638964
  58 N :   -0.278423
  59 C :   -0.182319
  60 S :    0.493203
  61 C :   -0.214392
  62 C :   -0.023237
  63 C :   -0.017791
  64 O :   -0.002974
  65 C :    0.049921
  66 O :   -0.102620
  67 C :    0.050441
  68 O :   -0.096721
  69 O :   -0.027070
  70 H :    0.036027
  71 H :    0.014923
  72 H :    0.035687
  73 H :    0.031447
  74 H :    0.019637
  75 H :    0.019733
  76 H :    0.025863
  77 H :    0.024609
  78 H :    0.025407
  79 H :    0.027648
  80 H :    0.019412
  81 H :    0.028705
  82 H :    0.019715
  83 H :    0.024103
  84 H :    0.023202
  85 H :    0.028344
  86 H :    0.035975
  87 H :    0.029958
  88 H :    0.026915
  89 H :    0.037763
  90 H :    0.037754
  91 H :    0.034697
  92 H :    0.031553
  93 H :    0.034539
  94 H :    0.043899
  95 H :    0.030548

  Mayer bond orders larger than 0.100000
B(  0-C ,  1-S ) :   1.1318 B(  0-C ,  2-C ) :   0.1106 B(  0-C ,  4-C ) :   1.5696
B(  0-C , 70-H ) :   0.9762 B(  1-S ,  2-C ) :   1.1516 B(  2-C ,  3-C ) :   1.5101
B(  2-C , 11-C ) :   1.0810 B(  3-C ,  4-C ) :   1.2045 B(  3-C , 10-O ) :   1.0442
B(  4-C ,  5-O ) :   1.0444 B(  5-O ,  6-C ) :   1.0879 B(  6-C ,  7-O ) :   2.2482
B(  6-C ,  8-C ) :   0.8329 B(  8-C ,  9-O ) :   2.2485 B(  8-C , 10-O ) :   1.0730
B( 11-C , 12-C ) :   1.2657 B( 11-C , 16-C ) :   1.3597 B( 12-C , 13-C ) :   1.4249
B( 12-C , 71-H ) :   0.9865 B( 13-C , 14-C ) :   1.3706 B( 13-C , 19-C ) :   0.9208
B( 14-C , 15-C ) :   1.3343 B( 14-C , 17-C ) :   1.0047 B( 15-C , 16-C ) :   1.3803
B( 15-C , 72-H ) :   0.9942 B( 16-C , 73-H ) :   0.9862 B( 17-C , 18-C ) :   1.3675
B( 17-C , 27-C ) :   1.3013 B( 18-C , 19-C ) :   0.9208 B( 18-C , 24-C ) :   1.3924
B( 19-C , 20-C ) :   1.0321 B( 19-C , 22-C ) :   1.0140 B( 20-C , 21-C ) :   1.1040
B( 20-C , 74-H ) :   0.9382 B( 20-C , 75-H ) :   0.9388 B( 21-C , 76-H ) :   0.9648
B( 21-C , 77-H ) :   0.9646 B( 21-C , 78-H ) :   0.9635 B( 22-C , 23-C ) :   1.1134
B( 22-C , 79-H ) :   0.9390 B( 22-C , 80-H ) :   0.9364 B( 23-C , 81-H ) :   0.9595
B( 23-C , 82-H ) :   0.9634 B( 23-C , 83-H ) :   0.9605 B( 24-C , 25-C ) :   1.2544
B( 24-C , 84-H ) :   1.0112 B( 25-C , 26-C ) :   1.3065 B( 25-C , 28-C ) :   1.1008
B( 26-C , 27-C ) :   1.4324 B( 26-C , 85-H ) :   0.9746 B( 27-C , 86-H ) :   0.9943
B( 28-C , 29-C ) :   1.5786 B( 28-C , 87-H ) :   0.9945 B( 29-C , 30-C ) :   1.1916
B( 29-C , 88-H ) :   0.9559 B( 30-C , 31-C ) :   1.4872 B( 30-C , 89-H ) :   0.9910
B( 31-C , 32-C ) :   1.1810 B( 31-C , 35-S ) :   1.0406 B( 32-C , 33-C ) :   1.5271
B( 32-C , 90-H ) :   0.9990 B( 33-C , 34-C ) :   1.2398 B( 33-C , 91-H ) :   0.9968
B( 34-C , 35-S ) :   1.1272 B( 34-C , 36-C ) :   1.3593 B( 36-C , 37-C ) :   1.2770
B( 36-C , 40-S ) :   1.0119 B( 37-C , 38-C ) :   1.4734 B( 37-C , 92-H ) :   0.9958
B( 38-C , 39-C ) :   1.2444 B( 38-C , 93-H ) :   1.0019 B( 39-C , 40-S ) :   1.1134
B( 39-C , 41-C ) :   1.3163 B( 40-S , 48-N ) :   0.1116 B( 41-C , 42-C ) :   1.4184
B( 41-C , 94-H ) :   0.9529 B( 42-C , 43-C ) :   1.1176 B( 42-C , 55-C ) :   1.1139
B( 43-C , 44-C ) :   1.0910 B( 43-C , 48-N ) :   1.5089 B( 44-C , 45-N ) :   1.3505
B( 44-C , 53-C ) :   1.3522 B( 45-N , 46-C ) :   1.6903 B( 46-C , 47-C ) :   1.2806
B( 46-C , 51-C ) :   1.1654 B( 47-C , 48-N ) :   1.5004 B( 47-C , 49-C ) :   1.1603
B( 49-C , 50-N ) :   2.9099 B( 51-C , 52-N ) :   3.0337 B( 53-C , 54-C ) :   1.1505
B( 53-C , 59-C ) :   1.1153 B( 54-C , 55-C ) :   1.1145 B( 54-C , 58-N ) :   1.5702
B( 55-C , 56-N ) :   1.5885 B( 56-N , 57-S ) :   1.2461 B( 56-N , 58-N ) :   0.1328
B( 57-S , 58-N ) :   1.2462 B( 59-C , 60-S ) :   1.1636 B( 59-C , 61-C ) :   0.1086
B( 59-C , 63-C ) :   1.4828 B( 60-S , 61-C ) :   1.1016 B( 61-C , 62-C ) :   1.5555
B( 61-C , 95-H ) :   0.9790 B( 62-C , 63-C ) :   1.2131 B( 62-C , 69-O ) :   1.0305
B( 63-C , 64-O ) :   1.0770 B( 64-O , 65-C ) :   1.1025 B( 65-C , 66-O ) :   2.2301
B( 65-C , 67-C ) :   0.8329 B( 67-C , 68-O ) :   2.2369 B( 67-C , 69-O ) :   1.1003

-----------------------------------------------------------------------------
         ABSORPTION SPECTRUM VIA TRANSITION ELECTRIC DIPOLE MOMENTS
-----------------------------------------------------------------------------
State   Energy  Wavelength   fosc         T2         TX        TY        TZ
        (cm-1)    (nm)                  (au**2)     (au)      (au)      (au)
-----------------------------------------------------------------------------
   0    5910.0   1692.0   0.329681198  18.36462  -3.32915  -2.05404   1.74995
   1   14933.4    669.6   0.077836410   1.71593   0.41126   1.21305   0.27440
   2   15386.8    649.9   0.731166651  15.64382  -0.59432  -3.60935  -1.50439
   3   20543.3    486.8   0.270305913   4.33172   0.66467   1.92179   0.44348
   4   21185.0    472.0   0.215309642   3.34588  -1.02709   0.76014   1.30887
   5   22397.8    446.5   0.013958449   0.20517   0.21876   0.28761  -0.27312
   6   22679.7    440.9   0.405966474   5.89289  -1.69333   0.33188   1.70745
   7   24909.4    401.5   0.002078100   0.02746  -0.13243   0.08765  -0.04739
   8   25448.1    393.0   0.668955188   8.65402  -0.90506   2.04241   1.91401
   9   25893.7    386.2   0.144529691   1.83755   0.06659   1.20838   0.61068
  10   26383.6    379.0   0.086223463   1.07589  -0.56531   0.24926   0.83317
  11   27220.6    367.4   0.004961494   0.06001   0.11575   0.17300  -0.12914
  12   28014.5    357.0   0.055231966   0.64906  -0.11140   0.64838   0.46503
  13   28814.9    347.0   0.019187718   0.21922  -0.01597  -0.44315  -0.15027
  14   28986.6    345.0   0.123496989   1.40260  -0.71044  -0.94070   0.11383
  15   29743.4    336.2   0.080784304   0.89415  -0.31776  -0.85249  -0.25775
  16   30207.0    331.0   0.161895816   1.76443  -0.40220   0.89671   0.89363
  17   30749.7    325.2   0.143106009   1.53212  -0.54578   0.60863   0.92942
  18   30985.2    322.7   0.011560131   0.12282  -0.20451  -0.02678   0.28334
  19   31246.8    320.0   0.056489750   0.59517  -0.62091  -0.01907   0.45747
  20   31583.7    316.6   0.014906070   0.15537  -0.21848   0.04937   0.32435
  21   31940.0    313.1   0.075140093   0.77448   0.06471  -0.72583  -0.49343
  22   32160.3    310.9   0.067714644   0.69317   0.44332   0.70447  -0.01901
  23   32457.1    308.1   0.412249696   4.18144  -1.59242  -0.97873   0.82930
  24   32805.8    304.8   0.011177799   0.11217  -0.26153  -0.05326   0.20233
  25   33050.0    302.6   0.108740852   1.08317  -0.74932  -0.59010   0.41650
  26   33742.9    296.4   0.072845589   0.71072   0.42522  -0.33145  -0.64811
  27   34401.0    290.7   0.066131592   0.63287   0.36812  -0.31272  -0.63211
  28   35085.9    285.0   0.013093912   0.12286  -0.27903   0.12240   0.17327
  29   35190.8    284.2   0.049010189   0.45849   0.40925   0.53935  -0.01022
  30   35400.7    282.5   0.003398708   0.03161  -0.04360  -0.16870  -0.03532
  31   35442.0    282.2   0.058963546   0.54770  -0.16301  -0.67803  -0.24780
  32   35604.1    280.9   0.306885781   2.83761   0.10390   1.40369   0.92545
  33   36211.5    276.2   0.027667463   0.25153  -0.18464  -0.46364   0.04982
  34   36457.8    274.3   0.156135827   1.40990   0.37434   1.07389   0.34137
  35   36925.4    270.8   0.028440930   0.25357  -0.37214  -0.25616   0.22239
  36   37272.3    268.3   0.073801690   0.65186  -0.41427   0.24565   0.64799
  37   37879.9    264.0   0.008861665   0.07702  -0.09348  -0.25817  -0.04035
  38   38184.9    261.9   0.198764140   1.71365   0.78335   0.78631  -0.69407
  39   38454.0    260.1   0.092845604   0.79487   0.33293  -0.73218  -0.38462
  40   38657.7    258.7   0.035844890   0.30526  -0.18868   0.14428   0.49884
  41   38670.5    258.6   0.045875085   0.39055   0.15800   0.59391   0.11339
  42   38903.1    257.0   0.015591774   0.13194  -0.25983  -0.13650   0.21401
  43   39060.6    256.0   0.061033092   0.51440  -0.49580  -0.03118   0.51731
  44   39258.7    254.7   0.000110309   0.00093  -0.02660  -0.00781   0.01250
  45   39340.1    254.2   0.016996951   0.14224  -0.13845  -0.34563  -0.06008
  46   39761.1    251.5   0.001787941   0.01480  -0.04308   0.01496   0.11280
  47   39896.4    250.6   0.025634452   0.21153   0.20374  -0.31988  -0.26018
  48   40055.3    249.7   0.033598755   0.27615   0.15285  -0.38038  -0.32878

FINAL SINGLE POINT ENERGY     -4876.070769901206

DIPOLE MOMENT
-------------
                                X             Y             Z
Electronic contribution:    -79.49222     -62.39088      36.49765
Nuclear contribution   :     85.54670      63.66084     -41.97215
                        -----------------------------------------
Total Dipole Moment    :      6.05448       1.26996      -5.47450
                        -----------------------------------------
Magnitude (a.u.)       :      8.26073
Magnitude (Debye)      :     20.99711

Rotational constants in cm-1:     0.000976     0.000384     0.000278
Rotational constants in MHz :    29.266911    11.522134     8.343921

                             ****ORCA TERMINATED NORMALLY****
TOTAL RUN TIME: 0 days 0 hours 9 minutes 6 seconds 941 msec
