                         Program Version 4.2.0 -  RELEASE  -
|  1> # ORCA input file
|  2> # SCF done       -126.301006420707          0.000636371607
|  3> ! CAM-B3LYP def2-SVP def2/J RIJCOSX Grid4 TightSCF
|  4> %maxcore 5000
|  5> %tddft
|  6>     Mode sTDDFT
|  7>     Ethresh 5.0
|  8>     maxcore 5000
|  9> end
| 10>
| 11> %pal
| 12>   nprocs 6
| 13>   end
| 14> * xyz 0 1
| 15>    C       -0.00115         2.28165        -4.83321
| 16>    O       -1.11870         1.66628        -5.23557
| 17>    C       -2.13594         2.17388        -4.51579
| 18>    C       -1.68769         3.11603        -3.64996
| 19>    C       -0.27364         3.20147        -3.84563
| 20>    C        0.62001         4.07377        -3.14068
| 21>    C        1.95579         4.14037        -3.32985
| 22>    C        2.80062         5.02450        -2.60815
| 23>    C        4.14288         5.09300        -2.79946
| 24>    C        4.99201         5.97247        -2.09114
| 25>    N        6.33707         6.03217        -2.29862
| 26>    C        6.95558         6.95733        -1.50458
| 27>    C        5.94872         7.54823        -0.71839
| 28>    C        4.70737         6.92939        -1.08604
| 29>    N        3.55422         7.28471        -0.50783
| 30>    C        3.65528         8.22583         0.40217
| 31>    C        4.87919         8.83136         0.76009
| 32>    N        6.02720         8.50625         0.21344
| 33>    C        8.33972         7.20242        -1.54662
| 34>    S        9.13171         8.38376        -0.53234
| 35>    C       10.73043         8.06136        -1.19925
| 36>    C       10.62691         7.06587        -2.17381
| 37>    C        9.29490         6.60692        -2.34614
| 38>    O        9.23005         5.64454        -3.29483
| 39>    C       10.51947         5.49069        -3.72606
| 40>    N       10.74384         4.53208        -4.73312
| 41>    O       11.89086         4.39183        -5.11552
| 42>    O        9.78062         3.91535        -5.14758
| 43>    C       11.40665         6.31924        -3.08858
| 44>    C       11.86969         8.74762        -0.75900
| 45>    N       11.84802         9.70068         0.21747
| 46>    C       13.07978        10.22841         0.47203
| 47>    C       13.97878         9.57860        -0.39932
| 48>    C       13.22023         8.64251        -1.17744
| 49>    N       13.79762         7.86819        -2.10079
| 50>    C       15.09372         8.03109        -2.23726
| 51>    C       15.83875         8.95302        -1.47160
| 52>    N       15.30085         9.72529        -0.55805
| 53>    C       13.35062        11.22632         1.43276
| 54>    S       12.09766        11.91031         2.42995
| 55>    C       13.24788        12.94860         3.22741
| 56>    C       12.88675        13.89525         4.28427
| 57>    O       13.70007        14.61401         4.80297
| 58>    O       11.59227        13.93040         4.65815
| 59>    C       14.51518        12.75236         2.72716
| 60>    C       14.57936        11.78899         1.72280
| 61>    H        0.91422         1.99222        -5.30982
| 62>    H       -3.11631         1.78728        -4.71250
| 63>    H       -2.26938         3.68697        -2.95553
| 64>    H        0.16048         4.71978        -2.40413
| 65>    H        2.42388         3.49787        -4.06366
| 66>    H        2.35067         5.67606        -1.87248
| 67>    H        4.61701         4.45042        -3.53170
| 68>    H        6.83263         5.45919        -2.96692
| 69>    H        2.73380         8.52754         0.88061
| 70>    H        4.91112         9.60345         1.51620
| 71>    H       12.46317         6.38989        -3.24696
| 72>    H       11.00502         9.98140         0.69674
| 73>    H       15.57674         7.41238        -2.98036
| 74>    H       16.90496         9.05541        -1.61696
| 75>    H       11.04030        13.30362         4.17178
| 76>    H       15.35643        13.30757         3.10025
| 77>    H       15.47044        11.48723         1.20406
| 78> *
| 79>
| 80>                          ****END OF INPUT****

CARTESIAN COORDINATES (ANGSTROEM)
---------------------------------
  C     -0.001150    2.281650   -4.833210
  O     -1.118700    1.666280   -5.235570
  C     -2.135940    2.173880   -4.515790
  C     -1.687690    3.116030   -3.649960
  C     -0.273640    3.201470   -3.845630
  C      0.620010    4.073770   -3.140680
  C      1.955790    4.140370   -3.329850
  C      2.800620    5.024500   -2.608150
  C      4.142880    5.093000   -2.799460
  C      4.992010    5.972470   -2.091140
  N      6.337070    6.032170   -2.298620
  C      6.955580    6.957330   -1.504580
  C      5.948720    7.548230   -0.718390
  C      4.707370    6.929390   -1.086040
  N      3.554220    7.284710   -0.507830
  C      3.655280    8.225830    0.402170
  C      4.879190    8.831360    0.760090
  N      6.027200    8.506250    0.213440
  C      8.339720    7.202420   -1.546620
  S      9.131710    8.383760   -0.532340
  C     10.730430    8.061360   -1.199250
  C     10.626910    7.065870   -2.173810
  C      9.294900    6.606920   -2.346140
  O      9.230050    5.644540   -3.294830
  C     10.519470    5.490690   -3.726060
  N     10.743840    4.532080   -4.733120
  O     11.890860    4.391830   -5.115520
  O      9.780620    3.915350   -5.147580
  C     11.406650    6.319240   -3.088580
  C     11.869690    8.747620   -0.759000
  N     11.848020    9.700680    0.217470
  C     13.079780   10.228410    0.472030
  C     13.978780    9.578600   -0.399320
  C     13.220230    8.642510   -1.177440
  N     13.797620    7.868190   -2.100790
  C     15.093720    8.031090   -2.237260
  C     15.838750    8.953020   -1.471600
  N     15.300850    9.725290   -0.558050
  C     13.350620   11.226320    1.432760
  S     12.097660   11.910310    2.429950
  C     13.247880   12.948600    3.227410
  C     12.886750   13.895250    4.284270
  O     13.700070   14.614010    4.802970
  O     11.592270   13.930400    4.658150
  C     14.515180   12.752360    2.727160
  C     14.579360   11.788990    1.722800
  H      0.914220    1.992220   -5.309820
  H     -3.116310    1.787280   -4.712500
  H     -2.269380    3.686970   -2.955530
  H      0.160480    4.719780   -2.404130
  H      2.423880    3.497870   -4.063660
  H      2.350670    5.676060   -1.872480
  H      4.617010    4.450420   -3.531700
  H      6.832630    5.459190   -2.966920
  H      2.733800    8.527540    0.880610
  H      4.911120    9.603450    1.516200
  H     12.463170    6.389890   -3.246960
  H     11.005020    9.981400    0.696740
  H     15.576740    7.412380   -2.980360
  H     16.904960    9.055410   -1.616960
  H     11.040300   13.303620    4.171780
  H     15.356430   13.307570    3.100250
  H     15.470440   11.487230    1.204060

 Total Charge           Charge          ....    0
 Multiplicity           Mult            ....    1
 Number of Electrons    NEL             ....  332
 Basis Dimension        Dim             ....  737

ORBITAL ENERGIES
----------------

  NO   OCC          E(Eh)            E(eV)
   0   2.0000     -88.982352     -2421.3329
   1   2.0000     -88.978876     -2421.2383
   2   2.0000     -19.316028      -525.6158
   3   2.0000     -19.285735      -524.7915
   4   2.0000     -19.257307      -524.0180
   5   2.0000     -19.243192      -523.6339
   6   2.0000     -19.242253      -523.6083
   7   2.0000     -19.190088      -522.1888
   8   2.0000     -14.655646      -398.8004
   9   2.0000     -14.505956      -394.7271
  10   2.0000     -14.489915      -394.2906
  11   2.0000     -14.440872      -392.9561
  12   2.0000     -14.437975      -392.8773
  13   2.0000     -14.429498      -392.6466
  14   2.0000     -14.428105      -392.6087
  15   2.0000     -10.401612      -283.0422
  16   2.0000     -10.386754      -282.6379
  17   2.0000     -10.351621      -281.6819
  18   2.0000     -10.339868      -281.3621
  19   2.0000     -10.335001      -281.2297
  20   2.0000     -10.330248      -281.1003
  21   2.0000     -10.329696      -281.0853
  22   2.0000     -10.329211      -281.0721
  23   2.0000     -10.326412      -280.9960
  24   2.0000     -10.326137      -280.9885
  25   2.0000     -10.323295      -280.9111
  26   2.0000     -10.321871      -280.8724
  27   2.0000     -10.320005      -280.8216
  28   2.0000     -10.319188      -280.7994
  29   2.0000     -10.317479      -280.7529
  30   2.0000     -10.315668      -280.7036
  31   2.0000     -10.314427      -280.6698
  32   2.0000     -10.314380      -280.6685
  33   2.0000     -10.309345      -280.5315
  34   2.0000     -10.308711      -280.5143
  35   2.0000     -10.308318      -280.5036
  36   2.0000     -10.305424      -280.4248
  37   2.0000     -10.303000      -280.3589
  38   2.0000     -10.289476      -279.9909
  39   2.0000     -10.281684      -279.7789
  40   2.0000     -10.278692      -279.6974
  41   2.0000     -10.275210      -279.6027
  42   2.0000     -10.271072      -279.4901
  43   2.0000     -10.269131      -279.4373
  44   2.0000     -10.268172      -279.4112
  45   2.0000     -10.262608      -279.2598
  46   2.0000      -8.076166      -219.7637
  47   2.0000      -8.074553      -219.7198
  48   2.0000      -6.045862      -164.5163
  49   2.0000      -6.043884      -164.4625
  50   2.0000      -6.041617      -164.4008
  51   2.0000      -6.039864      -164.3530
  52   2.0000      -6.037811      -164.2972
  53   2.0000      -6.036613      -164.2646
  54   2.0000      -1.325802       -36.0769
  55   2.0000      -1.232449       -33.5366
  56   2.0000      -1.204222       -32.7685
  57   2.0000      -1.177905       -32.0524
  58   2.0000      -1.141842       -31.0711
  59   2.0000      -1.124112       -30.5886
  60   2.0000      -1.108316       -30.1588
  61   2.0000      -1.090543       -29.6752
  62   2.0000      -1.079673       -29.3794
  63   2.0000      -1.066939       -29.0329
  64   2.0000      -1.017057       -27.6755
  65   2.0000      -1.006581       -27.3905
  66   2.0000      -0.999702       -27.2033
  67   2.0000      -0.994857       -27.0714
  68   2.0000      -0.938828       -25.5468
  69   2.0000      -0.918795       -25.0017
  70   2.0000      -0.905705       -24.6455
  71   2.0000      -0.901653       -24.5352
  72   2.0000      -0.896166       -24.3859
  73   2.0000      -0.892238       -24.2790
  74   2.0000      -0.881479       -23.9863
  75   2.0000      -0.867299       -23.6004
  76   2.0000      -0.849412       -23.1137
  77   2.0000      -0.844887       -22.9905
  78   2.0000      -0.832527       -22.6542
  79   2.0000      -0.814433       -22.1618
  80   2.0000      -0.801044       -21.7975
  81   2.0000      -0.796872       -21.6840
  82   2.0000      -0.785011       -21.3612
  83   2.0000      -0.782805       -21.3012
  84   2.0000      -0.747342       -20.3362
  85   2.0000      -0.745426       -20.2841
  86   2.0000      -0.739586       -20.1252
  87   2.0000      -0.725246       -19.7349
  88   2.0000      -0.710228       -19.3263
  89   2.0000      -0.695244       -18.9186
  90   2.0000      -0.684482       -18.6257
  91   2.0000      -0.683523       -18.5996
  92   2.0000      -0.673495       -18.3267
  93   2.0000      -0.672046       -18.2873
  94   2.0000      -0.665507       -18.1094
  95   2.0000      -0.657412       -17.8891
  96   2.0000      -0.647210       -17.6115
  97   2.0000      -0.641042       -17.4436
  98   2.0000      -0.635535       -17.2938
  99   2.0000      -0.634132       -17.2556
 100   2.0000      -0.630239       -17.1497
 101   2.0000      -0.622822       -16.9479
 102   2.0000      -0.618922       -16.8417
 103   2.0000      -0.608800       -16.5663
 104   2.0000      -0.604226       -16.4418
 105   2.0000      -0.600647       -16.3444
 106   2.0000      -0.596868       -16.2416
 107   2.0000      -0.592792       -16.1307
 108   2.0000      -0.584381       -15.9018
 109   2.0000      -0.582205       -15.8426
 110   2.0000      -0.575524       -15.6608
 111   2.0000      -0.566356       -15.4113
 112   2.0000      -0.565630       -15.3916
 113   2.0000      -0.554011       -15.0754
 114   2.0000      -0.550785       -14.9876
 115   2.0000      -0.548579       -14.9276
 116   2.0000      -0.542709       -14.7679
 117   2.0000      -0.537186       -14.6176
 118   2.0000      -0.533911       -14.5285
 119   2.0000      -0.526951       -14.3391
 120   2.0000      -0.522865       -14.2279
 121   2.0000      -0.516062       -14.0428
 122   2.0000      -0.514409       -13.9978
 123   2.0000      -0.510828       -13.9003
 124   2.0000      -0.506435       -13.7808
 125   2.0000      -0.503591       -13.7034
 126   2.0000      -0.503291       -13.6952
 127   2.0000      -0.497660       -13.5420
 128   2.0000      -0.491427       -13.3724
 129   2.0000      -0.489646       -13.3240
 130   2.0000      -0.486001       -13.2248
 131   2.0000      -0.483947       -13.1689
 132   2.0000      -0.472452       -12.8561
 133   2.0000      -0.471214       -12.8224
 134   2.0000      -0.466743       -12.7007
 135   2.0000      -0.464324       -12.6349
 136   2.0000      -0.459883       -12.5140
 137   2.0000      -0.455183       -12.3862
 138   2.0000      -0.442619       -12.0443
 139   2.0000      -0.441021       -12.0008
 140   2.0000      -0.439669       -11.9640
 141   2.0000      -0.439203       -11.9513
 142   2.0000      -0.428689       -11.6652
 143   2.0000      -0.426349       -11.6016
 144   2.0000      -0.416938       -11.3455
 145   2.0000      -0.405428       -11.0323
 146   2.0000      -0.399795       -10.8790
 147   2.0000      -0.393746       -10.7144
 148   2.0000      -0.390443       -10.6245
 149   2.0000      -0.390259       -10.6195
 150   2.0000      -0.380811       -10.3624
 151   2.0000      -0.373920       -10.1749
 152   2.0000      -0.371728       -10.1152
 153   2.0000      -0.362571        -9.8660
 154   2.0000      -0.349890        -9.5210
 155   2.0000      -0.347790        -9.4638
 156   2.0000      -0.340534        -9.2664
 157   2.0000      -0.336980        -9.1697
 158   2.0000      -0.335809        -9.1378
 159   2.0000      -0.332624        -9.0511
 160   2.0000      -0.324377        -8.8267
 161   2.0000      -0.321027        -8.7356
 162   2.0000      -0.314613        -8.5611
 163   2.0000      -0.289333        -7.8732
 164   2.0000      -0.255533        -6.9534
 165   2.0000      -0.212642        -5.7863
 166   0.0000      -0.090714        -2.4684
 167   0.0000      -0.053055        -1.4437
 168   0.0000      -0.048523        -1.3204
 169   0.0000      -0.025468        -0.6930
 170   0.0000      -0.013350        -0.3633

MULLIKEN ATOMIC CHARGES
-----------------------
   0 C :    0.069601
   1 O :   -0.176582
   2 C :    0.133699
   3 C :   -0.044006
   4 C :    0.042520
   5 C :    0.028745
   6 C :    0.020601
   7 C :    0.007614
   8 C :   -0.037153
   9 C :    0.039329
  10 N :   -0.022896
  11 C :    0.023485
  12 C :   -0.043743
  13 C :   -0.035495
  14 N :    0.005024
  15 C :    0.019408
  16 C :    0.020263
  17 N :   -0.012465
  18 C :   -0.207175
  19 S :    0.179928
  20 C :   -0.161170
  21 C :    0.091136
  22 C :    0.160313
  23 O :   -0.218584
  24 C :    0.241767
  25 N :    0.281935
  26 O :   -0.247832
  27 O :   -0.248351
  28 C :   -0.100264
  29 C :    0.042658
  30 N :   -0.036904
  31 C :    0.070055
  32 C :   -0.053234
  33 C :   -0.032143
  34 N :   -0.001979
  35 C :    0.032733
  36 C :    0.027212
  37 N :    0.003692
  38 C :   -0.109732
  39 S :    0.055619
  40 C :   -0.160311
  41 C :    0.180987
  42 O :   -0.174258
  43 O :   -0.164062
  44 C :    0.052190
  45 C :   -0.002897
  46 H :    0.004166
  47 H :    0.008437
  48 H :   -0.013740
  49 H :   -0.017879
  50 H :   -0.021398
  51 H :    0.005723
  52 H :   -0.036022
  53 H :    0.143205
  54 H :    0.006738
  55 H :    0.008023
  56 H :    0.015735
  57 H :    0.139832
  58 H :    0.015376
  59 H :    0.016210
  60 H :    0.174732
  61 H :    0.012220
  62 H :   -0.000634
Sum of atomic charges:    0.0000000

LOEWDIN ATOMIC CHARGES
----------------------
   0 C :    0.034404
   1 O :    0.027671
   2 C :    0.029397
   3 C :   -0.069233
   4 C :   -0.081554
   5 C :   -0.009209
   6 C :   -0.030278
   7 C :   -0.000644
   8 C :   -0.056776
   9 C :   -0.006937
  10 N :    0.132597
  11 C :   -0.051781
  12 C :   -0.048691
  13 C :   -0.046446
  14 N :   -0.030424
  15 C :   -0.008861
  16 C :   -0.001978
  17 N :   -0.052145
  18 C :   -0.197800
  19 S :    0.459132
  20 C :   -0.183477
  21 C :   -0.068170
  22 C :    0.008023
  23 O :   -0.018440
  24 C :    0.017615
  25 N :    0.272876
  26 O :   -0.209601
  27 O :   -0.208470
  28 C :    0.006594
  29 C :   -0.029783
  30 N :    0.123002
  31 C :   -0.038676
  32 C :   -0.037244
  33 C :   -0.040596
  34 N :   -0.029252
  35 C :    0.001074
  36 C :    0.004201
  37 N :   -0.033162
  38 C :   -0.158321
  39 S :    0.390528
  40 C :   -0.242356
  41 C :    0.061695
  42 O :   -0.163178
  43 O :   -0.039078
  44 C :   -0.000958
  45 C :   -0.048009
  46 H :    0.019463
  47 H :    0.021594
  48 H :    0.029294
  49 H :    0.030325
  50 H :    0.023527
  51 H :    0.031965
  52 H :    0.026166
  53 H :    0.098494
  54 H :    0.024872
  55 H :    0.024700
  56 H :    0.042139
  57 H :    0.086330
  58 H :    0.028336
  59 H :    0.028797
  60 H :    0.075938
  61 H :    0.044846
  62 H :    0.035936

  Mayer bond orders larger than 0.100000
B(  0-C ,  1-O ) :   1.1770 B(  0-C ,  4-C ) :   1.5025 B(  0-C , 46-H ) :   1.0028
B(  1-O ,  2-C ) :   1.1445 B(  2-C ,  3-C ) :   1.5759 B(  2-C , 47-H ) :   1.0013
B(  3-C ,  4-C ) :   1.2087 B(  3-C , 48-H ) :   1.0094 B(  4-C ,  5-C ) :   1.0706
B(  5-C ,  6-C ) :   1.6812 B(  5-C , 49-H ) :   0.9819 B(  6-C ,  7-C ) :   1.1233
B(  6-C , 50-H ) :   0.9833 B(  7-C ,  8-C ) :   1.6192 B(  7-C , 51-H ) :   0.9818
B(  8-C ,  9-C ) :   1.1323 B(  8-C , 52-H ) :   0.9570 B(  9-C , 10-N ) :   1.2432
B(  9-C , 11-C ) :   0.1383 B(  9-C , 13-C ) :   1.2195 B( 10-N , 11-C ) :   1.2743
B( 10-N , 53-H ) :   0.9140 B( 11-C , 12-C ) :   1.2365 B( 11-C , 18-C ) :   1.1718
B( 12-C , 13-C ) :   1.2586 B( 12-C , 17-N ) :   1.4458 B( 13-C , 14-N ) :   1.4453
B( 14-N , 15-C ) :   1.6524 B( 15-C , 16-C ) :   1.2248 B( 15-C , 54-H ) :   0.9751
B( 16-C , 17-N ) :   1.6502 B( 16-C , 55-H ) :   0.9738 B( 18-C , 19-S ) :   1.1236
B( 18-C , 20-C ) :   0.1280 B( 18-C , 22-C ) :   1.4407 B( 19-S , 20-C ) :   1.0662
B( 20-C , 21-C ) :   1.4156 B( 20-C , 29-C ) :   1.1878 B( 21-C , 22-C ) :   1.2110
B( 21-C , 28-C ) :   1.1148 B( 22-C , 23-O ) :   1.1045 B( 23-O , 24-C ) :   1.0919
B( 24-C , 25-N ) :   0.9301 B( 24-C , 28-C ) :   1.5112 B( 25-N , 26-O ) :   1.5281
B( 25-N , 27-O ) :   1.4920 B( 26-O , 27-O ) :   0.2756 B( 28-C , 56-H ) :   1.0167
B( 29-C , 30-N ) :   1.2751 B( 29-C , 31-C ) :   0.1603 B( 29-C , 33-C ) :   1.2468
B( 30-N , 31-C ) :   1.2459 B( 30-N , 57-H ) :   0.9168 B( 31-C , 32-C ) :   1.2806
B( 31-C , 38-C ) :   1.1505 B( 32-C , 33-C ) :   1.2483 B( 32-C , 37-N ) :   1.4498
B( 33-C , 34-N ) :   1.4774 B( 34-N , 35-C ) :   1.6245 B( 35-C , 36-C ) :   1.2244
B( 35-C , 58-H ) :   0.9729 B( 36-C , 37-N ) :   1.6561 B( 36-C , 59-H ) :   0.9748
B( 38-C , 39-S ) :   1.1094 B( 38-C , 40-C ) :   0.1057 B( 38-C , 45-C ) :   1.5104
B( 39-S , 40-C ) :   1.0632 B( 40-C , 41-C ) :   0.9464 B( 40-C , 44-C ) :   1.5378
B( 41-C , 42-O ) :   2.1987 B( 41-C , 43-O ) :   1.2271 B( 43-O , 60-H ) :   0.9531
B( 44-C , 45-C ) :   1.2355 B( 44-C , 61-H ) :   1.0011 B( 45-C , 62-H ) :   0.9896

-----------------------------------------------------------------------------
         ABSORPTION SPECTRUM VIA TRANSITION ELECTRIC DIPOLE MOMENTS
-----------------------------------------------------------------------------
State   Energy  Wavelength   fosc         T2         TX        TY        TZ
        (cm-1)    (nm)                  (au**2)     (au)      (au)      (au)
-----------------------------------------------------------------------------
   0   12202.7    819.5   0.956736807  25.81135   4.08067   2.51785   1.67924
   1   18313.2    546.1   0.307660542   5.53075   2.16793   0.82440   0.38883
   2   19780.2    505.6   0.021608961   0.35965   0.13205  -0.39699  -0.42966
   3   21733.2    460.1   0.130934299   1.98338  -0.34277   0.93325   0.99747
   4   25432.0    393.2   0.506205922   6.55274  -1.71360  -1.50008  -1.16880
   5   27225.2    367.3   0.447199157   5.40762  -2.25687   0.07890   0.55490
   6   28939.1    345.6   0.126216984   1.43585  -1.10621  -0.42090  -0.18709
   7   29462.6    339.4   0.003568873   0.03988   0.04384  -0.13644   0.13907
   8   29840.8    335.1   0.352378474   3.88753  -0.48985  -1.40887  -1.28945
   9   29857.5    334.9   0.009754013   0.10755  -0.08659   0.04125  -0.31361
  10   30516.8    327.7   0.259732171   2.80197  -0.55003   1.03646   1.19381
  11   31453.8    317.9   0.096257787   1.00748  -0.39908   0.60672   0.69291
  12   32880.2    304.1   0.000013650   0.00014  -0.00541   0.00953  -0.00406
  13   33796.2    295.9   0.088353932   0.86066   0.18271   0.66833   0.61694
  14   35814.3    279.2   0.065247366   0.59977   0.49278  -0.37045  -0.46872
  15   36197.2    276.3   0.001804980   0.01642  -0.01374   0.08259  -0.09699
  16   36287.2    275.6   0.000180338   0.00164  -0.01167   0.03873   0.00021
  17   36487.4    274.1   0.149373773   1.34774  -0.35456   0.73566   0.82513
  18   36879.4    271.2   0.007976000   0.07120   0.08821   0.18567   0.17013
  19   37216.6    268.7   0.179475916   1.58761  -0.48410   0.76198   0.87900
  20   37741.0    265.0   0.027988837   0.24414   0.02293  -0.34895  -0.34908
  21   38295.5    261.1   0.003325199   0.02859   0.02600  -0.12789   0.10748
  22   38880.8    257.2   0.029698983   0.25147   0.49386   0.08687   0.00474
  23   39083.2    255.9   0.145390405   1.22468  -0.40995   0.70185   0.75102
  24   39129.5    255.6   0.053948094   0.45389   0.22237  -0.36391  -0.52154
  25   39633.6    252.3   0.136864933   1.13685  -0.30872  -0.74968  -0.69247
  26   39996.4    250.0   0.102585342   0.84438  -0.87057   0.06674   0.28641

FINAL SINGLE POINT ENERGY     -2819.662759622084

DIPOLE MOMENT
-------------
                                X             Y             Z
Electronic contribution:     27.15976       9.98204       4.69010
Nuclear contribution   :    -28.29803     -10.55107      -5.02499
                        -----------------------------------------
Total Dipole Moment    :     -1.13827      -0.56903      -0.33489
                        -----------------------------------------
Magnitude (a.u.)       :      1.31591
Magnitude (Debye)      :      3.34477

Rotational constants in cm-1:     0.003378     0.000728     0.000599
Rotational constants in MHz :   101.276404    21.810043    17.946129

                             ****ORCA TERMINATED NORMALLY****
TOTAL RUN TIME: 0 days 0 hours 3 minutes 37 seconds 840 msec
