                         Program Version 4.2.0 -  RELEASE  -
|  1> # ORCA input file
|  2> # SCF done       -124.635006075064          0.000549637575
|  3> ! CAM-B3LYP def2-SVP def2/J RIJCOSX Grid4 TightSCF
|  4> %maxcore 5000
|  5> %tddft
|  6>     Mode sTDDFT
|  7>     Ethresh 5.0
|  8>     maxcore 5000
|  9> end
| 10>
| 11> %pal
| 12>   nprocs 6
| 13>   end
| 14> * xyz 0 1
| 15>    C       -6.04882         3.51897        -4.46073
| 16>    O       -7.35704         3.56605        -4.74813
| 17>    C       -7.90942         4.46641        -3.91444
| 18>    C       -6.97488         5.00268        -3.09097
| 19>    C       -5.73318         4.38467        -3.44024
| 20>    C       -4.42657         4.58947        -2.88110
| 21>    C       -4.14311         5.46318        -1.89408
| 22>    C       -2.85757         5.69654        -1.31274
| 23>    C       -1.70791         5.05202        -1.62216
| 24>    C       -0.45554         5.33169        -1.01217
| 25>    O       -0.35716         6.30293        -0.07080
| 26>    C        0.92644         6.35174         0.32550
| 27>    C        1.68098         5.43614        -0.33028
| 28>    C        0.80011         4.74821        -1.21743
| 29>    C        1.10833         3.68968        -2.12010
| 30>    C        2.33664         3.14673        -2.29629
| 31>    C        2.59174         2.08757        -3.20310
| 32>    C        3.81860         1.53625        -3.38951
| 33>    C        4.06998         0.47807        -4.29194
| 34>    S        5.67813        -0.19551        -4.51092
| 35>    C        5.18798        -1.37284        -5.71085
| 36>    C        3.82144        -1.23032        -5.91554
| 37>    C        3.22108        -0.21498        -5.13393
| 38>    O        1.89603        -0.19424        -5.43810
| 39>    C        1.76596        -1.17430        -6.36516
| 40>    N        2.83667        -1.80911        -6.68468
| 41>    C        6.10205        -2.26219        -6.31084
| 42>    C        5.71668        -3.16180        -7.25492
| 43>    C        6.59047        -4.06930        -7.89618
| 44>    O        7.91013        -4.10013        -7.57770
| 45>    C        8.48624        -5.03971        -8.34591
| 46>    C        7.58317        -5.63131        -9.16757
| 47>    C        6.32609        -5.01618        -8.89553
| 48>    C        5.06010        -5.27937        -9.49391
| 49>    C        4.84245        -6.15775       -10.50057
| 50>    C        3.56186        -6.38034       -11.07189
| 51>    C        3.33697        -7.22852       -12.10425
| 52>    C        2.06109        -7.45285       -12.68829
| 53>    O        0.96884        -6.82076       -12.18989
| 54>    C       -0.08842        -7.20531       -12.92360
| 55>    C        0.27795        -8.07551       -13.89796
| 56>    C        1.68532        -8.25719       -13.76748
| 57>    C        2.54738        -9.07591       -14.56473
| 58>    C        2.15720        -9.80791       -15.62428
| 59>    C        3.05798       -10.61270       -16.40203
| 60>    C        2.68429       -11.33182       -17.45966
| 61>    H       -5.43983         2.84726        -5.03325
| 62>    H       -8.96457         4.63447        -4.00509
| 63>    H       -7.14039         5.73983        -2.33265
| 64>    H       -3.64516         3.98212        -3.31590
| 65>    H       -4.94941         6.05973        -1.48943
| 66>    H       -2.81175         6.46323        -0.55079
| 67>    H       -1.69699         4.27274        -2.36836
| 68>    H        1.17529         7.07660         1.07577
| 69>    H        2.72985         5.26697        -0.20279
| 70>    H        0.28392         3.29832        -2.70148
| 71>    H        3.17805         3.52058        -1.72951
| 72>    H        1.75460         1.70477        -3.77173
| 73>    H        4.66967         1.90492        -2.83362
| 74>    H        0.78953        -1.35688        -6.76908
| 75>    H        7.13462        -2.20487        -5.99847
| 76>    H        4.67829        -3.19223        -7.54787
| 77>    H        9.53972        -5.19404        -8.21567
| 78>    H        7.78179        -6.40939        -9.87490
| 79>    H        4.22150        -4.71804        -9.10440
| 80>    H        5.66783        -6.72261       -10.91231
| 81>    H        2.72798        -5.83152       -10.65570
| 82>    H        4.15997        -7.77930       -12.53660
| 83>    H       -1.04183        -6.79343       -12.65581
| 84>    H       -0.36816        -8.53334       -14.61771
| 85>    H        3.59100        -9.08849       -14.27795
| 86>    H        1.12145        -9.80872       -15.93379
| 87>    H        4.09417       -10.61393       -16.08724
| 88>    H        1.66039       -11.34885       -17.79530
| 89>    H        3.38332       -11.92467       -18.02343
| 90> *
| 91>
| 92>                          ****END OF INPUT****

CARTESIAN COORDINATES (ANGSTROEM)
---------------------------------
  C     -6.048820    3.518970   -4.460730
  O     -7.357040    3.566050   -4.748130
  C     -7.909420    4.466410   -3.914440
  C     -6.974880    5.002680   -3.090970
  C     -5.733180    4.384670   -3.440240
  C     -4.426570    4.589470   -2.881100
  C     -4.143110    5.463180   -1.894080
  C     -2.857570    5.696540   -1.312740
  C     -1.707910    5.052020   -1.622160
  C     -0.455540    5.331690   -1.012170
  O     -0.357160    6.302930   -0.070800
  C      0.926440    6.351740    0.325500
  C      1.680980    5.436140   -0.330280
  C      0.800110    4.748210   -1.217430
  C      1.108330    3.689680   -2.120100
  C      2.336640    3.146730   -2.296290
  C      2.591740    2.087570   -3.203100
  C      3.818600    1.536250   -3.389510
  C      4.069980    0.478070   -4.291940
  S      5.678130   -0.195510   -4.510920
  C      5.187980   -1.372840   -5.710850
  C      3.821440   -1.230320   -5.915540
  C      3.221080   -0.214980   -5.133930
  O      1.896030   -0.194240   -5.438100
  C      1.765960   -1.174300   -6.365160
  N      2.836670   -1.809110   -6.684680
  C      6.102050   -2.262190   -6.310840
  C      5.716680   -3.161800   -7.254920
  C      6.590470   -4.069300   -7.896180
  O      7.910130   -4.100130   -7.577700
  C      8.486240   -5.039710   -8.345910
  C      7.583170   -5.631310   -9.167570
  C      6.326090   -5.016180   -8.895530
  C      5.060100   -5.279370   -9.493910
  C      4.842450   -6.157750  -10.500570
  C      3.561860   -6.380340  -11.071890
  C      3.336970   -7.228520  -12.104250
  C      2.061090   -7.452850  -12.688290
  O      0.968840   -6.820760  -12.189890
  C     -0.088420   -7.205310  -12.923600
  C      0.277950   -8.075510  -13.897960
  C      1.685320   -8.257190  -13.767480
  C      2.547380   -9.075910  -14.564730
  C      2.157200   -9.807910  -15.624280
  C      3.057980  -10.612700  -16.402030
  C      2.684290  -11.331820  -17.459660
  H     -5.439830    2.847260   -5.033250
  H     -8.964570    4.634470   -4.005090
  H     -7.140390    5.739830   -2.332650
  H     -3.645160    3.982120   -3.315900
  H     -4.949410    6.059730   -1.489430
  H     -2.811750    6.463230   -0.550790
  H     -1.696990    4.272740   -2.368360
  H      1.175290    7.076600    1.075770
  H      2.729850    5.266970   -0.202790
  H      0.283920    3.298320   -2.701480
  H      3.178050    3.520580   -1.729510
  H      1.754600    1.704770   -3.771730
  H      4.669670    1.904920   -2.833620
  H      0.789530   -1.356880   -6.769080
  H      7.134620   -2.204870   -5.998470
  H      4.678290   -3.192230   -7.547870
  H      9.539720   -5.194040   -8.215670
  H      7.781790   -6.409390   -9.874900
  H      4.221500   -4.718040   -9.104400
  H      5.667830   -6.722610  -10.912310
  H      2.727980   -5.831520  -10.655700
  H      4.159970   -7.779300  -12.536600
  H     -1.041830   -6.793430  -12.655810
  H     -0.368160   -8.533340  -14.617710
  H      3.591000   -9.088490  -14.277950
  H      1.121450   -9.808720  -15.933790
  H      4.094170  -10.613930  -16.087240
  H      1.660390  -11.348850  -17.795300
  H      3.383320  -11.924670  -18.023430

 Total Charge           Charge          ....    0
 Multiplicity           Mult            ....    1
 Number of Electrons    NEL             ....  326
 Basis Dimension        Dim             ....  793

ORBITAL ENERGIES
----------------

  NO   OCC          E(Eh)            E(eV)
   0   2.0000     -88.956485     -2420.6290
   1   2.0000     -19.299962      -525.1787
   2   2.0000     -19.281616      -524.6795
   3   2.0000     -19.278806      -524.6030
   4   2.0000     -19.278594      -524.5972
   5   2.0000     -19.277208      -524.5595
   6   2.0000     -14.414263      -392.2320
   7   2.0000     -10.369007      -282.1550
   8   2.0000     -10.327853      -281.0352
   9   2.0000     -10.319196      -280.7996
  10   2.0000     -10.318181      -280.7720
  11   2.0000     -10.317361      -280.7497
  12   2.0000     -10.317104      -280.7427
  13   2.0000     -10.316290      -280.7205
  14   2.0000     -10.314591      -280.6743
  15   2.0000     -10.313284      -280.6387
  16   2.0000     -10.312747      -280.6241
  17   2.0000     -10.303140      -280.3627
  18   2.0000     -10.301941      -280.3301
  19   2.0000     -10.296793      -280.1900
  20   2.0000     -10.276282      -279.6318
  21   2.0000     -10.274643      -279.5873
  22   2.0000     -10.270588      -279.4769
  23   2.0000     -10.270477      -279.4739
  24   2.0000     -10.270428      -279.4726
  25   2.0000     -10.270226      -279.4671
  26   2.0000     -10.269532      -279.4482
  27   2.0000     -10.269077      -279.4358
  28   2.0000     -10.268594      -279.4227
  29   2.0000     -10.268526      -279.4208
  30   2.0000     -10.267791      -279.4008
  31   2.0000     -10.267320      -279.3880
  32   2.0000     -10.267132      -279.3829
  33   2.0000     -10.266562      -279.3674
  34   2.0000     -10.265716      -279.3443
  35   2.0000     -10.265358      -279.3346
  36   2.0000     -10.264523      -279.3119
  37   2.0000     -10.263673      -279.2887
  38   2.0000     -10.263545      -279.2853
  39   2.0000     -10.263065      -279.2722
  40   2.0000     -10.261605      -279.2325
  41   2.0000     -10.261043      -279.2172
  42   2.0000     -10.260811      -279.2109
  43   2.0000     -10.260183      -279.1938
  44   2.0000     -10.259154      -279.1658
  45   2.0000     -10.254056      -279.0271
  46   2.0000      -8.051321      -219.0876
  47   2.0000      -6.020723      -163.8322
  48   2.0000      -6.016775      -163.7248
  49   2.0000      -6.013174      -163.6268
  50   2.0000      -1.226435       -33.3730
  51   2.0000      -1.200425       -32.6652
  52   2.0000      -1.197159       -32.5764
  53   2.0000      -1.196988       -32.5717
  54   2.0000      -1.195787       -32.5390
  55   2.0000      -1.022232       -27.8163
  56   2.0000      -0.974547       -26.5188
  57   2.0000      -0.918312       -24.9885
  58   2.0000      -0.916910       -24.9504
  59   2.0000      -0.913276       -24.8515
  60   2.0000      -0.911818       -24.8118
  61   2.0000      -0.901773       -24.5385
  62   2.0000      -0.891361       -24.2552
  63   2.0000      -0.889623       -24.2079
  64   2.0000      -0.882425       -24.0120
  65   2.0000      -0.873428       -23.7672
  66   2.0000      -0.852264       -23.1913
  67   2.0000      -0.850085       -23.1320
  68   2.0000      -0.846750       -23.0413
  69   2.0000      -0.836332       -22.7578
  70   2.0000      -0.830516       -22.5995
  71   2.0000      -0.819442       -22.2981
  72   2.0000      -0.811699       -22.0874
  73   2.0000      -0.791934       -21.5496
  74   2.0000      -0.787106       -21.4183
  75   2.0000      -0.770968       -20.9791
  76   2.0000      -0.730077       -19.8664
  77   2.0000      -0.725265       -19.7355
  78   2.0000      -0.725110       -19.7312
  79   2.0000      -0.720457       -19.6046
  80   2.0000      -0.711379       -19.3576
  81   2.0000      -0.708260       -19.2727
  82   2.0000      -0.687994       -18.7213
  83   2.0000      -0.682250       -18.5650
  84   2.0000      -0.672608       -18.3026
  85   2.0000      -0.663039       -18.0422
  86   2.0000      -0.650251       -17.6942
  87   2.0000      -0.648031       -17.6338
  88   2.0000      -0.645457       -17.5638
  89   2.0000      -0.631761       -17.1911
  90   2.0000      -0.630181       -17.1481
  91   2.0000      -0.627684       -17.0801
  92   2.0000      -0.625900       -17.0316
  93   2.0000      -0.621979       -16.9249
  94   2.0000      -0.618193       -16.8219
  95   2.0000      -0.610057       -16.6005
  96   2.0000      -0.605836       -16.4856
  97   2.0000      -0.603057       -16.4100
  98   2.0000      -0.586027       -15.9466
  99   2.0000      -0.582588       -15.8530
 100   2.0000      -0.572123       -15.5683
 101   2.0000      -0.569872       -15.5070
 102   2.0000      -0.554664       -15.0932
 103   2.0000      -0.547503       -14.8983
 104   2.0000      -0.545058       -14.8318
 105   2.0000      -0.541837       -14.7441
 106   2.0000      -0.541788       -14.7428
 107   2.0000      -0.540393       -14.7048
 108   2.0000      -0.539784       -14.6883
 109   2.0000      -0.539434       -14.6788
 110   2.0000      -0.538455       -14.6521
 111   2.0000      -0.537752       -14.6330
 112   2.0000      -0.530078       -14.4242
 113   2.0000      -0.529293       -14.4028
 114   2.0000      -0.520603       -14.1663
 115   2.0000      -0.517218       -14.0742
 116   2.0000      -0.510546       -13.8927
 117   2.0000      -0.497503       -13.5377
 118   2.0000      -0.492821       -13.4103
 119   2.0000      -0.489009       -13.3066
 120   2.0000      -0.485979       -13.2242
 121   2.0000      -0.480398       -13.0723
 122   2.0000      -0.475061       -12.9271
 123   2.0000      -0.473808       -12.8930
 124   2.0000      -0.470413       -12.8006
 125   2.0000      -0.465132       -12.6569
 126   2.0000      -0.464237       -12.6325
 127   2.0000      -0.462822       -12.5940
 128   2.0000      -0.461375       -12.5546
 129   2.0000      -0.453217       -12.3326
 130   2.0000      -0.450834       -12.2678
 131   2.0000      -0.445557       -12.1242
 132   2.0000      -0.444291       -12.0898
 133   2.0000      -0.437910       -11.9161
 134   2.0000      -0.433292       -11.7905
 135   2.0000      -0.431603       -11.7445
 136   2.0000      -0.430385       -11.7114
 137   2.0000      -0.424565       -11.5530
 138   2.0000      -0.421367       -11.4660
 139   2.0000      -0.420910       -11.4535
 140   2.0000      -0.419172       -11.4063
 141   2.0000      -0.418898       -11.3988
 142   2.0000      -0.417134       -11.3508
 143   2.0000      -0.415185       -11.2978
 144   2.0000      -0.413891       -11.2626
 145   2.0000      -0.413446       -11.2504
 146   2.0000      -0.410039       -11.1577
 147   2.0000      -0.389292       -10.5932
 148   2.0000      -0.375986       -10.2311
 149   2.0000      -0.372813       -10.1447
 150   2.0000      -0.367113        -9.9897
 151   2.0000      -0.360782        -9.8174
 152   2.0000      -0.357106        -9.7173
 153   2.0000      -0.325081        -8.8459
 154   2.0000      -0.321868        -8.7585
 155   2.0000      -0.317304        -8.6343
 156   2.0000      -0.308111        -8.3841
 157   2.0000      -0.298324        -8.1178
 158   2.0000      -0.288408        -7.8480
 159   2.0000      -0.274312        -7.4644
 160   2.0000      -0.246324        -6.7028
 161   2.0000      -0.228233        -6.2105
 162   2.0000      -0.206226        -5.6117
 163   0.0000      -0.060949        -1.6585
 164   0.0000      -0.034580        -0.9410
 165   0.0000      -0.018497        -0.5033
 166   0.0000       0.011015         0.2997
 167   0.0000       0.023230         0.6321

MULLIKEN ATOMIC CHARGES
-----------------------
   0 C :    0.070301
   1 O :   -0.182630
   2 C :    0.135504
   3 C :   -0.051397
   4 C :    0.047129
   5 C :    0.045596
   6 C :   -0.002788
   7 C :    0.017730
   8 C :   -0.027029
   9 C :    0.114545
  10 O :   -0.197347
  11 C :    0.154674
  12 C :   -0.046499
  13 C :    0.064978
  14 C :   -0.013513
  15 C :    0.018832
  16 C :   -0.000249
  17 C :    0.060258
  18 C :   -0.193344
  19 S :    0.140296
  20 C :   -0.187997
  21 C :    0.050848
  22 C :    0.191773
  23 O :   -0.209391
  24 C :    0.188593
  25 N :   -0.074401
  26 C :    0.035362
  27 C :   -0.050340
  28 C :    0.124053
  29 O :   -0.199263
  30 C :    0.156037
  31 C :   -0.048497
  32 C :    0.069770
  33 C :   -0.011301
  34 C :    0.011911
  35 C :    0.026539
  36 C :   -0.042918
  37 C :    0.117723
  38 O :   -0.198070
  39 C :    0.154712
  40 C :   -0.048356
  41 C :    0.062788
  42 C :   -0.008452
  43 C :    0.005689
  44 C :    0.007006
  45 C :   -0.022533
  46 H :    0.001355
  47 H :    0.009060
  48 H :   -0.011022
  49 H :   -0.029179
  50 H :   -0.022052
  51 H :   -0.008051
  52 H :   -0.012771
  53 H :    0.006291
  54 H :   -0.014592
  55 H :   -0.027915
  56 H :   -0.023357
  57 H :   -0.005886
  58 H :   -0.030521
  59 H :    0.029545
  60 H :   -0.021198
  61 H :    0.012820
  62 H :    0.007616
  63 H :   -0.014548
  64 H :   -0.013775
  65 H :   -0.024321
  66 H :   -0.003718
  67 H :   -0.015860
  68 H :    0.004220
  69 H :   -0.015355
  70 H :   -0.026033
  71 H :   -0.022406
  72 H :   -0.013151
  73 H :    0.009965
  74 H :    0.018506
Sum of atomic charges:   -0.0000000

LOEWDIN ATOMIC CHARGES
----------------------
   0 C :    0.027830
   1 O :    0.020625
   2 C :    0.033277
   3 C :   -0.070016
   4 C :   -0.074901
   5 C :   -0.008726
   6 C :   -0.039072
   7 C :   -0.023606
   8 C :   -0.037884
   9 C :    0.032014
  10 O :    0.011356
  11 C :    0.043630
  12 C :   -0.068383
  13 C :   -0.066417
  14 C :   -0.021114
  15 C :   -0.027841
  16 C :   -0.021936
  17 C :   -0.050127
  18 C :   -0.200946
  19 S :    0.443896
  20 C :   -0.178471
  21 C :   -0.067822
  22 C :   -0.003529
  23 O :   -0.013222
  24 C :    0.094490
  25 N :   -0.099587
  26 C :   -0.041947
  27 C :   -0.027887
  28 C :    0.028675
  29 O :    0.009342
  30 C :    0.045968
  31 C :   -0.068439
  32 C :   -0.059440
  33 C :   -0.018481
  34 C :   -0.027266
  35 C :   -0.014241
  36 C :   -0.047855
  37 C :    0.029553
  38 O :    0.011484
  39 C :    0.042227
  40 C :   -0.067824
  41 C :   -0.066203
  42 C :   -0.020109
  43 C :   -0.027610
  44 C :   -0.025088
  45 C :   -0.053143
  46 H :    0.019945
  47 H :    0.021847
  48 H :    0.028403
  49 H :    0.024687
  50 H :    0.025865
  51 H :    0.029713
  52 H :    0.029593
  53 H :    0.022372
  54 H :    0.028098
  55 H :    0.025524
  56 H :    0.024533
  57 H :    0.027203
  58 H :    0.026916
  59 H :    0.025981
  60 H :    0.029401
  61 H :    0.038449
  62 H :    0.022720
  63 H :    0.028346
  64 H :    0.031198
  65 H :    0.023436
  66 H :    0.030382
  67 H :    0.031298
  68 H :    0.021583
  69 H :    0.028083
  70 H :    0.025623
  71 H :    0.024153
  72 H :    0.026779
  73 H :    0.019893
  74 H :    0.022744

  Mayer bond orders larger than 0.100000
B(  0-C ,  1-O ) :   1.1616 B(  0-C ,  4-C ) :   1.4975 B(  0-C , 46-H ) :   1.0051
B(  1-O ,  2-C ) :   1.1439 B(  2-C ,  3-C ) :   1.5909 B(  2-C , 47-H ) :   0.9998
B(  3-C ,  4-C ) :   1.2113 B(  3-C , 48-H ) :   1.0041 B(  4-C ,  5-C ) :   1.0962
B(  5-C ,  6-C ) :   1.7266 B(  5-C , 49-H ) :   0.9639 B(  6-C ,  7-C ) :   1.1084
B(  6-C , 50-H ) :   0.9759 B(  7-C ,  8-C ) :   1.6884 B(  7-C , 51-H ) :   0.9809
B(  8-C ,  9-C ) :   1.1812 B(  8-C , 52-H ) :   0.9473 B(  9-C , 10-O ) :   1.1536
B(  9-C , 13-C ) :   1.3837 B( 10-O , 11-C ) :   1.1281 B( 11-C , 12-C ) :   1.5764
B( 11-C , 53-H ) :   1.0027 B( 12-C , 13-C ) :   1.1982 B( 12-C , 54-H ) :   0.9978
B( 13-C , 14-C ) :   1.1013 B( 14-C , 15-C ) :   1.6614 B( 14-C , 55-H ) :   0.9717
B( 15-C , 16-C ) :   1.1376 B( 15-C , 56-H ) :   0.9882 B( 16-C , 17-C ) :   1.6348
B( 16-C , 57-H ) :   0.9829 B( 17-C , 18-C ) :   1.1290 B( 17-C , 58-H ) :   0.9641
B( 18-C , 19-S ) :   1.0965 B( 18-C , 20-C ) :   0.1116 B( 18-C , 22-C ) :   1.4456
B( 19-S , 20-C ) :   1.1098 B( 20-C , 21-C ) :   1.3970 B( 20-C , 26-C ) :   1.1494
B( 21-C , 22-C ) :   1.2776 B( 21-C , 25-N ) :   1.2644 B( 22-C , 23-O ) :   1.0875
B( 23-O , 24-C ) :   1.1215 B( 24-C , 25-N ) :   1.7823 B( 24-C , 59-H ) :   0.9852
B( 26-C , 27-C ) :   1.6308 B( 26-C , 60-H ) :   0.9726 B( 27-C , 28-C ) :   1.1847
B( 27-C , 61-H ) :   0.9446 B( 28-C , 29-O ) :   1.1503 B( 28-C , 32-C ) :   1.3772
B( 29-O , 30-C ) :   1.1320 B( 30-C , 31-C ) :   1.5692 B( 30-C , 62-H ) :   1.0026
B( 31-C , 32-C ) :   1.2006 B( 31-C , 63-H ) :   0.9986 B( 32-C , 33-C ) :   1.1066
B( 33-C , 34-C ) :   1.6626 B( 33-C , 64-H ) :   0.9725 B( 34-C , 35-C ) :   1.1178
B( 34-C , 65-H ) :   0.9872 B( 35-C , 36-C ) :   1.6376 B( 35-C , 66-H ) :   0.9959
B( 36-C , 37-C ) :   1.1506 B( 36-C , 67-H ) :   0.9611 B( 37-C , 38-O ) :   1.1534
B( 37-C , 41-C ) :   1.4005 B( 38-O , 39-C ) :   1.1311 B( 39-C , 40-C ) :   1.5726
B( 39-C , 68-H ) :   1.0023 B( 40-C , 41-C ) :   1.2051 B( 40-C , 69-H ) :   0.9982
B( 41-C , 42-C ) :   1.0938 B( 42-C , 43-C ) :   1.7331 B( 42-C , 70-H ) :   0.9687
B( 43-C , 44-C ) :   1.1034 B( 43-C , 71-H ) :   0.9767 B( 44-C , 45-C ) :   1.9039
B( 44-C , 72-H ) :   0.9759 B( 45-C , 73-H ) :   0.9575 B( 45-C , 74-H ) :   0.9521

-----------------------------------------------------------------------------
         ABSORPTION SPECTRUM VIA TRANSITION ELECTRIC DIPOLE MOMENTS
-----------------------------------------------------------------------------
State   Energy  Wavelength   fosc         T2         TX        TY        TZ
        (cm-1)    (nm)                  (au**2)     (au)      (au)      (au)
-----------------------------------------------------------------------------
   0   17787.3    562.2   2.142957798  39.66240   2.30124  -4.49652  -3.76138
   1   23921.5    418.0   0.908357775  12.50098   3.07876   0.58781   1.63607
   2   24773.1    403.7   0.480977049   6.39175   2.16855   0.47529   1.20965
   3   27118.8    368.7   0.033547971   0.40726   0.08650   0.43010   0.46346
   4   28375.3    352.4   0.065086017   0.75513  -0.71221  -0.02729  -0.49714
   5   31657.5    315.9   0.010989049   0.11428  -0.17758   0.23707   0.16291
   6   31955.5    312.9   0.127543325   1.31398  -1.12827   0.19460  -0.05571
   7   33356.8    299.8   1.175782404  11.60428   1.55543   1.82457   2.41989
   8   34483.4    290.0   0.038272621   0.36539  -0.34931   0.42508   0.25035
   9   35815.7    279.2   0.020780474   0.19101   0.30496  -0.28347  -0.13287
  10   36008.1    277.7   0.001853371   0.01694   0.03538   0.10660   0.06580
  11   37406.2    267.3   0.019474946   0.17140  -0.08769  -0.25048  -0.31775
  12   38068.4    262.7   0.318835772   2.75726  -1.43562  -0.46704  -0.69147
  13   38258.9    261.4   0.059475500   0.51178   0.62731   0.19275   0.28479
  14   38681.4    258.5   0.008650861   0.07363  -0.03697   0.17897   0.20058
  15   40059.3    249.6   0.021923420   0.18017  -0.37567   0.16074   0.11492
  16   40210.2    248.7   0.163164056   1.33587  -1.07590   0.38464   0.17424

FINAL SINGLE POINT ENERGY     -2329.922675875659

DIPOLE MOMENT
-------------
                                X             Y             Z
Electronic contribution:     10.59910      18.04617      23.44845
Nuclear contribution   :    -10.80465     -17.82247     -23.30320
                        -----------------------------------------
Total Dipole Moment    :     -0.20555       0.22370       0.14524
                        -----------------------------------------
Magnitude (a.u.)       :      0.33673
Magnitude (Debye)      :      0.85590

Rotational constants in cm-1:     0.002055     0.000497     0.000401
Rotational constants in MHz :    61.620717    14.910451    12.015904

                             ****ORCA TERMINATED NORMALLY****
TOTAL RUN TIME: 0 days 0 hours 4 minutes 11 seconds 499 msec
