                         Program Version 4.2.0 -  RELEASE  -
|  1> # ORCA input file
|  2> # SCF done       -145.529784688764          0.000399208872
|  3> ! CAM-B3LYP def2-SVP def2/J RIJCOSX Grid4 TightSCF
|  4> %maxcore 5000
|  5> %tddft
|  6>     Mode sTDDFT
|  7>     Ethresh 5.0
|  8>     maxcore 5000
|  9> end
| 10>
| 11> %pal
| 12>   nprocs 6
| 13>   end
| 14> * xyz 0 1
| 15>    C       -8.86262         9.12013         3.74244
| 16>    O       -9.77852         8.59036         4.56366
| 17>    C      -10.96759         8.68630         3.94044
| 18>    C      -10.83241         9.27114         2.72488
| 19>    C       -9.44034         9.56655         2.57566
| 20>    C       -8.76303        10.19564         1.48174
| 21>    C       -9.35821        10.62368         0.34388
| 22>    C       -8.66164        11.27533        -0.70186
| 23>    C       -9.27937        11.73688        -1.82912
| 24>    C       -8.70310        12.44855        -2.89533
| 25>    C       -7.40163        12.85499        -3.08879
| 26>    C       -6.97067        13.65395        -4.17648
| 27>    C       -5.64924        13.98665        -4.15033
| 28>    C       -4.94803        13.45287        -3.04974
| 29>    S       -6.02891        12.51232        -2.04832
| 30>    C       -3.61261        13.62700        -2.72612
| 31>    C       -2.68728        14.47266        -3.37032
| 32>    C       -1.45555        14.48276        -2.78216
| 33>    C       -1.34929        13.63031        -1.66297
| 34>    S       -2.85753        12.80363        -1.37147
| 35>    C       -0.24220        13.44589        -0.86079
| 36>    C       -0.23085        12.53057         0.18498
| 37>    S        1.19611        12.35987         1.25972
| 38>    C        0.34010        11.11298         2.07263
| 39>    C       -0.92600        10.92132         1.48593
| 40>    N       -1.21963        11.70818         0.46991
| 41>    C       -1.65841         9.80724         2.16487
| 42>    C       -0.65455         9.38560         3.19943
| 43>    C        0.49432        10.19251         3.11742
| 44>    S        1.66884         9.77468         4.29557
| 45>    C        0.63118         8.48144         4.89488
| 46>    C       -0.57072         8.42322         4.18565
| 47>    C        1.08989         7.69256         5.95959
| 48>    C        0.48822         6.55418         6.43457
| 49>    C        0.99342         5.82737         7.51260
| 50>    C        0.49322         4.62560         7.96638
| 51>    C        0.96405         3.87870         9.06705
| 52>    C        0.30749         2.69932         9.26959
| 53>    C       -0.71171         2.44455         8.33015
| 54>    S       -0.83386         3.77142         7.19510
| 55>    C       -1.50899         1.31697         8.23586
| 56>    C       -1.50378         0.18614         9.07835
| 57>    C       -2.37771        -0.78843         8.70047
| 58>    C       -3.11995        -0.48542         7.53337
| 59>    S       -2.67945         1.10887         6.94764
| 60>    C       -4.02992        -1.31467         6.92638
| 61>    C       -4.76528        -1.07767         5.75660
| 62>    S       -4.70319         0.40797         4.82102
| 63>    C       -5.82227        -0.15198         3.64324
| 64>    C       -6.24563        -1.42992         3.92799
| 65>    C       -5.64813        -1.94358         5.12047
| 66>    N       -6.11457        -3.20505         5.32067
| 67>    C       -6.98931        -3.50964         4.29223
| 68>    C       -7.63101        -4.75227         4.22152
| 69>    N       -8.15660        -5.77115         4.15999
| 70>    C       -7.09554        -2.44813         3.42213
| 71>    H       -7.84395         9.13132         4.07636
| 72>    H      -11.82482         8.30743         4.46101
| 73>    H      -11.61416         9.47137         2.02244
| 74>    H       -7.69700        10.33479         1.60530
| 75>    H      -10.42318        10.48312         0.21429
| 76>    H       -7.59987        11.41808        -0.56634
| 77>    H      -10.34559        11.56213        -1.91526
| 78>    H       -9.38534        12.75420        -3.68010
| 79>    H       -7.65850        13.97040        -4.94129
| 80>    H       -5.16466        14.59220        -4.89491
| 81>    H       -2.94989        15.06438        -4.22904
| 82>    H       -0.62260        15.07505        -3.11818
| 83>    H        0.64878        14.02451        -1.05084
| 84>    H       -1.90098         9.00436         1.46642
| 85>    H       -2.59281        10.15219         2.61134
| 86>    H       -1.33888         7.70629         4.41088
| 87>    H        2.01646         8.00871         6.42203
| 88>    H       -0.40533         6.17954         5.95407
| 89>    H        1.85344         6.22406         8.03745
| 90>    H        1.77608         4.23347         9.67738
| 91>    H        0.53913         2.00767        10.05951
| 92>    H       -0.85827         0.11764         9.93542
| 93>    H       -2.50831        -1.72219         9.21897
| 94>    H       -4.19244        -2.27663         7.39762
| 95>    H       -6.09325         0.48437         2.82632
| 96>    H       -5.87808        -3.82673         6.07452
| 97>    H       -7.70223        -2.41240         2.54007
| 98> *
| 99>
|100>                          ****END OF INPUT****

CARTESIAN COORDINATES (ANGSTROEM)
---------------------------------
  C     -8.862620    9.120130    3.742440
  O     -9.778520    8.590360    4.563660
  C    -10.967590    8.686300    3.940440
  C    -10.832410    9.271140    2.724880
  C     -9.440340    9.566550    2.575660
  C     -8.763030   10.195640    1.481740
  C     -9.358210   10.623680    0.343880
  C     -8.661640   11.275330   -0.701860
  C     -9.279370   11.736880   -1.829120
  C     -8.703100   12.448550   -2.895330
  C     -7.401630   12.854990   -3.088790
  C     -6.970670   13.653950   -4.176480
  C     -5.649240   13.986650   -4.150330
  C     -4.948030   13.452870   -3.049740
  S     -6.028910   12.512320   -2.048320
  C     -3.612610   13.627000   -2.726120
  C     -2.687280   14.472660   -3.370320
  C     -1.455550   14.482760   -2.782160
  C     -1.349290   13.630310   -1.662970
  S     -2.857530   12.803630   -1.371470
  C     -0.242200   13.445890   -0.860790
  C     -0.230850   12.530570    0.184980
  S      1.196110   12.359870    1.259720
  C      0.340100   11.112980    2.072630
  C     -0.926000   10.921320    1.485930
  N     -1.219630   11.708180    0.469910
  C     -1.658410    9.807240    2.164870
  C     -0.654550    9.385600    3.199430
  C      0.494320   10.192510    3.117420
  S      1.668840    9.774680    4.295570
  C      0.631180    8.481440    4.894880
  C     -0.570720    8.423220    4.185650
  C      1.089890    7.692560    5.959590
  C      0.488220    6.554180    6.434570
  C      0.993420    5.827370    7.512600
  C      0.493220    4.625600    7.966380
  C      0.964050    3.878700    9.067050
  C      0.307490    2.699320    9.269590
  C     -0.711710    2.444550    8.330150
  S     -0.833860    3.771420    7.195100
  C     -1.508990    1.316970    8.235860
  C     -1.503780    0.186140    9.078350
  C     -2.377710   -0.788430    8.700470
  C     -3.119950   -0.485420    7.533370
  S     -2.679450    1.108870    6.947640
  C     -4.029920   -1.314670    6.926380
  C     -4.765280   -1.077670    5.756600
  S     -4.703190    0.407970    4.821020
  C     -5.822270   -0.151980    3.643240
  C     -6.245630   -1.429920    3.927990
  C     -5.648130   -1.943580    5.120470
  N     -6.114570   -3.205050    5.320670
  C     -6.989310   -3.509640    4.292230
  C     -7.631010   -4.752270    4.221520
  N     -8.156600   -5.771150    4.159990
  C     -7.095540   -2.448130    3.422130
  H     -7.843950    9.131320    4.076360
  H    -11.824820    8.307430    4.461010
  H    -11.614160    9.471370    2.022440
  H     -7.697000   10.334790    1.605300
  H    -10.423180   10.483120    0.214290
  H     -7.599870   11.418080   -0.566340
  H    -10.345590   11.562130   -1.915260
  H     -9.385340   12.754200   -3.680100
  H     -7.658500   13.970400   -4.941290
  H     -5.164660   14.592200   -4.894910
  H     -2.949890   15.064380   -4.229040
  H     -0.622600   15.075050   -3.118180
  H      0.648780   14.024510   -1.050840
  H     -1.900980    9.004360    1.466420
  H     -2.592810   10.152190    2.611340
  H     -1.338880    7.706290    4.410880
  H      2.016460    8.008710    6.422030
  H     -0.405330    6.179540    5.954070
  H      1.853440    6.224060    8.037450
  H      1.776080    4.233470    9.677380
  H      0.539130    2.007670   10.059510
  H     -0.858270    0.117640    9.935420
  H     -2.508310   -1.722190    9.218970
  H     -4.192440   -2.276630    7.397620
  H     -6.093250    0.484370    2.826320
  H     -5.878080   -3.826730    6.074520
  H     -7.702230   -2.412400    2.540070

 Total Charge           Charge          ....    0
 Multiplicity           Mult            ....    1
 Number of Electrons    NEL             ....  438
 Basis Dimension        Dim             ....  947

ORBITAL ENERGIES
----------------

  NO   OCC          E(Eh)            E(eV)
   0   2.0000     -88.957590     -2420.6591
   1   2.0000     -88.955800     -2420.6104
   2   2.0000     -88.954093     -2420.5639
   3   2.0000     -88.941969     -2420.2340
   4   2.0000     -88.938632     -2420.1432
   5   2.0000     -88.936239     -2420.0781
   6   2.0000     -88.934156     -2420.0214
   7   2.0000     -19.282999      -524.7171
   8   2.0000     -14.468652      -393.7120
   9   2.0000     -14.409645      -392.1064
  10   2.0000     -14.401321      -391.8799
  11   2.0000     -10.339070      -281.3404
  12   2.0000     -10.325243      -280.9642
  13   2.0000     -10.314578      -280.6739
  14   2.0000     -10.314367      -280.6682
  15   2.0000     -10.310580      -280.5652
  16   2.0000     -10.309461      -280.5347
  17   2.0000     -10.306308      -280.4489
  18   2.0000     -10.302493      -280.3451
  19   2.0000     -10.301720      -280.3240
  20   2.0000     -10.300196      -280.2826
  21   2.0000     -10.300177      -280.2821
  22   2.0000     -10.299792      -280.2716
  23   2.0000     -10.299175      -280.2548
  24   2.0000     -10.299059      -280.2516
  25   2.0000     -10.298590      -280.2389
  26   2.0000     -10.296157      -280.1727
  27   2.0000     -10.295537      -280.1558
  28   2.0000     -10.295157      -280.1455
  29   2.0000     -10.294914      -280.1388
  30   2.0000     -10.292458      -280.0720
  31   2.0000     -10.283550      -279.8296
  32   2.0000     -10.281647      -279.7778
  33   2.0000     -10.281203      -279.7657
  34   2.0000     -10.280423      -279.7445
  35   2.0000     -10.279937      -279.7313
  36   2.0000     -10.279185      -279.7108
  37   2.0000     -10.278131      -279.6822
  38   2.0000     -10.277752      -279.6719
  39   2.0000     -10.277088      -279.6538
  40   2.0000     -10.276531      -279.6386
  41   2.0000     -10.276487      -279.6374
  42   2.0000     -10.275850      -279.6201
  43   2.0000     -10.275769      -279.6179
  44   2.0000     -10.274907      -279.5944
  45   2.0000     -10.273793      -279.5641
  46   2.0000     -10.272704      -279.5345
  47   2.0000     -10.272365      -279.5253
  48   2.0000     -10.272140      -279.5191
  49   2.0000     -10.271309      -279.4965
  50   2.0000     -10.268861      -279.4299
  51   2.0000     -10.268317      -279.4151
  52   2.0000     -10.268170      -279.4111
  53   2.0000     -10.266559      -279.3673
  54   2.0000     -10.265449      -279.3371
  55   2.0000     -10.261346      -279.2254
  56   2.0000      -8.052138      -219.1098
  57   2.0000      -8.050973      -219.0781
  58   2.0000      -8.049273      -219.0319
  59   2.0000      -8.037649      -218.7156
  60   2.0000      -8.034629      -218.6334
  61   2.0000      -8.032509      -218.5757
  62   2.0000      -8.029153      -218.4843
  63   2.0000      -6.021504      -163.8535
  64   2.0000      -6.020250      -163.8193
  65   2.0000      -6.018616      -163.7749
  66   2.0000      -6.017041      -163.7320
  67   2.0000      -6.016474      -163.7166
  68   2.0000      -6.014620      -163.6661
  69   2.0000      -6.014596      -163.6655
  70   2.0000      -6.012811      -163.6169
  71   2.0000      -6.011250      -163.5744
  72   2.0000      -6.007349      -163.4683
  73   2.0000      -6.004410      -163.3883
  74   2.0000      -6.003265      -163.3572
  75   2.0000      -6.002218      -163.3287
  76   2.0000      -6.000320      -163.2770
  77   2.0000      -5.999028      -163.2418
  78   2.0000      -5.998781      -163.2351
  79   2.0000      -5.998277      -163.2214
  80   2.0000      -5.995537      -163.1469
  81   2.0000      -5.994579      -163.1208
  82   2.0000      -5.993415      -163.0891
  83   2.0000      -5.990203      -163.0017
  84   2.0000      -1.201936       -32.7063
  85   2.0000      -1.089811       -29.6553
  86   2.0000      -1.058082       -28.7919
  87   2.0000      -0.991263       -26.9737
  88   2.0000      -0.989284       -26.9198
  89   2.0000      -0.987034       -26.8586
  90   2.0000      -0.985963       -26.8294
  91   2.0000      -0.971266       -26.4295
  92   2.0000      -0.965512       -26.2729
  93   2.0000      -0.960817       -26.1451
  94   2.0000      -0.923627       -25.1332
  95   2.0000      -0.916089       -24.9281
  96   2.0000      -0.899947       -24.4888
  97   2.0000      -0.896972       -24.4078
  98   2.0000      -0.891907       -24.2700
  99   2.0000      -0.888084       -24.1660
 100   2.0000      -0.875957       -23.8360
 101   2.0000      -0.869179       -23.6516
 102   2.0000      -0.857644       -23.3377
 103   2.0000      -0.846154       -23.0250
 104   2.0000      -0.841444       -22.8969
 105   2.0000      -0.839806       -22.8523
 106   2.0000      -0.835789       -22.7430
 107   2.0000      -0.833225       -22.6732
 108   2.0000      -0.827034       -22.5047
 109   2.0000      -0.816636       -22.2218
 110   2.0000      -0.815280       -22.1849
 111   2.0000      -0.811254       -22.0753
 112   2.0000      -0.804869       -21.9016
 113   2.0000      -0.786138       -21.3919
 114   2.0000      -0.780216       -21.2308
 115   2.0000      -0.764724       -20.8092
 116   2.0000      -0.752555       -20.4781
 117   2.0000      -0.738739       -20.1021
 118   2.0000      -0.731306       -19.8998
 119   2.0000      -0.719249       -19.5718
 120   2.0000      -0.703835       -19.1523
 121   2.0000      -0.694257       -18.8917
 122   2.0000      -0.682854       -18.5814
 123   2.0000      -0.676885       -18.4190
 124   2.0000      -0.666637       -18.1401
 125   2.0000      -0.663763       -18.0619
 126   2.0000      -0.653663       -17.7871
 127   2.0000      -0.649723       -17.6799
 128   2.0000      -0.648823       -17.6554
 129   2.0000      -0.643812       -17.5190
 130   2.0000      -0.639117       -17.3913
 131   2.0000      -0.635340       -17.2885
 132   2.0000      -0.626493       -17.0477
 133   2.0000      -0.620804       -16.8929
 134   2.0000      -0.617084       -16.7917
 135   2.0000      -0.612940       -16.6789
 136   2.0000      -0.611147       -16.6302
 137   2.0000      -0.607196       -16.5226
 138   2.0000      -0.606150       -16.4942
 139   2.0000      -0.598853       -16.2956
 140   2.0000      -0.584358       -15.9012
 141   2.0000      -0.582424       -15.8486
 142   2.0000      -0.572331       -15.5739
 143   2.0000      -0.567430       -15.4406
 144   2.0000      -0.556481       -15.1426
 145   2.0000      -0.552541       -15.0354
 146   2.0000      -0.549310       -14.9475
 147   2.0000      -0.544029       -14.8038
 148   2.0000      -0.541591       -14.7374
 149   2.0000      -0.540685       -14.7128
 150   2.0000      -0.535522       -14.5723
 151   2.0000      -0.534669       -14.5491
 152   2.0000      -0.533010       -14.5039
 153   2.0000      -0.530546       -14.4369
 154   2.0000      -0.524149       -14.2628
 155   2.0000      -0.520429       -14.1616
 156   2.0000      -0.513154       -13.9636
 157   2.0000      -0.511452       -13.9173
 158   2.0000      -0.501340       -13.6422
 159   2.0000      -0.495303       -13.4779
 160   2.0000      -0.494489       -13.4557
 161   2.0000      -0.493057       -13.4168
 162   2.0000      -0.489564       -13.3217
 163   2.0000      -0.487806       -13.2739
 164   2.0000      -0.485075       -13.1996
 165   2.0000      -0.483460       -13.1556
 166   2.0000      -0.481322       -13.0974
 167   2.0000      -0.479829       -13.0568
 168   2.0000      -0.475401       -12.9363
 169   2.0000      -0.472357       -12.8535
 170   2.0000      -0.469217       -12.7680
 171   2.0000      -0.468098       -12.7376
 172   2.0000      -0.463603       -12.6153
 173   2.0000      -0.460916       -12.5422
 174   2.0000      -0.456759       -12.4290
 175   2.0000      -0.455660       -12.3991
 176   2.0000      -0.454416       -12.3653
 177   2.0000      -0.450797       -12.2668
 178   2.0000      -0.449283       -12.2256
 179   2.0000      -0.446713       -12.1557
 180   2.0000      -0.443407       -12.0657
 181   2.0000      -0.439148       -11.9498
 182   2.0000      -0.437073       -11.8934
 183   2.0000      -0.434587       -11.8257
 184   2.0000      -0.430565       -11.7163
 185   2.0000      -0.429538       -11.6883
 186   2.0000      -0.422931       -11.5085
 187   2.0000      -0.421714       -11.4754
 188   2.0000      -0.419868       -11.4252
 189   2.0000      -0.417496       -11.3606
 190   2.0000      -0.416986       -11.3468
 191   2.0000      -0.416449       -11.3322
 192   2.0000      -0.414005       -11.2656
 193   2.0000      -0.411725       -11.2036
 194   2.0000      -0.408586       -11.1182
 195   2.0000      -0.404684       -11.0120
 196   2.0000      -0.396562       -10.7910
 197   2.0000      -0.392934       -10.6923
 198   2.0000      -0.387354       -10.5404
 199   2.0000      -0.383766       -10.4428
 200   2.0000      -0.373213       -10.1556
 201   2.0000      -0.360158        -9.8004
 202   2.0000      -0.348291        -9.4775
 203   2.0000      -0.338769        -9.2184
 204   2.0000      -0.332124        -9.0376
 205   2.0000      -0.329588        -8.9685
 206   2.0000      -0.328811        -8.9474
 207   2.0000      -0.326881        -8.8949
 208   2.0000      -0.317723        -8.6457
 209   2.0000      -0.316843        -8.6217
 210   2.0000      -0.314026        -8.5451
 211   2.0000      -0.311461        -8.4753
 212   2.0000      -0.300554        -8.1785
 213   2.0000      -0.291463        -7.9311
 214   2.0000      -0.276140        -7.5142
 215   2.0000      -0.259348        -7.0572
 216   2.0000      -0.237896        -6.4735
 217   2.0000      -0.204877        -5.5750
 218   2.0000      -0.184581        -5.0227
 219   0.0000      -0.087041        -2.3685
 220   0.0000      -0.069499        -1.8912
 221   0.0000      -0.031424        -0.8551
 222   0.0000      -0.016755        -0.4559
 223   0.0000      -0.000906        -0.0246

MULLIKEN ATOMIC CHARGES
-----------------------
   0 C :    0.073749
   1 O :   -0.180892
   2 C :    0.138139
   3 C :   -0.048099
   4 C :    0.049283
   5 C :    0.020717
   6 C :    0.006533
   7 C :    0.013508
   8 C :   -0.000705
   9 C :    0.003339
  10 C :   -0.025822
  11 C :    0.036422
  12 C :    0.021829
  13 C :   -0.037570
  14 S :    0.066748
  15 C :   -0.045780
  16 C :    0.025314
  17 C :    0.030423
  18 C :   -0.017520
  19 S :    0.126545
  20 C :    0.006911
  21 C :   -0.069461
  22 S :    0.116382
  23 C :   -0.069416
  24 C :   -0.224402
  25 N :   -0.054698
  26 C :    0.389717
  27 C :   -0.161786
  28 C :   -0.096429
  29 S :    0.140216
  30 C :   -0.074797
  31 C :   -0.014015
  32 C :    0.031363
  33 C :   -0.002171
  34 C :   -0.009174
  35 C :   -0.024019
  36 C :    0.034472
  37 C :    0.018581
  38 C :   -0.044574
  39 S :    0.070160
  40 C :   -0.041217
  41 C :    0.021506
  42 C :    0.031726
  43 C :   -0.038341
  44 S :    0.062678
  45 C :   -0.038824
  46 C :   -0.139490
  47 S :    0.124336
  48 C :   -0.146418
  49 C :    0.130682
  50 C :    0.093963
  51 N :   -0.043424
  52 C :   -0.098589
  53 C :   -0.144521
  54 N :    0.151258
  55 C :   -0.011551
  56 H :    0.002950
  57 H :    0.008605
  58 H :   -0.011899
  59 H :   -0.019219
  60 H :   -0.020538
  61 H :    0.003232
  62 H :   -0.019923
  63 H :   -0.017093
  64 H :   -0.013848
  65 H :   -0.015981
  66 H :   -0.017616
  67 H :   -0.016913
  68 H :   -0.019784
  69 H :    0.035486
  70 H :    0.032971
  71 H :   -0.024240
  72 H :   -0.021226
  73 H :   -0.002991
  74 H :   -0.019904
  75 H :   -0.016783
  76 H :   -0.017697
  77 H :   -0.018330
  78 H :   -0.020190
  79 H :   -0.032859
  80 H :    0.022289
  81 H :    0.126809
  82 H :   -0.018103
Sum of atomic charges:    0.0000000

LOEWDIN ATOMIC CHARGES
----------------------
   0 C :    0.032579
   1 O :    0.022486
   2 C :    0.034301
   3 C :   -0.069496
   4 C :   -0.077422
   5 C :   -0.012001
   6 C :   -0.030252
   7 C :   -0.017848
   8 C :   -0.048459
   9 C :   -0.053956
  10 C :   -0.149910
  11 C :   -0.026414
  12 C :   -0.045004
  13 C :   -0.168002
  14 S :    0.391061
  15 C :   -0.191477
  16 C :   -0.029853
  17 C :   -0.042794
  18 C :   -0.128158
  19 S :    0.417549
  20 C :   -0.107627
  21 C :   -0.121470
  22 S :    0.391848
  23 C :   -0.222272
  24 C :   -0.029148
  25 N :   -0.110969
  26 C :   -0.012191
  27 C :   -0.049290
  28 C :   -0.196529
  29 S :    0.427804
  30 C :   -0.169126
  31 C :   -0.049799
  32 C :   -0.040371
  33 C :   -0.037926
  34 C :   -0.051999
  35 C :   -0.154683
  36 C :   -0.034806
  37 C :   -0.039829
  38 C :   -0.176498
  39 S :    0.365226
  40 C :   -0.184475
  41 C :   -0.040546
  42 C :   -0.039293
  43 C :   -0.159873
  44 S :    0.362443
  45 C :   -0.079968
  46 C :   -0.214967
  47 S :    0.458540
  48 C :   -0.197647
  49 C :   -0.076209
  50 C :   -0.009306
  51 N :    0.065581
  52 C :   -0.033883
  53 C :   -0.044767
  54 N :   -0.047320
  55 C :   -0.030336
  56 H :    0.021076
  57 H :    0.022070
  58 H :    0.028164
  59 H :    0.029328
  60 H :    0.025020
  61 H :    0.012605
  62 H :    0.027927
  63 H :    0.034034
  64 H :    0.032772
  65 H :    0.030689
  66 H :    0.029079
  67 H :    0.031423
  68 H :    0.032089
  69 H :    0.055640
  70 H :    0.055171
  71 H :    0.030452
  72 H :    0.026651
  73 H :    0.021505
  74 H :    0.031702
  75 H :    0.031918
  76 H :    0.030020
  77 H :    0.030090
  78 H :    0.030189
  79 H :    0.031716
  80 H :    0.024888
  81 H :    0.093261
  82 H :    0.035270

  Mayer bond orders larger than 0.100000
B(  0-C ,  1-O ) :   1.1653 B(  0-C ,  4-C ) :   1.4921 B(  0-C , 56-H ) :   1.0073
B(  1-O ,  2-C ) :   1.1422 B(  2-C ,  3-C ) :   1.5942 B(  2-C , 57-H ) :   0.9995
B(  3-C ,  4-C ) :   1.2090 B(  3-C , 58-H ) :   1.0028 B(  4-C ,  5-C ) :   1.0831
B(  5-C ,  6-C ) :   1.6576 B(  5-C , 59-H ) :   0.9797 B(  6-C ,  7-C ) :   1.1706
B(  6-C , 60-H ) :   0.9864 B(  7-C ,  8-C ) :   1.5843 B(  7-C , 61-H ) :   0.9656
B(  8-C ,  9-C ) :   1.2053 B(  8-C , 62-H ) :   0.9700 B(  9-C , 10-C ) :   1.5540
B(  9-C , 63-H ) :   0.9605 B( 10-C , 11-C ) :   1.1616 B( 10-C , 14-S ) :   1.0365
B( 11-C , 12-C ) :   1.5710 B( 11-C , 64-H ) :   0.9982 B( 12-C , 13-C ) :   1.2005
B( 12-C , 65-H ) :   0.9934 B( 13-C , 14-S ) :   1.0509 B( 13-C , 15-C ) :   1.4842
B( 15-C , 16-C ) :   1.2038 B( 15-C , 19-S ) :   1.0093 B( 16-C , 17-C ) :   1.5636
B( 16-C , 66-H ) :   0.9957 B( 17-C , 18-C ) :   1.1652 B( 17-C , 67-H ) :   0.9998
B( 18-C , 19-S ) :   1.0825 B( 18-C , 20-C ) :   1.5349 B( 20-C , 21-C ) :   1.2116
B( 20-C , 68-H ) :   0.9550 B( 21-C , 22-S ) :   1.0437 B( 21-C , 25-N ) :   1.5438
B( 22-S , 23-C ) :   1.0716 B( 23-C , 24-C ) :   1.4522 B( 23-C , 28-C ) :   1.2285
B( 24-C , 25-N ) :   1.4776 B( 24-C , 26-C ) :   1.0454 B( 26-C , 27-C ) :   0.9803
B( 26-C , 69-H ) :   0.8627 B( 26-C , 70-H ) :   0.8584 B( 27-C , 28-C ) :   1.4791
B( 27-C , 31-C ) :   1.3528 B( 28-C , 29-S ) :   1.0868 B( 29-S , 30-C ) :   1.0858
B( 30-C , 31-C ) :   1.4161 B( 30-C , 32-C ) :   1.1612 B( 31-C , 71-H ) :   0.9959
B( 32-C , 33-C ) :   1.6027 B( 32-C , 72-H ) :   0.9658 B( 33-C , 34-C ) :   1.2018
B( 33-C , 73-H ) :   0.9695 B( 34-C , 35-C ) :   1.5189 B( 34-C , 74-H ) :   0.9826
B( 35-C , 36-C ) :   1.1652 B( 35-C , 39-S ) :   1.0285 B( 36-C , 37-C ) :   1.5630
B( 36-C , 75-H ) :   0.9997 B( 37-C , 38-C ) :   1.2063 B( 37-C , 76-H ) :   0.9941
B( 38-C , 39-S ) :   1.0482 B( 38-C , 40-C ) :   1.4901 B( 40-C , 41-C ) :   1.1988
B( 40-C , 44-S ) :   1.0376 B( 41-C , 42-C ) :   1.5796 B( 41-C , 77-H ) :   0.9929
B( 42-C , 43-C ) :   1.1491 B( 42-C , 78-H ) :   0.9992 B( 43-C , 44-S ) :   1.0353
B( 43-C , 45-C ) :   1.5672 B( 45-C , 46-C ) :   1.1884 B( 45-C , 79-H ) :   0.9687
B( 46-C , 47-S ) :   1.0977 B( 46-C , 48-C ) :   0.1096 B( 46-C , 50-C ) :   1.3756
B( 47-S , 48-C ) :   1.1849 B( 48-C , 49-C ) :   1.3798 B( 48-C , 80-H ) :   0.9732
B( 49-C , 50-C ) :   1.2413 B( 49-C , 55-C ) :   1.1325 B( 50-C , 51-N ) :   1.1742
B( 51-N , 52-C ) :   1.1849 B( 51-N , 81-H ) :   0.9371 B( 52-C , 53-C ) :   1.0569
B( 52-C , 55-C ) :   1.5963 B( 53-C , 54-N ) :   3.0521 B( 55-C , 82-H ) :   1.0180

-----------------------------------------------------------------------------
         ABSORPTION SPECTRUM VIA TRANSITION ELECTRIC DIPOLE MOMENTS
-----------------------------------------------------------------------------
State   Energy  Wavelength   fosc         T2         TX        TY        TZ
        (cm-1)    (nm)                  (au**2)     (au)      (au)      (au)
-----------------------------------------------------------------------------
   0    9431.4   1060.3   0.853061627  29.77680  -1.73467   4.49406  -2.56341
   1   14012.7    713.6   1.462713147  34.36483   4.57234   3.66244   0.21247
   2   14623.6    683.8   0.448463003  10.09597  -2.76316  -1.56852  -0.02542
   3   19297.6    518.2   0.139927113   2.38712   0.04344   0.56310  -1.43811
   4   19751.4    506.3   0.247721993   4.12899   0.27400  -0.47182   1.95737
   5   21914.0    456.3   0.714664141  10.73635  -0.44853   1.43233  -2.91266
   6   23296.1    429.3   0.824020446  11.64476   0.26795  -1.60157   3.00132
   7   25250.3    396.0   0.034389183   0.44836  -0.17742  -0.16658   0.62381
   8   26086.6    383.3   0.086003394   1.08536   0.78736  -0.03014   0.68156
   9   26804.9    373.1   0.058235762   0.71524  -0.54165  -0.41180   0.50227
  10   27628.2    361.9   0.004273739   0.05092   0.12902   0.09299   0.16010
  11   28554.5    350.2   0.025899587   0.29860  -0.09139  -0.46913   0.26490
  12   30410.9    328.8   0.100614796   1.08920  -0.16583   0.53352  -0.88151
  13   30467.5    328.2   0.003069942   0.03317   0.17550   0.04190   0.02479
  14   30513.5    327.7   0.034503641   0.37226  -0.26273   0.13781  -0.53315
  15   31025.2    322.3   0.008580536   0.09105  -0.06257   0.24019  -0.17159
  16   31374.4    318.7   0.198999447   2.08810   0.27422  -0.69912   1.23456
  17   32114.7    311.4   0.060254890   0.61768   0.52371   0.48059   0.33531
  18   32660.3    306.2   0.003219211   0.03245   0.02937  -0.12066   0.13049
  19   33479.0    298.7   0.011864845   0.11667   0.28990   0.06197   0.16968
  20   33765.3    296.2   0.008758909   0.08540  -0.12186  -0.11045   0.24156
  21   33966.8    294.4   0.015692318   0.15209   0.28208   0.19910   0.18133
  22   34131.5    293.0   0.016292933   0.15715  -0.13445   0.08588  -0.36290
  23   34663.3    288.5   0.001924749   0.01828  -0.13199  -0.02693  -0.01161
  24   35408.0    282.4   0.143578569   1.33495  -0.74914   0.00374  -0.87961
  25   35593.3    281.0   0.004249457   0.03930  -0.01754   0.19501  -0.03113
  26   36145.7    276.7   0.054492048   0.49631   0.55161   0.14143   0.41477
  27   36420.6    274.6   0.048392461   0.43743   0.33520   0.41301   0.39305
  28   36600.4    273.2   0.035461017   0.31896   0.23412   0.37272  -0.35387
  29   37186.6    268.9   0.019556556   0.17313   0.06110   0.38180  -0.15373
  30   37451.6    267.0   0.034055609   0.29936  -0.38210  -0.01581  -0.39129
  31   37589.8    266.0   0.028591612   0.25041  -0.27466  -0.01917  -0.41785
  32   37925.7    263.7   0.040884625   0.35490  -0.52912  -0.17288  -0.21223
  33   38333.4    260.9   0.009510063   0.08167  -0.07680   0.25254  -0.10955
  34   38719.3    258.3   0.076458995   0.65010  -0.24780  -0.70823   0.29512
  35   39571.3    252.7   0.009239391   0.07687  -0.14593  -0.05900  -0.22823
  36   39880.8    250.7   0.133110134   1.09881  -0.18959  -0.87273   0.54883
  37   40098.0    249.4   0.005207057   0.04275   0.09350   0.18425  -0.00774

FINAL SINGLE POINT ENERGY     -4754.320246611573

DIPOLE MOMENT
-------------
                                X             Y             Z
Electronic contribution:     22.34939     -11.80034       5.34591
Nuclear contribution   :    -21.88762      13.24486      -5.30317
                        -----------------------------------------
Total Dipole Moment    :      0.46177       1.44453       0.04274
                        -----------------------------------------
Magnitude (a.u.)       :      1.51714
Magnitude (Debye)      :      3.85626

Rotational constants in cm-1:     0.001079     0.000419     0.000330
Rotational constants in MHz :    32.336264    12.567501     9.884794

                             ****ORCA TERMINATED NORMALLY****
TOTAL RUN TIME: 0 days 0 hours 5 minutes 54 seconds 789 msec
