                         Program Version 4.2.0 -  RELEASE  -
|  1> # ORCA input file
|  2> # SCF done       -136.857582452323          0.000988902004
|  3> ! CAM-B3LYP def2-SVP def2/J RIJCOSX Grid4 TightSCF
|  4> %maxcore 5000
|  5> %tddft
|  6>     Mode sTDDFT
|  7>     Ethresh 5.0
|  8>     maxcore 5000
|  9> end
| 10>
| 11> %pal
| 12>   nprocs 6
| 13>   end
| 14> * xyz 0 1
| 15>    C        9.05059        10.40148        -6.02831
| 16>    O        9.53524        11.51695        -6.57234
| 17>    C        9.18326        12.53995        -5.76825
| 18>    C        8.47836        12.09447        -4.69942
| 19>    C        8.37904        10.67563        -4.85597
| 20>    C        7.74530         9.70222        -4.02164
| 21>    C        7.19601         9.97338        -2.81531
| 22>    C        6.57093         9.03475        -1.94713
| 23>    C        6.20253         7.76229        -2.24902
| 24>    C        5.61274         6.88145        -1.30940
| 25>    S        5.50599         7.33155         0.36654
| 26>    C        4.77080         5.81051         0.74190
| 27>    N        4.41047         5.54559         2.06713
| 28>    O        3.90680         4.46219         2.30978
| 29>    O        4.62611         6.42171         2.88769
| 30>    C        4.61292         5.00292        -0.35280
| 31>    C        5.08334         5.59555        -1.53860
| 32>    C        4.99981         4.99095        -2.84014
| 33>    C        4.51446         3.76104        -3.08088
| 34>    C        4.36165         3.15204        -4.38387
| 35>    S        2.84482         2.20920        -4.45797
| 36>    C        3.33821         0.81630        -5.41225
| 37>    C        2.90159        -0.45411        -5.20625
| 38>    S        3.53401        -1.54375        -6.37921
| 39>    C        4.41981        -0.28055        -7.13777
| 40>    C        4.21740         0.91286        -6.52136
| 41>    S        4.94083         2.43464        -7.00650
| 42>    C        5.24157         3.18340        -5.40151
| 43>    C        6.59897         3.70723        -5.39180
| 44>    S        6.96610         5.39008        -5.52030
| 45>    C        8.63693         5.01439        -5.77058
| 46>    N        9.52347         6.07903        -5.94451
| 47>    O       10.69768         5.82897        -6.13152
| 48>    O        9.04450         7.20417        -5.89314
| 49>    C        8.89457         3.66829        -5.76241
| 50>    C        7.73322         2.90636        -5.53698
| 51>    C        7.70896         1.46556        -5.46690
| 52>    C        6.89687         0.77695        -4.63204
| 53>    C        6.71569        -0.62751        -4.57361
| 54>    C        7.03331        -1.55816        -5.52166
| 55>    C        6.72337        -2.94663        -5.43720
| 56>    C        7.03210        -3.66432        -6.54445
| 57>    C        7.62126        -2.89797        -7.58308
| 58>    S        7.77832        -1.22298        -7.07595
| 59>    C        8.03661        -3.32437        -8.81854
| 60>    C        7.98682        -4.65202        -9.33638
| 61>    C        8.47138        -4.77809       -10.58946
| 62>    C        8.94750        -3.55319       -11.16926
| 63>    S        8.72788        -2.23626       -10.00493
| 64>    C        9.47959        -3.37448       -12.38464
| 65>    H        9.23576         9.46528        -6.51577
| 66>    H        9.49309        13.52317        -6.06241
| 67>    H        8.07419        12.69026        -3.90773
| 68>    H        7.76292         8.69568        -4.41450
| 69>    H        7.25310        10.98617        -2.43999
| 70>    H        6.35731         9.39183        -0.94594
| 71>    H        6.35289         7.38865        -3.25085
| 72>    H        4.16258         4.03066        -0.27646
| 73>    H        5.31749         5.60032        -3.67073
| 74>    H        4.10841         3.17241        -2.27024
| 75>    H        2.22613        -0.80277        -4.45217
| 76>    H        5.02312        -0.47863        -7.99971
| 77>    H        9.87808         3.25664        -5.89878
| 78>    H        8.42011         0.95219        -6.09634
| 79>    H        6.32608         1.33966        -3.90373
| 80>    H        6.19512        -1.00536        -3.70279
| 81>    H        6.26412        -3.35602        -4.55484
| 82>    H        6.84712        -4.71763        -6.65355
| 83>    H        7.59143        -5.46439        -8.75292
| 84>    H        8.51654        -5.69900       -11.14322
| 85>    H        9.59405        -4.20308       -13.06104
| 86>    H        9.80785        -2.40863       -12.72244
| 87> *
| 88>
| 89>                          ****END OF INPUT****

CARTESIAN COORDINATES (ANGSTROEM)
---------------------------------
  C      9.050590   10.401480   -6.028310
  O      9.535240   11.516950   -6.572340
  C      9.183260   12.539950   -5.768250
  C      8.478360   12.094470   -4.699420
  C      8.379040   10.675630   -4.855970
  C      7.745300    9.702220   -4.021640
  C      7.196010    9.973380   -2.815310
  C      6.570930    9.034750   -1.947130
  C      6.202530    7.762290   -2.249020
  C      5.612740    6.881450   -1.309400
  S      5.505990    7.331550    0.366540
  C      4.770800    5.810510    0.741900
  N      4.410470    5.545590    2.067130
  O      3.906800    4.462190    2.309780
  O      4.626110    6.421710    2.887690
  C      4.612920    5.002920   -0.352800
  C      5.083340    5.595550   -1.538600
  C      4.999810    4.990950   -2.840140
  C      4.514460    3.761040   -3.080880
  C      4.361650    3.152040   -4.383870
  S      2.844820    2.209200   -4.457970
  C      3.338210    0.816300   -5.412250
  C      2.901590   -0.454110   -5.206250
  S      3.534010   -1.543750   -6.379210
  C      4.419810   -0.280550   -7.137770
  C      4.217400    0.912860   -6.521360
  S      4.940830    2.434640   -7.006500
  C      5.241570    3.183400   -5.401510
  C      6.598970    3.707230   -5.391800
  S      6.966100    5.390080   -5.520300
  C      8.636930    5.014390   -5.770580
  N      9.523470    6.079030   -5.944510
  O     10.697680    5.828970   -6.131520
  O      9.044500    7.204170   -5.893140
  C      8.894570    3.668290   -5.762410
  C      7.733220    2.906360   -5.536980
  C      7.708960    1.465560   -5.466900
  C      6.896870    0.776950   -4.632040
  C      6.715690   -0.627510   -4.573610
  C      7.033310   -1.558160   -5.521660
  C      6.723370   -2.946630   -5.437200
  C      7.032100   -3.664320   -6.544450
  C      7.621260   -2.897970   -7.583080
  S      7.778320   -1.222980   -7.075950
  C      8.036610   -3.324370   -8.818540
  C      7.986820   -4.652020   -9.336380
  C      8.471380   -4.778090  -10.589460
  C      8.947500   -3.553190  -11.169260
  S      8.727880   -2.236260  -10.004930
  C      9.479590   -3.374480  -12.384640
  H      9.235760    9.465280   -6.515770
  H      9.493090   13.523170   -6.062410
  H      8.074190   12.690260   -3.907730
  H      7.762920    8.695680   -4.414500
  H      7.253100   10.986170   -2.439990
  H      6.357310    9.391830   -0.945940
  H      6.352890    7.388650   -3.250850
  H      4.162580    4.030660   -0.276460
  H      5.317490    5.600320   -3.670730
  H      4.108410    3.172410   -2.270240
  H      2.226130   -0.802770   -4.452170
  H      5.023120   -0.478630   -7.999710
  H      9.878080    3.256640   -5.898780
  H      8.420110    0.952190   -6.096340
  H      6.326080    1.339660   -3.903730
  H      6.195120   -1.005360   -3.702790
  H      6.264120   -3.356020   -4.554840
  H      6.847120   -4.717630   -6.653550
  H      7.591430   -5.464390   -8.752920
  H      8.516540   -5.699000  -11.143220
  H      9.594050   -4.203080  -13.061040
  H      9.807850   -2.408630  -12.722440

 Total Charge           Charge          ....    0
 Multiplicity           Mult            ....    1
 Number of Electrons    NEL             ....  404
 Basis Dimension        Dim             ....  838

ORBITAL ENERGIES
----------------

  NO   OCC          E(Eh)            E(eV)
   0   2.0000     -88.987597     -2421.4756
   1   2.0000     -88.969615     -2420.9863
   2   2.0000     -88.962541     -2420.7938
   3   2.0000     -88.951726     -2420.4995
   4   2.0000     -88.945838     -2420.3393
   5   2.0000     -88.944402     -2420.3002
   6   2.0000     -88.941286     -2420.2154
   7   2.0000     -19.282963      -524.7161
   8   2.0000     -19.251085      -523.8486
   9   2.0000     -19.250506      -523.8329
  10   2.0000     -19.230655      -523.2927
  11   2.0000     -19.229513      -523.2617
  12   2.0000     -14.660891      -398.9431
  13   2.0000     -14.641267      -398.4091
  14   2.0000     -10.348459      -281.5959
  15   2.0000     -10.335605      -281.2461
  16   2.0000     -10.329595      -281.0826
  17   2.0000     -10.322984      -280.9027
  18   2.0000     -10.322599      -280.8922
  19   2.0000     -10.320826      -280.8440
  20   2.0000     -10.318868      -280.7907
  21   2.0000     -10.313541      -280.6457
  22   2.0000     -10.313380      -280.6413
  23   2.0000     -10.313250      -280.6378
  24   2.0000     -10.312548      -280.6187
  25   2.0000     -10.312375      -280.6140
  26   2.0000     -10.308468      -280.5077
  27   2.0000     -10.305877      -280.4372
  28   2.0000     -10.303105      -280.3617
  29   2.0000     -10.300963      -280.3034
  30   2.0000     -10.300592      -280.2934
  31   2.0000     -10.299071      -280.2520
  32   2.0000     -10.297782      -280.2169
  33   2.0000     -10.296690      -280.1872
  34   2.0000     -10.294494      -280.1274
  35   2.0000     -10.294085      -280.1163
  36   2.0000     -10.293000      -280.0868
  37   2.0000     -10.292707      -280.0788
  38   2.0000     -10.288603      -279.9671
  39   2.0000     -10.287863      -279.9470
  40   2.0000     -10.287797      -279.9452
  41   2.0000     -10.281733      -279.7802
  42   2.0000     -10.280929      -279.7583
  43   2.0000     -10.279992      -279.7328
  44   2.0000     -10.278907      -279.7033
  45   2.0000     -10.278794      -279.7002
  46   2.0000     -10.278048      -279.6799
  47   2.0000     -10.268336      -279.4156
  48   2.0000     -10.265662      -279.3429
  49   2.0000     -10.261609      -279.2326
  50   2.0000      -8.082129      -219.9259
  51   2.0000      -8.065124      -219.4632
  52   2.0000      -8.058100      -219.2721
  53   2.0000      -8.047146      -218.9740
  54   2.0000      -8.042583      -218.8498
  55   2.0000      -8.039875      -218.7761
  56   2.0000      -8.036201      -218.6761
  57   2.0000      -6.051492      -164.6695
  58   2.0000      -6.047080      -164.5494
  59   2.0000      -6.044405      -164.4766
  60   2.0000      -6.034558      -164.2087
  61   2.0000      -6.030237      -164.0911
  62   2.0000      -6.027530      -164.0174
  63   2.0000      -6.026960      -164.0019
  64   2.0000      -6.023094      -163.8967
  65   2.0000      -6.020256      -163.8195
  66   2.0000      -6.016899      -163.7281
  67   2.0000      -6.012845      -163.6178
  68   2.0000      -6.012422      -163.6063
  69   2.0000      -6.010282      -163.5481
  70   2.0000      -6.008472      -163.4988
  71   2.0000      -6.008146      -163.4900
  72   2.0000      -6.006752      -163.4520
  73   2.0000      -6.006127      -163.4350
  74   2.0000      -6.003093      -163.3525
  75   2.0000      -6.002669      -163.3409
  76   2.0000      -5.999597      -163.2573
  77   2.0000      -5.995650      -163.1499
  78   2.0000      -1.330303       -36.1994
  79   2.0000      -1.310270       -35.6543
  80   2.0000      -1.202879       -32.7320
  81   2.0000      -1.148949       -31.2645
  82   2.0000      -1.128903       -30.7190
  83   2.0000      -1.019647       -27.7460
  84   2.0000      -1.005641       -27.3649
  85   2.0000      -1.000093       -27.2139
  86   2.0000      -0.998131       -27.1605
  87   2.0000      -0.975511       -26.5450
  88   2.0000      -0.958455       -26.0809
  89   2.0000      -0.925594       -25.1867
  90   2.0000      -0.923946       -25.1419
  91   2.0000      -0.911477       -24.8025
  92   2.0000      -0.903387       -24.5824
  93   2.0000      -0.899282       -24.4707
  94   2.0000      -0.885613       -24.0988
  95   2.0000      -0.881309       -23.9816
  96   2.0000      -0.871986       -23.7279
  97   2.0000      -0.863955       -23.5094
  98   2.0000      -0.856030       -23.2938
  99   2.0000      -0.851666       -23.1750
 100   2.0000      -0.838915       -22.8280
 101   2.0000      -0.833866       -22.6906
 102   2.0000      -0.828149       -22.5351
 103   2.0000      -0.823341       -22.4042
 104   2.0000      -0.817767       -22.2526
 105   2.0000      -0.804071       -21.8799
 106   2.0000      -0.789660       -21.4877
 107   2.0000      -0.775209       -21.0945
 108   2.0000      -0.767244       -20.8778
 109   2.0000      -0.753200       -20.4956
 110   2.0000      -0.736673       -20.0459
 111   2.0000      -0.726389       -19.7661
 112   2.0000      -0.703742       -19.1498
 113   2.0000      -0.693900       -18.8820
 114   2.0000      -0.677922       -18.4472
 115   2.0000      -0.676112       -18.3979
 116   2.0000      -0.667204       -18.1555
 117   2.0000      -0.659089       -17.9347
 118   2.0000      -0.655948       -17.8493
 119   2.0000      -0.649754       -17.6807
 120   2.0000      -0.643061       -17.4986
 121   2.0000      -0.641428       -17.4542
 122   2.0000      -0.640893       -17.4396
 123   2.0000      -0.634619       -17.2689
 124   2.0000      -0.628630       -17.1059
 125   2.0000      -0.626979       -17.0610
 126   2.0000      -0.625895       -17.0315
 127   2.0000      -0.624336       -16.9890
 128   2.0000      -0.622321       -16.9342
 129   2.0000      -0.618440       -16.8286
 130   2.0000      -0.605141       -16.4667
 131   2.0000      -0.598089       -16.2748
 132   2.0000      -0.596302       -16.2262
 133   2.0000      -0.592448       -16.1213
 134   2.0000      -0.585771       -15.9396
 135   2.0000      -0.578313       -15.7367
 136   2.0000      -0.572582       -15.5807
 137   2.0000      -0.569891       -15.5075
 138   2.0000      -0.557663       -15.1748
 139   2.0000      -0.554086       -15.0774
 140   2.0000      -0.548300       -14.9200
 141   2.0000      -0.540656       -14.7120
 142   2.0000      -0.538100       -14.6424
 143   2.0000      -0.533769       -14.5246
 144   2.0000      -0.528814       -14.3898
 145   2.0000      -0.523416       -14.2429
 146   2.0000      -0.521176       -14.1819
 147   2.0000      -0.516978       -14.0677
 148   2.0000      -0.512159       -13.9366
 149   2.0000      -0.505417       -13.7531
 150   2.0000      -0.498483       -13.5644
 151   2.0000      -0.497912       -13.5489
 152   2.0000      -0.494931       -13.4678
 153   2.0000      -0.493827       -13.4377
 154   2.0000      -0.491704       -13.3799
 155   2.0000      -0.490640       -13.3510
 156   2.0000      -0.486535       -13.2393
 157   2.0000      -0.485188       -13.2026
 158   2.0000      -0.482553       -13.1309
 159   2.0000      -0.475774       -12.9465
 160   2.0000      -0.473613       -12.8877
 161   2.0000      -0.466193       -12.6858
 162   2.0000      -0.463014       -12.5993
 163   2.0000      -0.461021       -12.5450
 164   2.0000      -0.454235       -12.3604
 165   2.0000      -0.452689       -12.3183
 166   2.0000      -0.445231       -12.1153
 167   2.0000      -0.441084       -12.0025
 168   2.0000      -0.437472       -11.9042
 169   2.0000      -0.433000       -11.7825
 170   2.0000      -0.431492       -11.7415
 171   2.0000      -0.428705       -11.6657
 172   2.0000      -0.425658       -11.5828
 173   2.0000      -0.422878       -11.5071
 174   2.0000      -0.419478       -11.4146
 175   2.0000      -0.415245       -11.2994
 176   2.0000      -0.409399       -11.1403
 177   2.0000      -0.404689       -11.0121
 178   2.0000      -0.401480       -10.9248
 179   2.0000      -0.396357       -10.7854
 180   2.0000      -0.390927       -10.6377
 181   2.0000      -0.384845       -10.4722
 182   2.0000      -0.382476       -10.4077
 183   2.0000      -0.379221       -10.3191
 184   2.0000      -0.377726       -10.2785
 185   2.0000      -0.373522       -10.1640
 186   2.0000      -0.369217       -10.0469
 187   2.0000      -0.357537        -9.7291
 188   2.0000      -0.356311        -9.6957
 189   2.0000      -0.347433        -9.4541
 190   2.0000      -0.345608        -9.4045
 191   2.0000      -0.342583        -9.3222
 192   2.0000      -0.336177        -9.1478
 193   2.0000      -0.333261        -9.0685
 194   2.0000      -0.327453        -8.9104
 195   2.0000      -0.310959        -8.4616
 196   2.0000      -0.298314        -8.1175
 197   2.0000      -0.296838        -8.0774
 198   2.0000      -0.291079        -7.9207
 199   2.0000      -0.264626        -7.2008
 200   2.0000      -0.244896        -6.6640
 201   2.0000      -0.228365        -6.2141
 202   0.0000      -0.077064        -2.0970
 203   0.0000      -0.069657        -1.8955
 204   0.0000      -0.066218        -1.8019
 205   0.0000      -0.040206        -1.0941
 206   0.0000      -0.011333        -0.3084

MULLIKEN ATOMIC CHARGES
-----------------------
   0 C :    0.095309
   1 O :   -0.173791
   2 C :    0.137593
   3 C :   -0.047760
   4 C :    0.019690
   5 C :    0.054181
   6 C :   -0.005379
   7 C :    0.026973
   8 C :   -0.010593
   9 C :   -0.067404
  10 S :    0.166893
  11 C :   -0.010257
  12 N :    0.274754
  13 O :   -0.254735
  14 O :   -0.261119
  15 C :    0.012318
  16 C :    0.088960
  17 C :    0.016753
  18 C :    0.020279
  19 C :   -0.033508
  20 S :    0.095023
  21 C :   -0.014567
  22 C :   -0.132351
  23 S :    0.121561
  24 C :   -0.114269
  25 C :    0.004178
  26 S :    0.117505
  27 C :   -0.173077
  28 C :   -0.143589
  29 S :    0.184887
  30 C :   -0.011616
  31 N :    0.294839
  32 O :   -0.231154
  33 O :   -0.268372
  34 C :    0.007084
  35 C :    0.134594
  36 C :   -0.047154
  37 C :    0.051341
  38 C :   -0.010195
  39 C :   -0.022072
  40 C :    0.051360
  41 C :    0.022667
  42 C :   -0.054767
  43 S :    0.058428
  44 C :   -0.061793
  45 C :    0.031753
  46 C :    0.055920
  47 C :   -0.066367
  48 S :    0.082663
  49 C :   -0.024002
  50 H :    0.011222
  51 H :    0.008592
  52 H :   -0.011322
  53 H :   -0.017289
  54 H :   -0.019266
  55 H :    0.000349
  56 H :   -0.014591
  57 H :    0.005474
  58 H :   -0.022278
  59 H :    0.004358
  60 H :    0.024923
  61 H :    0.030964
  62 H :    0.011717
  63 H :    0.008455
  64 H :   -0.001377
  65 H :   -0.014397
  66 H :   -0.012583
  67 H :   -0.013111
  68 H :   -0.009398
  69 H :   -0.007654
  70 H :    0.023869
  71 H :    0.025727
Sum of atomic charges:   -0.0000000

LOEWDIN ATOMIC CHARGES
----------------------
   0 C :    0.054558
   1 O :    0.028763
   2 C :    0.033115
   3 C :   -0.067580
   4 C :   -0.084398
   5 C :    0.027584
   6 C :   -0.059363
   7 C :    0.004254
   8 C :   -0.063843
   9 C :   -0.124709
  10 S :    0.474186
  11 C :   -0.201770
  12 N :    0.273686
  13 O :   -0.220768
  14 O :   -0.227515
  15 C :   -0.003237
  16 C :   -0.077077
  17 C :    0.003630
  18 C :   -0.065182
  19 C :   -0.152383
  20 S :    0.349811
  21 C :   -0.218586
  22 C :   -0.206766
  23 S :    0.451928
  24 C :   -0.195187
  25 C :   -0.218016
  26 S :    0.358898
  27 C :   -0.204690
  28 C :   -0.175673
  29 S :    0.499434
  30 C :   -0.206207
  31 N :    0.281815
  32 O :   -0.197183
  33 O :   -0.237014
  34 C :   -0.001047
  35 C :   -0.047299
  36 C :   -0.048452
  37 C :   -0.013383
  38 C :   -0.066380
  39 C :   -0.132965
  40 C :   -0.032482
  41 C :   -0.033650
  42 C :   -0.188458
  43 S :    0.386313
  44 C :   -0.171264
  45 C :   -0.026975
  46 C :   -0.024886
  47 C :   -0.140261
  48 S :    0.352420
  49 C :   -0.067983
  50 H :    0.020238
  51 H :    0.021971
  52 H :    0.028346
  53 H :    0.026752
  54 H :    0.026942
  55 H :    0.023753
  56 H :    0.025191
  57 H :    0.040969
  58 H :    0.012518
  59 H :    0.025220
  60 H :    0.025081
  61 H :    0.021110
  62 H :    0.046653
  63 H :    0.016339
  64 H :    0.034813
  65 H :    0.033891
  66 H :    0.033362
  67 H :    0.031944
  68 H :    0.033303
  69 H :    0.035110
  70 H :    0.030503
  71 H :    0.028226

  Mayer bond orders larger than 0.100000
B(  0-C ,  1-O ) :   1.1830 B(  0-C ,  4-C ) :   1.4882 B(  0-C , 50-H ) :   0.9904
B(  1-O ,  2-C ) :   1.1334 B(  2-C ,  3-C ) :   1.5993 B(  2-C , 51-H ) :   1.0002
B(  3-C ,  4-C ) :   1.2022 B(  3-C , 52-H ) :   1.0031 B(  4-C ,  5-C ) :   1.1207
B(  5-C ,  6-C ) :   1.6850 B(  5-C , 53-H ) :   0.9601 B(  6-C ,  7-C ) :   1.1516
B(  6-C , 54-H ) :   0.9698 B(  7-C ,  8-C ) :   1.6599 B(  7-C , 55-H ) :   0.9669
B(  8-C ,  9-C ) :   1.1899 B(  8-C , 56-H ) :   0.9639 B(  9-C , 10-S ) :   1.1277
B(  9-C , 16-C ) :   1.3800 B( 10-S , 11-C ) :   1.1040 B( 11-C , 12-N ) :   0.9666
B( 11-C , 15-C ) :   1.5005 B( 12-N , 13-O ) :   1.5269 B( 12-N , 14-O ) :   1.5149
B( 13-O , 14-O ) :   0.2612 B( 15-C , 16-C ) :   1.2209 B( 15-C , 57-H ) :   0.9934
B( 16-C , 17-C ) :   1.1173 B( 17-C , 18-C ) :   1.7481 B( 17-C , 58-H ) :   0.9688
B( 18-C , 19-C ) :   1.0501 B( 18-C , 59-H ) :   0.9407 B( 19-C , 20-S ) :   1.0330
B( 19-C , 27-C ) :   1.7604 B( 20-S , 21-C ) :   0.9785 B( 21-C , 22-C ) :   1.5897
B( 21-C , 25-C ) :   1.2524 B( 22-C , 23-S ) :   1.1744 B( 22-C , 60-H ) :   0.9715
B( 23-S , 24-C ) :   1.1739 B( 24-C , 25-C ) :   1.5953 B( 24-C , 61-H ) :   0.9639
B( 25-C , 26-S ) :   0.9873 B( 26-S , 27-C ) :   1.0224 B( 27-C , 28-C ) :   1.0294
B( 28-C , 29-S ) :   1.1567 B( 28-C , 35-C ) :   1.4751 B( 29-S , 30-C ) :   1.1243
B( 30-C , 31-N ) :   0.9672 B( 30-C , 34-C ) :   1.4585 B( 31-N , 32-O ) :   1.5557
B( 31-N , 33-O ) :   1.4540 B( 32-O , 33-O ) :   0.2509 B( 34-C , 35-C ) :   1.2231
B( 34-C , 62-H ) :   1.0074 B( 35-C , 36-C ) :   1.0900 B( 36-C , 37-C ) :   1.6968
B( 36-C , 63-H ) :   0.9434 B( 37-C , 38-C ) :   1.1719 B( 37-C , 64-H ) :   0.9585
B( 38-C , 39-C ) :   1.6159 B( 38-C , 65-H ) :   0.9601 B( 39-C , 40-C ) :   1.1208
B( 39-C , 43-S ) :   1.0391 B( 40-C , 41-C ) :   1.6169 B( 40-C , 66-H ) :   0.9988
B( 41-C , 42-C ) :   1.1596 B( 41-C , 67-H ) :   0.9939 B( 42-C , 43-S ) :   1.0199
B( 42-C , 44-C ) :   1.5683 B( 44-C , 45-C ) :   1.1452 B( 44-C , 48-S ) :   1.0486
B( 45-C , 46-C ) :   1.6688 B( 45-C , 68-H ) :   0.9919 B( 46-C , 47-C ) :   1.0767
B( 46-C , 69-H ) :   0.9930 B( 47-C , 48-S ) :   1.0039 B( 47-C , 49-C ) :   1.8696
B( 49-C , 70-H ) :   0.9507 B( 49-C , 71-H ) :   0.9415

-----------------------------------------------------------------------------
         ABSORPTION SPECTRUM VIA TRANSITION ELECTRIC DIPOLE MOMENTS
-----------------------------------------------------------------------------
State   Energy  Wavelength   fosc         T2         TX        TY        TZ
        (cm-1)    (nm)                  (au**2)     (au)      (au)      (au)
-----------------------------------------------------------------------------
   0   18380.1    544.1   0.585551932  10.48800   0.92681  -2.33273  -2.04631
   1   19980.0    500.5   0.060939939   1.00411  -0.14573   0.36143   0.92317
   2   21232.4    471.0   0.599622114   9.29724  -0.33231   1.92437   2.34171
   3   22661.6    441.3   0.715607937  10.39584   1.44915   2.36876  -1.63854
   4   22972.7    435.3   0.036569516   0.52406  -0.06155  -0.33387  -0.63938
   5   23959.3    417.4   0.062114835   0.85349  -0.40982  -0.59139   0.57947
   6   25612.8    390.4   0.298706140   3.83939   1.36606   0.74450  -1.19121
   7   27146.7    368.4   0.133214500   1.61551   0.20561   0.97264   0.79197
   8   27940.0    357.9   0.015527847   0.18296   0.13954   0.28488   0.28694
   9   28023.8    356.8   0.275432820   3.23567  -0.30340   0.40147   1.72697
  10   28368.8    352.5   0.047763786   0.55429  -0.29388  -0.49597  -0.47110
  11   28904.3    346.0   0.003889775   0.04430   0.04778  -0.20122  -0.03913
  12   29748.8    336.1   0.024580785   0.27202  -0.36244  -0.25710   0.27305
  13   31426.2    318.2   0.048478947   0.50785  -0.44369  -0.50896  -0.22793
  14   32264.3    309.9   0.013289250   0.13560   0.03744   0.32429   0.17038
  15   32584.6    306.9   0.039631689   0.40041   0.37060   0.07811   0.50692
  16   33467.8    298.8   0.262324647   2.58040   0.42019   1.27433  -0.88314
  17   33889.3    295.1   0.070573257   0.68557  -0.52736  -0.29312   0.56705
  18   34304.5    291.5   0.005506941   0.05285  -0.12374  -0.18973  -0.03925
  19   34436.6    290.4   0.041661157   0.39828   0.31089   0.38641  -0.39027
  20   34759.1    287.7   0.118294347   1.12040   0.24459   0.80884   0.63745
  21   35103.6    284.9   0.069823286   0.65482   0.14383   0.75615   0.24974
  22   35213.7    284.0   0.067945005   0.63522  -0.07423   0.66925  -0.42639
  23   35617.7    280.8   0.021739008   0.20093   0.02003  -0.44278   0.06692
  24   35766.5    279.6   0.067963125   0.62557   0.18497   0.36804  -0.67520
  25   36169.7    276.5   0.018270985   0.16630   0.07130   0.10707   0.38698
  26   36319.7    275.3   0.123336163   1.11795  -0.50949  -0.57133   0.72935
  27   37011.0    270.2   0.038574741   0.34312  -0.23547  -0.21832   0.48991
  28   37285.9    268.2   0.030422825   0.26861   0.26024   0.18458  -0.40844
  29   37500.6    266.7   0.077506457   0.68042   0.50297   0.60197  -0.25510
  30   37809.7    264.5   0.033265954   0.28965   0.16918   0.05195  -0.50826
  31   38290.0    261.2   0.060933816   0.52390   0.19924   0.42419   0.55161
  32   38676.9    258.6   0.056089284   0.47742   0.36772   0.45642  -0.36591
  33   39729.3    251.7   0.396577799   3.28619   0.70800  -0.27871  -1.64537
  34   39869.6    250.8   0.314094047   2.59354   0.53336   1.45554   0.43643
  35   40193.2    248.8   0.081924122   0.67102   0.53581   0.51398  -0.34605
  36   40325.7    248.0   0.108799770   0.88822   0.21971   0.37379  -0.83680

FINAL SINGLE POINT ENERGY     -4654.496670410728

DIPOLE MOMENT
-------------
                                X             Y             Z
Electronic contribution:    -10.37693       3.49898       8.85469
Nuclear contribution   :     10.47690      -6.00862     -11.12816
                        -----------------------------------------
Total Dipole Moment    :      0.09996      -2.50964      -2.27347
                        -----------------------------------------
Magnitude (a.u.)       :      3.38777
Magnitude (Debye)      :      8.61102

Rotational constants in cm-1:     0.002080     0.000777     0.000618
Rotational constants in MHz :    62.347644    23.282204    18.520593

                             ****ORCA TERMINATED NORMALLY****
TOTAL RUN TIME: 0 days 0 hours 5 minutes 4 seconds 198 msec
