                         Program Version 4.2.0 -  RELEASE  -
|  1> # ORCA input file
|  2> # SCF done       -139.023509026183          0.000544514532
|  3> ! CAM-B3LYP def2-SVP def2/J RIJCOSX Grid4 TightSCF
|  4> %maxcore 5000
|  5> %tddft
|  6>     Mode sTDDFT
|  7>     Ethresh 5.0
|  8>     maxcore 5000
|  9> end
| 10>
| 11> %pal
| 12>   nprocs 6
| 13>   end
| 14> * xyz 0 1
| 15>    C        9.36406         8.49254         5.45109
| 16>    O        8.75377         9.41785         6.19511
| 17>    C        7.60533         9.73661         5.57014
| 18>    C        7.46474         9.02569         4.42438
| 19>    C        8.62337         8.19185         4.32945
| 20>    C        8.97766         7.24622         3.31415
| 21>    C        8.22839         6.95714         2.22784
| 22>    C        8.62558         6.01696         1.24105
| 23>    C        7.87899         5.70952         0.15050
| 24>    C        8.25995         4.77726        -0.84533
| 25>    S        9.80050         3.97957        -0.77232
| 26>    C        9.41752         3.09255        -2.20367
| 27>    N       10.34150         2.16592        -2.69514
| 28>    O        9.99434         1.48319        -3.64605
| 29>    O       11.42075         2.09443        -2.13653
| 30>    C        8.18165         3.38975        -2.71415
| 31>    C        7.49765         4.35686        -1.95388
| 32>    C        6.18196         4.83952        -2.24978
| 33>    C        5.33917         4.25486        -3.13113
| 34>    C        4.01398         4.73097        -3.37074
| 35>    C        3.08354         4.07148        -4.14315
| 36>    O        1.78591         4.52186        -4.28852
| 37>    C        1.49086         5.68887        -3.65116
| 38>    C        2.45570         6.37788        -2.86302
| 39>    C        1.96925         7.51750        -2.31212
| 40>    S        0.32085         7.76784        -2.75005
| 41>    C        0.29098         6.31917        -3.68426
| 42>    O        3.72334         5.90317        -2.70114
| 43>    C        3.34270         2.84430        -4.82019
| 44>    C        2.36809         2.09792        -5.39676
| 45>    C        2.53728         0.85967        -6.07414
| 46>    S        1.24881         0.42071        -7.16163
| 47>    C        2.14474        -0.95281        -7.69955
| 48>    N        1.58477        -1.78468        -8.67819
| 49>    O        0.47483        -1.48805        -9.08632
| 50>    O        2.24101        -2.73996        -9.05116
| 51>    C        3.35450        -1.07914        -7.06768
| 52>    C        3.58762        -0.07500        -6.10780
| 53>    C        4.76359        -0.16128        -5.27685
| 54>    C        4.90262         0.28536        -4.01334
| 55>    C        6.08346         0.14857        -3.23472
| 56>    C        6.32583         0.77037        -2.01031
| 57>    C        7.62773         0.46219        -1.47855
| 58>    N        8.04460         1.00517        -0.30866
| 59>    C        7.19989         1.79816         0.28071
| 60>    C        5.90981         2.11402        -0.24280
| 61>    C        5.00994         3.04630         0.49661
| 62>    N        5.48445         1.60985        -1.37255
| 63>    C        8.33942        -0.39099        -2.29330
| 64>    S        7.46315        -0.79936        -3.69244
| 65>    H       10.30539         8.11430         5.79820
| 66>    H        6.98301        10.47554         6.03471
| 67>    H        6.65035         9.08207         3.73350
| 68>    H        9.92535         6.74231         3.45354
| 69>    H        7.28011         7.45545         2.08033
| 70>    H        9.57941         5.52359         1.38057
| 71>    H        6.92377         6.19950         0.01963
| 72>    H        7.81065         2.93215        -3.61281
| 73>    H        5.83736         5.70599        -1.70720
| 74>    H        5.64058         3.36523        -3.65356
| 75>    H        2.47889         8.21753        -1.68402
| 76>    H       -0.59813         6.01942        -4.19789
| 77>    H        4.36418         2.51544        -4.87280
| 78>    H        1.35887         2.48790        -5.39924
| 79>    H        4.03305        -1.88742        -7.27498
| 80>    H        5.58226        -0.72024        -5.71403
| 81>    H        4.09699         0.79454        -3.50326
| 82>    H        7.52604         2.23869         1.21428
| 83>    H        4.63935         2.56290         1.40024
| 84>    H        4.16563         3.31501        -0.13147
| 85>    H        5.55313         3.94192         0.79250
| 86>    H        9.32347        -0.78372        -2.13704
| 87> *
| 88>
| 89>                          ****END OF INPUT****

CARTESIAN COORDINATES (ANGSTROEM)
---------------------------------
  C      9.364060    8.492540    5.451090
  O      8.753770    9.417850    6.195110
  C      7.605330    9.736610    5.570140
  C      7.464740    9.025690    4.424380
  C      8.623370    8.191850    4.329450
  C      8.977660    7.246220    3.314150
  C      8.228390    6.957140    2.227840
  C      8.625580    6.016960    1.241050
  C      7.878990    5.709520    0.150500
  C      8.259950    4.777260   -0.845330
  S      9.800500    3.979570   -0.772320
  C      9.417520    3.092550   -2.203670
  N     10.341500    2.165920   -2.695140
  O      9.994340    1.483190   -3.646050
  O     11.420750    2.094430   -2.136530
  C      8.181650    3.389750   -2.714150
  C      7.497650    4.356860   -1.953880
  C      6.181960    4.839520   -2.249780
  C      5.339170    4.254860   -3.131130
  C      4.013980    4.730970   -3.370740
  C      3.083540    4.071480   -4.143150
  O      1.785910    4.521860   -4.288520
  C      1.490860    5.688870   -3.651160
  C      2.455700    6.377880   -2.863020
  C      1.969250    7.517500   -2.312120
  S      0.320850    7.767840   -2.750050
  C      0.290980    6.319170   -3.684260
  O      3.723340    5.903170   -2.701140
  C      3.342700    2.844300   -4.820190
  C      2.368090    2.097920   -5.396760
  C      2.537280    0.859670   -6.074140
  S      1.248810    0.420710   -7.161630
  C      2.144740   -0.952810   -7.699550
  N      1.584770   -1.784680   -8.678190
  O      0.474830   -1.488050   -9.086320
  O      2.241010   -2.739960   -9.051160
  C      3.354500   -1.079140   -7.067680
  C      3.587620   -0.075000   -6.107800
  C      4.763590   -0.161280   -5.276850
  C      4.902620    0.285360   -4.013340
  C      6.083460    0.148570   -3.234720
  C      6.325830    0.770370   -2.010310
  C      7.627730    0.462190   -1.478550
  N      8.044600    1.005170   -0.308660
  C      7.199890    1.798160    0.280710
  C      5.909810    2.114020   -0.242800
  C      5.009940    3.046300    0.496610
  N      5.484450    1.609850   -1.372550
  C      8.339420   -0.390990   -2.293300
  S      7.463150   -0.799360   -3.692440
  H     10.305390    8.114300    5.798200
  H      6.983010   10.475540    6.034710
  H      6.650350    9.082070    3.733500
  H      9.925350    6.742310    3.453540
  H      7.280110    7.455450    2.080330
  H      9.579410    5.523590    1.380570
  H      6.923770    6.199500    0.019630
  H      7.810650    2.932150   -3.612810
  H      5.837360    5.705990   -1.707200
  H      5.640580    3.365230   -3.653560
  H      2.478890    8.217530   -1.684020
  H     -0.598130    6.019420   -4.197890
  H      4.364180    2.515440   -4.872800
  H      1.358870    2.487900   -5.399240
  H      4.033050   -1.887420   -7.274980
  H      5.582260   -0.720240   -5.714030
  H      4.096990    0.794540   -3.503260
  H      7.526040    2.238690    1.214280
  H      4.639350    2.562900    1.400240
  H      4.165630    3.315010   -0.131470
  H      5.553130    3.941920    0.792500
  H      9.323470   -0.783720   -2.137040

 Total Charge           Charge          ....    0
 Multiplicity           Mult            ....    1
 Number of Electrons    NEL             ....  380
 Basis Dimension        Dim             ....  826

ORBITAL ENERGIES
----------------

  NO   OCC          E(Eh)            E(eV)
   0   2.0000     -88.976194     -2421.1653
   1   2.0000     -88.972073     -2421.0532
   2   2.0000     -88.971104     -2421.0268
   3   2.0000     -88.963667     -2420.8245
   4   2.0000     -19.298959      -525.1514
   5   2.0000     -19.283564      -524.7325
   6   2.0000     -19.280957      -524.6615
   7   2.0000     -19.238078      -523.4947
   8   2.0000     -19.237476      -523.4783
   9   2.0000     -19.231142      -523.3060
  10   2.0000     -19.230696      -523.2938
  11   2.0000     -14.647173      -398.5698
  12   2.0000     -14.642095      -398.4317
  13   2.0000     -14.421478      -392.4284
  14   2.0000     -14.418057      -392.3353
  15   2.0000     -10.355475      -281.7868
  16   2.0000     -10.353693      -281.7383
  17   2.0000     -10.347349      -281.5657
  18   2.0000     -10.346562      -281.5443
  19   2.0000     -10.341930      -281.4182
  20   2.0000     -10.336382      -281.2673
  21   2.0000     -10.331844      -281.1438
  22   2.0000     -10.328787      -281.0606
  23   2.0000     -10.326894      -281.0091
  24   2.0000     -10.323000      -280.9031
  25   2.0000     -10.321371      -280.8588
  26   2.0000     -10.313845      -280.6540
  27   2.0000     -10.307266      -280.4750
  28   2.0000     -10.305119      -280.4165
  29   2.0000     -10.302872      -280.3554
  30   2.0000     -10.301844      -280.3274
  31   2.0000     -10.300923      -280.3024
  32   2.0000     -10.300831      -280.2999
  33   2.0000     -10.299866      -280.2736
  34   2.0000     -10.299068      -280.2519
  35   2.0000     -10.297614      -280.2123
  36   2.0000     -10.297332      -280.2046
  37   2.0000     -10.296686      -280.1871
  38   2.0000     -10.295352      -280.1508
  39   2.0000     -10.294999      -280.1412
  40   2.0000     -10.292617      -280.0763
  41   2.0000     -10.291864      -280.0559
  42   2.0000     -10.291421      -280.0438
  43   2.0000     -10.288302      -279.9589
  44   2.0000     -10.285705      -279.8883
  45   2.0000     -10.285642      -279.8865
  46   2.0000     -10.284242      -279.8485
  47   2.0000     -10.283163      -279.8191
  48   2.0000     -10.276755      -279.6447
  49   2.0000     -10.270393      -279.4716
  50   2.0000      -8.071316      -219.6317
  51   2.0000      -8.067713      -219.5336
  52   2.0000      -8.066213      -219.4928
  53   2.0000      -8.059457      -219.3090
  54   2.0000      -6.040710      -164.3761
  55   2.0000      -6.037052      -164.2765
  56   2.0000      -6.036524      -164.2622
  57   2.0000      -6.035021      -164.2213
  58   2.0000      -6.033165      -164.1708
  59   2.0000      -6.032711      -164.1584
  60   2.0000      -6.030915      -164.1096
  61   2.0000      -6.029747      -164.0778
  62   2.0000      -6.029362      -164.0673
  63   2.0000      -6.028969      -164.0566
  64   2.0000      -6.024794      -163.9430
  65   2.0000      -6.021120      -163.8430
  66   2.0000      -1.317374       -35.8476
  67   2.0000      -1.311541       -35.6888
  68   2.0000      -1.218944       -33.1692
  69   2.0000      -1.208241       -32.8779
  70   2.0000      -1.171370       -31.8746
  71   2.0000      -1.136049       -30.9135
  72   2.0000      -1.130344       -30.7582
  73   2.0000      -1.075622       -29.2692
  74   2.0000      -1.011668       -27.5289
  75   2.0000      -1.005599       -27.3637
  76   2.0000      -1.000198       -27.2168
  77   2.0000      -0.992997       -27.0208
  78   2.0000      -0.979825       -26.6624
  79   2.0000      -0.937783       -25.5184
  80   2.0000      -0.934532       -25.4299
  81   2.0000      -0.921921       -25.0868
  82   2.0000      -0.915727       -24.9182
  83   2.0000      -0.905085       -24.6286
  84   2.0000      -0.892555       -24.2876
  85   2.0000      -0.881355       -23.9829
  86   2.0000      -0.870080       -23.6761
  87   2.0000      -0.866328       -23.5740
  88   2.0000      -0.856133       -23.2966
  89   2.0000      -0.852336       -23.1932
  90   2.0000      -0.836771       -22.7697
  91   2.0000      -0.834199       -22.6997
  92   2.0000      -0.824600       -22.4385
  93   2.0000      -0.816231       -22.2108
  94   2.0000      -0.807564       -21.9749
  95   2.0000      -0.796388       -21.6708
  96   2.0000      -0.785329       -21.3699
  97   2.0000      -0.769250       -20.9324
  98   2.0000      -0.745024       -20.2731
  99   2.0000      -0.735860       -20.0238
 100   2.0000      -0.727022       -19.7833
 101   2.0000      -0.714954       -19.4549
 102   2.0000      -0.704263       -19.1640
 103   2.0000      -0.694516       -18.8987
 104   2.0000      -0.690558       -18.7910
 105   2.0000      -0.688814       -18.7436
 106   2.0000      -0.682005       -18.5583
 107   2.0000      -0.669056       -18.2059
 108   2.0000      -0.662723       -18.0336
 109   2.0000      -0.659484       -17.9455
 110   2.0000      -0.649057       -17.6617
 111   2.0000      -0.640518       -17.4294
 112   2.0000      -0.633973       -17.2513
 113   2.0000      -0.632831       -17.2202
 114   2.0000      -0.630582       -17.1590
 115   2.0000      -0.625867       -17.0307
 116   2.0000      -0.624170       -16.9845
 117   2.0000      -0.623149       -16.9567
 118   2.0000      -0.613438       -16.6925
 119   2.0000      -0.611278       -16.6337
 120   2.0000      -0.603371       -16.4186
 121   2.0000      -0.592575       -16.1248
 122   2.0000      -0.585377       -15.9289
 123   2.0000      -0.580802       -15.8044
 124   2.0000      -0.577102       -15.7038
 125   2.0000      -0.574414       -15.6306
 126   2.0000      -0.570297       -15.5186
 127   2.0000      -0.568691       -15.4749
 128   2.0000      -0.563967       -15.3463
 129   2.0000      -0.556859       -15.1529
 130   2.0000      -0.556166       -15.1341
 131   2.0000      -0.548430       -14.9236
 132   2.0000      -0.545487       -14.8435
 133   2.0000      -0.540732       -14.7141
 134   2.0000      -0.536255       -14.5922
 135   2.0000      -0.527727       -14.3602
 136   2.0000      -0.526439       -14.3251
 137   2.0000      -0.521852       -14.2003
 138   2.0000      -0.510828       -13.9003
 139   2.0000      -0.508203       -13.8289
 140   2.0000      -0.507417       -13.8075
 141   2.0000      -0.506329       -13.7779
 142   2.0000      -0.501114       -13.6360
 143   2.0000      -0.498860       -13.5747
 144   2.0000      -0.494971       -13.4688
 145   2.0000      -0.491227       -13.3670
 146   2.0000      -0.488919       -13.3042
 147   2.0000      -0.488385       -13.2896
 148   2.0000      -0.485356       -13.2072
 149   2.0000      -0.483826       -13.1656
 150   2.0000      -0.476449       -12.9648
 151   2.0000      -0.475107       -12.9283
 152   2.0000      -0.471609       -12.8331
 153   2.0000      -0.470839       -12.8122
 154   2.0000      -0.468079       -12.7371
 155   2.0000      -0.461214       -12.5503
 156   2.0000      -0.457037       -12.4366
 157   2.0000      -0.452004       -12.2996
 158   2.0000      -0.446076       -12.1384
 159   2.0000      -0.443970       -12.0810
 160   2.0000      -0.439456       -11.9582
 161   2.0000      -0.436808       -11.8861
 162   2.0000      -0.435147       -11.8409
 163   2.0000      -0.429736       -11.6937
 164   2.0000      -0.423780       -11.5316
 165   2.0000      -0.422008       -11.4834
 166   2.0000      -0.421084       -11.4583
 167   2.0000      -0.403362       -10.9760
 168   2.0000      -0.398814       -10.8523
 169   2.0000      -0.395292       -10.7564
 170   2.0000      -0.387116       -10.5340
 171   2.0000      -0.385371       -10.4865
 172   2.0000      -0.382354       -10.4044
 173   2.0000      -0.378463       -10.2985
 174   2.0000      -0.375566       -10.2197
 175   2.0000      -0.370382       -10.0786
 176   2.0000      -0.364706        -9.9241
 177   2.0000      -0.358495        -9.7551
 178   2.0000      -0.355456        -9.6724
 179   2.0000      -0.346988        -9.4420
 180   2.0000      -0.332002        -9.0342
 181   2.0000      -0.326354        -8.8805
 182   2.0000      -0.320652        -8.7254
 183   2.0000      -0.317238        -8.6325
 184   2.0000      -0.312624        -8.5069
 185   2.0000      -0.303405        -8.2561
 186   2.0000      -0.298187        -8.1141
 187   2.0000      -0.270637        -7.3644
 188   2.0000      -0.255938        -6.9644
 189   2.0000      -0.236473        -6.4347
 190   0.0000      -0.082372        -2.2414
 191   0.0000      -0.069833        -1.9002
 192   0.0000      -0.055173        -1.5013
 193   0.0000      -0.035288        -0.9602
 194   0.0000      -0.015728        -0.4280

MULLIKEN ATOMIC CHARGES
-----------------------
   0 C :    0.084505
   1 O :   -0.173645
   2 C :    0.137430
   3 C :   -0.043321
   4 C :    0.036946
   5 C :    0.033446
   6 C :    0.008509
   7 C :    0.017694
   8 C :   -0.022458
   9 C :   -0.095464
  10 S :    0.179583
  11 C :   -0.000967
  12 N :    0.271867
  13 O :   -0.252856
  14 O :   -0.254622
  15 C :    0.020923
  16 C :    0.129828
  17 C :   -0.022284
  18 C :   -0.025433
  19 C :    0.181532
  20 C :    0.159578
  21 O :   -0.257028
  22 C :    0.222082
  23 C :    0.221945
  24 C :   -0.177333
  25 S :    0.113788
  26 C :   -0.170754
  27 O :   -0.260115
  28 C :   -0.064429
  29 C :    0.039461
  30 C :   -0.119125
  31 S :    0.188031
  32 C :   -0.007016
  33 N :    0.277224
  34 O :   -0.261881
  35 O :   -0.250322
  36 C :   -0.002395
  37 C :    0.121162
  38 C :   -0.049054
  39 C :   -0.004698
  40 C :   -0.191223
  41 C :    0.038274
  42 C :    0.034443
  43 N :   -0.000293
  44 C :    0.017622
  45 C :   -0.151641
  46 C :    0.120199
  47 N :   -0.011706
  48 C :   -0.118036
  49 S :    0.174959
  50 H :    0.009286
  51 H :    0.014441
  52 H :   -0.010107
  53 H :   -0.015246
  54 H :   -0.016610
  55 H :    0.002981
  56 H :   -0.009331
  57 H :    0.004407
  58 H :   -0.006141
  59 H :   -0.013767
  60 H :    0.022697
  61 H :    0.027244
  62 H :    0.019605
  63 H :    0.004846
  64 H :    0.007176
  65 H :   -0.005994
  66 H :    0.024004
  67 H :   -0.005469
  68 H :    0.035914
  69 H :    0.028669
  70 H :    0.012639
  71 H :    0.025826
Sum of atomic charges:   -0.0000000

LOEWDIN ATOMIC CHARGES
----------------------
   0 C :    0.041211
   1 O :    0.029402
   2 C :    0.037724
   3 C :   -0.067464
   4 C :   -0.081696
   5 C :    0.003781
   6 C :   -0.037943
   7 C :   -0.002846
   8 C :   -0.062637
   9 C :   -0.142119
  10 S :    0.484197
  11 C :   -0.194873
  12 N :    0.276683
  13 O :   -0.215858
  14 O :   -0.220569
  15 C :   -0.005090
  16 C :   -0.063596
  17 C :   -0.018719
  18 C :   -0.023530
  19 C :    0.033704
  20 C :    0.026482
  21 O :   -0.053287
  22 C :   -0.007412
  23 C :   -0.008126
  24 C :   -0.211540
  25 S :    0.439735
  26 C :   -0.207992
  27 O :   -0.053329
  28 C :   -0.019346
  29 C :   -0.047294
  30 C :   -0.144769
  31 S :    0.484847
  32 C :   -0.205472
  33 N :    0.273457
  34 O :   -0.227441
  35 O :   -0.215938
  36 C :   -0.008469
  37 C :   -0.059990
  38 C :   -0.043942
  39 C :   -0.025176
  40 C :   -0.206325
  41 C :   -0.053686
  42 C :   -0.072324
  43 N :   -0.037125
  44 C :   -0.000953
  45 C :   -0.002748
  46 C :   -0.053435
  47 N :   -0.057283
  48 C :   -0.175099
  49 S :    0.509396
  50 H :    0.023878
  51 H :    0.024426
  52 H :    0.028876
  53 H :    0.031882
  54 H :    0.026927
  55 H :    0.024673
  56 H :    0.032125
  57 H :    0.040581
  58 H :    0.027769
  59 H :    0.031043
  60 H :    0.028215
  61 H :    0.030415
  62 H :    0.036954
  63 H :    0.031373
  64 H :    0.043508
  65 H :    0.024167
  66 H :    0.041224
  67 H :    0.021326
  68 H :    0.042649
  69 H :    0.038696
  70 H :    0.032841
  71 H :    0.031268

  Mayer bond orders larger than 0.100000
B(  0-C ,  1-O ) :   1.1780 B(  0-C ,  4-C ) :   1.4897 B(  0-C , 50-H ) :   1.0065
B(  1-O ,  2-C ) :   1.1404 B(  2-C ,  3-C ) :   1.5942 B(  2-C , 51-H ) :   1.0002
B(  3-C ,  4-C ) :   1.2128 B(  3-C , 52-H ) :   1.0030 B(  4-C ,  5-C ) :   1.0812
B(  5-C ,  6-C ) :   1.6722 B(  5-C , 53-H ) :   0.9805 B(  6-C ,  7-C ) :   1.1418
B(  6-C , 54-H ) :   0.9855 B(  7-C ,  8-C ) :   1.6207 B(  7-C , 55-H ) :   0.9844
B(  8-C ,  9-C ) :   1.1630 B(  8-C , 56-H ) :   0.9741 B(  9-C , 10-S ) :   1.1312
B(  9-C , 16-C ) :   1.3733 B( 10-S , 11-C ) :   1.1114 B( 11-C , 12-N ) :   0.9682
B( 11-C , 15-C ) :   1.4851 B( 12-N , 13-O ) :   1.5141 B( 12-N , 14-O ) :   1.5190
B( 13-O , 14-O ) :   0.2571 B( 15-C , 16-C ) :   1.2335 B( 15-C , 57-H ) :   0.9926
B( 16-C , 17-C ) :   1.0706 B( 17-C , 18-C ) :   1.6853 B( 17-C , 58-H ) :   0.9787
B( 18-C , 19-C ) :   1.1732 B( 18-C , 59-H ) :   0.9482 B( 19-C , 20-C ) :   1.4462
B( 19-C , 27-O ) :   1.0619 B( 20-C , 21-O ) :   1.0633 B( 20-C , 28-C ) :   1.1950
B( 21-O , 22-C ) :   1.0496 B( 22-C , 23-C ) :   1.2044 B( 22-C , 26-C ) :   1.5724
B( 23-C , 24-C ) :   1.5690 B( 23-C , 27-O ) :   1.0451 B( 24-C , 25-S ) :   1.1444
B( 24-C , 60-H ) :   0.9737 B( 25-S , 26-C ) :   1.1430 B( 26-C , 61-H ) :   0.9725
B( 28-C , 29-C ) :   1.6805 B( 28-C , 62-H ) :   0.9495 B( 29-C , 30-C ) :   1.1049
B( 29-C , 63-H ) :   0.9532 B( 30-C , 31-S ) :   1.1418 B( 30-C , 37-C ) :   1.4158
B( 31-S , 32-C ) :   1.1202 B( 32-C , 33-N ) :   0.9599 B( 32-C , 36-C ) :   1.4669
B( 33-N , 34-O ) :   1.5148 B( 33-N , 35-O ) :   1.5365 B( 34-O , 35-O ) :   0.2635
B( 36-C , 37-C ) :   1.2313 B( 36-C , 64-H ) :   1.0058 B( 37-C , 38-C ) :   1.0796
B( 38-C , 39-C ) :   1.6721 B( 38-C , 65-H ) :   0.9661 B( 39-C , 40-C ) :   1.1753
B( 39-C , 66-H ) :   0.9700 B( 40-C , 41-C ) :   1.3346 B( 40-C , 48-C ) :   0.1160
B( 40-C , 49-S ) :   1.1659 B( 41-C , 42-C ) :   1.1858 B( 41-C , 47-N ) :   1.3799
B( 42-C , 43-N ) :   1.3290 B( 42-C , 48-C ) :   1.4146 B( 43-N , 44-C ) :   1.7522
B( 44-C , 45-C ) :   1.1347 B( 44-C , 67-H ) :   0.9757 B( 45-C , 46-C ) :   1.0538
B( 45-C , 47-N ) :   1.7126 B( 46-C , 68-H ) :   0.9454 B( 46-C , 69-H ) :   0.9490
B( 46-C , 70-H ) :   0.9493 B( 48-C , 49-S ) :   1.2073 B( 48-C , 71-H ) :   0.9770

-----------------------------------------------------------------------------
         ABSORPTION SPECTRUM VIA TRANSITION ELECTRIC DIPOLE MOMENTS
-----------------------------------------------------------------------------
State   Energy  Wavelength   fosc         T2         TX        TY        TZ
        (cm-1)    (nm)                  (au**2)     (au)      (au)      (au)
-----------------------------------------------------------------------------
   0   17506.1    571.2   0.411142775   7.73179   0.71807   2.24961   1.46813
   1   20090.8    497.7   0.026308765   0.43110   0.13711   0.40598  -0.49748
   2   21575.6    463.5   0.161400146   2.46273  -0.61578  -0.76183  -1.22604
   3   22720.1    440.1   0.957208336  13.86983   1.47103   1.62848   3.00898
   4   24202.0    413.2   0.286465335   3.89669  -1.65099  -0.01081  -1.08204
   5   25477.8    392.5   0.210322432   2.71769   0.03208  -1.02829  -1.28813
   6   26485.4    377.6   0.078619262   0.97723  -0.68319   0.40301   0.58997
   7   27533.8    363.2   0.246018247   2.94156  -1.58397   0.46000  -0.47011
   8   28511.9    350.7   0.037968324   0.43840   0.49744  -0.22775  -0.37294
   9   28904.3    346.0   0.081183292   0.92465   0.42986  -0.72940  -0.45590
  10   30335.7    329.6   0.095141852   1.03251   0.41113   0.43367   0.82183
  11   31038.4    322.2   0.629913849   6.68124   1.41162   1.05959   1.88834
  12   31401.3    318.5   0.071326260   0.74779   0.20233  -0.83609  -0.08834
  13   31938.8    313.1   0.114726237   1.18255   0.77107  -0.73236   0.22729
  14   32233.9    310.2   0.005785100   0.05908  -0.17814  -0.09308  -0.13671
  15   33086.8    302.2   0.134576492   1.33903   1.05956  -0.18583   0.42641
  16   33409.9    299.3   0.024597746   0.24238  -0.40444   0.27804   0.03871
  17   35215.5    284.0   0.010809425   0.10105   0.11625   0.22160   0.19604
  18   35405.6    282.4   0.006662112   0.06195   0.11594   0.06627  -0.21003
  19   35759.2    279.6   0.063477215   0.58439   0.61701  -0.36152  -0.27017
  20   35979.2    277.9   0.072776289   0.66591   0.34304  -0.55094  -0.49467
  21   36031.2    277.5   0.026550092   0.24258   0.48743   0.02443   0.06636
  22   36333.0    275.2   0.002847989   0.02581  -0.11337  -0.11226   0.01874
  23   37005.7    270.2   0.101117761   0.89957   0.05307  -0.61968  -0.71607
  24   37150.9    269.2   0.248248819   2.19985  -0.89015  -0.46632  -1.09089
  25   37384.6    267.5   0.068644012   0.60448   0.07270  -0.63165  -0.44746
  26   37729.5    265.0   0.064800254   0.56542   0.53654  -0.50192  -0.16006
  27   37929.0    263.7   0.058996942   0.51208   0.60212  -0.37308   0.10165
  28   38095.8    262.5   0.012610536   0.10898   0.15843   0.15149   0.24684
  29   38681.4    258.5   0.302988464   2.57869  -1.11394  -0.23973  -1.13153
  30   39453.8    253.5   0.071381098   0.59562  -0.57312   0.42360   0.29616
  31   39697.4    251.9   0.005559793   0.04611   0.13215  -0.09843   0.13768

FINAL SINGLE POINT ENERGY     -3681.919186830862

DIPOLE MOMENT
-------------
                                X             Y             Z
Electronic contribution:     -7.39517     -18.27539     -30.05337
Nuclear contribution   :      7.34315      21.33988      33.25650
                        -----------------------------------------
Total Dipole Moment    :     -0.05202       3.06448       3.20312
                        -----------------------------------------
Magnitude (a.u.)       :      4.43326
Magnitude (Debye)      :     11.26845

Rotational constants in cm-1:     0.002267     0.000902     0.000685
Rotational constants in MHz :    67.958526    27.028043    20.530219

                             ****ORCA TERMINATED NORMALLY****
TOTAL RUN TIME: 0 days 0 hours 5 minutes 34 seconds 222 msec
