                         Program Version 4.2.0 -  RELEASE  -
|  1> # ORCA input file
|  2> # SCF done       -153.505533366060          0.000326757538
|  3> ! CAM-B3LYP def2-SVP def2/J RIJCOSX Grid4 TightSCF
|  4> %maxcore 5000
|  5> %tddft
|  6>     Mode sTDDFT
|  7>     Ethresh 5.0
|  8>     maxcore 5000
|  9> end
| 10>
| 11> %pal
| 12>   nprocs 6
| 13>   end
| 14> * xyz 0 1
| 15>    C       -0.29420        11.36747       -10.88544
| 16>    O       -1.32850        10.70741       -11.41589
| 17>    C       -2.10862        10.29999       -10.39224
| 18>    C       -1.58920        10.68913        -9.20372
| 19>    C       -0.38340        11.39967        -9.50913
| 20>    C        0.49592        11.98922        -8.54899
| 21>    C        1.63903        12.66035        -8.84880
| 22>    C        2.52436        13.24570        -7.90968
| 23>    C        2.35636        13.22583        -6.55056
| 24>    C        3.22629        13.79146        -5.61588
| 25>    C        2.97831        13.72012        -4.25729
| 26>    C        3.73731        14.21467        -3.17786
| 27>    C        3.19294        13.95761        -1.94532
| 28>    C        1.98117        13.25144        -2.00455
| 29>    S        1.54172        12.91710        -3.65546
| 30>    C        1.12642        12.80393        -0.99747
| 31>    C        1.19772        12.89987         0.39871
| 32>    C        0.13267        12.31588         1.03809
| 33>    C       -0.81800        11.73894         0.17257
| 34>    S       -0.31682        11.95809        -1.48332
| 35>    C       -1.98795        11.09626         0.54902
| 36>    C       -2.94833        10.52350        -0.27535
| 37>    S       -4.38570         9.78771         0.45712
| 38>    C       -5.11346         9.32305        -1.07636
| 39>    C       -4.24009         9.72725        -2.11635
| 40>    C       -3.07024        10.37818        -1.66239
| 41>    O       -2.29575        10.72785        -2.70447
| 42>    C       -2.95227        10.31149        -3.81918
| 43>    N       -2.36260        10.55172        -5.06304
| 44>    O       -2.97364        10.15685        -6.05044
| 45>    O       -1.29003        11.13111        -5.10585
| 46>    C       -4.14927         9.69186        -3.51786
| 47>    C       -6.32697         8.69115        -1.21522
| 48>    C       -7.19402         8.29526        -0.20056
| 49>    C       -8.44339         7.68158        -0.37843
| 50>    C       -9.10119         7.40068         0.79218
| 51>    C       -8.38873         7.77920         1.93974
| 52>    S       -6.86159         8.50716         1.50057
| 53>    C       -8.76285         7.63022         3.27235
| 54>    C       -9.96289         7.10212         3.78047
| 55>    C      -10.02134         7.08952         5.14393
| 56>    C       -8.86917         7.61299         5.78485
| 57>    S       -7.70881         8.11562         4.57612
| 58>    C       -8.70393         7.62775         7.14869
| 59>    C       -7.66826         8.10329         7.98267
| 60>    O       -7.69799         7.60471         9.24479
| 61>    C       -6.67880         8.13566         9.95681
| 62>    C       -5.97589         9.01074         9.16207
| 63>    C       -6.60019         9.00421         7.89889
| 64>    C       -6.18538         9.91871         6.80735
| 65>    F       -7.21942        10.48741         6.16374
| 66>    F       -5.44833        10.93914         7.28508
| 67>    F       -5.41450         9.33735         5.86556
| 68>    C       -6.46989         7.76856        11.32915
| 69>    C       -7.23510         6.90830        11.99903
| 70>    H        0.43164        11.76470       -11.56709
| 71>    H       -2.99273         9.74859       -10.64306
| 72>    H       -1.99637        10.50648        -8.23028
| 73>    H        0.18955        11.86474        -7.52010
| 74>    H        1.91340        12.76321        -9.89053
| 75>    H        3.39967        13.74327        -8.30914
| 76>    H        1.48298        12.73233        -6.14543
| 77>    H        4.12194        14.29815        -5.95030
| 78>    H        4.66169        14.74368        -3.33187
| 79>    H        3.63489        14.25924        -1.01213
| 80>    H        2.01410        13.38564         0.90299
| 81>    H        0.00995        12.28794         2.10653
| 82>    H       -2.18546        11.03729         1.61133
| 83>    H       -4.83519         9.28317        -4.23065
| 84>    H       -6.64666         8.48453        -2.22853
| 85>    H       -8.83189         7.46350        -1.35770
| 86>    H      -10.06761         6.93296         0.84321
| 87>    H      -10.75001         6.74887         3.13896
| 88>    H      -10.85868         6.72528         5.71220
| 89>    H       -9.48223         7.12680         7.71214
| 90>    H       -5.12631         9.59878         9.44300
| 91>    H       -5.62440         8.25083        11.79855
| 92>    H       -8.07594         6.42774        11.52943
| 93>    H       -7.04078         6.66353        13.02780
| 94> *
| 95>
| 96>                          ****END OF INPUT****

CARTESIAN COORDINATES (ANGSTROEM)
---------------------------------
  C     -0.294200   11.367470  -10.885440
  O     -1.328500   10.707410  -11.415890
  C     -2.108620   10.299990  -10.392240
  C     -1.589200   10.689130   -9.203720
  C     -0.383400   11.399670   -9.509130
  C      0.495920   11.989220   -8.548990
  C      1.639030   12.660350   -8.848800
  C      2.524360   13.245700   -7.909680
  C      2.356360   13.225830   -6.550560
  C      3.226290   13.791460   -5.615880
  C      2.978310   13.720120   -4.257290
  C      3.737310   14.214670   -3.177860
  C      3.192940   13.957610   -1.945320
  C      1.981170   13.251440   -2.004550
  S      1.541720   12.917100   -3.655460
  C      1.126420   12.803930   -0.997470
  C      1.197720   12.899870    0.398710
  C      0.132670   12.315880    1.038090
  C     -0.818000   11.738940    0.172570
  S     -0.316820   11.958090   -1.483320
  C     -1.987950   11.096260    0.549020
  C     -2.948330   10.523500   -0.275350
  S     -4.385700    9.787710    0.457120
  C     -5.113460    9.323050   -1.076360
  C     -4.240090    9.727250   -2.116350
  C     -3.070240   10.378180   -1.662390
  O     -2.295750   10.727850   -2.704470
  C     -2.952270   10.311490   -3.819180
  N     -2.362600   10.551720   -5.063040
  O     -2.973640   10.156850   -6.050440
  O     -1.290030   11.131110   -5.105850
  C     -4.149270    9.691860   -3.517860
  C     -6.326970    8.691150   -1.215220
  C     -7.194020    8.295260   -0.200560
  C     -8.443390    7.681580   -0.378430
  C     -9.101190    7.400680    0.792180
  C     -8.388730    7.779200    1.939740
  S     -6.861590    8.507160    1.500570
  C     -8.762850    7.630220    3.272350
  C     -9.962890    7.102120    3.780470
  C    -10.021340    7.089520    5.143930
  C     -8.869170    7.612990    5.784850
  S     -7.708810    8.115620    4.576120
  C     -8.703930    7.627750    7.148690
  C     -7.668260    8.103290    7.982670
  O     -7.697990    7.604710    9.244790
  C     -6.678800    8.135660    9.956810
  C     -5.975890    9.010740    9.162070
  C     -6.600190    9.004210    7.898890
  C     -6.185380    9.918710    6.807350
  F     -7.219420   10.487410    6.163740
  F     -5.448330   10.939140    7.285080
  F     -5.414500    9.337350    5.865560
  C     -6.469890    7.768560   11.329150
  C     -7.235100    6.908300   11.999030
  H      0.431640   11.764700  -11.567090
  H     -2.992730    9.748590  -10.643060
  H     -1.996370   10.506480   -8.230280
  H      0.189550   11.864740   -7.520100
  H      1.913400   12.763210   -9.890530
  H      3.399670   13.743270   -8.309140
  H      1.482980   12.732330   -6.145430
  H      4.121940   14.298150   -5.950300
  H      4.661690   14.743680   -3.331870
  H      3.634890   14.259240   -1.012130
  H      2.014100   13.385640    0.902990
  H      0.009950   12.287940    2.106530
  H     -2.185460   11.037290    1.611330
  H     -4.835190    9.283170   -4.230650
  H     -6.646660    8.484530   -2.228530
  H     -8.831890    7.463500   -1.357700
  H    -10.067610    6.932960    0.843210
  H    -10.750010    6.748870    3.138960
  H    -10.858680    6.725280    5.712200
  H     -9.482230    7.126800    7.712140
  H     -5.126310    9.598780    9.443000
  H     -5.624400    8.250830   11.798550
  H     -8.075940    6.427740   11.529430
  H     -7.040780    6.663530   13.027800

 Total Charge           Charge          ....    0
 Multiplicity           Mult            ....    1
 Number of Electrons    NEL             ....  424
 Basis Dimension        Dim             ....  910

ORBITAL ENERGIES
----------------

  NO   OCC          E(Eh)            E(eV)
   0   2.0000     -88.961574     -2420.7675
   1   2.0000     -88.949133     -2420.4290
   2   2.0000     -88.941676     -2420.2260
   3   2.0000     -88.934944     -2420.0428
   4   2.0000     -88.933177     -2419.9948
   5   2.0000     -24.785729      -674.4540
   6   2.0000     -24.785470      -674.4469
   7   2.0000     -24.782206      -674.3581
   8   2.0000     -19.308548      -525.4123
   9   2.0000     -19.289006      -524.8805
  10   2.0000     -19.274881      -524.4962
  11   2.0000     -19.246163      -523.7147
  12   2.0000     -19.243199      -523.6341
  13   2.0000     -14.655750      -398.8032
  14   2.0000     -10.508177      -285.9420
  15   2.0000     -10.383846      -282.5588
  16   2.0000     -10.346153      -281.5331
  17   2.0000     -10.344472      -281.4874
  18   2.0000     -10.328489      -281.0525
  19   2.0000     -10.315042      -280.6866
  20   2.0000     -10.313578      -280.6467
  21   2.0000     -10.312860      -280.6272
  22   2.0000     -10.311139      -280.5803
  23   2.0000     -10.310377      -280.5596
  24   2.0000     -10.307157      -280.4720
  25   2.0000     -10.307012      -280.4680
  26   2.0000     -10.306306      -280.4488
  27   2.0000     -10.305205      -280.4189
  28   2.0000     -10.302927      -280.3569
  29   2.0000     -10.300354      -280.2869
  30   2.0000     -10.295661      -280.1592
  31   2.0000     -10.295442      -280.1532
  32   2.0000     -10.294652      -280.1317
  33   2.0000     -10.290435      -280.0170
  34   2.0000     -10.285385      -279.8795
  35   2.0000     -10.285017      -279.8696
  36   2.0000     -10.283718      -279.8342
  37   2.0000     -10.282755      -279.8080
  38   2.0000     -10.281748      -279.7806
  39   2.0000     -10.281295      -279.7683
  40   2.0000     -10.281025      -279.7609
  41   2.0000     -10.280805      -279.7549
  42   2.0000     -10.280050      -279.7344
  43   2.0000     -10.279900      -279.7303
  44   2.0000     -10.279795      -279.7275
  45   2.0000     -10.277629      -279.6685
  46   2.0000     -10.276160      -279.6285
  47   2.0000     -10.274263      -279.5769
  48   2.0000     -10.270932      -279.4863
  49   2.0000     -10.267455      -279.3916
  50   2.0000     -10.266219      -279.3580
  51   2.0000     -10.262840      -279.2661
  52   2.0000     -10.259833      -279.1843
  53   2.0000     -10.257952      -279.1331
  54   2.0000     -10.244951      -278.7793
  55   2.0000      -8.055952      -219.2136
  56   2.0000      -8.045105      -218.9184
  57   2.0000      -8.038122      -218.7284
  58   2.0000      -8.031290      -218.5425
  59   2.0000      -8.029695      -218.4991
  60   2.0000      -6.025563      -163.9639
  61   2.0000      -6.021441      -163.8517
  62   2.0000      -6.017481      -163.7440
  63   2.0000      -6.014780      -163.6705
  64   2.0000      -6.010588      -163.5564
  65   2.0000      -6.007775      -163.4799
  66   2.0000      -6.006311      -163.4400
  67   2.0000      -6.003641      -163.3674
  68   2.0000      -6.000917      -163.2933
  69   2.0000      -5.999322      -163.2498
  70   2.0000      -5.999067      -163.2429
  71   2.0000      -5.996826      -163.1819
  72   2.0000      -5.995111      -163.1353
  73   2.0000      -5.992391      -163.0612
  74   2.0000      -5.990700      -163.0152
  75   2.0000      -1.374437       -37.4003
  76   2.0000      -1.323165       -36.0051
  77   2.0000      -1.277277       -34.7565
  78   2.0000      -1.274266       -34.6745
  79   2.0000      -1.230566       -33.4854
  80   2.0000      -1.208845       -32.8943
  81   2.0000      -1.192258       -32.4430
  82   2.0000      -1.137621       -30.9562
  83   2.0000      -0.997323       -27.1385
  84   2.0000      -0.990474       -26.9522
  85   2.0000      -0.986637       -26.8478
  86   2.0000      -0.972132       -26.4531
  87   2.0000      -0.965965       -26.2852
  88   2.0000      -0.936920       -25.4949
  89   2.0000      -0.915166       -24.9029
  90   2.0000      -0.911698       -24.8086
  91   2.0000      -0.908448       -24.7201
  92   2.0000      -0.900572       -24.5058
  93   2.0000      -0.894147       -24.3310
  94   2.0000      -0.890429       -24.2298
  95   2.0000      -0.874314       -23.7913
  96   2.0000      -0.865665       -23.5559
  97   2.0000      -0.852767       -23.2050
  98   2.0000      -0.846125       -23.0242
  99   2.0000      -0.840617       -22.8744
 100   2.0000      -0.829438       -22.5702
 101   2.0000      -0.824700       -22.4412
 102   2.0000      -0.822747       -22.3881
 103   2.0000      -0.812215       -22.1015
 104   2.0000      -0.809916       -22.0389
 105   2.0000      -0.800450       -21.7814
 106   2.0000      -0.793739       -21.5987
 107   2.0000      -0.785506       -21.3747
 108   2.0000      -0.774373       -21.0718
 109   2.0000      -0.755426       -20.5562
 110   2.0000      -0.740908       -20.1611
 111   2.0000      -0.726784       -19.7768
 112   2.0000      -0.709208       -19.2985
 113   2.0000      -0.705091       -19.1865
 114   2.0000      -0.701311       -19.0836
 115   2.0000      -0.687154       -18.6984
 116   2.0000      -0.681546       -18.5458
 117   2.0000      -0.678567       -18.4647
 118   2.0000      -0.674040       -18.3416
 119   2.0000      -0.665824       -18.1180
 120   2.0000      -0.660160       -17.9639
 121   2.0000      -0.657840       -17.9007
 122   2.0000      -0.652080       -17.7440
 123   2.0000      -0.650099       -17.6901
 124   2.0000      -0.643665       -17.5150
 125   2.0000      -0.640227       -17.4215
 126   2.0000      -0.639200       -17.3935
 127   2.0000      -0.628624       -17.1057
 128   2.0000      -0.625802       -17.0289
 129   2.0000      -0.624173       -16.9846
 130   2.0000      -0.615185       -16.7400
 131   2.0000      -0.614459       -16.7203
 132   2.0000      -0.610008       -16.5992
 133   2.0000      -0.607608       -16.5339
 134   2.0000      -0.599664       -16.3177
 135   2.0000      -0.594958       -16.1896
 136   2.0000      -0.587377       -15.9833
 137   2.0000      -0.579737       -15.7754
 138   2.0000      -0.577918       -15.7260
 139   2.0000      -0.575683       -15.6651
 140   2.0000      -0.567562       -15.4441
 141   2.0000      -0.565381       -15.3848
 142   2.0000      -0.557021       -15.1573
 143   2.0000      -0.550859       -14.9896
 144   2.0000      -0.548899       -14.9363
 145   2.0000      -0.538440       -14.6517
 146   2.0000      -0.538184       -14.6447
 147   2.0000      -0.534827       -14.5534
 148   2.0000      -0.532421       -14.4879
 149   2.0000      -0.531130       -14.4528
 150   2.0000      -0.528659       -14.3855
 151   2.0000      -0.522590       -14.2204
 152   2.0000      -0.518020       -14.0961
 153   2.0000      -0.514725       -14.0064
 154   2.0000      -0.510063       -13.8795
 155   2.0000      -0.508493       -13.8368
 156   2.0000      -0.503199       -13.6927
 157   2.0000      -0.498416       -13.5626
 158   2.0000      -0.495202       -13.4751
 159   2.0000      -0.492519       -13.4021
 160   2.0000      -0.492034       -13.3889
 161   2.0000      -0.490140       -13.3374
 162   2.0000      -0.489534       -13.3209
 163   2.0000      -0.487616       -13.2687
 164   2.0000      -0.486558       -13.2399
 165   2.0000      -0.482230       -13.1221
 166   2.0000      -0.476322       -12.9614
 167   2.0000      -0.474946       -12.9239
 168   2.0000      -0.470821       -12.8117
 169   2.0000      -0.466676       -12.6989
 170   2.0000      -0.465081       -12.6555
 171   2.0000      -0.462674       -12.5900
 172   2.0000      -0.461982       -12.5712
 173   2.0000      -0.460524       -12.5315
 174   2.0000      -0.458538       -12.4774
 175   2.0000      -0.451890       -12.2966
 176   2.0000      -0.451139       -12.2761
 177   2.0000      -0.445178       -12.1139
 178   2.0000      -0.442376       -12.0377
 179   2.0000      -0.441035       -12.0012
 180   2.0000      -0.437087       -11.8937
 181   2.0000      -0.434539       -11.8244
 182   2.0000      -0.428169       -11.6511
 183   2.0000      -0.423923       -11.5355
 184   2.0000      -0.422198       -11.4886
 185   2.0000      -0.415469       -11.3055
 186   2.0000      -0.411354       -11.1935
 187   2.0000      -0.410744       -11.1769
 188   2.0000      -0.406083       -11.0501
 189   2.0000      -0.400074       -10.8866
 190   2.0000      -0.393976       -10.7206
 191   2.0000      -0.387696       -10.5498
 192   2.0000      -0.385147       -10.4804
 193   2.0000      -0.382997       -10.4219
 194   2.0000      -0.379303       -10.3214
 195   2.0000      -0.376995       -10.2586
 196   2.0000      -0.371088       -10.0978
 197   2.0000      -0.367245        -9.9932
 198   2.0000      -0.359191        -9.7741
 199   2.0000      -0.345557        -9.4031
 200   2.0000      -0.335842        -9.1387
 201   2.0000      -0.328688        -8.9440
 202   2.0000      -0.326167        -8.8755
 203   2.0000      -0.322233        -8.7684
 204   2.0000      -0.313939        -8.5427
 205   2.0000      -0.310812        -8.4576
 206   2.0000      -0.302957        -8.2439
 207   2.0000      -0.290179        -7.8962
 208   2.0000      -0.271146        -7.3783
 209   2.0000      -0.249657        -6.7935
 210   2.0000      -0.219332        -5.9683
 211   2.0000      -0.178055        -4.8451
 212   0.0000      -0.104596        -2.8462
 213   0.0000      -0.068701        -1.8694
 214   0.0000      -0.053220        -1.4482
 215   0.0000      -0.022083        -0.6009
 216   0.0000      -0.002465        -0.0671

MULLIKEN ATOMIC CHARGES
-----------------------
   0 C :    0.066195
   1 O :   -0.181810
   2 C :    0.128870
   3 C :   -0.033591
   4 C :    0.034448
   5 C :    0.047498
   6 C :    0.002150
   7 C :    0.023009
   8 C :   -0.008527
   9 C :    0.019104
  10 C :   -0.035583
  11 C :    0.040606
  12 C :    0.017424
  13 C :   -0.030539
  14 S :    0.072838
  15 C :   -0.034107
  16 C :    0.033006
  17 C :    0.019614
  18 C :   -0.033585
  19 S :    0.082924
  20 C :    0.042178
  21 C :   -0.184315
  22 S :    0.120852
  23 C :   -0.086649
  24 C :    0.116175
  25 C :    0.191506
  26 O :   -0.187898
  27 C :    0.229526
  28 N :    0.293970
  29 O :   -0.251865
  30 O :   -0.233978
  31 C :   -0.095280
  32 C :   -0.016779
  33 C :   -0.041678
  34 C :    0.025536
  35 C :    0.021182
  36 C :   -0.033831
  37 S :    0.082612
  38 C :   -0.049301
  39 C :    0.035421
  40 C :    0.019909
  41 C :   -0.005158
  42 S :    0.103738
  43 C :   -0.086660
  44 C :    0.175458
  45 O :   -0.205276
  46 C :    0.165385
  47 C :   -0.065435
  48 C :   -0.148435
  49 C :    0.533121
  50 F :   -0.160936
  51 F :   -0.166753
  52 F :   -0.169339
  53 C :   -0.023406
  54 C :   -0.001641
  55 H :    0.001175
  56 H :    0.004030
  57 H :   -0.025468
  58 H :   -0.009239
  59 H :   -0.026217
  60 H :   -0.020119
  61 H :    0.028557
  62 H :   -0.017975
  63 H :   -0.014892
  64 H :   -0.016638
  65 H :   -0.016998
  66 H :   -0.014995
  67 H :   -0.019886
  68 H :    0.009767
  69 H :   -0.016410
  70 H :   -0.014541
  71 H :   -0.016128
  72 H :   -0.014590
  73 H :   -0.012303
  74 H :    0.000534
  75 H :   -0.006983
  76 H :   -0.003112
  77 H :    0.026394
  78 H :    0.024138
Sum of atomic charges:   -0.0000000

LOEWDIN ATOMIC CHARGES
----------------------
   0 C :    0.035887
   1 O :    0.023299
   2 C :    0.025143
   3 C :   -0.060404
   4 C :   -0.082194
   5 C :    0.016276
   6 C :   -0.048244
   7 C :   -0.008654
   8 C :   -0.039181
   9 C :   -0.031568
  10 C :   -0.158885
  11 C :   -0.028297
  12 C :   -0.043524
  13 C :   -0.166783
  14 S :    0.400781
  15 C :   -0.196630
  16 C :   -0.031547
  17 C :   -0.047498
  18 C :   -0.145006
  19 S :    0.415103
  20 C :   -0.093327
  21 C :   -0.185080
  22 S :    0.434396
  23 C :   -0.173621
  24 C :   -0.073772
  25 C :    0.012007
  26 O :    0.009067
  27 C :    0.013294
  28 N :    0.280831
  29 O :   -0.220988
  30 O :   -0.204234
  31 C :   -0.000514
  32 C :   -0.070253
  33 C :   -0.163988
  34 C :   -0.034600
  35 C :   -0.044964
  36 C :   -0.174307
  37 S :    0.390545
  38 C :   -0.183399
  39 C :   -0.032210
  40 C :   -0.037826
  41 C :   -0.138437
  42 S :    0.403862
  43 C :   -0.091102
  44 C :    0.051714
  45 O :    0.017368
  46 C :    0.029100
  47 C :   -0.043197
  48 C :   -0.137362
  49 C :    0.162853
  50 F :   -0.061409
  51 F :   -0.065117
  52 F :   -0.070864
  53 C :   -0.040166
  54 C :   -0.034604
  55 H :    0.017910
  56 H :    0.019962
  57 H :    0.024255
  58 H :    0.032489
  59 H :    0.023811
  60 H :    0.027047
  61 H :    0.022447
  62 H :    0.031972
  63 H :    0.032359
  64 H :    0.030860
  65 H :    0.030810
  66 H :    0.031309
  67 H :    0.035453
  68 H :    0.045197
  69 H :    0.039705
  70 H :    0.032676
  71 H :    0.030913
  72 H :    0.031883
  73 H :    0.032497
  74 H :    0.043352
  75 H :    0.034739
  76 H :    0.038015
  77 H :    0.025929
  78 H :    0.026645

  Mayer bond orders larger than 0.100000
B(  0-C ,  1-O ) :   1.1845 B(  0-C ,  4-C ) :   1.4786 B(  0-C , 55-H ) :   1.0029
B(  1-O ,  2-C ) :   1.1292 B(  2-C ,  3-C ) :   1.5803 B(  2-C , 56-H ) :   1.0016
B(  3-C ,  4-C ) :   1.2012 B(  3-C , 57-H ) :   0.9930 B(  4-C ,  5-C ) :   1.1153
B(  5-C ,  6-C ) :   1.6668 B(  5-C , 58-H ) :   0.9632 B(  6-C ,  7-C ) :   1.1602
B(  6-C , 59-H ) :   0.9743 B(  7-C ,  8-C ) :   1.6044 B(  7-C , 60-H ) :   0.9808
B(  8-C ,  9-C ) :   1.2037 B(  8-C , 61-H ) :   0.9567 B(  9-C , 10-C ) :   1.4978
B(  9-C , 62-H ) :   0.9879 B( 10-C , 11-C ) :   1.1816 B( 10-C , 14-S ) :   1.0375
B( 11-C , 12-C ) :   1.5326 B( 11-C , 63-H ) :   0.9984 B( 12-C , 13-C ) :   1.2368
B( 12-C , 64-H ) :   0.9970 B( 13-C , 14-S ) :   1.0806 B( 13-C , 15-C ) :   1.4054
B( 15-C , 16-C ) :   1.2482 B( 15-C , 19-S ) :   1.0486 B( 16-C , 17-C ) :   1.5160
B( 16-C , 65-H ) :   0.9945 B( 17-C , 18-C ) :   1.2070 B( 17-C , 66-H ) :   1.0005
B( 18-C , 19-S ) :   1.0722 B( 18-C , 20-C ) :   1.4714 B( 20-C , 21-C ) :   1.2717
B( 20-C , 67-H ) :   0.9425 B( 21-C , 22-S ) :   1.0834 B( 21-C , 25-C ) :   1.3150
B( 22-S , 23-C ) :   1.0720 B( 23-C , 24-C ) :   1.2473 B( 23-C , 32-C ) :   1.3478
B( 24-C , 25-C ) :   1.2903 B( 24-C , 31-C ) :   1.1538 B( 25-C , 26-O ) :   1.1027
B( 26-O , 27-C ) :   1.1210 B( 27-C , 28-N ) :   0.9484 B( 27-C , 31-C ) :   1.5001
B( 28-N , 29-O ) :   1.4842 B( 28-N , 30-O ) :   1.4851 B( 29-O , 30-O ) :   0.2576
B( 31-C , 68-H ) :   1.0205 B( 32-C , 33-C ) :   1.4297 B( 32-C , 69-H ) :   0.9665
B( 33-C , 34-C ) :   1.2151 B( 33-C , 37-S ) :   1.0545 B( 34-C , 35-C ) :   1.5145
B( 34-C , 70-H ) :   1.0013 B( 35-C , 36-C ) :   1.2409 B( 35-C , 71-H ) :   0.9931
B( 36-C , 37-S ) :   1.0609 B( 36-C , 38-C ) :   1.4368 B( 38-C , 39-C ) :   1.2169
B( 38-C , 42-S ) :   1.0614 B( 39-C , 40-C ) :   1.5608 B( 39-C , 72-H ) :   0.9927
B( 40-C , 41-C ) :   1.1552 B( 40-C , 73-H ) :   1.0000 B( 41-C , 42-S ) :   1.0579
B( 41-C , 43-C ) :   1.5663 B( 43-C , 44-C ) :   1.1564 B( 43-C , 74-H ) :   0.9470
B( 44-C , 45-O ) :   1.1356 B( 44-C , 48-C ) :   1.4408 B( 45-O , 46-C ) :   1.1340
B( 46-C , 47-C ) :   1.4487 B( 46-C , 53-C ) :   1.1247 B( 47-C , 48-C ) :   1.2432
B( 47-C , 75-H ) :   1.0168 B( 48-C , 49-C ) :   0.9639 B( 49-C , 50-F ) :   1.1701
B( 49-C , 51-F ) :   1.1618 B( 49-C , 52-F ) :   1.1511 B( 53-C , 54-C ) :   1.9123
B( 53-C , 76-H ) :   0.9599 B( 54-C , 77-H ) :   0.9585 B( 54-C , 78-H ) :   0.9463

-----------------------------------------------------------------------------
         ABSORPTION SPECTRUM VIA TRANSITION ELECTRIC DIPOLE MOMENTS
-----------------------------------------------------------------------------
State   Energy  Wavelength   fosc         T2         TX        TY        TZ
        (cm-1)    (nm)                  (au**2)     (au)      (au)      (au)
-----------------------------------------------------------------------------
   0    4395.3   2275.1   0.514521088  38.53770   3.85474   1.98296  -4.44371
   1    9963.7   1003.6   0.334950297  11.06713   1.70809   0.86335  -2.72106
   2   12398.4    806.6   0.009372807   0.24887   0.03864  -0.00733   0.49732
   3   14422.8    693.3   0.081083924   1.85080   0.34601   0.27990  -1.28559
   4   18360.5    544.6   0.117330158   2.10378  -0.46074  -0.27701  -1.34713
   5   19350.3    516.8   0.004070235   0.06925   0.11045  -0.07339  -0.22729
   6   22492.9    444.6   1.506571201  22.05056  -1.95953  -1.19606  -4.09637
   7   23093.3    433.0   0.035964461   0.51270   0.35994   0.14330   0.60217
   8   23957.8    417.4   0.471682967   6.48155   1.73844   0.85893   1.64973
   9   25310.7    395.1   0.357397166   4.64861   1.52997   0.71896   1.33824
  10   26635.9    375.4   0.045495579   0.56231   0.55655   0.50256  -0.00084
  11   27210.6    367.5   0.005002494   0.06052  -0.18730  -0.09476  -0.12831
  12   27598.6    362.3   0.023086701   0.27539  -0.02724  -0.22790  -0.47192
  13   29298.3    341.3   0.031832615   0.35769   0.34384   0.03295  -0.48824
  14   29388.8    340.3   0.055249684   0.61891   0.17260   0.13508   0.75556
  15   29799.6    335.6   0.013714041   0.15151  -0.20231  -0.07777  -0.32331
  16   30114.0    332.1   0.007647371   0.08360  -0.11594   0.18642  -0.18817
  17   30396.2    329.0   0.039454859   0.42732  -0.12603  -0.18206  -0.61506
  18   31139.0    321.1   0.047194096   0.49895   0.23348   0.21450   0.63121
  19   31417.1    318.3   0.031608810   0.33122   0.40624   0.15706  -0.37619
  20   32009.1    312.4   0.003977600   0.04091  -0.04349  -0.09039   0.17563
  21   32151.8    311.0   0.007951632   0.08142  -0.14965  -0.13099  -0.20461
  22   32519.8    307.5   0.044457378   0.45006   0.06440   0.21893  -0.63086
  23   33155.3    301.6   0.016427436   0.16311   0.06238   0.02694  -0.39812
  24   33721.9    296.5   0.005769643   0.05633  -0.18088  -0.14666   0.04582
  25   34140.6    292.9   0.138957025   1.33994   0.26842   0.14775  -1.11627
  26   34644.3    288.6   0.030253467   0.28749   0.21280   0.16061  -0.46520
  27   34770.5    287.6   0.023010395   0.21787  -0.43076  -0.13912  -0.11384
  28   35124.1    284.7   0.027682342   0.25946   0.48596   0.15244   0.00798
  29   35348.4    282.9   0.184486128   1.71818   1.06266   0.49298  -0.58813
  30   35525.9    281.5   0.006282019   0.05821   0.03139   0.11847  -0.20783
  31   36301.6    275.5   0.125310242   1.13641  -0.84658  -0.47109   0.44474
  32   37146.9    269.2   0.141341069   1.25263   0.19837   0.10926  -1.09606
  33   38124.1    262.3   0.028228742   0.24376   0.24498   0.14634   0.40290
  34   38417.8    260.3   0.013689129   0.11731  -0.15650  -0.09213  -0.29039
  35   38651.9    258.7   0.025341162   0.21584   0.33536   0.24096   0.21286
  36   38892.6    257.1   0.006224237   0.05269   0.11773  -0.09659  -0.17174
  37   39126.7    255.6   0.038049146   0.32015  -0.42928  -0.24286   0.27728
  38   39419.8    253.7   0.006776651   0.05659  -0.09336  -0.06750  -0.20814
  39   39924.6    250.5   0.056900841   0.46919  -0.04210  -0.04053   0.68248
  40   40062.1    249.6   0.010970421   0.09015   0.15122   0.24788   0.07642
  41   40302.3    248.1   0.027529063   0.22487   0.23571   0.20380  -0.35746

FINAL SINGLE POINT ENERGY     -4294.475431076321

DIPOLE MOMENT
-------------
                                X             Y             Z
Electronic contribution:    -18.63788      -1.34410      30.07921
Nuclear contribution   :     18.26321       0.92194     -29.15850
                        -----------------------------------------
Total Dipole Moment    :     -0.37467      -0.42215       0.92070
                        -----------------------------------------
Magnitude (a.u.)       :      1.07995
Magnitude (Debye)      :      2.74500

Rotational constants in cm-1:     0.002526     0.000443     0.000380
Rotational constants in MHz :    75.738590    13.280280    11.385785

                             ****ORCA TERMINATED NORMALLY****
TOTAL RUN TIME: 0 days 0 hours 7 minutes 7 seconds 871 msec
