                         Program Version 4.2.0 -  RELEASE  -
|  1> # ORCA input file
|  2> # SCF done       -147.231366898413          0.000644354212
|  3> ! CAM-B3LYP def2-SVP def2/J RIJCOSX Grid4 TightSCF
|  4> %maxcore 5000
|  5> %tddft
|  6>     Mode sTDDFT
|  7>     Ethresh 5.0
|  8>     maxcore 5000
|  9> end
| 10>
| 11> %pal
| 12>   nprocs 6
| 13>   end
| 14> * xyz 0 1
| 15>    C        5.49949         2.91726        -5.26846
| 16>    O        4.89008         1.73192        -5.35429
| 17>    C        3.57532         1.94316        -5.15649
| 18>    C        3.32450         3.25781        -4.93920
| 19>    C        4.59127         3.92244        -5.00812
| 20>    C        4.89843         5.30789        -4.83800
| 21>    C        3.99090         6.25949        -4.50517
| 22>    C        4.24326         7.64254        -4.32045
| 23>    C        5.41690         8.29756        -4.58736
| 24>    C        5.67041         9.66861        -4.43152
| 25>    C        4.89087        10.64925        -3.84812
| 26>    C        5.19450        12.02943        -3.83300
| 27>    C        4.26114        12.81421        -3.21175
| 28>    C        3.18229        12.08996        -2.68092
| 29>    S        3.38181        10.38487        -2.99913
| 30>    C        2.04658        12.54327        -2.01665
| 31>    C        1.58146        13.84870        -1.80617
| 32>    C        0.36062        13.90628        -1.18052
| 33>    C       -0.18202        12.65354        -0.84422
| 34>    S        0.91669        11.38862        -1.35503
| 35>    C       -1.42840        12.40465        -0.28273
| 36>    C       -1.92375        11.16761         0.09913
| 37>    C       -3.25037        10.80500         0.40099
| 38>    C       -3.31204         9.41826         0.63156
| 39>    C       -1.94876         8.90823         0.61330
| 40>    O       -1.47041         7.83298         0.91512
| 41>    N       -1.19225         9.99895         0.21374
| 42>    C       -4.65941         9.08301         0.83744
| 43>    O       -5.39524        10.24949         0.81235
| 44>    C       -4.58910        11.33684         0.51878
| 45>    O       -5.02908        12.45202         0.41512
| 46>    C       -5.35485         7.89935         1.00495
| 47>    C       -4.89132         6.60279         0.80369
| 48>    C       -5.63047         5.42747         1.05702
| 49>    C       -4.98066         4.27277         0.71524
| 50>    C       -3.70288         4.49970         0.17213
| 51>    S       -3.35337         6.20521         0.10311
| 52>    C       -2.74512         3.57316        -0.22923
| 53>    C       -2.84858         2.17074        -0.29964
| 54>    C       -1.70121         1.55517        -0.70991
| 55>    C       -0.62934         2.44400        -0.96691
| 56>    S       -1.14967         4.09796        -0.70625
| 57>    C        0.64678         2.08318        -1.32743
| 58>    C        1.75647         2.92386        -1.49478
| 59>    S        1.75776         4.67417        -1.30969
| 60>    C        3.44565         4.82716        -1.59955
| 61>    C        4.01292         3.59709        -1.84015
| 62>    C        3.05762         2.53903        -1.78710
| 63>    O        3.63679         1.34965        -2.04243
| 64>    C        4.95007         1.63325        -2.26790
| 65>    N        5.80718         0.56731        -2.61662
| 66>    O        6.96317         0.86503        -2.86183
| 67>    O        5.34409        -0.55255        -2.65371
| 68>    C        5.24680         2.96685        -2.15872
| 69>    H        6.56424         2.93503        -5.39220
| 70>    H        2.93154         1.08671        -5.19156
| 71>    H        2.36881         3.70390        -4.75894
| 72>    H        5.93739         5.56859        -4.98150
| 73>    H        2.96599         5.95009        -4.34969
| 74>    H        3.39887         8.21810        -3.97094
| 75>    H        6.23374         7.72661        -5.00829
| 76>    H        6.61141        10.02651        -4.83215
| 77>    H        6.08930        12.40925        -4.29427
| 78>    H        4.33393        13.88282        -3.11727
| 79>    H        2.13166        14.71167        -2.13587
| 80>    H       -0.15928        14.82036        -0.95509
| 81>    H       -2.10257        13.24234        -0.17381
| 82>    H       -0.18669         9.94623         0.16759
| 83>    H       -6.39805         8.00857         1.27111
| 84>    H       -6.61238         5.46363         1.49486
| 85>    H       -5.38220         3.28580         0.85802
| 86>    H       -3.75714         1.65341        -0.04942
| 87>    H       -1.58570         0.49145        -0.81884
| 88>    H        0.84674         1.02866        -1.46762
| 89>    H        3.90792         5.79175        -1.57810
| 90>    H        6.21237         3.40968        -2.28453
| 91> *
| 92>
| 93>                          ****END OF INPUT****

CARTESIAN COORDINATES (ANGSTROEM)
---------------------------------
  C      5.499490    2.917260   -5.268460
  O      4.890080    1.731920   -5.354290
  C      3.575320    1.943160   -5.156490
  C      3.324500    3.257810   -4.939200
  C      4.591270    3.922440   -5.008120
  C      4.898430    5.307890   -4.838000
  C      3.990900    6.259490   -4.505170
  C      4.243260    7.642540   -4.320450
  C      5.416900    8.297560   -4.587360
  C      5.670410    9.668610   -4.431520
  C      4.890870   10.649250   -3.848120
  C      5.194500   12.029430   -3.833000
  C      4.261140   12.814210   -3.211750
  C      3.182290   12.089960   -2.680920
  S      3.381810   10.384870   -2.999130
  C      2.046580   12.543270   -2.016650
  C      1.581460   13.848700   -1.806170
  C      0.360620   13.906280   -1.180520
  C     -0.182020   12.653540   -0.844220
  S      0.916690   11.388620   -1.355030
  C     -1.428400   12.404650   -0.282730
  C     -1.923750   11.167610    0.099130
  C     -3.250370   10.805000    0.400990
  C     -3.312040    9.418260    0.631560
  C     -1.948760    8.908230    0.613300
  O     -1.470410    7.832980    0.915120
  N     -1.192250    9.998950    0.213740
  C     -4.659410    9.083010    0.837440
  O     -5.395240   10.249490    0.812350
  C     -4.589100   11.336840    0.518780
  O     -5.029080   12.452020    0.415120
  C     -5.354850    7.899350    1.004950
  C     -4.891320    6.602790    0.803690
  C     -5.630470    5.427470    1.057020
  C     -4.980660    4.272770    0.715240
  C     -3.702880    4.499700    0.172130
  S     -3.353370    6.205210    0.103110
  C     -2.745120    3.573160   -0.229230
  C     -2.848580    2.170740   -0.299640
  C     -1.701210    1.555170   -0.709910
  C     -0.629340    2.444000   -0.966910
  S     -1.149670    4.097960   -0.706250
  C      0.646780    2.083180   -1.327430
  C      1.756470    2.923860   -1.494780
  S      1.757760    4.674170   -1.309690
  C      3.445650    4.827160   -1.599550
  C      4.012920    3.597090   -1.840150
  C      3.057620    2.539030   -1.787100
  O      3.636790    1.349650   -2.042430
  C      4.950070    1.633250   -2.267900
  N      5.807180    0.567310   -2.616620
  O      6.963170    0.865030   -2.861830
  O      5.344090   -0.552550   -2.653710
  C      5.246800    2.966850   -2.158720
  H      6.564240    2.935030   -5.392200
  H      2.931540    1.086710   -5.191560
  H      2.368810    3.703900   -4.758940
  H      5.937390    5.568590   -4.981500
  H      2.965990    5.950090   -4.349690
  H      3.398870    8.218100   -3.970940
  H      6.233740    7.726610   -5.008290
  H      6.611410   10.026510   -4.832150
  H      6.089300   12.409250   -4.294270
  H      4.333930   13.882820   -3.117270
  H      2.131660   14.711670   -2.135870
  H     -0.159280   14.820360   -0.955090
  H     -2.102570   13.242340   -0.173810
  H     -0.186690    9.946230    0.167590
  H     -6.398050    8.008570    1.271110
  H     -6.612380    5.463630    1.494860
  H     -5.382200    3.285800    0.858020
  H     -3.757140    1.653410   -0.049420
  H     -1.585700    0.491450   -0.818840
  H      0.846740    1.028660   -1.467620
  H      3.907920    5.791750   -1.578100
  H      6.212370    3.409680   -2.284530

 Total Charge           Charge          ....    0
 Multiplicity           Mult            ....    1
 Number of Electrons    NEL             ....  412
 Basis Dimension        Dim             ....  886

ORBITAL ENERGIES
----------------

  NO   OCC          E(Eh)            E(eV)
   0   2.0000     -88.980517     -2421.2830
   1   2.0000     -88.957313     -2420.6515
   2   2.0000     -88.956229     -2420.6221
   3   2.0000     -88.955066     -2420.5904
   4   2.0000     -88.946875     -2420.3675
   5   2.0000     -19.312128      -525.5097
   6   2.0000     -19.296455      -525.0832
   7   2.0000     -19.256071      -523.9843
   8   2.0000     -19.243836      -523.6514
   9   2.0000     -19.241886      -523.5983
  10   2.0000     -19.183625      -522.0130
  11   2.0000     -19.174881      -521.7751
  12   2.0000     -14.655089      -398.7852
  13   2.0000     -14.441906      -392.9842
  14   2.0000     -10.385989      -282.6171
  15   2.0000     -10.384465      -282.5757
  16   2.0000     -10.366573      -282.0888
  17   2.0000     -10.352342      -281.7015
  18   2.0000     -10.344430      -281.4863
  19   2.0000     -10.327348      -281.0214
  20   2.0000     -10.326582      -281.0006
  21   2.0000     -10.325831      -280.9801
  22   2.0000     -10.324248      -280.9371
  23   2.0000     -10.321961      -280.8749
  24   2.0000     -10.318166      -280.7716
  25   2.0000     -10.318061      -280.7687
  26   2.0000     -10.317377      -280.7501
  27   2.0000     -10.317023      -280.7405
  28   2.0000     -10.316890      -280.7369
  29   2.0000     -10.314350      -280.6677
  30   2.0000     -10.314154      -280.6624
  31   2.0000     -10.311693      -280.5954
  32   2.0000     -10.310305      -280.5576
  33   2.0000     -10.305278      -280.4209
  34   2.0000     -10.300309      -280.2857
  35   2.0000     -10.297051      -280.1970
  36   2.0000     -10.293941      -280.1124
  37   2.0000     -10.293684      -280.1054
  38   2.0000     -10.290986      -280.0320
  39   2.0000     -10.290476      -280.0181
  40   2.0000     -10.289465      -279.9906
  41   2.0000     -10.289153      -279.9821
  42   2.0000     -10.286489      -279.9096
  43   2.0000     -10.286127      -279.8997
  44   2.0000     -10.285947      -279.8949
  45   2.0000     -10.283601      -279.8310
  46   2.0000     -10.281324      -279.7690
  47   2.0000     -10.279715      -279.7253
  48   2.0000     -10.279388      -279.7164
  49   2.0000     -10.279058      -279.7074
  50   2.0000     -10.278079      -279.6807
  51   2.0000     -10.273045      -279.5438
  52   2.0000     -10.264429      -279.3093
  53   2.0000     -10.263366      -279.2804
  54   2.0000      -8.074793      -219.7263
  55   2.0000      -8.053386      -219.1438
  56   2.0000      -8.052746      -219.1264
  57   2.0000      -8.050950      -219.0775
  58   2.0000      -8.042608      -218.8505
  59   2.0000      -6.044194      -164.4709
  60   2.0000      -6.039731      -164.3494
  61   2.0000      -6.037154      -164.2793
  62   2.0000      -6.023092      -163.8967
  63   2.0000      -6.022418      -163.8783
  64   2.0000      -6.020580      -163.8283
  65   2.0000      -6.018913      -163.7829
  66   2.0000      -6.018291      -163.7660
  67   2.0000      -6.016489      -163.7170
  68   2.0000      -6.014461      -163.6618
  69   2.0000      -6.013827      -163.6446
  70   2.0000      -6.012181      -163.5998
  71   2.0000      -6.012070      -163.5967
  72   2.0000      -6.007854      -163.4820
  73   2.0000      -6.004029      -163.3779
  74   2.0000      -1.325833       -36.0777
  75   2.0000      -1.231522       -33.5114
  76   2.0000      -1.216137       -33.0928
  77   2.0000      -1.186009       -32.2730
  78   2.0000      -1.142405       -31.0864
  79   2.0000      -1.117443       -30.4072
  80   2.0000      -1.091110       -29.6906
  81   2.0000      -1.044838       -28.4315
  82   2.0000      -1.006502       -27.3883
  83   2.0000      -1.003152       -27.2971
  84   2.0000      -0.997520       -27.1439
  85   2.0000      -0.980177       -26.6720
  86   2.0000      -0.978857       -26.6361
  87   2.0000      -0.937836       -25.5198
  88   2.0000      -0.928433       -25.2640
  89   2.0000      -0.909067       -24.7370
  90   2.0000      -0.908210       -24.7137
  91   2.0000      -0.898381       -24.4462
  92   2.0000      -0.891649       -24.2630
  93   2.0000      -0.888368       -24.1737
  94   2.0000      -0.877186       -23.8694
  95   2.0000      -0.869860       -23.6701
  96   2.0000      -0.855809       -23.2877
  97   2.0000      -0.855268       -23.2730
  98   2.0000      -0.846150       -23.0249
  99   2.0000      -0.840598       -22.8738
 100   2.0000      -0.830192       -22.5907
 101   2.0000      -0.828565       -22.5464
 102   2.0000      -0.826748       -22.4970
 103   2.0000      -0.809843       -22.0369
 104   2.0000      -0.800708       -21.7884
 105   2.0000      -0.787141       -21.4192
 106   2.0000      -0.771871       -21.0037
 107   2.0000      -0.764152       -20.7936
 108   2.0000      -0.742917       -20.2158
 109   2.0000      -0.737282       -20.0625
 110   2.0000      -0.724362       -19.7109
 111   2.0000      -0.710258       -19.3271
 112   2.0000      -0.709164       -19.2973
 113   2.0000      -0.691791       -18.8246
 114   2.0000      -0.687541       -18.7089
 115   2.0000      -0.679395       -18.4873
 116   2.0000      -0.679005       -18.4767
 117   2.0000      -0.670590       -18.2477
 118   2.0000      -0.660418       -17.9709
 119   2.0000      -0.650986       -17.7142
 120   2.0000      -0.647721       -17.6254
 121   2.0000      -0.643709       -17.5162
 122   2.0000      -0.642937       -17.4952
 123   2.0000      -0.638870       -17.3845
 124   2.0000      -0.630052       -17.1446
 125   2.0000      -0.628902       -17.1133
 126   2.0000      -0.628567       -17.1042
 127   2.0000      -0.621082       -16.9005
 128   2.0000      -0.617866       -16.8130
 129   2.0000      -0.607072       -16.5193
 130   2.0000      -0.603900       -16.4329
 131   2.0000      -0.593144       -16.1403
 132   2.0000      -0.588003       -16.0004
 133   2.0000      -0.585792       -15.9402
 134   2.0000      -0.580010       -15.7829
 135   2.0000      -0.573730       -15.6120
 136   2.0000      -0.572903       -15.5895
 137   2.0000      -0.568220       -15.4620
 138   2.0000      -0.566569       -15.4171
 139   2.0000      -0.560739       -15.2585
 140   2.0000      -0.555276       -15.1098
 141   2.0000      -0.553921       -15.0729
 142   2.0000      -0.549109       -14.9420
 143   2.0000      -0.543290       -14.7837
 144   2.0000      -0.535661       -14.5761
 145   2.0000      -0.534588       -14.5469
 146   2.0000      -0.522747       -14.2247
 147   2.0000      -0.518980       -14.1222
 148   2.0000      -0.516307       -14.0494
 149   2.0000      -0.513271       -13.9668
 150   2.0000      -0.509707       -13.8698
 151   2.0000      -0.508081       -13.8256
 152   2.0000      -0.505466       -13.7544
 153   2.0000      -0.503145       -13.6913
 154   2.0000      -0.501241       -13.6394
 155   2.0000      -0.500174       -13.6104
 156   2.0000      -0.498298       -13.5594
 157   2.0000      -0.496274       -13.5043
 158   2.0000      -0.494039       -13.4435
 159   2.0000      -0.489093       -13.3089
 160   2.0000      -0.487882       -13.2759
 161   2.0000      -0.485761       -13.2182
 162   2.0000      -0.479198       -13.0396
 163   2.0000      -0.473596       -12.8872
 164   2.0000      -0.473009       -12.8712
 165   2.0000      -0.466323       -12.6893
 166   2.0000      -0.464022       -12.6267
 167   2.0000      -0.458714       -12.4822
 168   2.0000      -0.457677       -12.4540
 169   2.0000      -0.454958       -12.3800
 170   2.0000      -0.452424       -12.3111
 171   2.0000      -0.449041       -12.2190
 172   2.0000      -0.443699       -12.0737
 173   2.0000      -0.441313       -12.0087
 174   2.0000      -0.439293       -11.9538
 175   2.0000      -0.436883       -11.8882
 176   2.0000      -0.434575       -11.8254
 177   2.0000      -0.432084       -11.7576
 178   2.0000      -0.423969       -11.5368
 179   2.0000      -0.422361       -11.4930
 180   2.0000      -0.415274       -11.3002
 181   2.0000      -0.411332       -11.1929
 182   2.0000      -0.403177       -10.9710
 183   2.0000      -0.399131       -10.8609
 184   2.0000      -0.391990       -10.6666
 185   2.0000      -0.389669       -10.6034
 186   2.0000      -0.384106       -10.4521
 187   2.0000      -0.379155       -10.3173
 188   2.0000      -0.371729       -10.1153
 189   2.0000      -0.367996       -10.0137
 190   2.0000      -0.355752        -9.6805
 191   2.0000      -0.348223        -9.4756
 192   2.0000      -0.344723        -9.3804
 193   2.0000      -0.342282        -9.3140
 194   2.0000      -0.338587        -9.2134
 195   2.0000      -0.337824        -9.1927
 196   2.0000      -0.332650        -9.0519
 197   2.0000      -0.329225        -8.9587
 198   2.0000      -0.322767        -8.7829
 199   2.0000      -0.313617        -8.5340
 200   2.0000      -0.309250        -8.4151
 201   2.0000      -0.295024        -8.0280
 202   2.0000      -0.280526        -7.6335
 203   2.0000      -0.259005        -7.0479
 204   2.0000      -0.228466        -6.2169
 205   2.0000      -0.194736        -5.2990
 206   0.0000      -0.110949        -3.0191
 207   0.0000      -0.084963        -2.3120
 208   0.0000      -0.060950        -1.6585
 209   0.0000      -0.039099        -1.0640
 210   0.0000      -0.014016        -0.3814

MULLIKEN ATOMIC CHARGES
-----------------------
   0 C :    0.068957
   1 O :   -0.183649
   2 C :    0.136792
   3 C :   -0.040289
   4 C :    0.049339
   5 C :    0.021572
   6 C :    0.008773
   7 C :   -0.006697
   8 C :    0.013794
   9 C :    0.010437
  10 C :   -0.030626
  11 C :    0.035206
  12 C :    0.022783
  13 C :   -0.035043
  14 S :    0.065132
  15 C :   -0.042916
  16 C :    0.034636
  17 C :    0.026609
  18 C :   -0.021880
  19 S :    0.051313
  20 C :   -0.025538
  21 C :    0.058432
  22 C :   -0.085325
  23 C :   -0.072471
  24 C :    0.129783
  25 O :   -0.200323
  26 N :   -0.125011
  27 C :    0.144474
  28 O :   -0.257863
  29 C :    0.203142
  30 O :   -0.158714
  31 C :   -0.049106
  32 C :   -0.030245
  33 C :    0.031024
  34 C :    0.028545
  35 C :   -0.056518
  36 S :    0.171210
  37 C :   -0.023549
  38 C :    0.023860
  39 C :    0.041122
  40 C :   -0.035457
  41 S :    0.094917
  42 C :   -0.000974
  43 C :   -0.208206
  44 S :    0.147909
  45 C :   -0.121136
  46 C :    0.129325
  47 C :    0.207961
  48 O :   -0.189903
  49 C :    0.220036
  50 N :    0.274409
  51 O :   -0.255421
  52 O :   -0.233339
  53 C :   -0.035211
  54 H :    0.014360
  55 H :    0.019612
  56 H :   -0.005237
  57 H :   -0.022358
  58 H :   -0.016848
  59 H :   -0.001469
  60 H :   -0.016671
  61 H :   -0.014574
  62 H :   -0.010368
  63 H :   -0.010735
  64 H :   -0.010109
  65 H :   -0.003814
  66 H :    0.006363
  67 H :    0.131073
  68 H :   -0.002269
  69 H :   -0.011008
  70 H :   -0.013447
  71 H :   -0.009420
  72 H :   -0.004182
  73 H :    0.009246
  74 H :    0.039470
  75 H :    0.006301
Sum of atomic charges:   -0.0000000

LOEWDIN ATOMIC CHARGES
----------------------
   0 C :    0.037051
   1 O :    0.029255
   2 C :    0.034581
   3 C :   -0.065155
   4 C :   -0.076174
   5 C :   -0.006946
   6 C :   -0.036455
   7 C :   -0.038248
   8 C :   -0.035316
   9 C :   -0.051740
  10 C :   -0.149702
  11 C :   -0.027567
  12 C :   -0.042991
  13 C :   -0.175040
  14 S :    0.397074
  15 C :   -0.181609
  16 C :   -0.031485
  17 C :   -0.034247
  18 C :   -0.142319
  19 S :    0.387999
  20 C :   -0.063219
  21 C :    0.040931
  22 C :   -0.111715
  23 C :   -0.125539
  24 C :    0.053323
  25 O :   -0.215405
  26 N :    0.022412
  27 C :    0.081825
  28 O :   -0.060085
  29 C :    0.090030
  30 O :   -0.164118
  31 C :   -0.085531
  32 C :   -0.133087
  33 C :   -0.039121
  34 C :   -0.029923
  35 C :   -0.191255
  36 S :    0.482850
  37 C :   -0.155454
  38 C :   -0.041163
  39 C :   -0.018870
  40 C :   -0.163079
  41 S :    0.393650
  42 C :   -0.049117
  43 C :   -0.213041
  44 S :    0.474663
  45 C :   -0.167721
  46 C :   -0.082441
  47 C :    0.029033
  48 O :    0.004672
  49 C :    0.016155
  50 N :    0.275457
  51 O :   -0.216335
  52 O :   -0.194361
  53 C :    0.003140
  54 H :    0.024481
  55 H :    0.025821
  56 H :    0.029898
  57 H :    0.026376
  58 H :    0.026162
  59 H :    0.011151
  60 H :    0.027316
  61 H :    0.035132
  62 H :    0.033989
  63 H :    0.033055
  64 H :    0.034018
  65 H :    0.036997
  66 H :    0.050314
  67 H :    0.062052
  68 H :    0.045142
  69 H :    0.033828
  70 H :    0.031491
  71 H :    0.034128
  72 H :    0.036376
  73 H :    0.047866
  74 H :    0.031742
  75 H :    0.044135

  Mayer bond orders larger than 0.100000
B(  0-C ,  1-O ) :   1.1660 B(  0-C ,  4-C ) :   1.4467 B(  0-C , 54-H ) :   1.0115
B(  1-O ,  2-C ) :   1.1247 B(  2-C ,  3-C ) :   1.5826 B(  2-C , 55-H ) :   1.0038
B(  3-C ,  4-C ) :   1.2010 B(  3-C , 56-H ) :   1.0083 B(  4-C ,  5-C ) :   1.1181
B(  5-C ,  6-C ) :   1.6695 B(  5-C , 57-H ) :   0.9686 B(  6-C ,  7-C ) :   1.1891
B(  6-C , 58-H ) :   0.9636 B(  7-C ,  8-C ) :   1.5816 B(  7-C , 59-H ) :   0.9505
B(  8-C ,  9-C ) :   1.2517 B(  8-C , 60-H ) :   0.9603 B(  9-C , 10-C ) :   1.5144
B(  9-C , 61-H ) :   0.9592 B( 10-C , 11-C ) :   1.1869 B( 10-C , 14-S ) :   1.0454
B( 11-C , 12-C ) :   1.5370 B( 11-C , 62-H ) :   0.9982 B( 12-C , 13-C ) :   1.2338
B( 12-C , 63-H ) :   0.9960 B( 13-C , 14-S ) :   1.0579 B( 13-C , 15-C ) :   1.4216
B( 15-C , 16-C ) :   1.2472 B( 15-C , 19-S ) :   1.0575 B( 16-C , 17-C ) :   1.5141
B( 16-C , 64-H ) :   0.9951 B( 17-C , 18-C ) :   1.2131 B( 17-C , 65-H ) :   1.0008
B( 18-C , 19-S ) :   1.0410 B( 18-C , 20-C ) :   1.4260 B( 20-C , 21-C ) :   1.3035
B( 20-C , 66-H ) :   0.9579 B( 21-C , 22-C ) :   1.2614 B( 21-C , 26-N ) :   1.1677
B( 22-C , 23-C ) :   1.2792 B( 22-C , 29-C ) :   0.9902 B( 23-C , 24-C ) :   0.9572
B( 23-C , 27-C ) :   1.2522 B( 24-C , 25-O ) :   2.1258 B( 24-C , 26-N ) :   1.0928
B( 26-N , 67-H ) :   0.9021 B( 27-C , 28-O ) :   1.0928 B( 27-C , 31-C ) :   1.3583
B( 28-O , 29-C ) :   1.0303 B( 29-C , 30-O ) :   2.2252 B( 31-C , 32-C ) :   1.3806
B( 31-C , 68-H ) :   0.9525 B( 32-C , 33-C ) :   1.2054 B( 32-C , 36-S ) :   1.1213
B( 33-C , 34-C ) :   1.5288 B( 33-C , 69-H ) :   0.9991 B( 34-C , 35-C ) :   1.2269
B( 34-C , 70-H ) :   0.9943 B( 35-C , 36-S ) :   1.0858 B( 35-C , 37-C ) :   1.4248
B( 37-C , 38-C ) :   1.2192 B( 37-C , 41-S ) :   1.0765 B( 38-C , 39-C ) :   1.5544
B( 38-C , 71-H ) :   0.9946 B( 39-C , 40-C ) :   1.1628 B( 39-C , 72-H ) :   1.0015
B( 40-C , 41-S ) :   1.0362 B( 40-C , 42-C ) :   1.5292 B( 42-C , 43-C ) :   1.2019
B( 42-C , 73-H ) :   0.9742 B( 43-C , 44-S ) :   1.0925 B( 43-C , 45-C ) :   0.1003
B( 43-C , 47-C ) :   1.4181 B( 44-S , 45-C ) :   1.1885 B( 45-C , 46-C ) :   1.4209
B( 45-C , 74-H ) :   0.9656 B( 46-C , 47-C ) :   1.2351 B( 46-C , 53-C ) :   1.0494
B( 47-C , 48-O ) :   1.1292 B( 48-O , 49-C ) :   1.1021 B( 49-C , 50-N ) :   0.9224
B( 49-C , 53-C ) :   1.5712 B( 50-N , 51-O ) :   1.5306 B( 50-N , 52-O ) :   1.5140
B( 51-O , 52-O ) :   0.2731 B( 53-C , 75-H ) :   1.0291

-----------------------------------------------------------------------------
         ABSORPTION SPECTRUM VIA TRANSITION ELECTRIC DIPOLE MOMENTS
-----------------------------------------------------------------------------
State   Energy  Wavelength   fosc         T2         TX        TY        TZ
        (cm-1)    (nm)                  (au**2)     (au)      (au)      (au)
-----------------------------------------------------------------------------
   0    5572.9   1794.4   0.194708374  11.50221   2.04489   2.33255  -1.37107
   1    9752.2   1025.4   0.013507897   0.45599  -0.54556   0.31601   0.24186
   2   14618.5    684.1   1.784520791  40.18779  -4.44162   3.86083   2.35666
   3   16271.0    614.6   0.152641725   3.08840   1.10658  -0.96422  -0.96653
   4   17837.5    560.6   0.095111043   1.75539   1.19400   0.57373  -0.02429
   5   18363.9    544.5   0.250092461   4.48343   0.38690   2.07407  -0.17887
   6   20865.2    479.3   0.557350398   8.79391  -2.00716  -2.16667   0.26600
   7   22295.1    448.5   0.099133027   1.46381  -1.16843  -0.25632   0.18132
   8   22435.5    445.7   0.061620480   0.90420  -0.80272  -0.50456  -0.07257
   9   23482.8    425.8   0.291239532   4.08296  -1.69989  -1.03755   0.34180
  10   24050.3    415.8   0.024958926   0.34165  -0.28776  -0.50859   0.01320
  11   25869.3    386.6   0.122961876   1.56481   0.31158  -1.20617  -0.11351
  12   26778.5    373.4   0.107348000   1.31972  -0.49986  -1.03088   0.08454
  13   27495.0    363.7   0.022847593   0.27357  -0.16967   0.47979  -0.12075
  14   28179.6    354.9   0.015343479   0.17925   0.09383   0.15791   0.38146
  15   29061.9    344.1   0.029825518   0.33786   0.32323  -0.46216   0.14070
  16   29681.2    336.9   0.070280637   0.77953   0.65801   0.53229  -0.25143
  17   29787.6    335.7   0.026136378   0.28886   0.13755  -0.48522  -0.18574
  18   30104.1    332.2   0.058663178   0.64153   0.13980   0.78264  -0.09722
  19   30641.3    326.4   0.094196367   1.01205  -0.07852  -1.00285  -0.01297
  20   30878.1    323.9   0.032337249   0.34477  -0.44829   0.36773   0.09264
  21   31242.0    320.1   0.013671222   0.14406   0.13387   0.34913  -0.06518
  22   31586.5    316.6   0.006039432   0.06295  -0.10063   0.21650   0.07712
  23   31865.3    313.8   0.004841470   0.05002  -0.01273   0.18624  -0.12317
  24   32160.3    310.9   0.094236918   0.96467   0.95602   0.12893  -0.18457
  25   32353.4    309.1   0.046371364   0.47185   0.09704   0.65560  -0.18062
  26   32747.5    305.4   0.139603934   1.40344  -0.32002  -1.14059  -0.00928
  27   32969.9    303.3   0.006616815   0.06607  -0.11337  -0.22778   0.03655
  28   33033.8    302.7   0.009056762   0.09026   0.18676  -0.23474   0.01654
  29   33147.5    301.7   0.047529616   0.47205  -0.41291  -0.53324   0.13118
  30   33822.6    295.7   0.049112066   0.47803   0.60167   0.17683  -0.29113
  31   34166.8    292.7   0.032309509   0.31132   0.52609  -0.12492  -0.13762
  32   34542.1    289.5   0.024990731   0.23818   0.27451   0.40062  -0.04823
  33   34850.0    286.9   0.032067138   0.30292   0.07563  -0.52756  -0.13741
  34   35552.1    281.3   0.040114511   0.37146   0.28607   0.53665  -0.04044
  35   35778.9    279.5   0.129096947   1.18786  -0.84036   0.64159   0.26460
  36   36401.2    274.7   0.111160422   1.00533   0.45774  -0.87980  -0.14753
  37   36625.8    273.0   0.094886704   0.85289   0.10101  -0.89562  -0.20137
  38   36953.0    270.6   0.010560994   0.09409   0.14502   0.26254   0.06426
  39   37260.0    268.4   0.039116287   0.34561   0.18203  -0.52888  -0.18100
  40   37624.5    265.8   0.002260442   0.01978  -0.08894   0.05401  -0.09461
  41   38364.5    260.7   0.030135621   0.25860  -0.06457  -0.50294   0.03846
  42   38453.3    260.1   0.009388699   0.08038   0.27717  -0.05041   0.03184
  43   38620.1    258.9   0.021697246   0.18496  -0.29601   0.30442   0.06827
  44   38743.3    258.1   0.081573681   0.69315  -0.55977   0.56650   0.24268
  45   38808.9    257.7   0.005279711   0.04479   0.17361   0.07090  -0.09808
  46   39237.8    254.9   0.019904610   0.16700   0.37139   0.04639  -0.16407
  47   39653.0    252.2   0.013751463   0.11417  -0.23747   0.22759   0.07733
  48   39789.2    251.3   0.034526967   0.28567   0.49528  -0.19257  -0.05734
  49   40007.2    250.0   0.007104808   0.05846  -0.10518  -0.21649   0.02306

FINAL SINGLE POINT ENERGY     -4160.979733261835

DIPOLE MOMENT
-------------
                                X             Y             Z
Electronic contribution:    -13.67854      -4.53322      13.94849
Nuclear contribution   :     14.95562       4.52493     -14.83145
                        -----------------------------------------
Total Dipole Moment    :      1.27709      -0.00828      -0.88296
                        -----------------------------------------
Magnitude (a.u.)       :      1.55262
Magnitude (Debye)      :      3.94645

Rotational constants in cm-1:     0.001582     0.000969     0.000624
Rotational constants in MHz :    47.428656    29.043429    18.704930

                             ****ORCA TERMINATED NORMALLY****
TOTAL RUN TIME: 0 days 0 hours 6 minutes 44 seconds 361 msec
