                         Program Version 4.2.0 -  RELEASE  -
|  1> # ORCA input file
|  2> # SCF done       -161.995186529617          0.000827295801
|  3> ! CAM-B3LYP def2-SVP def2/J RIJCOSX Grid4 TightSCF
|  4> %maxcore 5000
|  5> %tddft
|  6>     Mode sTDDFT
|  7>     Ethresh 5.0
|  8>     maxcore 5000
|  9> end
| 10>
| 11> %pal
| 12>   nprocs 6
| 13>   end
| 14> * xyz 0 1
| 15>    C        7.56866         0.36371         9.97104
| 16>    O        7.41664         0.26953        11.30242
| 17>    C        8.12873         1.27225        11.84729
| 18>    C        8.73719         2.01295        10.88800
| 19>    C        8.37622         1.42295         9.63673
| 20>    C        8.75399         1.81689         8.30746
| 21>    C        9.55206         2.85784         8.00376
| 22>    C        9.91450         3.21167         6.66883
| 23>    C       10.74048         4.24015         6.38079
| 24>    C       11.19130         4.67932         5.09652
| 25>    C       10.73261         4.36795         3.81476
| 26>    C        9.51579         3.57916         3.48302
| 27>    C       11.52155         5.04181         2.82309
| 28>    C       12.44092         5.80789         3.50062
| 29>    C       12.26825         5.60728         4.93937
| 30>    C       13.08432         6.29170         5.79252
| 31>    C       14.03098         7.18198         5.23323
| 32>    C       14.12919         7.30654         3.88030
| 33>    O       13.38941         6.62948         3.01189
| 34>    C       11.37289         4.95549         1.38083
| 35>    C       11.40151         6.01232         0.48498
| 36>    C       11.51519         7.45662         0.81773
| 37>    C       11.24443         5.52395        -0.85684
| 38>    C       11.09236         4.16475        -0.77743
| 39>    C       11.20143         3.75942         0.62885
| 40>    C       11.19931         2.42103         0.90934
| 41>    C       11.01948         1.51871        -0.16116
| 42>    C       10.88570         1.98648        -1.43580
| 43>    O       10.93480         3.26976        -1.76446
| 44>    C       11.25373         6.33504        -2.07307
| 45>    C       12.35955         6.97490        -2.51832
| 46>    O       12.36394         7.76059        -3.66845
| 47>    C       11.18119         7.78303        -4.33975
| 48>    C       10.02612         7.07876        -3.88057
| 49>    C        8.95603         7.23338        -4.69741
| 50>    S        9.33478         8.24230        -6.04559
| 51>    C       10.95803         8.45463        -5.49503
| 52>    O       10.03463         6.34828        -2.73132
| 53>    C       13.63939         6.83028        -1.88103
| 54>    C       14.78809         7.32037        -2.38190
| 55>    C       16.10241         7.10383        -1.82075
| 56>    C       16.30713         6.74046        -0.51198
| 57>    C       17.61139         6.48025        -0.03768
| 58>    C       18.07548         6.09880         1.21067
| 59>    C       17.25512         6.00330         2.45702
| 60>    C       17.25077         4.60084         3.10642
| 61>    N       18.37720         4.36953         4.00096
| 62>    C       17.67570         7.09618         3.45286
| 63>    N       17.66110         8.39105         2.79712
| 64>    C       19.49876         5.90990         1.08787
| 65>    C       20.41689         5.47701         1.97174
| 66>    C       21.85172         5.32498         1.59391
| 67>    C       22.17286         5.71408         0.18871
| 68>    C       21.24011         6.13540        -0.68403
| 69>    C       19.88342         6.23500        -0.29118
| 70>    C       18.73108         6.57676        -0.96683
| 71>    C       18.49446         6.98484        -2.30065
| 72>    C       17.22777         7.25484        -2.69990
| 73>    C       22.25100         3.90117         1.92535
| 74>    C       22.49158         2.96191         1.03173
| 75>    H        7.06566        -0.36297         9.36402
| 76>    H        8.12208         1.35196        12.91653
| 77>    H        9.36188         2.86798        11.04232
| 78>    H        8.35015         1.20503         7.51063
| 79>    H        9.95621         3.47151         8.79790
| 80>    H        9.50985         2.59074         5.88558
| 81>    H       11.14717         4.79997         7.21572
| 82>    H        8.70241         3.85758         4.15213
| 83>    H        9.68837         2.50861         3.59669
| 84>    H        9.21301         3.77014         2.45624
| 85>    H       13.01981         6.18424         6.86452
| 86>    H       14.67362         7.76697         5.86929
| 87>    H       14.81970         7.97966         3.39475
| 88>    H       11.08892         7.65381         1.79947
| 89>    H       10.99654         8.05597         0.07258
| 90>    H       12.55934         7.77067         0.82977
| 91>    H       11.33845         2.04999         1.91223
| 92>    H       10.99043         0.45744         0.01780
| 93>    H       10.74040         1.34551        -2.29277
| 94>    H        7.97627         6.81858        -4.58658
| 95>    H       11.64425         9.05867        -6.05039
| 96>    H       13.63456         6.22843        -0.98586
| 97>    H       14.74922         7.87007        -3.31299
| 98>    H       15.46581         6.64883         0.16037
| 99>    H       16.21742         6.20272         2.16576
|100>    H       17.30212         3.85776         2.30648
|101>    H       16.28428         4.46865         3.62384
|102>    H       18.24725         4.88113         4.86770
|103>    H       18.43440         3.38386         4.23266
|104>    H       18.70201         6.91896         3.77987
|105>    H       17.01221         7.04469         4.33786
|106>    H       16.77835         8.55572         2.32665
|107>    H       17.81842         9.13802         3.46328
|108>    H       20.12906         5.16879         2.96745
|109>    H       22.43634         5.97290         2.26792
|110>    H       23.21265         5.63838        -0.09472
|111>    H       21.51417         6.40776        -1.69410
|112>    H       19.32571         7.07876        -2.98474
|113>    H       17.03130         7.56772        -3.71572
|114>    H       22.29326         3.67951         2.98385
|115>    H       22.43897         3.15544        -0.02647
|116>    H       22.75203         1.95870         1.32517
|117> *
|118>
|119>                          ****END OF INPUT****

CARTESIAN COORDINATES (ANGSTROEM)
---------------------------------
  C      7.568660    0.363710    9.971040
  O      7.416640    0.269530   11.302420
  C      8.128730    1.272250   11.847290
  C      8.737190    2.012950   10.888000
  C      8.376220    1.422950    9.636730
  C      8.753990    1.816890    8.307460
  C      9.552060    2.857840    8.003760
  C      9.914500    3.211670    6.668830
  C     10.740480    4.240150    6.380790
  C     11.191300    4.679320    5.096520
  C     10.732610    4.367950    3.814760
  C      9.515790    3.579160    3.483020
  C     11.521550    5.041810    2.823090
  C     12.440920    5.807890    3.500620
  C     12.268250    5.607280    4.939370
  C     13.084320    6.291700    5.792520
  C     14.030980    7.181980    5.233230
  C     14.129190    7.306540    3.880300
  O     13.389410    6.629480    3.011890
  C     11.372890    4.955490    1.380830
  C     11.401510    6.012320    0.484980
  C     11.515190    7.456620    0.817730
  C     11.244430    5.523950   -0.856840
  C     11.092360    4.164750   -0.777430
  C     11.201430    3.759420    0.628850
  C     11.199310    2.421030    0.909340
  C     11.019480    1.518710   -0.161160
  C     10.885700    1.986480   -1.435800
  O     10.934800    3.269760   -1.764460
  C     11.253730    6.335040   -2.073070
  C     12.359550    6.974900   -2.518320
  O     12.363940    7.760590   -3.668450
  C     11.181190    7.783030   -4.339750
  C     10.026120    7.078760   -3.880570
  C      8.956030    7.233380   -4.697410
  S      9.334780    8.242300   -6.045590
  C     10.958030    8.454630   -5.495030
  O     10.034630    6.348280   -2.731320
  C     13.639390    6.830280   -1.881030
  C     14.788090    7.320370   -2.381900
  C     16.102410    7.103830   -1.820750
  C     16.307130    6.740460   -0.511980
  C     17.611390    6.480250   -0.037680
  C     18.075480    6.098800    1.210670
  C     17.255120    6.003300    2.457020
  C     17.250770    4.600840    3.106420
  N     18.377200    4.369530    4.000960
  C     17.675700    7.096180    3.452860
  N     17.661100    8.391050    2.797120
  C     19.498760    5.909900    1.087870
  C     20.416890    5.477010    1.971740
  C     21.851720    5.324980    1.593910
  C     22.172860    5.714080    0.188710
  C     21.240110    6.135400   -0.684030
  C     19.883420    6.235000   -0.291180
  C     18.731080    6.576760   -0.966830
  C     18.494460    6.984840   -2.300650
  C     17.227770    7.254840   -2.699900
  C     22.251000    3.901170    1.925350
  C     22.491580    2.961910    1.031730
  H      7.065660   -0.362970    9.364020
  H      8.122080    1.351960   12.916530
  H      9.361880    2.867980   11.042320
  H      8.350150    1.205030    7.510630
  H      9.956210    3.471510    8.797900
  H      9.509850    2.590740    5.885580
  H     11.147170    4.799970    7.215720
  H      8.702410    3.857580    4.152130
  H      9.688370    2.508610    3.596690
  H      9.213010    3.770140    2.456240
  H     13.019810    6.184240    6.864520
  H     14.673620    7.766970    5.869290
  H     14.819700    7.979660    3.394750
  H     11.088920    7.653810    1.799470
  H     10.996540    8.055970    0.072580
  H     12.559340    7.770670    0.829770
  H     11.338450    2.049990    1.912230
  H     10.990430    0.457440    0.017800
  H     10.740400    1.345510   -2.292770
  H      7.976270    6.818580   -4.586580
  H     11.644250    9.058670   -6.050390
  H     13.634560    6.228430   -0.985860
  H     14.749220    7.870070   -3.312990
  H     15.465810    6.648830    0.160370
  H     16.217420    6.202720    2.165760
  H     17.302120    3.857760    2.306480
  H     16.284280    4.468650    3.623840
  H     18.247250    4.881130    4.867700
  H     18.434400    3.383860    4.232660
  H     18.702010    6.918960    3.779870
  H     17.012210    7.044690    4.337860
  H     16.778350    8.555720    2.326650
  H     17.818420    9.138020    3.463280
  H     20.129060    5.168790    2.967450
  H     22.436340    5.972900    2.267920
  H     23.212650    5.638380   -0.094720
  H     21.514170    6.407760   -1.694100
  H     19.325710    7.078760   -2.984740
  H     17.031300    7.567720   -3.715720
  H     22.293260    3.679510    2.983850
  H     22.438970    3.155440   -0.026470
  H     22.752030    1.958700    1.325170

 Total Charge           Charge          ....    0
 Multiplicity           Mult            ....    1
 Number of Electrons    NEL             ....  424
 Basis Dimension        Dim             .... 1054

ORBITAL ENERGIES
----------------

  NO   OCC          E(Eh)            E(eV)
   0   2.0000     -88.940932     -2420.2058
   1   2.0000     -19.309492      -525.4380
   2   2.0000     -19.307302      -525.3784
   3   2.0000     -19.273917      -524.4699
   4   2.0000     -19.253008      -523.9010
   5   2.0000     -19.250891      -523.8434
   6   2.0000     -14.388501      -391.5310
   7   2.0000     -14.376114      -391.1939
   8   2.0000     -10.353632      -281.7367
   9   2.0000     -10.350765      -281.6586
  10   2.0000     -10.326429      -280.9964
  11   2.0000     -10.322982      -280.9026
  12   2.0000     -10.322923      -280.9010
  13   2.0000     -10.321986      -280.8755
  14   2.0000     -10.320966      -280.8478
  15   2.0000     -10.317013      -280.7402
  16   2.0000     -10.306779      -280.4617
  17   2.0000     -10.303406      -280.3699
  18   2.0000     -10.299510      -280.2639
  19   2.0000     -10.296789      -280.1899
  20   2.0000     -10.285806      -279.8910
  21   2.0000     -10.282414      -279.7987
  22   2.0000     -10.282220      -279.7934
  23   2.0000     -10.279777      -279.7269
  24   2.0000     -10.277317      -279.6600
  25   2.0000     -10.276571      -279.6397
  26   2.0000     -10.275443      -279.6090
  27   2.0000     -10.273311      -279.5510
  28   2.0000     -10.273238      -279.5490
  29   2.0000     -10.270393      -279.4716
  30   2.0000     -10.268139      -279.4103
  31   2.0000     -10.266931      -279.3774
  32   2.0000     -10.264602      -279.3140
  33   2.0000     -10.260265      -279.1960
  34   2.0000     -10.259489      -279.1749
  35   2.0000     -10.258944      -279.1600
  36   2.0000     -10.256967      -279.1063
  37   2.0000     -10.255714      -279.0722
  38   2.0000     -10.255136      -279.0564
  39   2.0000     -10.254476      -279.0385
  40   2.0000     -10.254424      -279.0371
  41   2.0000     -10.253374      -279.0085
  42   2.0000     -10.252755      -278.9917
  43   2.0000     -10.252563      -278.9864
  44   2.0000     -10.250979      -278.9433
  45   2.0000     -10.250419      -278.9281
  46   2.0000     -10.249802      -278.9113
  47   2.0000     -10.249039      -278.8905
  48   2.0000     -10.248970      -278.8887
  49   2.0000     -10.248340      -278.8715
  50   2.0000     -10.247958      -278.8611
  51   2.0000     -10.246581      -278.8236
  52   2.0000     -10.246402      -278.8188
  53   2.0000     -10.245506      -278.7944
  54   2.0000     -10.245441      -278.7926
  55   2.0000     -10.245313      -278.7891
  56   2.0000     -10.240261      -278.6517
  57   2.0000     -10.239122      -278.6207
  58   2.0000     -10.238649      -278.6078
  59   2.0000     -10.236573      -278.5513
  60   2.0000      -8.036745      -218.6910
  61   2.0000      -6.006289      -163.4394
  62   2.0000      -6.002143      -163.3266
  63   2.0000      -5.998350      -163.2234
  64   2.0000      -1.216995       -33.1161
  65   2.0000      -1.216352       -33.0986
  66   2.0000      -1.192120       -32.4392
  67   2.0000      -1.176673       -32.0189
  68   2.0000      -1.139864       -31.0173
  69   2.0000      -0.973600       -26.4930
  70   2.0000      -0.972621       -26.4664
  71   2.0000      -0.966847       -26.3093
  72   2.0000      -0.956586       -26.0300
  73   2.0000      -0.956172       -26.0188
  74   2.0000      -0.950907       -25.8755
  75   2.0000      -0.922916       -25.1138
  76   2.0000      -0.915307       -24.9068
  77   2.0000      -0.914214       -24.8770
  78   2.0000      -0.903491       -24.5852
  79   2.0000      -0.897651       -24.4263
  80   2.0000      -0.880368       -23.9560
  81   2.0000      -0.875447       -23.8221
  82   2.0000      -0.856516       -23.3070
  83   2.0000      -0.852866       -23.2077
  84   2.0000      -0.851170       -23.1615
  85   2.0000      -0.845987       -23.0205
  86   2.0000      -0.833049       -22.6684
  87   2.0000      -0.827343       -22.5131
  88   2.0000      -0.820945       -22.3390
  89   2.0000      -0.818049       -22.2603
  90   2.0000      -0.813746       -22.1431
  91   2.0000      -0.801516       -21.8104
  92   2.0000      -0.798703       -21.7338
  93   2.0000      -0.793015       -21.5790
  94   2.0000      -0.788632       -21.4598
  95   2.0000      -0.786999       -21.4153
  96   2.0000      -0.775905       -21.1135
  97   2.0000      -0.764603       -20.8059
  98   2.0000      -0.738302       -20.0902
  99   2.0000      -0.730086       -19.8666
 100   2.0000      -0.728356       -19.8196
 101   2.0000      -0.725669       -19.7464
 102   2.0000      -0.722654       -19.6644
 103   2.0000      -0.709297       -19.3009
 104   2.0000      -0.693800       -18.8793
 105   2.0000      -0.688350       -18.7310
 106   2.0000      -0.679866       -18.5001
 107   2.0000      -0.674445       -18.3526
 108   2.0000      -0.668972       -18.2037
 109   2.0000      -0.660225       -17.9656
 110   2.0000      -0.654030       -17.7971
 111   2.0000      -0.647314       -17.6143
 112   2.0000      -0.642387       -17.4802
 113   2.0000      -0.641729       -17.4623
 114   2.0000      -0.639645       -17.4056
 115   2.0000      -0.634601       -17.2684
 116   2.0000      -0.632685       -17.2162
 117   2.0000      -0.620460       -16.8836
 118   2.0000      -0.615804       -16.7569
 119   2.0000      -0.611154       -16.6303
 120   2.0000      -0.600459       -16.3393
 121   2.0000      -0.598341       -16.2817
 122   2.0000      -0.595287       -16.1986
 123   2.0000      -0.579881       -15.7794
 124   2.0000      -0.578796       -15.7498
 125   2.0000      -0.574526       -15.6337
 126   2.0000      -0.572179       -15.5698
 127   2.0000      -0.566139       -15.4054
 128   2.0000      -0.563062       -15.3217
 129   2.0000      -0.560941       -15.2640
 130   2.0000      -0.558581       -15.1998
 131   2.0000      -0.554356       -15.0848
 132   2.0000      -0.553061       -15.0496
 133   2.0000      -0.549861       -14.9625
 134   2.0000      -0.547730       -14.9045
 135   2.0000      -0.542657       -14.7664
 136   2.0000      -0.539638       -14.6843
 137   2.0000      -0.537868       -14.6361
 138   2.0000      -0.533721       -14.5233
 139   2.0000      -0.531754       -14.4698
 140   2.0000      -0.531125       -14.4527
 141   2.0000      -0.528552       -14.3826
 142   2.0000      -0.521372       -14.1872
 143   2.0000      -0.518496       -14.1090
 144   2.0000      -0.515199       -14.0193
 145   2.0000      -0.513184       -13.9644
 146   2.0000      -0.505086       -13.7441
 147   2.0000      -0.501802       -13.6547
 148   2.0000      -0.499130       -13.5820
 149   2.0000      -0.496394       -13.5076
 150   2.0000      -0.493296       -13.4233
 151   2.0000      -0.492148       -13.3920
 152   2.0000      -0.490774       -13.3546
 153   2.0000      -0.488754       -13.2997
 154   2.0000      -0.487748       -13.2723
 155   2.0000      -0.484957       -13.1963
 156   2.0000      -0.483056       -13.1446
 157   2.0000      -0.481704       -13.1078
 158   2.0000      -0.478569       -13.0225
 159   2.0000      -0.473876       -12.8948
 160   2.0000      -0.473523       -12.8852
 161   2.0000      -0.472305       -12.8521
 162   2.0000      -0.468331       -12.7439
 163   2.0000      -0.463350       -12.6084
 164   2.0000      -0.461063       -12.5462
 165   2.0000      -0.458641       -12.4803
 166   2.0000      -0.456828       -12.4309
 167   2.0000      -0.455130       -12.3847
 168   2.0000      -0.447018       -12.1640
 169   2.0000      -0.443524       -12.0689
 170   2.0000      -0.440596       -11.9892
 171   2.0000      -0.438562       -11.9339
 172   2.0000      -0.436467       -11.8769
 173   2.0000      -0.434828       -11.8323
 174   2.0000      -0.432285       -11.7631
 175   2.0000      -0.427125       -11.6227
 176   2.0000      -0.424221       -11.5436
 177   2.0000      -0.422973       -11.5097
 178   2.0000      -0.419423       -11.4131
 179   2.0000      -0.416377       -11.3302
 180   2.0000      -0.415405       -11.3037
 181   2.0000      -0.414239       -11.2720
 182   2.0000      -0.411208       -11.1895
 183   2.0000      -0.406476       -11.0608
 184   2.0000      -0.405935       -11.0461
 185   2.0000      -0.400194       -10.8898
 186   2.0000      -0.399044       -10.8585
 187   2.0000      -0.397793       -10.8245
 188   2.0000      -0.395956       -10.7745
 189   2.0000      -0.392413       -10.6781
 190   2.0000      -0.390389       -10.6230
 191   2.0000      -0.388833       -10.5807
 192   2.0000      -0.374543       -10.1918
 193   2.0000      -0.369294       -10.0490
 194   2.0000      -0.358943        -9.7673
 195   2.0000      -0.358108        -9.7446
 196   2.0000      -0.347494        -9.4558
 197   2.0000      -0.328319        -8.9340
 198   2.0000      -0.317876        -8.6498
 199   2.0000      -0.309963        -8.4345
 200   2.0000      -0.308190        -8.3863
 201   2.0000      -0.301859        -8.2140
 202   2.0000      -0.295853        -8.0506
 203   2.0000      -0.292014        -7.9461
 204   2.0000      -0.288727        -7.8567
 205   2.0000      -0.282517        -7.6877
 206   2.0000      -0.276023        -7.5110
 207   2.0000      -0.269834        -7.3425
 208   2.0000      -0.249493        -6.7891
 209   2.0000      -0.231438        -6.2977
 210   2.0000      -0.212934        -5.7942
 211   2.0000      -0.198675        -5.4062
 212   0.0000      -0.046448        -1.2639
 213   0.0000      -0.038330        -1.0430
 214   0.0000      -0.032886        -0.8949
 215   0.0000       0.001218         0.0332
 216   0.0000       0.012434         0.3384

MULLIKEN ATOMIC CHARGES
-----------------------
   0 C :    0.062623
   1 O :   -0.186583
   2 C :    0.133944
   3 C :   -0.052748
   4 C :    0.056958
   5 C :    0.011820
   6 C :    0.016579
   7 C :   -0.005949
   8 C :   -0.017620
   9 C :    0.054081
  10 C :   -0.183849
  11 C :    0.110084
  12 C :   -0.019489
  13 C :    0.051042
  14 C :    0.033537
  15 C :    0.010749
  16 C :   -0.047010
  17 C :    0.191876
  18 O :   -0.165087
  19 C :    0.019517
  20 C :   -0.160689
  21 C :    0.142413
  22 C :   -0.117800
  23 C :    0.118296
  24 C :    0.001079
  25 C :    0.021417
  26 C :   -0.051744
  27 C :    0.177139
  28 O :   -0.136984
  29 C :    0.074217
  30 C :    0.175466
  31 O :   -0.267287
  32 C :    0.222512
  33 C :    0.227666
  34 C :   -0.181533
  35 S :    0.092936
  36 C :   -0.181825
  37 O :   -0.246259
  38 C :   -0.048837
  39 C :   -0.006135
  40 C :    0.113225
  41 C :   -0.107577
  42 C :    0.057193
  43 C :    0.012958
  44 C :   -0.056070
  45 C :    0.128321
  46 N :   -0.211991
  47 C :    0.115669
  48 N :   -0.202953
  49 C :    0.070880
  50 C :   -0.105741
  51 C :    0.168414
  52 C :   -0.072689
  53 C :    0.017257
  54 C :    0.008440
  55 C :    0.033767
  56 C :   -0.008517
  57 C :   -0.010670
  58 C :   -0.083722
  59 C :   -0.000269
  60 H :   -0.002706
  61 H :    0.005365
  62 H :   -0.016936
  63 H :   -0.033728
  64 H :   -0.030340
  65 H :   -0.039995
  66 H :   -0.045159
  67 H :    0.031190
  68 H :    0.025085
  69 H :    0.024912
  70 H :   -0.009727
  71 H :    0.005349
  72 H :   -0.003062
  73 H :    0.014521
  74 H :    0.018894
  75 H :    0.022740
  76 H :   -0.008458
  77 H :    0.006575
  78 H :    0.027805
  79 H :    0.018518
  80 H :    0.019213
  81 H :    0.019258
  82 H :   -0.011896
  83 H :   -0.054651
  84 H :   -0.029461
  85 H :    0.012008
  86 H :   -0.010390
  87 H :    0.097122
  88 H :    0.101344
  89 H :   -0.004023
  90 H :   -0.027857
  91 H :    0.092069
  92 H :    0.088909
  93 H :   -0.026332
  94 H :    0.030070
  95 H :   -0.015707
  96 H :   -0.044951
  97 H :   -0.043376
  98 H :   -0.036905
  99 H :    0.000000
 100 H :    0.025647
 101 H :    0.014618
Sum of atomic charges:   -0.0000000

LOEWDIN ATOMIC CHARGES
----------------------
   0 C :    0.021235
   1 O :    0.016525
   2 C :    0.029889
   3 C :   -0.073360
   4 C :   -0.073536
   5 C :   -0.036994
   6 C :   -0.025067
   7 C :   -0.049974
   8 C :   -0.019843
   9 C :   -0.093093
  10 C :    0.009965
  11 C :   -0.053273
  12 C :   -0.088455
  13 C :    0.037262
  14 C :   -0.020706
  15 C :    0.024367
  16 C :   -0.093416
  17 C :    0.080464
  18 O :    0.048378
  19 C :   -0.093471
  20 C :    0.010816
  21 C :   -0.052551
  22 C :   -0.121515
  23 C :    0.058514
  24 C :   -0.029038
  25 C :    0.033311
  26 C :   -0.090872
  27 C :    0.083997
  28 O :    0.053220
  29 C :    0.020701
  30 C :    0.017270
  31 O :   -0.065492
  32 C :   -0.004629
  33 C :   -0.007382
  34 C :   -0.215466
  35 S :    0.419903
  36 C :   -0.216646
  37 O :   -0.056683
  38 C :   -0.033629
  39 C :   -0.018688
  40 C :   -0.030335
  41 C :   -0.025721
  42 C :   -0.020761
  43 C :   -0.035144
  44 C :   -0.040558
  45 C :    0.027446
  46 N :   -0.094769
  47 C :    0.017651
  48 N :   -0.105120
  49 C :   -0.020062
  50 C :    0.071107
  51 C :   -0.034951
  52 C :   -0.038184
  53 C :   -0.018911
  54 C :   -0.035775
  55 C :   -0.031513
  56 C :   -0.012883
  57 C :   -0.030745
  58 C :   -0.009941
  59 C :   -0.051644
  60 H :    0.018458
  61 H :    0.020080
  62 H :    0.026060
  63 H :    0.023856
  64 H :    0.021400
  65 H :    0.021435
  66 H :    0.020305
  67 H :    0.038849
  68 H :    0.030598
  69 H :    0.034485
  70 H :    0.033285
  71 H :    0.036859
  72 H :    0.020793
  73 H :    0.032975
  74 H :    0.033601
  75 H :    0.033046
  76 H :    0.036266
  77 H :    0.038641
  78 H :    0.032783
  79 H :    0.026412
  80 H :    0.026306
  81 H :    0.036042
  82 H :    0.026545
  83 H :    0.016699
  84 H :    0.022168
  85 H :    0.025172
  86 H :    0.003079
  87 H :    0.052597
  88 H :    0.059309
  89 H :    0.015628
  90 H :   -0.011874
  91 H :    0.045910
  92 H :    0.054039
  93 H :    0.015595
  94 H :    0.056792
  95 H :    0.021199
  96 H :    0.026288
  97 H :    0.024168
  98 H :    0.022483
  99 H :    0.022901
 100 H :    0.024672
 101 H :    0.022867

  Mayer bond orders larger than 0.100000
B(  0-C ,  1-O ) :   1.1528 B(  0-C ,  4-C ) :   1.5082 B(  0-C , 60-H ) :   1.0067
B(  1-O ,  2-C ) :   1.1474 B(  2-C ,  3-C ) :   1.5867 B(  2-C , 61-H ) :   0.9998
B(  3-C ,  4-C ) :   1.2148 B(  3-C , 62-H ) :   1.0027 B(  4-C ,  5-C ) :   1.0689
B(  5-C ,  6-C ) :   1.6992 B(  5-C , 63-H ) :   0.9776 B(  6-C ,  7-C ) :   1.1142
B(  6-C , 64-H ) :   0.9839 B(  7-C ,  8-C ) :   1.6599 B(  7-C , 65-H ) :   0.9879
B(  8-C ,  9-C ) :   1.0953 B(  8-C , 66-H ) :   0.9635 B(  9-C , 10-C ) :   1.4525
B(  9-C , 14-C ) :   1.1135 B( 10-C , 11-C ) :   1.1354 B( 10-C , 12-C ) :   1.2472
B( 11-C , 67-H ) :   0.9354 B( 11-C , 68-H ) :   0.9220 B( 11-C , 69-H ) :   0.9330
B( 12-C , 13-C ) :   1.5547 B( 12-C , 19-C ) :   0.8587 B( 13-C , 14-C ) :   1.0500
B( 13-C , 18-O ) :   1.1129 B( 14-C , 15-C ) :   1.5336 B( 15-C , 16-C ) :   1.1920
B( 15-C , 70-H ) :   0.9815 B( 16-C , 17-C ) :   1.5959 B( 16-C , 71-H ) :   0.9649
B( 17-C , 18-O ) :   1.1627 B( 17-C , 72-H ) :   0.9633 B( 19-C , 20-C ) :   1.5540
B( 19-C , 24-C ) :   1.1803 B( 20-C , 21-C ) :   1.1407 B( 20-C , 22-C ) :   1.2337
B( 21-C , 73-H ) :   0.9341 B( 21-C , 74-H ) :   0.9335 B( 21-C , 75-H ) :   0.9229
B( 22-C , 23-C ) :   1.5646 B( 22-C , 29-C ) :   0.9161 B( 23-C , 24-C ) :   1.0520
B( 23-C , 28-O ) :   1.1567 B( 24-C , 25-C ) :   1.5184 B( 25-C , 26-C ) :   1.2053
B( 25-C , 76-H ) :   0.9810 B( 26-C , 27-C ) :   1.5791 B( 26-C , 77-H ) :   0.9677
B( 27-C , 28-O ) :   1.1852 B( 27-C , 78-H ) :   0.9828 B( 29-C , 30-C ) :   1.6024
B( 29-C , 37-O ) :   1.0767 B( 30-C , 31-O ) :   1.0351 B( 30-C , 38-C ) :   1.1425
B( 31-O , 32-C ) :   1.0670 B( 32-C , 33-C ) :   1.1911 B( 32-C , 36-C ) :   1.5766
B( 33-C , 34-C ) :   1.5755 B( 33-C , 37-O ) :   1.0644 B( 34-C , 35-S ) :   1.1335
B( 34-C , 79-H ) :   0.9706 B( 35-S , 36-C ) :   1.1326 B( 36-C , 80-H ) :   0.9716
B( 38-C , 39-C ) :   1.7142 B( 38-C , 81-H ) :   0.9441 B( 39-C , 40-C ) :   1.0232
B( 39-C , 82-H ) :   0.9802 B( 40-C , 41-C ) :   1.5464 B( 40-C , 57-C ) :   1.1231
B( 41-C , 42-C ) :   1.1274 B( 41-C , 83-H ) :   0.9872 B( 42-C , 43-C ) :   1.4953
B( 42-C , 55-C ) :   1.1263 B( 43-C , 44-C ) :   1.0240 B( 43-C , 49-C ) :   1.0938
B( 44-C , 45-C ) :   1.0323 B( 44-C , 47-C ) :   1.0523 B( 44-C , 84-H ) :   0.8856
B( 45-C , 46-N ) :   1.0766 B( 45-C , 85-H ) :   0.9479 B( 45-C , 86-H ) :   0.9423
B( 46-N , 87-H ) :   0.9640 B( 46-N , 88-H ) :   0.9654 B( 46-N , 93-H ) :   0.1481
B( 47-C , 48-N ) :   1.0985 B( 47-C , 89-H ) :   0.9221 B( 47-C , 90-H ) :   0.9399
B( 48-N , 91-H ) :   0.9761 B( 48-N , 92-H ) :   0.9685 B( 49-C , 50-C ) :   1.6988
B( 49-C , 54-C ) :   1.0596 B( 50-C , 51-C ) :   0.9604 B( 50-C , 93-H ) :   0.9160
B( 51-C , 52-C ) :   1.0015 B( 51-C , 58-C ) :   0.9544 B( 51-C , 94-H ) :   0.8555
B( 52-C , 53-C ) :   1.7152 B( 52-C , 95-H ) :   0.9708 B( 53-C , 54-C ) :   1.1258
B( 53-C , 96-H ) :   0.9898 B( 54-C , 55-C ) :   1.4307 B( 55-C , 56-C ) :   1.1392
B( 56-C , 57-C ) :   1.5976 B( 56-C , 97-H ) :   0.9918 B( 57-C , 98-H ) :   0.9881
B( 58-C , 59-C ) :   2.0442 B( 58-C , 99-H ) :   0.9644 B( 59-C ,100-H ) :   0.9360
B( 59-C ,101-H ) :   0.9549

-----------------------------------------------------------------------------
         ABSORPTION SPECTRUM VIA TRANSITION ELECTRIC DIPOLE MOMENTS
-----------------------------------------------------------------------------
State   Energy  Wavelength   fosc         T2         TX        TY        TZ
        (cm-1)    (nm)                  (au**2)     (au)      (au)      (au)
-----------------------------------------------------------------------------
   0   15022.0    665.7   0.044729725   0.98026   0.54179   0.09537  -0.82319
   1   17814.5    561.3   0.047877591   0.88478   0.49754   0.51025  -0.61391
   2   19655.6    508.8   0.027508444   0.46074  -0.18000  -0.03630  -0.65347
   3   21090.5    474.1   0.001727528   0.02697   0.10172   0.04178  -0.12195
   4   22245.5    449.5   0.020489609   0.30323   0.31150   0.18766  -0.41350
   5   23179.2    431.4   0.177182795   2.51652  -1.57062  -0.12074  -0.18730
   6   25558.0    391.3   0.111045511   1.43037  -1.00544   0.11134  -0.63801
   7   26374.2    379.2   0.023259714   0.29034  -0.34875   0.32928  -0.24553
   8   27060.6    369.5   0.075928452   0.92373  -0.16378  -0.08795  -0.94296
   9   28013.1    357.0   0.003751933   0.04409   0.19632   0.02972   0.06832
  10   28457.9    351.4   0.519169638   6.00596   2.41144   0.16809   0.40334
  11   29699.5    336.7   0.038322351   0.42479   0.45207   0.20247   0.42359
  12   30438.6    328.5   1.256716907  13.59216   1.81028   1.86514  -2.61463
  13   31294.4    319.5   0.172526190   1.81495  -1.07820   0.21114  -0.77965
  14   32338.8    309.2   0.087139160   0.88708  -0.41178   0.26359  -0.80501
  15   33162.8    301.5   0.035529584   0.35271   0.36687   0.31225  -0.34730
  16   33669.3    297.0   0.019122103   0.18697   0.18576  -0.23405   0.31255
  17   34403.8    290.7   0.057281616   0.54813  -0.33247   0.65973   0.04843
  18   34635.0    288.7   0.002611561   0.02482  -0.07228  -0.13963  -0.01012
  19   34744.1    287.8   0.109177978   1.03450   0.57474   0.83912   0.00654
  20   35660.5    280.4   0.016709645   0.15426  -0.25546  -0.02465   0.29731
  21   35752.2    279.7   0.042173389   0.38834  -0.58130  -0.18379   0.12905
  22   36071.1    277.2   0.010206928   0.09316  -0.21401   0.01946  -0.21674
  23   36352.1    275.1   0.197635232   1.78982  -1.21891   0.29559  -0.46553
  24   36805.0    271.7   0.063047116   0.56394   0.73415  -0.07274   0.14026
  25   36975.1    270.5   0.376829019   3.35514  -1.74993   0.04582  -0.53924
  26   37528.1    266.5   0.432490263   3.79399  -1.73311  -0.88864  -0.02478
  27   37852.0    264.2   0.182884749   1.59061   0.75914  -0.93844   0.36558
  28   37915.9    263.7   0.131991015   1.14604   0.56925   0.65303  -0.62892
  29   38299.4    261.1   0.146427643   1.25865  -0.12111   0.65918  -0.89970
  30   38436.2    260.2   0.331397668   2.83847  -0.07003  -1.65579  -0.30317
  31   38649.3    258.7   0.047957936   0.40850  -0.04008  -0.50421  -0.39072
  32   38905.6    257.0   0.092598256   0.78355  -0.32673   0.09177  -0.81754
  33   39138.7    255.5   0.060101468   0.50554   0.25249   0.64629   0.15524
  34   39525.8    253.0   0.062269679   0.51865   0.26351   0.66915   0.03800
  35   39775.8    251.4   0.019336589   0.16004   0.06709   0.39305  -0.03244
  36   39906.3    250.6   0.007944449   0.06554   0.11960  -0.22428  -0.03055

FINAL SINGLE POINT ENERGY     -2887.109153340265

DIPOLE MOMENT
-------------
                                X             Y             Z
Electronic contribution:    -40.65949       8.58485     -40.95772
Nuclear contribution   :     41.25396      -9.36779      42.54508
                        -----------------------------------------
Total Dipole Moment    :      0.59447      -0.78294       1.58737
                        -----------------------------------------
Magnitude (a.u.)       :      1.86712
Magnitude (Debye)      :      4.74583

Rotational constants in cm-1:     0.001208     0.000783     0.000526
Rotational constants in MHz :    36.211673    23.484694    15.754838

                             ****ORCA TERMINATED NORMALLY****
TOTAL RUN TIME: 0 days 0 hours 8 minutes 47 seconds 700 msec
