                         Program Version 4.2.0 -  RELEASE  -
|  1> # ORCA input file
|  2> # SCF done       -126.453490053336          0.000994410250
|  3> ! CAM-B3LYP def2-SVP def2/J RIJCOSX Grid4 TightSCF
|  4> %maxcore 5000
|  5> %tddft
|  6>     Mode sTDDFT
|  7>     Ethresh 5.0
|  8>     maxcore 5000
|  9> end
| 10>
| 11> %pal
| 12>   nprocs 6
| 13>   end
| 14> * xyz 0 1
| 15>    C       11.78044         2.03785        -2.12940
| 16>    O       12.97340         1.48724        -1.87368
| 17>    C       13.12246         1.47095        -0.53589
| 18>    C       12.03773         2.00491         0.07839
| 19>    C       11.13739         2.38582        -0.96470
| 20>    C        9.83435         2.97706        -0.86691
| 21>    C        9.20947         3.31527         0.27857
| 22>    C        7.88370         3.84045         0.29715
| 23>    C        7.19995         4.14706         1.42222
| 24>    C        5.83154         4.55094         1.48421
| 25>    O        5.41925         5.23908         2.57378
| 26>    C        4.10620         5.49021         2.42711
| 27>    C        3.63333         4.96719         1.26905
| 28>    C        4.74191         4.33477         0.63176
| 29>    C        4.75535         3.54968        -0.55500
| 30>    C        3.74208         3.34596        -1.43052
| 31>    C        3.96092         2.51613        -2.56122
| 32>    C        3.03722         2.13689        -3.47873
| 33>    C        3.32439         1.30292        -4.59259
| 34>    S        2.22209         1.28644        -5.93503
| 35>    C        3.30270         0.26939        -6.82449
| 36>    N        2.94173        -0.13661        -8.11118
| 37>    O        3.72905        -0.83711        -8.72550
| 38>    O        1.85998         0.24057        -8.53258
| 39>    C        4.43871        -0.05188        -6.12189
| 40>    C        4.45836         0.50964        -4.83676
| 41>    C        5.49097         0.23842        -3.86239
| 42>    C        6.79830         0.10542        -4.15635
| 43>    C        7.80425        -0.13811        -3.17447
| 44>    O        7.45856        -0.23345        -1.86459
| 45>    C        8.58418        -0.46368        -1.16880
| 46>    C        9.66515        -0.52361        -1.98507
| 47>    C        9.18305        -0.30596        -3.31000
| 48>    C        9.93083        -0.25315        -4.52599
| 49>    C       11.26255        -0.45722        -4.63155
| 50>    C       11.96098        -0.38908        -5.86877
| 51>    C       13.28401        -0.64094        -5.99620
| 52>    C       13.99189        -0.55700        -7.22918
| 53>    O       13.38895         0.02029        -8.30038
| 54>    C       14.28263         0.05631        -9.30014
| 55>    C       15.46690        -0.48359        -8.91493
| 56>    C       15.29908        -0.90804        -7.56587
| 57>    C       16.30583        -1.58847        -6.79980
| 58>    C       16.09750        -2.42188        -5.76681
| 59>    C       17.16414        -3.08390        -5.06440
| 60>    C       16.97176        -3.92609        -4.05094
| 61>    H       11.48522         2.12682        -3.15616
| 62>    H       14.03422         1.05998        -0.14960
| 63>    H       11.88998         2.11626         1.13207
| 64>    H        9.33117         3.13727        -1.81242
| 65>    H        9.69745         3.16196         1.23075
| 66>    H        7.42542         3.99206        -0.66963
| 67>    H        7.70435         4.10675         2.37954
| 68>    H        3.62743         6.04622         3.20899
| 69>    H        2.62617         5.00899         0.91019
| 70>    H        5.68173         3.02752        -0.74876
| 71>    H        2.77179         3.79970        -1.29209
| 72>    H        4.98125         2.18620        -2.69535
| 73>    H        2.02609         2.51610        -3.41158
| 74>    H        5.20031        -0.69840        -6.51878
| 75>    H        5.17072         0.12947        -2.83542
| 76>    H        7.14504         0.22025        -5.17242
| 77>    H        8.48601        -0.56210        -0.10561
| 78>    H       10.67694        -0.70181        -1.68702
| 79>    H        9.36902        -0.03201        -5.42386
| 80>    H       11.84629        -0.69293        -3.75245
| 81>    H       11.38859        -0.13454        -6.75082
| 82>    H       13.87043        -0.90636        -5.12890
| 83>    H       13.96026         0.48686       -10.22788
| 84>    H       16.35121        -0.59157        -9.50926
| 85>    H       17.32050        -1.43621        -7.14862
| 86>    H       15.09266        -2.65087        -5.44225
| 87>    H       18.16932        -2.86428        -5.40017
| 88>    H       15.98258        -4.16295        -3.69546
| 89>    H       17.79085        -4.40941        -3.54739
| 90> *
| 91>
| 92>                          ****END OF INPUT****

CARTESIAN COORDINATES (ANGSTROEM)
---------------------------------
  C     11.780440    2.037850   -2.129400
  O     12.973400    1.487240   -1.873680
  C     13.122460    1.470950   -0.535890
  C     12.037730    2.004910    0.078390
  C     11.137390    2.385820   -0.964700
  C      9.834350    2.977060   -0.866910
  C      9.209470    3.315270    0.278570
  C      7.883700    3.840450    0.297150
  C      7.199950    4.147060    1.422220
  C      5.831540    4.550940    1.484210
  O      5.419250    5.239080    2.573780
  C      4.106200    5.490210    2.427110
  C      3.633330    4.967190    1.269050
  C      4.741910    4.334770    0.631760
  C      4.755350    3.549680   -0.555000
  C      3.742080    3.345960   -1.430520
  C      3.960920    2.516130   -2.561220
  C      3.037220    2.136890   -3.478730
  C      3.324390    1.302920   -4.592590
  S      2.222090    1.286440   -5.935030
  C      3.302700    0.269390   -6.824490
  N      2.941730   -0.136610   -8.111180
  O      3.729050   -0.837110   -8.725500
  O      1.859980    0.240570   -8.532580
  C      4.438710   -0.051880   -6.121890
  C      4.458360    0.509640   -4.836760
  C      5.490970    0.238420   -3.862390
  C      6.798300    0.105420   -4.156350
  C      7.804250   -0.138110   -3.174470
  O      7.458560   -0.233450   -1.864590
  C      8.584180   -0.463680   -1.168800
  C      9.665150   -0.523610   -1.985070
  C      9.183050   -0.305960   -3.310000
  C      9.930830   -0.253150   -4.525990
  C     11.262550   -0.457220   -4.631550
  C     11.960980   -0.389080   -5.868770
  C     13.284010   -0.640940   -5.996200
  C     13.991890   -0.557000   -7.229180
  O     13.388950    0.020290   -8.300380
  C     14.282630    0.056310   -9.300140
  C     15.466900   -0.483590   -8.914930
  C     15.299080   -0.908040   -7.565870
  C     16.305830   -1.588470   -6.799800
  C     16.097500   -2.421880   -5.766810
  C     17.164140   -3.083900   -5.064400
  C     16.971760   -3.926090   -4.050940
  H     11.485220    2.126820   -3.156160
  H     14.034220    1.059980   -0.149600
  H     11.889980    2.116260    1.132070
  H      9.331170    3.137270   -1.812420
  H      9.697450    3.161960    1.230750
  H      7.425420    3.992060   -0.669630
  H      7.704350    4.106750    2.379540
  H      3.627430    6.046220    3.208990
  H      2.626170    5.008990    0.910190
  H      5.681730    3.027520   -0.748760
  H      2.771790    3.799700   -1.292090
  H      4.981250    2.186200   -2.695350
  H      2.026090    2.516100   -3.411580
  H      5.200310   -0.698400   -6.518780
  H      5.170720    0.129470   -2.835420
  H      7.145040    0.220250   -5.172420
  H      8.486010   -0.562100   -0.105610
  H     10.676940   -0.701810   -1.687020
  H      9.369020   -0.032010   -5.423860
  H     11.846290   -0.692930   -3.752450
  H     11.388590   -0.134540   -6.750820
  H     13.870430   -0.906360   -5.128900
  H     13.960260    0.486860  -10.227880
  H     16.351210   -0.591570   -9.509260
  H     17.320500   -1.436210   -7.148620
  H     15.092660   -2.650870   -5.442250
  H     18.169320   -2.864280   -5.400170
  H     15.982580   -4.162950   -3.695460
  H     17.790850   -4.409410   -3.547390

 Total Charge           Charge          ....    0
 Multiplicity           Mult            ....    1
 Number of Electrons    NEL             ....  328
 Basis Dimension        Dim             ....  793

ORBITAL ENERGIES
----------------

  NO   OCC          E(Eh)            E(eV)
   0   2.0000     -88.967584     -2420.9310
   1   2.0000     -19.290869      -524.9312
   2   2.0000     -19.288301      -524.8614
   3   2.0000     -19.286139      -524.8025
   4   2.0000     -19.281112      -524.6657
   5   2.0000     -19.225540      -523.1535
   6   2.0000     -19.224781      -523.1329
   7   2.0000     -14.636552      -398.2808
   8   2.0000     -10.331343      -281.1301
   9   2.0000     -10.330711      -281.1129
  10   2.0000     -10.325585      -280.9735
  11   2.0000     -10.323103      -280.9059
  12   2.0000     -10.321143      -280.8526
  13   2.0000     -10.320990      -280.8484
  14   2.0000     -10.319923      -280.8194
  15   2.0000     -10.319264      -280.8015
  16   2.0000     -10.316779      -280.7338
  17   2.0000     -10.315906      -280.7101
  18   2.0000     -10.293778      -280.1079
  19   2.0000     -10.288448      -279.9629
  20   2.0000     -10.283766      -279.8355
  21   2.0000     -10.283159      -279.8190
  22   2.0000     -10.282983      -279.8142
  23   2.0000     -10.282325      -279.7963
  24   2.0000     -10.280762      -279.7538
  25   2.0000     -10.280621      -279.7499
  26   2.0000     -10.280075      -279.7351
  27   2.0000     -10.279780      -279.7270
  28   2.0000     -10.276959      -279.6503
  29   2.0000     -10.276009      -279.6244
  30   2.0000     -10.275631      -279.6141
  31   2.0000     -10.275182      -279.6019
  32   2.0000     -10.273763      -279.5633
  33   2.0000     -10.273369      -279.5526
  34   2.0000     -10.273154      -279.5467
  35   2.0000     -10.272727      -279.5351
  36   2.0000     -10.271076      -279.4902
  37   2.0000     -10.270476      -279.4739
  38   2.0000     -10.269512      -279.4476
  39   2.0000     -10.269053      -279.4351
  40   2.0000     -10.268591      -279.4226
  41   2.0000     -10.267127      -279.3827
  42   2.0000     -10.266461      -279.3646
  43   2.0000     -10.265073      -279.3268
  44   2.0000     -10.261750      -279.2364
  45   2.0000     -10.258751      -279.1548
  46   2.0000      -8.063032      -219.4062
  47   2.0000      -6.032383      -164.1495
  48   2.0000      -6.028129      -164.0337
  49   2.0000      -6.025058      -163.9502
  50   2.0000      -1.305002       -35.5109
  51   2.0000      -1.209373       -32.9087
  52   2.0000      -1.207121       -32.8474
  53   2.0000      -1.203858       -32.7586
  54   2.0000      -1.199307       -32.6348
  55   2.0000      -1.123419       -30.5698
  56   2.0000      -1.000818       -27.2337
  57   2.0000      -0.930781       -25.3278
  58   2.0000      -0.923937       -25.1416
  59   2.0000      -0.922754       -25.1094
  60   2.0000      -0.916229       -24.9319
  61   2.0000      -0.913522       -24.8582
  62   2.0000      -0.903595       -24.5881
  63   2.0000      -0.897009       -24.4089
  64   2.0000      -0.893906       -24.3244
  65   2.0000      -0.878503       -23.9053
  66   2.0000      -0.878170       -23.8962
  67   2.0000      -0.861753       -23.4495
  68   2.0000      -0.857228       -23.3264
  69   2.0000      -0.852890       -23.2083
  70   2.0000      -0.839956       -22.8564
  71   2.0000      -0.831887       -22.6368
  72   2.0000      -0.817889       -22.2559
  73   2.0000      -0.807145       -21.9635
  74   2.0000      -0.801603       -21.8127
  75   2.0000      -0.790418       -21.5084
  76   2.0000      -0.764915       -20.8144
  77   2.0000      -0.735833       -20.0230
  78   2.0000      -0.728658       -19.8278
  79   2.0000      -0.725558       -19.7434
  80   2.0000      -0.708093       -19.2682
  81   2.0000      -0.703891       -19.1539
  82   2.0000      -0.690829       -18.7984
  83   2.0000      -0.681451       -18.5432
  84   2.0000      -0.678543       -18.4641
  85   2.0000      -0.667025       -18.1507
  86   2.0000      -0.654812       -17.8183
  87   2.0000      -0.652209       -17.7475
  88   2.0000      -0.641203       -17.4480
  89   2.0000      -0.637721       -17.3533
  90   2.0000      -0.636994       -17.3335
  91   2.0000      -0.632568       -17.2130
  92   2.0000      -0.630984       -17.1699
  93   2.0000      -0.627223       -17.0676
  94   2.0000      -0.624426       -16.9915
  95   2.0000      -0.617676       -16.8078
  96   2.0000      -0.614054       -16.7093
  97   2.0000      -0.610391       -16.6096
  98   2.0000      -0.603771       -16.4294
  99   2.0000      -0.601269       -16.3614
 100   2.0000      -0.589149       -16.0316
 101   2.0000      -0.588025       -16.0010
 102   2.0000      -0.569057       -15.4848
 103   2.0000      -0.561860       -15.2890
 104   2.0000      -0.556491       -15.1429
 105   2.0000      -0.551477       -15.0065
 106   2.0000      -0.549413       -14.9503
 107   2.0000      -0.548061       -14.9135
 108   2.0000      -0.547279       -14.8922
 109   2.0000      -0.545042       -14.8314
 110   2.0000      -0.541656       -14.7392
 111   2.0000      -0.538245       -14.6464
 112   2.0000      -0.536984       -14.6121
 113   2.0000      -0.530563       -14.4374
 114   2.0000      -0.526638       -14.3306
 115   2.0000      -0.522634       -14.2216
 116   2.0000      -0.518501       -14.1091
 117   2.0000      -0.515405       -14.0249
 118   2.0000      -0.507799       -13.8179
 119   2.0000      -0.495381       -13.4800
 120   2.0000      -0.491956       -13.3868
 121   2.0000      -0.489854       -13.3296
 122   2.0000      -0.484900       -13.1948
 123   2.0000      -0.481871       -13.1124
 124   2.0000      -0.479259       -13.0413
 125   2.0000      -0.477855       -13.0031
 126   2.0000      -0.472956       -12.8698
 127   2.0000      -0.468005       -12.7351
 128   2.0000      -0.467125       -12.7111
 129   2.0000      -0.466742       -12.7007
 130   2.0000      -0.460938       -12.5428
 131   2.0000      -0.458372       -12.4729
 132   2.0000      -0.454568       -12.3694
 133   2.0000      -0.449620       -12.2348
 134   2.0000      -0.443490       -12.0680
 135   2.0000      -0.437312       -11.8999
 136   2.0000      -0.436025       -11.8648
 137   2.0000      -0.434494       -11.8232
 138   2.0000      -0.434078       -11.8119
 139   2.0000      -0.431279       -11.7357
 140   2.0000      -0.427246       -11.6259
 141   2.0000      -0.425660       -11.5828
 142   2.0000      -0.424066       -11.5394
 143   2.0000      -0.418133       -11.3780
 144   2.0000      -0.415389       -11.3033
 145   2.0000      -0.410465       -11.1693
 146   2.0000      -0.390847       -10.6355
 147   2.0000      -0.386241       -10.5102
 148   2.0000      -0.380130       -10.3439
 149   2.0000      -0.374171       -10.1817
 150   2.0000      -0.373202       -10.1554
 151   2.0000      -0.365379        -9.9425
 152   2.0000      -0.359500        -9.7825
 153   2.0000      -0.352580        -9.5942
 154   2.0000      -0.336548        -9.1579
 155   2.0000      -0.332363        -9.0441
 156   2.0000      -0.328991        -8.9523
 157   2.0000      -0.323225        -8.7954
 158   2.0000      -0.303512        -8.2590
 159   2.0000      -0.294211        -8.0059
 160   2.0000      -0.279499        -7.6056
 161   2.0000      -0.262780        -7.1506
 162   2.0000      -0.238792        -6.4979
 163   2.0000      -0.226861        -6.1732
 164   0.0000      -0.067284        -1.8309
 165   0.0000      -0.044441        -1.2093
 166   0.0000      -0.032345        -0.8801
 167   0.0000      -0.010392        -0.2828
 168   0.0000       0.009818         0.2672

MULLIKEN ATOMIC CHARGES
-----------------------
   0 C :    0.073496
   1 O :   -0.184948
   2 C :    0.133266
   3 C :   -0.053558
   4 C :    0.051469
   5 C :    0.036133
   6 C :    0.000629
   7 C :    0.009967
   8 C :   -0.028178
   9 C :    0.136596
  10 O :   -0.189527
  11 C :    0.147120
  12 C :   -0.042791
  13 C :    0.048980
  14 C :   -0.021312
  15 C :    0.009714
  16 C :    0.001252
  17 C :    0.030059
  18 C :   -0.102828
  19 S :    0.183439
  20 C :   -0.017344
  21 N :    0.276575
  22 O :   -0.256290
  23 O :   -0.266668
  24 C :    0.004652
  25 C :    0.081891
  26 C :   -0.031324
  27 C :   -0.036620
  28 C :    0.102166
  29 O :   -0.203797
  30 C :    0.152762
  31 C :   -0.027671
  32 C :    0.062735
  33 C :   -0.023915
  34 C :    0.013732
  35 C :    0.015786
  36 C :   -0.047124
  37 C :    0.106498
  38 O :   -0.196049
  39 C :    0.146069
  40 C :   -0.034981
  41 C :    0.061696
  42 C :   -0.008256
  43 C :    0.000648
  44 C :    0.003015
  45 C :   -0.021366
  46 H :    0.016194
  47 H :    0.010593
  48 H :   -0.011996
  49 H :   -0.017037
  50 H :   -0.018042
  51 H :    0.001486
  52 H :   -0.001601
  53 H :    0.010207
  54 H :   -0.013272
  55 H :   -0.010917
  56 H :   -0.016672
  57 H :    0.011243
  58 H :   -0.016344
  59 H :    0.004884
  60 H :    0.023685
  61 H :   -0.003948
  62 H :    0.008231
  63 H :   -0.008930
  64 H :   -0.024498
  65 H :   -0.015643
  66 H :   -0.004109
  67 H :   -0.002456
  68 H :    0.007725
  69 H :   -0.017454
  70 H :   -0.017489
  71 H :   -0.009353
  72 H :   -0.010857
  73 H :    0.010537
  74 H :    0.020039
Sum of atomic charges:   -0.0000000

LOEWDIN ATOMIC CHARGES
----------------------
   0 C :    0.040516
   1 O :    0.023576
   2 C :    0.029964
   3 C :   -0.069844
   4 C :   -0.078760
   5 C :   -0.003867
   6 C :   -0.035766
   7 C :   -0.011245
   8 C :   -0.048454
   9 C :    0.037072
  10 O :    0.016485
  11 C :    0.041213
  12 C :   -0.064106
  13 C :   -0.073180
  14 C :   -0.000930
  15 C :   -0.035212
  16 C :    0.002646
  17 C :   -0.065658
  18 C :   -0.141286
  19 S :    0.474975
  20 C :   -0.208893
  21 N :    0.273782
  22 O :   -0.222827
  23 O :   -0.232147
  24 C :   -0.008302
  25 C :   -0.067797
  26 C :   -0.020978
  27 C :   -0.039496
  28 C :    0.022908
  29 O :    0.009925
  30 C :    0.046659
  31 C :   -0.062668
  32 C :   -0.064701
  33 C :   -0.028054
  34 C :   -0.024710
  35 C :   -0.020182
  36 C :   -0.042112
  37 C :    0.028674
  38 O :    0.014889
  39 C :    0.040072
  40 C :   -0.068988
  41 C :   -0.065914
  42 C :   -0.019473
  43 C :   -0.026777
  44 C :   -0.025211
  45 C :   -0.050044
  46 H :    0.024249
  47 H :    0.022558
  48 H :    0.028435
  49 H :    0.030681
  50 H :    0.025049
  51 H :    0.029332
  52 H :    0.035239
  53 H :    0.023605
  54 H :    0.029761
  55 H :    0.030995
  56 H :    0.025453
  57 H :    0.034571
  58 H :    0.027651
  59 H :    0.042201
  60 H :    0.034652
  61 H :    0.034004
  62 H :    0.023374
  63 H :    0.029615
  64 H :    0.026012
  65 H :    0.025200
  66 H :    0.029291
  67 H :    0.034816
  68 H :    0.022392
  69 H :    0.029176
  70 H :    0.029055
  71 H :    0.025939
  72 H :    0.027261
  73 H :    0.020179
  74 H :    0.023482

  Mayer bond orders larger than 0.100000
B(  0-C ,  1-O ) :   1.1579 B(  0-C ,  4-C ) :   1.4914 B(  0-C , 46-H ) :   1.0056
B(  1-O ,  2-C ) :   1.1392 B(  2-C ,  3-C ) :   1.5873 B(  2-C , 47-H ) :   1.0004
B(  3-C ,  4-C ) :   1.2107 B(  3-C , 48-H ) :   1.0062 B(  4-C ,  5-C ) :   1.0811
B(  5-C ,  6-C ) :   1.6905 B(  5-C , 49-H ) :   0.9779 B(  6-C ,  7-C ) :   1.1270
B(  6-C , 50-H ) :   0.9842 B(  7-C ,  8-C ) :   1.6610 B(  7-C , 51-H ) :   0.9800
B(  8-C ,  9-C ) :   1.1100 B(  8-C , 52-H ) :   0.9626 B(  9-C , 10-O ) :   1.1491
B(  9-C , 13-C ) :   1.4262 B( 10-O , 11-C ) :   1.1310 B( 11-C , 12-C ) :   1.5742
B( 11-C , 53-H ) :   1.0029 B( 12-C , 13-C ) :   1.1973 B( 12-C , 54-H ) :   1.0013
B( 13-C , 14-C ) :   1.0918 B( 14-C , 15-C ) :   1.6608 B( 14-C , 55-H ) :   0.9651
B( 15-C , 16-C ) :   1.1406 B( 15-C , 56-H ) :   0.9896 B( 16-C , 17-C ) :   1.6359
B( 16-C , 57-H ) :   0.9764 B( 17-C , 18-C ) :   1.1369 B( 17-C , 58-H ) :   0.9605
B( 18-C , 19-S ) :   1.1337 B( 18-C , 25-C ) :   1.4126 B( 19-S , 20-C ) :   1.1138
B( 20-C , 21-N ) :   0.9685 B( 20-C , 24-C ) :   1.4552 B( 21-N , 22-O ) :   1.5308
B( 21-N , 23-O ) :   1.5117 B( 22-O , 23-O ) :   0.2590 B( 24-C , 25-C ) :   1.2655
B( 24-C , 59-H ) :   1.0027 B( 25-C , 26-C ) :   1.0359 B( 26-C , 27-C ) :   1.7195
B( 26-C , 60-H ) :   0.9625 B( 27-C , 28-C ) :   1.1582 B( 27-C , 61-H ) :   0.9572
B( 28-C , 29-O ) :   1.1487 B( 28-C , 32-C ) :   1.4000 B( 29-O , 30-C ) :   1.1256
B( 30-C , 31-C ) :   1.5709 B( 30-C , 62-H ) :   1.0038 B( 31-C , 32-C ) :   1.2035
B( 31-C , 63-H ) :   0.9949 B( 32-C , 33-C ) :   1.0920 B( 33-C , 34-C ) :   1.6708
B( 33-C , 64-H ) :   0.9725 B( 34-C , 35-C ) :   1.1102 B( 34-C , 65-H ) :   0.9864
B( 35-C , 36-C ) :   1.6461 B( 35-C , 66-H ) :   0.9955 B( 36-C , 37-C ) :   1.1384
B( 36-C , 67-H ) :   0.9626 B( 37-C , 38-O ) :   1.1549 B( 37-C , 41-C ) :   1.4160
B( 38-O , 39-C ) :   1.1394 B( 39-C , 40-C ) :   1.5541 B( 39-C , 68-H ) :   1.0041
B( 40-C , 41-C ) :   1.2074 B( 40-C , 69-H ) :   1.0065 B( 41-C , 42-C ) :   1.0741
B( 42-C , 43-C ) :   1.7386 B( 42-C , 70-H ) :   0.9698 B( 43-C , 44-C ) :   1.1018
B( 43-C , 71-H ) :   0.9734 B( 44-C , 45-C ) :   1.9080 B( 44-C , 72-H ) :   0.9758
B( 45-C , 73-H ) :   0.9584 B( 45-C , 74-H ) :   0.9523

-----------------------------------------------------------------------------
         ABSORPTION SPECTRUM VIA TRANSITION ELECTRIC DIPOLE MOMENTS
-----------------------------------------------------------------------------
State   Energy  Wavelength   fosc         T2         TX        TY        TZ
        (cm-1)    (nm)                  (au**2)     (au)      (au)      (au)
-----------------------------------------------------------------------------
   0   19693.5    507.8   0.374946962   6.26792  -0.09889   1.40607   2.06908
   1   22848.1    437.7   0.362122067   5.21771   2.11511   0.20292   0.83836
   2   24638.5    405.9   1.231083346  16.44936  -4.03390   0.41928  -0.03535
   3   27608.9    362.2   0.460511726   5.49119  -2.09609   0.49066   0.92567
   4   28350.8    352.7   0.277844827   3.22635  -0.75041   0.75432   1.44715
   5   28710.1    348.3   0.107587073   1.23368  -0.84519   0.59126   0.41199
   6   30834.3    324.3   0.523326944   5.58746   1.39342  -0.96217  -1.64926
   7   31329.7    319.2   0.254680090   2.67617   0.71188   0.54589   1.36799
   8   32069.9    311.8   0.087219302   0.89535  -0.89690   0.30106   0.01686
   9   32286.6    309.7   0.095577300   0.97456  -0.89384   0.09326  -0.40854
  10   35270.7    283.5   0.017883595   0.16692  -0.15133   0.23188  -0.30042
  11   35798.7    279.3   0.140160743   1.28895  -0.06163   0.68394   0.90409
  12   36048.8    277.4   0.160184595   1.46287  -0.92182   0.61573   0.48373
  13   36942.9    270.7   0.114838710   1.02337   0.07722   0.79900   0.61564
  14   37061.6    269.8   0.031822391   0.28267  -0.51259  -0.05362   0.13056
  15   37968.2    263.4   0.126169097   1.09398   1.01629   0.23019  -0.09029
  16   39061.9    256.0   0.061017354   0.51425   0.47436  -0.20762   0.49611
  17   39393.4    253.8   0.017987481   0.15032   0.18805  -0.33704  -0.03688
  18   40159.8    249.0   0.802346642   6.57727  -0.66742   0.49823   2.42561

FINAL SINGLE POINT ENERGY     -2366.913412069576

DIPOLE MOMENT
-------------
                                X             Y             Z
Electronic contribution:    -40.03106       6.28204     -13.66196
Nuclear contribution   :     41.71402      -5.49194      16.14414
                        -----------------------------------------
Total Dipole Moment    :      1.68296       0.79010       2.48217
                        -----------------------------------------
Magnitude (a.u.)       :      3.10126
Magnitude (Debye)      :      7.88276

Rotational constants in cm-1:     0.002064     0.001039     0.000735
Rotational constants in MHz :    61.887217    31.142519    22.041067

                             ****ORCA TERMINATED NORMALLY****
TOTAL RUN TIME: 0 days 0 hours 4 minutes 37 seconds 326 msec
