                         Program Version 4.2.0 -  RELEASE  -
|  1> # ORCA input file
|  2> # SCF done       -120.242617705635          0.000719429781
|  3> ! CAM-B3LYP def2-SVP def2/J RIJCOSX Grid4 TightSCF
|  4> %maxcore 5000
|  5> %tddft
|  6>     Mode sTDDFT
|  7>     Ethresh 5.0
|  8>     maxcore 5000
|  9> end
| 10>
| 11> %pal
| 12>   nprocs 6
| 13>   end
| 14> * xyz 0 1
| 15>    C       10.23040        10.47956        -4.92044
| 16>    O       10.73648        11.50402        -5.61652
| 17>    C       10.44254        12.63118        -4.94316
| 18>    C        9.74360        12.34779        -3.81561
| 19>    C        9.59766        10.92718        -3.78416
| 20>    C        8.91314        10.16245        -2.77774
| 21>    C        8.93565         8.82075        -2.69977
| 22>    C        8.18000         8.07421        -1.74022
| 23>    C        8.18827         6.73133        -1.69278
| 24>    C        7.36104         5.93502        -0.80594
| 25>    C        7.26886         6.13881         0.54237
| 26>    S        8.12979         7.28816         1.55004
| 27>    S        6.19508         5.01903         1.33038
| 28>    C        5.84582         4.27266        -0.19238
| 29>    O        4.97721         3.24895        -0.30252
| 30>    C        6.53097         4.83809        -1.24305
| 31>    C        6.30773         4.39812        -2.59482
| 32>    S        5.15014         3.11443        -2.88027
| 33>    C        5.28684         3.18182        -4.60973
| 34>    C        6.21969         4.14235        -4.95446
| 35>    C        6.78115         4.81363        -3.81830
| 36>    O        7.66868         5.75258        -4.23158
| 37>    C        7.65900         5.69832        -5.58957
| 38>    N        8.52774         6.56196        -6.28780
| 39>    O        8.45347         6.54947        -7.50226
| 40>    O        9.29239         7.25078        -5.64021
| 41>    C        6.80174         4.75789        -6.09194
| 42>    C        4.54104         2.28226        -5.44942
| 43>    C        5.08798         1.59391        -6.50106
| 44>    S        6.73891         1.69938        -7.08381
| 45>    S        3.95383         0.49677        -7.23357
| 46>    C        2.73122         0.95132        -6.08281
| 47>    O        1.50008         0.41436        -6.09720
| 48>    C        3.16808         1.91411        -5.21483
| 49>    C        2.31817         2.52311        -4.21789
| 50>    S        1.15282         1.58159        -3.35935
| 51>    C        0.64461         2.97191        -2.44506
| 52>    C       -0.39447         2.92711        -1.41024
| 53>    O       -0.67318         3.88530        -0.73937
| 54>    O       -1.02638         1.75128        -1.23686
| 55>    C        1.34784         4.08971        -2.81858
| 56>    C        2.28862         3.83767        -3.82257
| 57>    H       10.34827         9.49365        -5.32445
| 58>    H       10.78011        13.55735        -5.36457
| 59>    H        9.37733        13.04348        -3.08847
| 60>    H        8.35010        10.73618        -2.05146
| 61>    H        9.50924         8.25200        -3.41625
| 62>    H        7.52815         8.63653        -1.08172
| 63>    H        8.81511         6.18106        -2.37740
| 64>    H        8.94838         7.68470         0.57340
| 65>    H        4.54363         3.06505         0.53970
| 66>    H        6.63749         4.54959        -7.12849
| 67>    H        6.68368         0.59001        -7.82156
| 68>    H        1.38491        -0.18943        -6.84008
| 69>    H       -0.71939         1.06638        -1.84613
| 70>    H        1.17088         5.05153        -2.37331
| 71>    H        2.91628         4.59272        -4.26025
| 72> *
| 73>
| 74>                          ****END OF INPUT****

CARTESIAN COORDINATES (ANGSTROEM)
---------------------------------
  C     10.230400   10.479560   -4.920440
  O     10.736480   11.504020   -5.616520
  C     10.442540   12.631180   -4.943160
  C      9.743600   12.347790   -3.815610
  C      9.597660   10.927180   -3.784160
  C      8.913140   10.162450   -2.777740
  C      8.935650    8.820750   -2.699770
  C      8.180000    8.074210   -1.740220
  C      8.188270    6.731330   -1.692780
  C      7.361040    5.935020   -0.805940
  C      7.268860    6.138810    0.542370
  S      8.129790    7.288160    1.550040
  S      6.195080    5.019030    1.330380
  C      5.845820    4.272660   -0.192380
  O      4.977210    3.248950   -0.302520
  C      6.530970    4.838090   -1.243050
  C      6.307730    4.398120   -2.594820
  S      5.150140    3.114430   -2.880270
  C      5.286840    3.181820   -4.609730
  C      6.219690    4.142350   -4.954460
  C      6.781150    4.813630   -3.818300
  O      7.668680    5.752580   -4.231580
  C      7.659000    5.698320   -5.589570
  N      8.527740    6.561960   -6.287800
  O      8.453470    6.549470   -7.502260
  O      9.292390    7.250780   -5.640210
  C      6.801740    4.757890   -6.091940
  C      4.541040    2.282260   -5.449420
  C      5.087980    1.593910   -6.501060
  S      6.738910    1.699380   -7.083810
  S      3.953830    0.496770   -7.233570
  C      2.731220    0.951320   -6.082810
  O      1.500080    0.414360   -6.097200
  C      3.168080    1.914110   -5.214830
  C      2.318170    2.523110   -4.217890
  S      1.152820    1.581590   -3.359350
  C      0.644610    2.971910   -2.445060
  C     -0.394470    2.927110   -1.410240
  O     -0.673180    3.885300   -0.739370
  O     -1.026380    1.751280   -1.236860
  C      1.347840    4.089710   -2.818580
  C      2.288620    3.837670   -3.822570
  H     10.348270    9.493650   -5.324450
  H     10.780110   13.557350   -5.364570
  H      9.377330   13.043480   -3.088470
  H      8.350100   10.736180   -2.051460
  H      9.509240    8.252000   -3.416250
  H      7.528150    8.636530   -1.081720
  H      8.815110    6.181060   -2.377400
  H      8.948380    7.684700    0.573400
  H      4.543630    3.065050    0.539700
  H      6.637490    4.549590   -7.128490
  H      6.683680    0.590010   -7.821560
  H      1.384910   -0.189430   -6.840080
  H     -0.719390    1.066380   -1.846130
  H      1.170880    5.051530   -2.373310
  H      2.916280    4.592720   -4.260250

 Total Charge           Charge          ....    0
 Multiplicity           Mult            ....    1
 Number of Electrons    NEL             ....  344
 Basis Dimension        Dim             ....  687

ORBITAL ENERGIES
----------------

  NO   OCC          E(Eh)            E(eV)
   0   2.0000     -88.980646     -2421.2865
   1   2.0000     -88.967513     -2420.9291
   2   2.0000     -88.965514     -2420.8747
   3   2.0000     -88.963911     -2420.8311
   4   2.0000     -88.956000     -2420.6158
   5   2.0000     -88.929693     -2419.9000
   6   2.0000     -19.303041      -525.2624
   7   2.0000     -19.285494      -524.7850
   8   2.0000     -19.277909      -524.5786
   9   2.0000     -19.271625      -524.4076
  10   2.0000     -19.254337      -523.9372
  11   2.0000     -19.249556      -523.8071
  12   2.0000     -19.246595      -523.7265
  13   2.0000     -19.187614      -522.1215
  14   2.0000     -14.659607      -398.9082
  15   2.0000     -10.398313      -282.9525
  16   2.0000     -10.384837      -282.5858
  17   2.0000     -10.375953      -282.3440
  18   2.0000     -10.360503      -281.9236
  19   2.0000     -10.342627      -281.4372
  20   2.0000     -10.336091      -281.2593
  21   2.0000     -10.317678      -280.7583
  22   2.0000     -10.317241      -280.7464
  23   2.0000     -10.315924      -280.7106
  24   2.0000     -10.311678      -280.5950
  25   2.0000     -10.310147      -280.5534
  26   2.0000     -10.304855      -280.4094
  27   2.0000     -10.301604      -280.3209
  28   2.0000     -10.300126      -280.2807
  29   2.0000     -10.298381      -280.2332
  30   2.0000     -10.295570      -280.1567
  31   2.0000     -10.294778      -280.1352
  32   2.0000     -10.286992      -279.9233
  33   2.0000     -10.282153      -279.7916
  34   2.0000     -10.281541      -279.7750
  35   2.0000     -10.278084      -279.6809
  36   2.0000     -10.265390      -279.3355
  37   2.0000     -10.263367      -279.2804
  38   2.0000     -10.262925      -279.2684
  39   2.0000     -10.253914      -279.0232
  40   2.0000     -10.252171      -278.9758
  41   2.0000     -10.250292      -278.9246
  42   2.0000      -8.077504      -219.8001
  43   2.0000      -8.063282      -219.4131
  44   2.0000      -8.060869      -219.3474
  45   2.0000      -8.059056      -219.2981
  46   2.0000      -8.050874      -219.0754
  47   2.0000      -8.025335      -218.3805
  48   2.0000      -6.046985      -164.5468
  49   2.0000      -6.043100      -164.4411
  50   2.0000      -6.038702      -164.3214
  51   2.0000      -6.032463      -164.1517
  52   2.0000      -6.030321      -164.0934
  53   2.0000      -6.028607      -164.0467
  54   2.0000      -6.028353      -164.0398
  55   2.0000      -6.026413      -163.9870
  56   2.0000      -6.025605      -163.9650
  57   2.0000      -6.023942      -163.9198
  58   2.0000      -6.022138      -163.8707
  59   2.0000      -6.021335      -163.8488
  60   2.0000      -6.021232      -163.8460
  61   2.0000      -6.017192      -163.7361
  62   2.0000      -6.010661      -163.5584
  63   2.0000      -5.995868      -163.1559
  64   2.0000      -5.991477      -163.0364
  65   2.0000      -5.985237      -162.8666
  66   2.0000      -1.330268       -36.1984
  67   2.0000      -1.223746       -33.2998
  68   2.0000      -1.189985       -32.3812
  69   2.0000      -1.182660       -32.1818
  70   2.0000      -1.175534       -31.9879
  71   2.0000      -1.174431       -31.9579
  72   2.0000      -1.146319       -31.1929
  73   2.0000      -1.088070       -29.6079
  74   2.0000      -1.012222       -27.5440
  75   2.0000      -0.993642       -27.0384
  76   2.0000      -0.986629       -26.8475
  77   2.0000      -0.980262       -26.6743
  78   2.0000      -0.935131       -25.4462
  79   2.0000      -0.906054       -24.6550
  80   2.0000      -0.901426       -24.5291
  81   2.0000      -0.896531       -24.3959
  82   2.0000      -0.884608       -24.0714
  83   2.0000      -0.883834       -24.0504
  84   2.0000      -0.867782       -23.6136
  85   2.0000      -0.852751       -23.2045
  86   2.0000      -0.842714       -22.9314
  87   2.0000      -0.837623       -22.7929
  88   2.0000      -0.824020       -22.4227
  89   2.0000      -0.810129       -22.0447
  90   2.0000      -0.803126       -21.8542
  91   2.0000      -0.794812       -21.6279
  92   2.0000      -0.778157       -21.1747
  93   2.0000      -0.764484       -20.8027
  94   2.0000      -0.729848       -19.8602
  95   2.0000      -0.710332       -19.3291
  96   2.0000      -0.709148       -19.2969
  97   2.0000      -0.702608       -19.1189
  98   2.0000      -0.698772       -19.0146
  99   2.0000      -0.675680       -18.3862
 100   2.0000      -0.668889       -18.2014
 101   2.0000      -0.664195       -18.0737
 102   2.0000      -0.660730       -17.9794
 103   2.0000      -0.658440       -17.9171
 104   2.0000      -0.652544       -17.7566
 105   2.0000      -0.643993       -17.5239
 106   2.0000      -0.642595       -17.4859
 107   2.0000      -0.629618       -17.1328
 108   2.0000      -0.623955       -16.9787
 109   2.0000      -0.621718       -16.9178
 110   2.0000      -0.604649       -16.4533
 111   2.0000      -0.601452       -16.3664
 112   2.0000      -0.600217       -16.3327
 113   2.0000      -0.585451       -15.9309
 114   2.0000      -0.577148       -15.7050
 115   2.0000      -0.569374       -15.4934
 116   2.0000      -0.563990       -15.3470
 117   2.0000      -0.559254       -15.2181
 118   2.0000      -0.547199       -14.8900
 119   2.0000      -0.546227       -14.8636
 120   2.0000      -0.540027       -14.6949
 121   2.0000      -0.532842       -14.4994
 122   2.0000      -0.529766       -14.4157
 123   2.0000      -0.528733       -14.3875
 124   2.0000      -0.526248       -14.3199
 125   2.0000      -0.521099       -14.1798
 126   2.0000      -0.520808       -14.1719
 127   2.0000      -0.514943       -14.0123
 128   2.0000      -0.512866       -13.9558
 129   2.0000      -0.504492       -13.7279
 130   2.0000      -0.499355       -13.5881
 131   2.0000      -0.498194       -13.5565
 132   2.0000      -0.488429       -13.2908
 133   2.0000      -0.482104       -13.1187
 134   2.0000      -0.478622       -13.0240
 135   2.0000      -0.472993       -12.8708
 136   2.0000      -0.466836       -12.7032
 137   2.0000      -0.465592       -12.6694
 138   2.0000      -0.459163       -12.4945
 139   2.0000      -0.457588       -12.4516
 140   2.0000      -0.451819       -12.2946
 141   2.0000      -0.450811       -12.2672
 142   2.0000      -0.446918       -12.1613
 143   2.0000      -0.443620       -12.0715
 144   2.0000      -0.441288       -12.0081
 145   2.0000      -0.435715       -11.8564
 146   2.0000      -0.431850       -11.7512
 147   2.0000      -0.424207       -11.5433
 148   2.0000      -0.422111       -11.4862
 149   2.0000      -0.417936       -11.3726
 150   2.0000      -0.411246       -11.1906
 151   2.0000      -0.405792       -11.0422
 152   2.0000      -0.405376       -11.0308
 153   2.0000      -0.397298       -10.8110
 154   2.0000      -0.393409       -10.7052
 155   2.0000      -0.387664       -10.5489
 156   2.0000      -0.385203       -10.4819
 157   2.0000      -0.375444       -10.2163
 158   2.0000      -0.370876       -10.0921
 159   2.0000      -0.361113        -9.8264
 160   2.0000      -0.356771        -9.7082
 161   2.0000      -0.352148        -9.5824
 162   2.0000      -0.344079        -9.3629
 163   2.0000      -0.338834        -9.2201
 164   2.0000      -0.331074        -9.0090
 165   2.0000      -0.317959        -8.6521
 166   2.0000      -0.305224        -8.3056
 167   2.0000      -0.298895        -8.1334
 168   2.0000      -0.278325        -7.5736
 169   2.0000      -0.267987        -7.2923
 170   2.0000      -0.246301        -6.7022
 171   2.0000      -0.238171        -6.4810
 172   0.0000      -0.069649        -1.8953
 173   0.0000      -0.028169        -0.7665
 174   0.0000      -0.013371        -0.3638
 175   0.0000      -0.008186        -0.2228
 176   0.0000       0.010595         0.2883

MULLIKEN ATOMIC CHARGES
-----------------------
   0 C :    0.067568
   1 O :   -0.177830
   2 C :    0.131571
   3 C :   -0.047188
   4 C :    0.037044
   5 C :    0.025800
   6 C :    0.002540
   7 C :    0.001411
   8 C :   -0.081230
   9 C :    0.116712
  10 C :   -0.262638
  11 S :    0.027434
  12 S :    0.105083
  13 C :   -0.083839
  14 O :   -0.176584
  15 C :    0.154265
  16 C :   -0.230410
  17 S :    0.203876
  18 C :   -0.269292
  19 C :    0.157010
  20 C :    0.175708
  21 O :   -0.205133
  22 C :    0.240358
  23 N :    0.283007
  24 O :   -0.241217
  25 O :   -0.234013
  26 C :   -0.093242
  27 C :    0.150148
  28 C :   -0.258442
  29 S :    0.071415
  30 S :    0.082051
  31 C :   -0.055068
  32 O :   -0.163923
  33 C :    0.094911
  34 C :   -0.149562
  35 S :    0.120786
  36 C :   -0.175514
  37 C :    0.179692
  38 O :   -0.178113
  39 O :   -0.165223
  40 C :    0.021672
  41 C :    0.059837
  42 H :    0.009045
  43 H :    0.003247
  44 H :   -0.019872
  45 H :   -0.025708
  46 H :   -0.000168
  47 H :   -0.000136
  48 H :    0.016685
  49 H :    0.086902
  50 H :    0.201555
  51 H :    0.016622
  52 H :    0.065509
  53 H :    0.198537
  54 H :    0.176517
  55 H :    0.007428
  56 H :    0.002400
Sum of atomic charges:    0.0000000

LOEWDIN ATOMIC CHARGES
----------------------
   0 C :    0.040278
   1 O :    0.026647
   2 C :    0.024414
   3 C :   -0.073349
   4 C :   -0.085617
   5 C :   -0.013792
   6 C :   -0.030331
   7 C :   -0.019525
   8 C :   -0.041816
   9 C :   -0.078521
  10 C :   -0.328099
  11 S :    0.209814
  12 S :    0.389070
  13 C :   -0.112001
  14 O :   -0.049038
  15 C :   -0.118115
  16 C :   -0.181979
  17 S :    0.526682
  18 C :   -0.195345
  19 C :   -0.082931
  20 C :    0.011359
  21 O :    0.002304
  22 C :    0.021070
  23 N :    0.279273
  24 O :   -0.202653
  25 O :   -0.199959
  26 C :   -0.011911
  27 C :   -0.090984
  28 C :   -0.328738
  29 S :    0.255634
  30 S :    0.380940
  31 C :   -0.100945
  32 O :   -0.043765
  33 C :   -0.126264
  34 C :   -0.161483
  35 S :    0.439005
  36 C :   -0.248736
  37 C :    0.061160
  38 O :   -0.166354
  39 O :   -0.039278
  40 C :   -0.010122
  41 C :   -0.060949
  42 H :    0.019266
  43 H :    0.019226
  44 H :    0.026855
  45 H :    0.025484
  46 H :    0.026773
  47 H :    0.025057
  48 H :    0.027230
  49 H :   -0.008184
  50 H :    0.103902
  51 H :    0.040693
  52 H :   -0.024512
  53 H :    0.101875
  54 H :    0.076467
  55 H :    0.041436
  56 H :    0.033383

  Mayer bond orders larger than 0.100000
B(  0-C ,  1-O ) :   1.1744 B(  0-C ,  4-C ) :   1.5163 B(  0-C , 42-H ) :   0.9942
B(  1-O ,  2-C ) :   1.1465 B(  2-C ,  3-C ) :   1.5736 B(  2-C , 43-H ) :   1.0018
B(  3-C ,  4-C ) :   1.2071 B(  3-C , 44-H ) :   1.0087 B(  4-C ,  5-C ) :   1.0632
B(  5-C ,  6-C ) :   1.7192 B(  5-C , 45-H ) :   0.9789 B(  6-C ,  7-C ) :   1.1098
B(  6-C , 46-H ) :   0.9804 B(  7-C ,  8-C ) :   1.7374 B(  7-C , 47-H ) :   0.9895
B(  8-C ,  9-C ) :   1.0131 B(  8-C , 48-H ) :   0.9469 B(  9-C , 10-C ) :   1.5824
B(  9-C , 15-C ) :   1.2155 B( 10-C , 11-S ) :   1.0290 B( 10-C , 12-S ) :   1.0654
B( 11-S , 49-H ) :   0.9353 B( 12-S , 13-C ) :   1.1140 B( 13-C , 14-O ) :   1.1813
B( 13-C , 15-C ) :   1.4578 B( 14-O , 50-H ) :   0.9434 B( 15-C , 16-C ) :   1.0785
B( 16-C , 17-S ) :   1.1446 B( 16-C , 18-C ) :   0.1333 B( 16-C , 20-C ) :   1.5031
B( 17-S , 18-C ) :   1.1499 B( 18-C , 19-C ) :   1.4120 B( 18-C , 27-C ) :   1.0382
B( 19-C , 20-C ) :   1.2027 B( 19-C , 26-C ) :   1.0748 B( 20-C , 21-O ) :   1.0772
B( 21-O , 22-C ) :   1.1198 B( 22-C , 23-N ) :   0.9243 B( 22-C , 26-C ) :   1.5640
B( 23-N , 24-O ) :   1.5402 B( 23-N , 25-O ) :   1.4805 B( 24-O , 25-O ) :   0.2676
B( 26-C , 51-H ) :   1.0124 B( 27-C , 28-C ) :   1.5774 B( 27-C , 33-C ) :   1.2343
B( 28-C , 29-S ) :   1.0542 B( 28-C , 30-S ) :   1.0729 B( 29-S , 52-H ) :   0.9459
B( 30-S , 31-C ) :   1.0972 B( 31-C , 32-O ) :   1.2232 B( 31-C , 33-C ) :   1.4982
B( 32-O , 53-H ) :   0.9489 B( 33-C , 34-C ) :   1.0232 B( 34-C , 35-S ) :   1.1689
B( 34-C , 36-C ) :   0.1077 B( 34-C , 41-C ) :   1.5272 B( 35-S , 36-C ) :   1.0852
B( 36-C , 37-C ) :   0.9429 B( 36-C , 40-C ) :   1.5445 B( 37-C , 38-O ) :   2.2009
B( 37-C , 39-O ) :   1.2291 B( 39-O , 54-H ) :   0.9519 B( 40-C , 41-C ) :   1.2436
B( 40-C , 55-H ) :   1.0050 B( 41-C , 56-H ) :   1.0011

-----------------------------------------------------------------------------
         ABSORPTION SPECTRUM VIA TRANSITION ELECTRIC DIPOLE MOMENTS
-----------------------------------------------------------------------------
State   Energy  Wavelength   fosc         T2         TX        TY        TZ
        (cm-1)    (nm)                  (au**2)     (au)      (au)      (au)
-----------------------------------------------------------------------------
   0   19586.7    510.6   0.035076552   0.58956   0.33824   0.46570   0.50822
   1   20287.5    492.9   0.110574845   1.79434   0.67579   0.94024   0.67349
   2   25811.2    387.4   0.009225740   0.11767  -0.00666  -0.32162   0.11910
   3   28404.6    352.1   0.035600995   0.41262  -0.48468  -0.39605   0.14441
   4   29640.2    337.4   0.003215437   0.03571   0.13907   0.04750   0.11881
   5   31338.0    319.1   0.132792874   1.39502  -0.11008   0.23882  -1.15146
   6   32184.6    310.7   0.114533250   1.17155   0.51894   0.72635   0.61209
   7   33013.2    302.9   0.033466415   0.33373  -0.38911  -0.19947   0.37754
   8   33087.1    302.2   0.042578418   0.42365   0.42210   0.46076  -0.18215
   9   33477.8    298.7   0.004800121   0.04720   0.03521   0.15718   0.14580
  10   33576.7    297.8   0.230500045   2.26000   0.44166  -0.78986  -1.20044
  11   34456.8    290.2   0.484783348   4.63178   1.05396   1.85532   0.28060
  12   34792.6    287.4   0.220272783   2.08425   1.00938   0.41977  -0.94297
  13   35485.0    281.8   0.317018252   2.94113  -0.31857  -1.19713   1.18597
  14   35626.7    280.7   0.373314839   3.44965   0.72098  -0.24430  -1.69415
  15   36319.3    275.3   0.350346909   3.17568   0.75436   0.92904  -1.32041
  16   36377.7    274.9   0.359597420   3.25430  -0.55907  -0.88871   1.46695
  17   38535.2    259.5   0.020588793   0.17589   0.32742   0.18880  -0.18179
  18   39353.7    254.1   0.009275848   0.07760  -0.02485   0.27107  -0.05918
  19   40274.3    248.3   0.018216076   0.14890  -0.01620  -0.26184   0.28298

FINAL SINGLE POINT ENERGY     -4080.626167961626

DIPOLE MOMENT
-------------
                                X             Y             Z
Electronic contribution:    -10.86953     -25.04537      -1.12368
Nuclear contribution   :     10.53263      22.39509      -0.06060
                        -----------------------------------------
Total Dipole Moment    :     -0.33690      -2.65028      -1.18428
                        -----------------------------------------
Magnitude (a.u.)       :      2.92233
Magnitude (Debye)      :      7.42797

Rotational constants in cm-1:     0.002739     0.001262     0.000984
Rotational constants in MHz :    82.118599    37.844256    29.514114

                             ****ORCA TERMINATED NORMALLY****
TOTAL RUN TIME: 0 days 0 hours 3 minutes 21 seconds 928 msec
