                         Program Version 4.2.0 -  RELEASE  -
|  1> # ORCA input file
|  2> # SCF done       -147.297599005706          0.000880362178
|  3> ! CAM-B3LYP def2-SVP def2/J RIJCOSX Grid4 TightSCF
|  4> %maxcore 5000
|  5> %tddft
|  6>     Mode sTDDFT
|  7>     Ethresh 5.0
|  8>     maxcore 5000
|  9> end
| 10>
| 11> %pal
| 12>   nprocs 6
| 13>   end
| 14> * xyz 0 1
| 15>    C       -8.81151        21.09103         0.00710
| 16>    O      -10.09940        21.39965        -0.18748
| 17>    C      -10.19557        22.74197        -0.16845
| 18>    C       -8.98069        23.30758         0.03535
| 19>    C       -8.04886        22.22860         0.15534
| 20>    C       -6.64124        22.35948         0.37834
| 21>    C       -5.76663        21.33106         0.50124
| 22>    C       -4.38261        21.51191         0.71712
| 23>    C       -3.49085        20.48301         0.85154
| 24>    C       -2.12015        20.66668         1.05658
| 25>    C       -1.19918        19.65066         1.19648
| 26>    C        0.19134        19.78898         1.38710
| 27>    C        0.86492        18.60351         1.48543
| 28>    C        0.03972        17.46947         1.38106
| 29>    S       -1.62446        17.94629         1.15307
| 30>    C        0.42533        16.13415         1.43816
| 31>    C        1.72627        15.62555         1.58768
| 32>    C        1.78435        14.25822         1.59917
| 33>    C        0.53389        13.62782         1.46435
| 34>    S       -0.73148        14.82749         1.31729
| 35>    C        0.31617        12.26135         1.44911
| 36>    C       -0.89404        11.59839         1.33621
| 37>    S       -2.48279        12.33664         1.19042
| 38>    C       -3.36152        10.79420         1.13392
| 39>    C       -2.41278         9.73883         1.21439
| 40>    C       -1.08525        10.21292         1.32544
| 41>    O       -0.20168         9.20643         1.40106
| 42>    C       -0.94932         8.07120         1.33654
| 43>    N       -0.29036         6.83413         1.39011
| 44>    O       -0.99097         5.83420         1.32931
| 45>    O        0.92299         6.83200         1.49072
| 46>    C       -2.29696         8.33286         1.22137
| 47>    C       -4.73205        10.88240         1.04034
| 48>    C       -5.71616         9.89496         1.00442
| 49>    C       -7.09562        10.13938         0.92773
| 50>    C       -7.87533         9.00565         0.92122
| 51>    C       -7.13537         7.82229         0.98942
| 52>    S       -5.42949         8.17866         1.06356
| 53>    C       -7.56177         6.49214         1.00071
| 54>    C       -8.86088         5.96961         0.96331
| 55>    C       -8.89957         4.59833         0.98402
| 56>    C       -7.63333         3.98468         1.03549
| 57>    S       -6.38349         5.20709         1.06551
| 58>    C       -7.37315         2.62528         1.05152
| 59>    C       -6.12894         2.00398         1.08654
| 60>    S       -4.60389         2.89177         1.13196
| 61>    C       -3.72587         1.42556         1.14190
| 62>    C       -4.56736         0.30090         1.11335
| 63>    C       -5.90556         0.61299         1.08371
| 64>    C       -3.68567        -0.89519         1.12303
| 65>    O       -4.00299        -2.06071         1.11000
| 66>    C       -2.29397        -0.33435         1.15317
| 67>    C       -2.36363         1.03774         1.16652
| 68>    C       -1.15436        -1.20061         1.16165
| 69>    C        0.12140        -0.80577         1.18794
| 70>    H       -8.55453        20.05093         0.02000
| 71>    H      -11.17000        23.16553        -0.31044
| 72>    H       -8.75488        24.35233         0.09695
| 73>    H       -6.27201        23.37433         0.45130
| 74>    H       -6.12808        20.31408         0.43356
| 75>    H       -4.01635        22.52919         0.77785
| 76>    H       -3.85313        19.46376         0.79614
| 77>    H       -1.74085        21.67950         1.10667
| 78>    H        0.65676        20.75720         1.44406
| 79>    H        1.92714        18.52504         1.63130
| 80>    H        2.58546        16.26484         1.67950
| 81>    H        2.69178        13.68996         1.70179
| 82>    H        1.18757        11.62526         1.53943
| 83>    H       -3.04853         7.57666         1.15338
| 84>    H       -5.11726        11.89471         0.99709
| 85>    H       -7.48898        11.13953         0.88066
| 86>    H       -8.94903         9.01176         0.86774
| 87>    H       -9.73205         6.59849         0.92310
| 88>    H       -9.80548         4.01859         0.96124
| 89>    H       -8.23448         1.96962         1.02800
| 90>    H       -6.71039        -0.09938         1.05859
| 91>    H       -1.53838         1.72538         1.19082
| 92>    H       -1.39874        -2.25558         1.14321
| 93>    H        0.39557         0.23519         1.20593
| 94>    H        0.92895        -1.51652         1.19029
| 95> *
| 96>
| 97>                          ****END OF INPUT****

CARTESIAN COORDINATES (ANGSTROEM)
---------------------------------
  C     -8.811510   21.091030    0.007100
  O    -10.099400   21.399650   -0.187480
  C    -10.195570   22.741970   -0.168450
  C     -8.980690   23.307580    0.035350
  C     -8.048860   22.228600    0.155340
  C     -6.641240   22.359480    0.378340
  C     -5.766630   21.331060    0.501240
  C     -4.382610   21.511910    0.717120
  C     -3.490850   20.483010    0.851540
  C     -2.120150   20.666680    1.056580
  C     -1.199180   19.650660    1.196480
  C      0.191340   19.788980    1.387100
  C      0.864920   18.603510    1.485430
  C      0.039720   17.469470    1.381060
  S     -1.624460   17.946290    1.153070
  C      0.425330   16.134150    1.438160
  C      1.726270   15.625550    1.587680
  C      1.784350   14.258220    1.599170
  C      0.533890   13.627820    1.464350
  S     -0.731480   14.827490    1.317290
  C      0.316170   12.261350    1.449110
  C     -0.894040   11.598390    1.336210
  S     -2.482790   12.336640    1.190420
  C     -3.361520   10.794200    1.133920
  C     -2.412780    9.738830    1.214390
  C     -1.085250   10.212920    1.325440
  O     -0.201680    9.206430    1.401060
  C     -0.949320    8.071200    1.336540
  N     -0.290360    6.834130    1.390110
  O     -0.990970    5.834200    1.329310
  O      0.922990    6.832000    1.490720
  C     -2.296960    8.332860    1.221370
  C     -4.732050   10.882400    1.040340
  C     -5.716160    9.894960    1.004420
  C     -7.095620   10.139380    0.927730
  C     -7.875330    9.005650    0.921220
  C     -7.135370    7.822290    0.989420
  S     -5.429490    8.178660    1.063560
  C     -7.561770    6.492140    1.000710
  C     -8.860880    5.969610    0.963310
  C     -8.899570    4.598330    0.984020
  C     -7.633330    3.984680    1.035490
  S     -6.383490    5.207090    1.065510
  C     -7.373150    2.625280    1.051520
  C     -6.128940    2.003980    1.086540
  S     -4.603890    2.891770    1.131960
  C     -3.725870    1.425560    1.141900
  C     -4.567360    0.300900    1.113350
  C     -5.905560    0.612990    1.083710
  C     -3.685670   -0.895190    1.123030
  O     -4.002990   -2.060710    1.110000
  C     -2.293970   -0.334350    1.153170
  C     -2.363630    1.037740    1.166520
  C     -1.154360   -1.200610    1.161650
  C      0.121400   -0.805770    1.187940
  H     -8.554530   20.050930    0.020000
  H    -11.170000   23.165530   -0.310440
  H     -8.754880   24.352330    0.096950
  H     -6.272010   23.374330    0.451300
  H     -6.128080   20.314080    0.433560
  H     -4.016350   22.529190    0.777850
  H     -3.853130   19.463760    0.796140
  H     -1.740850   21.679500    1.106670
  H      0.656760   20.757200    1.444060
  H      1.927140   18.525040    1.631300
  H      2.585460   16.264840    1.679500
  H      2.691780   13.689960    1.701790
  H      1.187570   11.625260    1.539430
  H     -3.048530    7.576660    1.153380
  H     -5.117260   11.894710    0.997090
  H     -7.488980   11.139530    0.880660
  H     -8.949030    9.011760    0.867740
  H     -9.732050    6.598490    0.923100
  H     -9.805480    4.018590    0.961240
  H     -8.234480    1.969620    1.028000
  H     -6.710390   -0.099380    1.058590
  H     -1.538380    1.725380    1.190820
  H     -1.398740   -2.255580    1.143210
  H      0.395570    0.235190    1.205930
  H      0.928950   -1.516520    1.190290

 Total Charge           Charge          ....    0
 Multiplicity           Mult            ....    1
 Number of Electrons    NEL             ....  426
 Basis Dimension        Dim             ....  919

ORBITAL ENERGIES
----------------

  NO   OCC          E(Eh)            E(eV)
   0   2.0000     -88.968400     -2420.9532
   1   2.0000     -88.961184     -2420.7569
   2   2.0000     -88.951853     -2420.5030
   3   2.0000     -88.950374     -2420.4627
   4   2.0000     -88.947939     -2420.3965
   5   2.0000     -88.944172     -2420.2940
   6   2.0000     -19.305231      -525.3220
   7   2.0000     -19.287904      -524.8505
   8   2.0000     -19.232047      -523.3306
   9   2.0000     -19.230476      -523.2879
  10   2.0000     -19.217067      -522.9230
  11   2.0000     -14.644395      -398.4942
  12   2.0000     -10.374249      -282.2977
  13   2.0000     -10.358545      -281.8703
  14   2.0000     -10.343984      -281.4741
  15   2.0000     -10.318978      -280.7937
  16   2.0000     -10.318005      -280.7672
  17   2.0000     -10.316530      -280.7271
  18   2.0000     -10.312706      -280.6230
  19   2.0000     -10.311757      -280.5972
  20   2.0000     -10.311017      -280.5770
  21   2.0000     -10.310827      -280.5719
  22   2.0000     -10.310630      -280.5665
  23   2.0000     -10.307580      -280.4835
  24   2.0000     -10.307107      -280.4706
  25   2.0000     -10.307001      -280.4678
  26   2.0000     -10.305871      -280.4370
  27   2.0000     -10.304187      -280.3912
  28   2.0000     -10.303747      -280.3792
  29   2.0000     -10.301720      -280.3240
  30   2.0000     -10.295405      -280.1522
  31   2.0000     -10.292224      -280.0657
  32   2.0000     -10.291439      -280.0443
  33   2.0000     -10.290758      -280.0258
  34   2.0000     -10.286431      -279.9080
  35   2.0000     -10.286336      -279.9054
  36   2.0000     -10.286189      -279.9014
  37   2.0000     -10.285848      -279.8921
  38   2.0000     -10.285270      -279.8764
  39   2.0000     -10.284820      -279.8642
  40   2.0000     -10.284359      -279.8516
  41   2.0000     -10.283286      -279.8225
  42   2.0000     -10.282800      -279.8092
  43   2.0000     -10.280360      -279.7428
  44   2.0000     -10.279131      -279.7094
  45   2.0000     -10.277744      -279.6716
  46   2.0000     -10.275553      -279.6120
  47   2.0000     -10.274369      -279.5798
  48   2.0000     -10.273060      -279.5442
  49   2.0000     -10.271560      -279.5034
  50   2.0000     -10.270943      -279.4866
  51   2.0000     -10.268663      -279.4245
  52   2.0000     -10.265353      -279.3344
  53   2.0000     -10.264633      -279.3149
  54   2.0000     -10.259066      -279.1634
  55   2.0000      -8.062796      -219.3998
  56   2.0000      -8.055729      -219.2075
  57   2.0000      -8.047971      -218.9964
  58   2.0000      -8.046433      -218.9546
  59   2.0000      -8.043820      -218.8835
  60   2.0000      -8.040520      -218.7937
  61   2.0000      -6.031935      -164.1373
  62   2.0000      -6.027833      -164.0257
  63   2.0000      -6.025323      -163.9574
  64   2.0000      -6.025289      -163.9564
  65   2.0000      -6.021275      -163.8472
  66   2.0000      -6.017579      -163.7466
  67   2.0000      -6.017216      -163.7368
  68   2.0000      -6.016105      -163.7065
  69   2.0000      -6.013512      -163.6360
  70   2.0000      -6.013430      -163.6337
  71   2.0000      -6.011940      -163.5932
  72   2.0000      -6.010181      -163.5453
  73   2.0000      -6.009400      -163.5241
  74   2.0000      -6.009263      -163.5204
  75   2.0000      -6.007627      -163.4759
  76   2.0000      -6.006215      -163.4374
  77   2.0000      -6.004984      -163.4039
  78   2.0000      -6.001509      -163.3094
  79   2.0000      -1.312887       -35.7255
  80   2.0000      -1.225898       -33.3584
  81   2.0000      -1.206027       -32.8177
  82   2.0000      -1.128283       -30.7021
  83   2.0000      -1.126342       -30.6493
  84   2.0000      -1.002379       -27.2761
  85   2.0000      -0.997184       -27.1348
  86   2.0000      -0.995183       -27.0803
  87   2.0000      -0.987390       -26.8683
  88   2.0000      -0.975996       -26.5582
  89   2.0000      -0.970711       -26.4144
  90   2.0000      -0.934627       -25.4325
  91   2.0000      -0.930120       -25.3099
  92   2.0000      -0.921057       -25.0632
  93   2.0000      -0.904273       -24.6065
  94   2.0000      -0.898458       -24.4483
  95   2.0000      -0.892096       -24.2752
  96   2.0000      -0.881441       -23.9852
  97   2.0000      -0.873338       -23.7647
  98   2.0000      -0.861741       -23.4492
  99   2.0000      -0.854328       -23.2475
 100   2.0000      -0.846384       -23.0313
 101   2.0000      -0.845589       -23.0097
 102   2.0000      -0.843081       -22.9414
 103   2.0000      -0.838138       -22.8069
 104   2.0000      -0.829300       -22.5664
 105   2.0000      -0.822601       -22.3841
 106   2.0000      -0.820900       -22.3378
 107   2.0000      -0.812270       -22.1030
 108   2.0000      -0.797637       -21.7048
 109   2.0000      -0.780415       -21.2362
 110   2.0000      -0.776331       -21.1250
 111   2.0000      -0.756054       -20.5733
 112   2.0000      -0.746181       -20.3046
 113   2.0000      -0.740076       -20.1385
 114   2.0000      -0.727781       -19.8039
 115   2.0000      -0.705613       -19.2007
 116   2.0000      -0.704406       -19.1679
 117   2.0000      -0.683695       -18.6043
 118   2.0000      -0.678402       -18.4602
 119   2.0000      -0.674630       -18.3576
 120   2.0000      -0.671204       -18.2644
 121   2.0000      -0.666297       -18.1309
 122   2.0000      -0.654473       -17.8091
 123   2.0000      -0.651570       -17.7301
 124   2.0000      -0.643720       -17.5165
 125   2.0000      -0.639726       -17.4078
 126   2.0000      -0.635841       -17.3021
 127   2.0000      -0.629655       -17.1338
 128   2.0000      -0.629157       -17.1202
 129   2.0000      -0.624266       -16.9871
 130   2.0000      -0.622926       -16.9507
 131   2.0000      -0.619513       -16.8578
 132   2.0000      -0.616919       -16.7872
 133   2.0000      -0.607891       -16.5415
 134   2.0000      -0.600399       -16.3377
 135   2.0000      -0.599972       -16.3261
 136   2.0000      -0.598099       -16.2751
 137   2.0000      -0.593671       -16.1546
 138   2.0000      -0.590967       -16.0810
 139   2.0000      -0.583324       -15.8730
 140   2.0000      -0.571383       -15.5481
 141   2.0000      -0.560902       -15.2629
 142   2.0000      -0.559461       -15.2237
 143   2.0000      -0.555422       -15.1138
 144   2.0000      -0.552601       -15.0371
 145   2.0000      -0.544616       -14.8198
 146   2.0000      -0.544155       -14.8072
 147   2.0000      -0.539038       -14.6680
 148   2.0000      -0.536848       -14.6084
 149   2.0000      -0.530227       -14.4282
 150   2.0000      -0.526036       -14.3142
 151   2.0000      -0.519635       -14.1400
 152   2.0000      -0.516333       -14.0501
 153   2.0000      -0.515520       -14.0280
 154   2.0000      -0.507367       -13.8062
 155   2.0000      -0.504661       -13.7325
 156   2.0000      -0.501478       -13.6459
 157   2.0000      -0.500820       -13.6280
 158   2.0000      -0.496838       -13.5197
 159   2.0000      -0.496496       -13.5103
 160   2.0000      -0.493972       -13.4417
 161   2.0000      -0.490061       -13.3352
 162   2.0000      -0.485584       -13.2134
 163   2.0000      -0.483089       -13.1455
 164   2.0000      -0.482278       -13.1234
 165   2.0000      -0.479618       -13.0511
 166   2.0000      -0.476830       -12.9752
 167   2.0000      -0.473533       -12.8855
 168   2.0000      -0.471243       -12.8232
 169   2.0000      -0.470666       -12.8075
 170   2.0000      -0.464761       -12.6468
 171   2.0000      -0.462021       -12.5722
 172   2.0000      -0.460611       -12.5339
 173   2.0000      -0.458689       -12.4816
 174   2.0000      -0.455667       -12.3993
 175   2.0000      -0.453763       -12.3475
 176   2.0000      -0.450207       -12.2508
 177   2.0000      -0.443937       -12.0801
 178   2.0000      -0.441360       -12.0100
 179   2.0000      -0.438050       -11.9200
 180   2.0000      -0.431334       -11.7372
 181   2.0000      -0.429907       -11.6984
 182   2.0000      -0.428652       -11.6642
 183   2.0000      -0.426620       -11.6089
 184   2.0000      -0.423852       -11.5336
 185   2.0000      -0.416822       -11.3423
 186   2.0000      -0.415927       -11.3179
 187   2.0000      -0.412097       -11.2137
 188   2.0000      -0.407727       -11.0948
 189   2.0000      -0.392985       -10.6937
 190   2.0000      -0.392441       -10.6789
 191   2.0000      -0.391872       -10.6634
 192   2.0000      -0.386580       -10.5194
 193   2.0000      -0.380343       -10.3497
 194   2.0000      -0.371130       -10.0989
 195   2.0000      -0.365748        -9.9525
 196   2.0000      -0.360817        -9.8183
 197   2.0000      -0.360270        -9.8034
 198   2.0000      -0.342337        -9.3155
 199   2.0000      -0.341098        -9.2817
 200   2.0000      -0.335805        -9.1377
 201   2.0000      -0.332804        -9.0560
 202   2.0000      -0.328869        -8.9490
 203   2.0000      -0.327556        -8.9133
 204   2.0000      -0.322576        -8.7777
 205   2.0000      -0.321001        -8.7349
 206   2.0000      -0.313260        -8.5242
 207   2.0000      -0.307166        -8.3584
 208   2.0000      -0.291313        -7.9270
 209   2.0000      -0.270807        -7.3690
 210   2.0000      -0.249858        -6.7990
 211   2.0000      -0.218657        -5.9500
 212   2.0000      -0.180375        -4.9082
 213   0.0000      -0.108163        -2.9433
 214   0.0000      -0.073743        -2.0066
 215   0.0000      -0.061396        -1.6707
 216   0.0000      -0.042092        -1.1454
 217   0.0000      -0.022271        -0.6060

MULLIKEN ATOMIC CHARGES
-----------------------
   0 C :    0.069921
   1 O :   -0.177633
   2 C :    0.134519
   3 C :   -0.045279
   4 C :    0.044833
   5 C :    0.023338
   6 C :    0.021627
   7 C :    0.019174
   8 C :    0.003014
   9 C :   -0.007999
  10 C :   -0.021050
  11 C :    0.035039
  12 C :    0.016819
  13 C :   -0.042595
  14 S :    0.078134
  15 C :   -0.039285
  16 C :    0.021645
  17 C :    0.030491
  18 C :   -0.031418
  19 S :    0.073839
  20 C :   -0.023341
  21 C :   -0.135913
  22 S :    0.108951
  23 C :   -0.127630
  24 C :    0.136334
  25 C :    0.154934
  26 O :   -0.172948
  27 C :    0.207765
  28 N :    0.284920
  29 O :   -0.268662
  30 O :   -0.246382
  31 C :   -0.092833
  32 C :    0.027801
  33 C :   -0.023142
  34 C :    0.020359
  35 C :    0.019189
  36 C :   -0.024329
  37 S :    0.049319
  38 C :   -0.022627
  39 C :    0.021616
  40 C :    0.033205
  41 C :   -0.044379
  42 S :    0.055281
  43 C :    0.013282
  44 C :   -0.079177
  45 S :    0.153418
  46 C :   -0.049398
  47 C :    0.027120
  48 C :   -0.028563
  49 C :    0.155663
  50 O :   -0.118187
  51 C :   -0.056482
  52 C :   -0.015396
  53 C :    0.006579
  54 C :   -0.008595
  55 H :    0.004816
  56 H :    0.009142
  57 H :   -0.013481
  58 H :   -0.021548
  59 H :   -0.018262
  60 H :   -0.015154
  61 H :   -0.004946
  62 H :   -0.016374
  63 H :   -0.014087
  64 H :   -0.013244
  65 H :   -0.015714
  66 H :   -0.011704
  67 H :    0.004132
  68 H :    0.019074
  69 H :   -0.018224
  70 H :   -0.013550
  71 H :   -0.012803
  72 H :   -0.015336
  73 H :   -0.012058
  74 H :   -0.007668
  75 H :   -0.006510
  76 H :    0.004596
  77 H :    0.001599
  78 H :    0.015861
  79 H :    0.026559
Sum of atomic charges:    0.0000000

LOEWDIN ATOMIC CHARGES
----------------------
   0 C :    0.035149
   1 O :    0.027035
   2 C :    0.030234
   3 C :   -0.069373
   4 C :   -0.081069
   5 C :   -0.012127
   6 C :   -0.028996
   7 C :   -0.012285
   8 C :   -0.040553
   9 C :   -0.047756
  10 C :   -0.151593
  11 C :   -0.032606
  12 C :   -0.038023
  13 C :   -0.173863
  14 S :    0.374285
  15 C :   -0.184423
  16 C :   -0.038714
  17 C :   -0.037151
  18 C :   -0.156137
  19 S :    0.377877
  20 C :   -0.071899
  21 C :   -0.196985
  22 S :    0.426142
  23 C :   -0.157086
  24 C :   -0.084345
  25 C :    0.026313
  26 O :    0.013803
  27 C :    0.008673
  28 N :    0.273815
  29 O :   -0.230041
  30 O :   -0.207235
  31 C :   -0.013184
  32 C :   -0.081141
  33 C :   -0.156686
  34 C :   -0.038983
  35 C :   -0.040498
  36 C :   -0.183615
  37 S :    0.412180
  38 C :   -0.175027
  39 C :   -0.045387
  40 C :   -0.029969
  41 C :   -0.167106
  42 S :    0.378790
  43 C :   -0.058845
  44 C :   -0.174013
  45 S :    0.465415
  46 C :   -0.176545
  47 C :   -0.102013
  48 C :   -0.013369
  49 C :    0.097808
  50 O :   -0.108119
  51 C :   -0.064889
  52 C :    0.013697
  53 C :   -0.026210
  54 C :   -0.028461
  55 H :    0.019565
  56 H :    0.021882
  57 H :    0.029315
  58 H :    0.028388
  59 H :    0.025881
  60 H :    0.027433
  61 H :    0.022383
  62 H :    0.032761
  63 H :    0.033046
  64 H :    0.031617
  65 H :    0.031111
  66 H :    0.033956
  67 H :    0.046186
  68 H :    0.026835
  69 H :    0.035539
  70 H :    0.032698
  71 H :    0.032447
  72 H :    0.031762
  73 H :    0.033444
  74 H :    0.042545
  75 H :    0.037769
  76 H :    0.036636
  77 H :    0.034488
  78 H :    0.021074
  79 H :    0.026340

  Mayer bond orders larger than 0.100000
B(  0-C ,  1-O ) :   1.1755 B(  0-C ,  4-C ) :   1.4957 B(  0-C , 55-H ) :   1.0035
B(  1-O ,  2-C ) :   1.1437 B(  2-C ,  3-C ) :   1.5774 B(  2-C , 56-H ) :   1.0015
B(  3-C ,  4-C ) :   1.2033 B(  3-C , 57-H ) :   1.0103 B(  4-C ,  5-C ) :   1.0825
B(  5-C ,  6-C ) :   1.6586 B(  5-C , 58-H ) :   0.9806 B(  6-C ,  7-C ) :   1.1570
B(  6-C , 59-H ) :   0.9798 B(  7-C ,  8-C ) :   1.5835 B(  7-C , 60-H ) :   0.9916
B(  8-C ,  9-C ) :   1.1725 B(  8-C , 61-H ) :   0.9773 B(  9-C , 10-C ) :   1.5286
B(  9-C , 62-H ) :   0.9814 B( 10-C , 11-C ) :   1.1689 B( 10-C , 14-S ) :   1.0315
B( 11-C , 12-C ) :   1.5497 B( 11-C , 63-H ) :   1.0006 B( 12-C , 13-C ) :   1.2241
B( 12-C , 64-H ) :   0.9945 B( 13-C , 14-S ) :   1.0583 B( 13-C , 15-C ) :   1.4440
B( 15-C , 16-C ) :   1.2312 B( 15-C , 19-S ) :   1.0504 B( 16-C , 17-C ) :   1.5320
B( 16-C , 65-H ) :   0.9937 B( 17-C , 18-C ) :   1.1961 B( 17-C , 66-H ) :   1.0015
B( 18-C , 19-S ) :   1.0502 B( 18-C , 20-C ) :   1.4577 B( 20-C , 21-C ) :   1.2755
B( 20-C , 67-H ) :   0.9740 B( 21-C , 22-S ) :   1.0546 B( 21-C , 25-C ) :   1.3611
B( 22-S , 23-C ) :   1.0998 B( 23-C , 24-C ) :   1.1981 B( 23-C , 32-C ) :   1.3463
B( 24-C , 25-C ) :   1.2790 B( 24-C , 31-C ) :   1.1379 B( 25-C , 26-O ) :   1.1519
B( 26-O , 27-C ) :   1.1192 B( 27-C , 28-N ) :   0.9450 B( 27-C , 31-C ) :   1.5126
B( 28-N , 29-O ) :   1.5056 B( 28-N , 30-O ) :   1.4923 B( 29-O , 30-O ) :   0.2678
B( 31-C , 68-H ) :   1.0074 B( 32-C , 33-C ) :   1.4471 B( 32-C , 69-H ) :   0.9374
B( 33-C , 34-C ) :   1.2308 B( 33-C , 37-S ) :   1.0560 B( 34-C , 35-C ) :   1.4944
B( 34-C , 70-H ) :   1.0004 B( 35-C , 36-C ) :   1.2640 B( 35-C , 71-H ) :   0.9945
B( 36-C , 37-S ) :   1.0585 B( 36-C , 38-C ) :   1.3992 B( 38-C , 39-C ) :   1.2470
B( 38-C , 42-S ) :   1.0607 B( 39-C , 40-C ) :   1.5247 B( 39-C , 72-H ) :   0.9948
B( 40-C , 41-C ) :   1.1949 B( 40-C , 73-H ) :   1.0001 B( 41-C , 42-S ) :   1.0407
B( 41-C , 43-C ) :   1.4837 B( 43-C , 44-C ) :   1.2578 B( 43-C , 74-H ) :   0.9710
B( 44-C , 45-S ) :   1.0844 B( 44-C , 48-C ) :   1.3349 B( 45-S , 46-C ) :   1.1401
B( 46-C , 47-C ) :   1.3898 B( 46-C , 52-C ) :   1.0931 B( 47-C , 48-C ) :   1.3719
B( 47-C , 49-C ) :   0.8993 B( 48-C , 75-H ) :   1.0111 B( 49-C , 50-O ) :   2.2728
B( 49-C , 51-C ) :   0.9387 B( 51-C , 52-C ) :   1.6118 B( 51-C , 53-C ) :   1.1215
B( 52-C , 76-H ) :   1.0170 B( 53-C , 54-C ) :   1.8964 B( 53-C , 77-H ) :   0.9609
B( 54-C , 78-H ) :   0.9534 B( 54-C , 79-H ) :   0.9516

-----------------------------------------------------------------------------
         ABSORPTION SPECTRUM VIA TRANSITION ELECTRIC DIPOLE MOMENTS
-----------------------------------------------------------------------------
State   Energy  Wavelength   fosc         T2         TX        TY        TZ
        (cm-1)    (nm)                  (au**2)     (au)      (au)      (au)
-----------------------------------------------------------------------------
   0    4831.1   2069.9   0.737952919  50.28763  -1.27944  -6.97496   0.02547
   1   11045.7    905.3   0.032818173   0.97813  -0.49142  -0.85794   0.02426
   2   12483.2    801.1   0.020354471   0.53680  -0.63970  -0.34176   0.10383
   3   13224.6    756.2   0.459177724  11.43076  -1.68278   2.92205  -0.24617
   4   16917.1    591.1   0.127236709   2.47607  -1.15343  -1.06207  -0.13296
   5   18326.7    545.7   0.636749046  11.43824   3.03747  -1.46879   0.23387
   6   20700.4    483.1   0.087586881   1.39295   1.16225   0.18141   0.09600
   7   21682.3    461.2   0.024277174   0.36861   0.57567  -0.19006  -0.03304
   8   22186.9    450.7   0.545282086   8.09097   2.67106  -0.93330   0.29213
   9   24244.5    412.5   0.419356432   5.69436   2.29771  -0.56739   0.30490
  10   25465.6    392.7   0.795241308  10.28065  -2.90205   1.33644  -0.26955
  11   26081.8    383.4   0.046747551   0.59006   0.75643   0.13310  -0.01243
  12   26622.4    375.6   0.000067152   0.00083  -0.00464   0.00328   0.02825
  13   27090.4    369.1   0.018293295   0.22231   0.33415   0.32770   0.05714
  14   27951.9    357.8   0.004213729   0.04963  -0.03328   0.21241   0.05833
  15   28279.4    353.6   0.253610237   2.95238  -0.63636   1.59597   0.01695
  16   28541.4    350.4   0.105560918   1.21759  -0.44579  -0.99578  -0.16518
  17   28754.1    347.8   0.001006233   0.01152   0.03634  -0.09742  -0.02664
  18   29861.2    334.9   0.032519701   0.35852   0.00335  -0.59862  -0.01286
  19   29960.8    333.8   0.018960468   0.20834  -0.05119   0.45338  -0.01290
  20   30811.3    324.6   0.006506009   0.06952   0.08112  -0.24438  -0.05667
  21   31453.8    317.9   0.000856616   0.00897   0.01100  -0.04796   0.08090
  22   31685.3    315.6   0.013519064   0.14046  -0.20480  -0.30619   0.06905
  23   32252.0    310.1   0.010125067   0.10335   0.26542   0.16895   0.06604
  24   32769.1    305.2   0.003149384   0.03164   0.17523  -0.03056   0.00043
  25   33124.2    301.9   0.037850067   0.37618  -0.57895  -0.18606  -0.07990
  26   33628.7    297.4   0.115896943   1.13459  -0.98435   0.40257  -0.05979
  27   33790.3    295.9   0.039667448   0.38647   0.54778  -0.27532   0.10297
  28   34424.8    290.5   0.108250036   1.03522   0.42285   0.92489   0.03143
  29   34834.3    287.1   0.011624078   0.10986  -0.09796  -0.31654  -0.00810
  30   35008.0    285.6   0.000283894   0.00267   0.03525   0.03758  -0.00382
  31   35373.3    282.7   0.078691844   0.73237  -0.43320  -0.73626  -0.05129
  32   35860.7    278.9   0.022125132   0.20312   0.17365   0.41568  -0.01319
  33   36144.3    276.7   0.003346270   0.03048   0.02647   0.16836   0.03783
  34   36645.1    272.9   0.077776437   0.69873  -0.81037  -0.20395  -0.02089
  35   37200.0    268.8   0.175213969   1.55061   0.74654  -0.99283   0.08706
  36   37492.0    266.7   0.000048526   0.00043   0.00396  -0.00265  -0.02008
  37   37939.8    263.6   0.059585699   0.51704   0.47705  -0.53426   0.06346
  38   38109.8    262.4   0.032179751   0.27799   0.00546  -0.52705   0.01314
  39   38200.2    261.8   0.000283480   0.00244   0.00294   0.00734   0.04879
  40   38234.6    261.5   0.025691742   0.22121   0.15365   0.44447  -0.00702
  41   38455.3    260.0   0.100571690   0.86098   0.90223  -0.21434   0.03194
  42   38871.8    257.3   0.000884380   0.00749  -0.02632   0.02297   0.07918
  43   39061.9    256.0   0.047733438   0.40230   0.25506  -0.58055  -0.01399
  44   39241.6    254.8   0.003366747   0.02824  -0.12125  -0.11183  -0.03220
  45   39605.7    252.5   0.213435277   1.77412  -0.45188   1.25250  -0.03427
  46   39868.7    250.8   0.055471894   0.45805  -0.37640   0.56246  -0.00362
  47   40254.0    248.4   0.065131884   0.53267   0.44065  -0.58045   0.03977

FINAL SINGLE POINT ENERGY     -4469.998861884234

DIPOLE MOMENT
-------------
                                X             Y             Z
Electronic contribution:      8.49309     -35.86253       2.32862
Nuclear contribution   :     -9.98912      39.40196      -2.42946
                        -----------------------------------------
Total Dipole Moment    :     -1.49603       3.53942      -0.10084
                        -----------------------------------------
Magnitude (a.u.)       :      3.84393
Magnitude (Debye)      :      9.77048

Rotational constants in cm-1:     0.001888     0.000376     0.000314
Rotational constants in MHz :    56.613914    11.286268     9.418985

                             ****ORCA TERMINATED NORMALLY****
TOTAL RUN TIME: 0 days 0 hours 6 minutes 41 seconds 906 msec
