                         Program Version 4.2.0 -  RELEASE  -
|  1> # ORCA input file
|  2> # SCF done       -138.807959623295          0.000282634038
|  3> ! CAM-B3LYP def2-SVP def2/J RIJCOSX Grid4 TightSCF
|  4> %maxcore 5000
|  5> %tddft
|  6>     Mode sTDDFT
|  7>     Ethresh 5.0
|  8>     maxcore 5000
|  9> end
| 10>
| 11> %pal
| 12>   nprocs 6
| 13>   end
| 14> * xyz 0 1
| 15>    C        5.08642         9.60638         0.52619
| 16>    O        4.98547        10.91696         0.76741
| 17>    C        5.71714        11.54944        -0.16839
| 18>    C        6.29212        10.66075        -1.01582
| 19>    C        5.88434         9.36483        -0.56915
| 20>    C        6.21044         8.07663        -1.10605
| 21>    C        6.98175         7.85040        -2.19006
| 22>    C        7.24858         6.53560        -2.66531
| 23>    C        8.01564         6.25623        -3.74699
| 24>    C        8.27645         4.94900        -4.24453
| 25>    S        9.73337         4.66212        -5.14358
| 26>    C        9.35763         2.97570        -5.22478
| 27>    N       10.24151         2.12709        -5.89231
| 28>    O        9.94613         0.94606        -5.97037
| 29>    O       11.25234         2.62833        -6.35715
| 30>    C        8.17220         2.65363        -4.61241
| 31>    C        7.52800         3.77498        -4.06348
| 32>    C        6.20675         3.76663        -3.49272
| 33>    C        5.58655         2.69862        -2.95868
| 34>    C        4.28206         2.80842        -2.35622
| 35>    C        3.39322         1.78439        -2.20191
| 36>    O        2.22661         1.91642        -1.45976
| 37>    C        1.98131         3.16171        -0.96816
| 38>    C        2.86945         4.25165        -1.20374
| 39>    C        2.43902         5.41213        -0.65173
| 40>    S        0.93691         5.19345         0.16976
| 41>    C        0.89533         3.51770        -0.23985
| 42>    O        4.03154         4.09580        -1.89424
| 43>    C        3.47521         0.48102        -2.79728
| 44>    C        4.23115         0.15831        -3.86617
| 45>    C        4.31834        -1.12920        -4.48741
| 46>    C        3.77028        -2.32745        -3.96093
| 47>    C        4.09937        -3.43888        -4.67508
| 48>    S        3.57462        -5.06394        -4.31237
| 49>    C        4.43930        -6.00699        -5.59865
| 50>    S        5.11822        -3.05387        -6.03015
| 51>    C        5.07196        -1.35671        -5.63906
| 52>    C        5.82883        -0.45583        -6.44432
| 53>    C        5.54426         0.85093        -6.64148
| 54>    C        6.42053         1.78464        -7.27196
| 55>    C        7.62212         1.59435        -7.88958
| 56>    C        8.27268         2.80030        -8.25470
| 57>    C        7.51706         3.94764        -7.89354
| 58>    S        6.00469         3.49421        -7.15761
| 59>    C        7.98066         5.23005        -8.08511
| 60>    C        9.24342         5.38756        -8.65186
| 61>    C        9.99231         4.24268        -9.02822
| 62>    C        9.52426         2.95988        -8.84785
| 63>    S       11.53106         4.69269        -9.70613
| 64>    C       11.16432         6.36880        -9.47959
| 65>    C        9.95370         6.59189        -8.92683
| 66>    H        4.56245         8.93807         1.18118
| 67>    H        5.74873        12.61995        -0.12410
| 68>    H        6.92413        10.88724        -1.84860
| 69>    H        5.78629         7.23162        -0.57797
| 70>    H        7.41037         8.67831        -2.73694
| 71>    H        6.82188         5.72651        -2.08983
| 72>    H        8.52875         7.06507        -4.25180
| 73>    H        7.78472         1.65115        -4.59971
| 74>    H        5.66923         4.70245        -3.54160
| 75>    H        6.07702         1.73997        -2.88615
| 76>    H        2.90725         6.37363        -0.68611
| 77>    H        0.08147         2.90037         0.07736
| 78>    H        2.77851        -0.22977        -2.37678
| 79>    H        4.83764         0.92556        -4.31644
| 80>    H        3.16472        -2.37326        -3.07548
| 81>    H        4.17918        -7.04843        -5.44005
| 82>    H        5.51119        -5.86569        -5.49408
| 83>    H        4.10287        -5.67949        -6.57824
| 84>    H        6.70403        -0.87899        -6.91990
| 85>    H        4.61447         1.26605        -6.27973
| 86>    H        8.06086         0.62803        -8.05736
| 87>    H        7.39317         6.08712        -7.79509
| 88>    H       10.11413         2.10150        -9.12655
| 89>    H       11.89344         7.09615        -9.78031
| 90>    H        9.55979         7.56968        -8.71377
| 91> *
| 92>
| 93>                          ****END OF INPUT****

CARTESIAN COORDINATES (ANGSTROEM)
---------------------------------
  C      5.086420    9.606380    0.526190
  O      4.985470   10.916960    0.767410
  C      5.717140   11.549440   -0.168390
  C      6.292120   10.660750   -1.015820
  C      5.884340    9.364830   -0.569150
  C      6.210440    8.076630   -1.106050
  C      6.981750    7.850400   -2.190060
  C      7.248580    6.535600   -2.665310
  C      8.015640    6.256230   -3.746990
  C      8.276450    4.949000   -4.244530
  S      9.733370    4.662120   -5.143580
  C      9.357630    2.975700   -5.224780
  N     10.241510    2.127090   -5.892310
  O      9.946130    0.946060   -5.970370
  O     11.252340    2.628330   -6.357150
  C      8.172200    2.653630   -4.612410
  C      7.528000    3.774980   -4.063480
  C      6.206750    3.766630   -3.492720
  C      5.586550    2.698620   -2.958680
  C      4.282060    2.808420   -2.356220
  C      3.393220    1.784390   -2.201910
  O      2.226610    1.916420   -1.459760
  C      1.981310    3.161710   -0.968160
  C      2.869450    4.251650   -1.203740
  C      2.439020    5.412130   -0.651730
  S      0.936910    5.193450    0.169760
  C      0.895330    3.517700   -0.239850
  O      4.031540    4.095800   -1.894240
  C      3.475210    0.481020   -2.797280
  C      4.231150    0.158310   -3.866170
  C      4.318340   -1.129200   -4.487410
  C      3.770280   -2.327450   -3.960930
  C      4.099370   -3.438880   -4.675080
  S      3.574620   -5.063940   -4.312370
  C      4.439300   -6.006990   -5.598650
  S      5.118220   -3.053870   -6.030150
  C      5.071960   -1.356710   -5.639060
  C      5.828830   -0.455830   -6.444320
  C      5.544260    0.850930   -6.641480
  C      6.420530    1.784640   -7.271960
  C      7.622120    1.594350   -7.889580
  C      8.272680    2.800300   -8.254700
  C      7.517060    3.947640   -7.893540
  S      6.004690    3.494210   -7.157610
  C      7.980660    5.230050   -8.085110
  C      9.243420    5.387560   -8.651860
  C      9.992310    4.242680   -9.028220
  C      9.524260    2.959880   -8.847850
  S     11.531060    4.692690   -9.706130
  C     11.164320    6.368800   -9.479590
  C      9.953700    6.591890   -8.926830
  H      4.562450    8.938070    1.181180
  H      5.748730   12.619950   -0.124100
  H      6.924130   10.887240   -1.848600
  H      5.786290    7.231620   -0.577970
  H      7.410370    8.678310   -2.736940
  H      6.821880    5.726510   -2.089830
  H      8.528750    7.065070   -4.251800
  H      7.784720    1.651150   -4.599710
  H      5.669230    4.702450   -3.541600
  H      6.077020    1.739970   -2.886150
  H      2.907250    6.373630   -0.686110
  H      0.081470    2.900370    0.077360
  H      2.778510   -0.229770   -2.376780
  H      4.837640    0.925560   -4.316440
  H      3.164720   -2.373260   -3.075480
  H      4.179180   -7.048430   -5.440050
  H      5.511190   -5.865690   -5.494080
  H      4.102870   -5.679490   -6.578240
  H      6.704030   -0.878990   -6.919900
  H      4.614470    1.266050   -6.279730
  H      8.060860    0.628030   -8.057360
  H      7.393170    6.087120   -7.795090
  H     10.114130    2.101500   -9.126550
  H     11.893440    7.096150   -9.780310
  H      9.559790    7.569680   -8.713770

 Total Charge           Charge          ....    0
 Multiplicity           Mult            ....    1
 Number of Electrons    NEL             ....  402
 Basis Dimension        Dim             ....  863

ORBITAL ENERGIES
----------------

  NO   OCC          E(Eh)            E(eV)
   0   2.0000     -88.964859     -2420.8569
   1   2.0000     -88.956212     -2420.6216
   2   2.0000     -88.953101     -2420.5369
   3   2.0000     -88.937939     -2420.1243
   4   2.0000     -88.935406     -2420.0554
   5   2.0000     -88.934530     -2420.0316
   6   2.0000     -19.292303      -524.9703
   7   2.0000     -19.268383      -524.3194
   8   2.0000     -19.265543      -524.2421
   9   2.0000     -19.228999      -523.2477
  10   2.0000     -19.228851      -523.2436
  11   2.0000     -14.638336      -398.3294
  12   2.0000     -10.337146      -281.2880
  13   2.0000     -10.335854      -281.2529
  14   2.0000     -10.335582      -281.2455
  15   2.0000     -10.335072      -281.2316
  16   2.0000     -10.329855      -281.0897
  17   2.0000     -10.324804      -280.9522
  18   2.0000     -10.322590      -280.8920
  19   2.0000     -10.318154      -280.7712
  20   2.0000     -10.313063      -280.6327
  21   2.0000     -10.299086      -280.2524
  22   2.0000     -10.297890      -280.2198
  23   2.0000     -10.295443      -280.1532
  24   2.0000     -10.291573      -280.0479
  25   2.0000     -10.290119      -280.0084
  26   2.0000     -10.289914      -280.0028
  27   2.0000     -10.289348      -279.9874
  28   2.0000     -10.287069      -279.9254
  29   2.0000     -10.286691      -279.9151
  30   2.0000     -10.286048      -279.8976
  31   2.0000     -10.285638      -279.8864
  32   2.0000     -10.284252      -279.8487
  33   2.0000     -10.283263      -279.8218
  34   2.0000     -10.282806      -279.8094
  35   2.0000     -10.281339      -279.7695
  36   2.0000     -10.279686      -279.7245
  37   2.0000     -10.277997      -279.6785
  38   2.0000     -10.277896      -279.6758
  39   2.0000     -10.277469      -279.6641
  40   2.0000     -10.276287      -279.6320
  41   2.0000     -10.276132      -279.6278
  42   2.0000     -10.276123      -279.6275
  43   2.0000     -10.271980      -279.5148
  44   2.0000     -10.271156      -279.4924
  45   2.0000     -10.270222      -279.4670
  46   2.0000     -10.269994      -279.4607
  47   2.0000     -10.268899      -279.4309
  48   2.0000     -10.267293      -279.3872
  49   2.0000     -10.263746      -279.2907
  50   2.0000     -10.262796      -279.2649
  51   2.0000      -8.059870      -219.3202
  52   2.0000      -8.051808      -219.1008
  53   2.0000      -8.048921      -219.0223
  54   2.0000      -8.033324      -218.5979
  55   2.0000      -8.031685      -218.5533
  56   2.0000      -8.030130      -218.5110
  57   2.0000      -6.029301      -164.0656
  58   2.0000      -6.024991      -163.9483
  59   2.0000      -6.021805      -163.8616
  60   2.0000      -6.021346      -163.8492
  61   2.0000      -6.018464      -163.7707
  62   2.0000      -6.017028      -163.7317
  63   2.0000      -6.014292      -163.6572
  64   2.0000      -6.013587      -163.6380
  65   2.0000      -6.010527      -163.5547
  66   2.0000      -6.002954      -163.3487
  67   2.0000      -6.001326      -163.3044
  68   2.0000      -6.000576      -163.2840
  69   2.0000      -5.999025      -163.2418
  70   2.0000      -5.997093      -163.1892
  71   2.0000      -5.996522      -163.1737
  72   2.0000      -5.994591      -163.1211
  73   2.0000      -5.993083      -163.0801
  74   2.0000      -5.989713      -162.9884
  75   2.0000      -1.307832       -35.5879
  76   2.0000      -1.211995       -32.9801
  77   2.0000      -1.192118       -32.4392
  78   2.0000      -1.155048       -31.4304
  79   2.0000      -1.126210       -30.6457
  80   2.0000      -0.999399       -27.1950
  81   2.0000      -0.988069       -26.8867
  82   2.0000      -0.986003       -26.8305
  83   2.0000      -0.981055       -26.6959
  84   2.0000      -0.961998       -26.1773
  85   2.0000      -0.928020       -25.2527
  86   2.0000      -0.922650       -25.1066
  87   2.0000      -0.913141       -24.8478
  88   2.0000      -0.908834       -24.7306
  89   2.0000      -0.899045       -24.4643
  90   2.0000      -0.890060       -24.2198
  91   2.0000      -0.876984       -23.8640
  92   2.0000      -0.869234       -23.6531
  93   2.0000      -0.861811       -23.4511
  94   2.0000      -0.858932       -23.3727
  95   2.0000      -0.847285       -23.0558
  96   2.0000      -0.841447       -22.8969
  97   2.0000      -0.826803       -22.4985
  98   2.0000      -0.823455       -22.4074
  99   2.0000      -0.816252       -22.2113
 100   2.0000      -0.813355       -22.1325
 101   2.0000      -0.809257       -22.0210
 102   2.0000      -0.790199       -21.5024
 103   2.0000      -0.780723       -21.2446
 104   2.0000      -0.766439       -20.8559
 105   2.0000      -0.764710       -20.8088
 106   2.0000      -0.744391       -20.2559
 107   2.0000      -0.740571       -20.1520
 108   2.0000      -0.723614       -19.6905
 109   2.0000      -0.708505       -19.2794
 110   2.0000      -0.694551       -18.8997
 111   2.0000      -0.687583       -18.7101
 112   2.0000      -0.680420       -18.5152
 113   2.0000      -0.676575       -18.4105
 114   2.0000      -0.658529       -17.9195
 115   2.0000      -0.657383       -17.8883
 116   2.0000      -0.654753       -17.8167
 117   2.0000      -0.650286       -17.6952
 118   2.0000      -0.645575       -17.5670
 119   2.0000      -0.636600       -17.3228
 120   2.0000      -0.632130       -17.2011
 121   2.0000      -0.630889       -17.1674
 122   2.0000      -0.626580       -17.0501
 123   2.0000      -0.621638       -16.9156
 124   2.0000      -0.614917       -16.7328
 125   2.0000      -0.614030       -16.7086
 126   2.0000      -0.599254       -16.3065
 127   2.0000      -0.595038       -16.1918
 128   2.0000      -0.587008       -15.9733
 129   2.0000      -0.578175       -15.7330
 130   2.0000      -0.572749       -15.5853
 131   2.0000      -0.571347       -15.5471
 132   2.0000      -0.570048       -15.5118
 133   2.0000      -0.563353       -15.3296
 134   2.0000      -0.555495       -15.1158
 135   2.0000      -0.553067       -15.0497
 136   2.0000      -0.550200       -14.9717
 137   2.0000      -0.539433       -14.6787
 138   2.0000      -0.537393       -14.6232
 139   2.0000      -0.532365       -14.4864
 140   2.0000      -0.527411       -14.3516
 141   2.0000      -0.524205       -14.2643
 142   2.0000      -0.522171       -14.2090
 143   2.0000      -0.520110       -14.1529
 144   2.0000      -0.517326       -14.0772
 145   2.0000      -0.516875       -14.0649
 146   2.0000      -0.514169       -13.9912
 147   2.0000      -0.501133       -13.6365
 148   2.0000      -0.498889       -13.5755
 149   2.0000      -0.496955       -13.5228
 150   2.0000      -0.496280       -13.5045
 151   2.0000      -0.492750       -13.4084
 152   2.0000      -0.489065       -13.3081
 153   2.0000      -0.485887       -13.2216
 154   2.0000      -0.481250       -13.0955
 155   2.0000      -0.479085       -13.0366
 156   2.0000      -0.476225       -12.9587
 157   2.0000      -0.474628       -12.9153
 158   2.0000      -0.474008       -12.8984
 159   2.0000      -0.470007       -12.7895
 160   2.0000      -0.459165       -12.4945
 161   2.0000      -0.458119       -12.4660
 162   2.0000      -0.456712       -12.4278
 163   2.0000      -0.454491       -12.3673
 164   2.0000      -0.450562       -12.2604
 165   2.0000      -0.443638       -12.0720
 166   2.0000      -0.441882       -12.0242
 167   2.0000      -0.440848       -11.9961
 168   2.0000      -0.434247       -11.8165
 169   2.0000      -0.432272       -11.7627
 170   2.0000      -0.429568       -11.6891
 171   2.0000      -0.427712       -11.6386
 172   2.0000      -0.425141       -11.5687
 173   2.0000      -0.422555       -11.4983
 174   2.0000      -0.421345       -11.4654
 175   2.0000      -0.411767       -11.2048
 176   2.0000      -0.408711       -11.1216
 177   2.0000      -0.400205       -10.8901
 178   2.0000      -0.396080       -10.7779
 179   2.0000      -0.393425       -10.7056
 180   2.0000      -0.393024       -10.6947
 181   2.0000      -0.383776       -10.4431
 182   2.0000      -0.380567       -10.3557
 183   2.0000      -0.376354       -10.2411
 184   2.0000      -0.372764       -10.1434
 185   2.0000      -0.366416        -9.9707
 186   2.0000      -0.361986        -9.8501
 187   2.0000      -0.355830        -9.6826
 188   2.0000      -0.340167        -9.2564
 189   2.0000      -0.336175        -9.1478
 190   2.0000      -0.330444        -8.9919
 191   2.0000      -0.314658        -8.5623
 192   2.0000      -0.310861        -8.4590
 193   2.0000      -0.305445        -8.3116
 194   2.0000      -0.294670        -8.0184
 195   2.0000      -0.289547        -7.8790
 196   2.0000      -0.282315        -7.6822
 197   2.0000      -0.259534        -7.0623
 198   2.0000      -0.257126        -6.9968
 199   2.0000      -0.242012        -6.5855
 200   2.0000      -0.225215        -6.1284
 201   0.0000      -0.062863        -1.7106
 202   0.0000      -0.047807        -1.3009
 203   0.0000      -0.026811        -0.7296
 204   0.0000      -0.003302        -0.0899
 205   0.0000       0.020097         0.5469

MULLIKEN ATOMIC CHARGES
-----------------------
   0 C :    0.075460
   1 O :   -0.176136
   2 C :    0.137140
   3 C :   -0.044968
   4 C :    0.042583
   5 C :    0.025239
   6 C :    0.003253
   7 C :    0.011495
   8 C :    0.011705
   9 C :   -0.115992
  10 S :    0.200034
  11 C :   -0.022233
  12 N :    0.275820
  13 O :   -0.255244
  14 O :   -0.256324
  15 C :    0.020663
  16 C :    0.133807
  17 C :   -0.035089
  18 C :   -0.066738
  19 C :    0.114838
  20 C :    0.174081
  21 O :   -0.256028
  22 C :    0.219416
  23 C :    0.226308
  24 C :   -0.186256
  25 S :    0.102948
  26 C :   -0.174832
  27 O :   -0.266570
  28 C :    0.002913
  29 C :   -0.040776
  30 C :    0.129358
  31 C :   -0.010289
  32 C :   -0.127173
  33 S :    0.003861
  34 C :   -0.098030
  35 S :    0.104985
  36 C :   -0.129606
  37 C :    0.021402
  38 C :    0.042489
  39 C :   -0.097802
  40 C :   -0.023620
  41 C :    0.094440
  42 C :   -0.050069
  43 S :    0.098331
  44 C :   -0.060018
  45 C :    0.100991
  46 C :   -0.061547
  47 C :   -0.056625
  48 S :    0.109098
  49 C :   -0.055202
  50 C :    0.013897
  51 H :    0.007568
  52 H :    0.013874
  53 H :   -0.009940
  54 H :   -0.012234
  55 H :   -0.016384
  56 H :    0.016863
  57 H :   -0.011915
  58 H :    0.003210
  59 H :    0.019105
  60 H :    0.023445
  61 H :    0.016582
  62 H :    0.023207
  63 H :   -0.006076
  64 H :   -0.016289
  65 H :   -0.018709
  66 H :    0.068773
  67 H :    0.073088
  68 H :    0.072647
  69 H :    0.007335
  70 H :    0.004302
  71 H :   -0.019442
  72 H :   -0.042223
  73 H :   -0.026809
  74 H :    0.025380
  75 H :   -0.024744
Sum of atomic charges:   -0.0000000

LOEWDIN ATOMIC CHARGES
----------------------
   0 C :    0.035227
   1 O :    0.026869
   2 C :    0.036582
   3 C :   -0.067516
   4 C :   -0.080045
   5 C :   -0.002522
   6 C :   -0.034108
   7 C :    0.003008
   8 C :   -0.061412
   9 C :   -0.143562
  10 S :    0.491615
  11 C :   -0.203068
  12 N :    0.279721
  13 O :   -0.222152
  14 O :   -0.222785
  15 C :   -0.002321
  16 C :   -0.066092
  17 C :   -0.015148
  18 C :   -0.043507
  19 C :    0.020421
  20 C :    0.019765
  21 O :   -0.062769
  22 C :   -0.007006
  23 C :   -0.007041
  24 C :   -0.217859
  25 S :    0.427973
  26 C :   -0.211183
  27 O :   -0.061320
  28 C :   -0.033348
  29 C :   -0.012566
  30 C :   -0.051431
  31 C :   -0.089833
  32 C :   -0.309158
  33 S :    0.295126
  34 C :   -0.161328
  35 S :    0.420108
  36 C :   -0.176569
  37 C :   -0.034868
  38 C :   -0.046409
  39 C :   -0.156784
  40 C :   -0.052031
  41 C :   -0.054452
  42 C :   -0.158457
  43 S :    0.391513
  44 C :   -0.047029
  45 C :   -0.049417
  46 C :   -0.156042
  47 C :   -0.033741
  48 S :    0.399265
  49 C :   -0.161521
  50 C :   -0.067980
  51 H :    0.022478
  52 H :    0.023844
  53 H :    0.029265
  54 H :    0.031316
  55 H :    0.025798
  56 H :    0.035819
  57 H :    0.027601
  58 H :    0.040754
  59 H :    0.033982
  60 H :    0.035401
  61 H :    0.024865
  62 H :    0.028541
  63 H :    0.033852
  64 H :    0.028404
  65 H :    0.027837
  66 H :    0.036129
  67 H :    0.025413
  68 H :    0.024544
  69 H :    0.032310
  70 H :    0.030175
  71 H :    0.028978
  72 H :    0.026561
  73 H :    0.032219
  74 H :    0.023467
  75 H :    0.027632

  Mayer bond orders larger than 0.100000
B(  0-C ,  1-O ) :   1.1740 B(  0-C ,  4-C ) :   1.4933 B(  0-C , 51-H ) :   1.0069
B(  1-O ,  2-C ) :   1.1409 B(  2-C ,  3-C ) :   1.5929 B(  2-C , 52-H ) :   1.0000
B(  3-C ,  4-C ) :   1.2130 B(  3-C , 53-H ) :   1.0036 B(  4-C ,  5-C ) :   1.0740
B(  5-C ,  6-C ) :   1.6888 B(  5-C , 54-H ) :   0.9779 B(  6-C ,  7-C ) :   1.1319
B(  6-C , 55-H ) :   0.9850 B(  7-C ,  8-C ) :   1.6590 B(  7-C , 56-H ) :   0.9825
B(  8-C ,  9-C ) :   1.1160 B(  8-C , 57-H ) :   0.9587 B(  9-C , 10-S ) :   1.1399
B(  9-C , 16-C ) :   1.4159 B( 10-S , 11-C ) :   1.1210 B( 11-C , 12-N ) :   0.9689
B( 11-C , 15-C ) :   1.4756 B( 12-N , 13-O ) :   1.5256 B( 12-N , 14-O ) :   1.5064
B( 13-O , 14-O ) :   0.2485 B( 15-C , 16-C ) :   1.2447 B( 15-C , 58-H ) :   0.9881
B( 16-C , 17-C ) :   1.0590 B( 17-C , 18-C ) :   1.7315 B( 17-C , 59-H ) :   0.9661
B( 18-C , 19-C ) :   1.1255 B( 18-C , 60-H ) :   0.9518 B( 19-C , 20-C ) :   1.5344
B( 19-C , 27-O ) :   1.0414 B( 20-C , 21-O ) :   1.0369 B( 20-C , 28-C ) :   1.1226
B( 21-O , 22-C ) :   1.0651 B( 22-C , 23-C ) :   1.1996 B( 22-C , 26-C ) :   1.5761
B( 23-C , 24-C ) :   1.5697 B( 23-C , 27-O ) :   1.0561 B( 24-C , 25-S ) :   1.1371
B( 24-C , 61-H ) :   0.9727 B( 25-S , 26-C ) :   1.1383 B( 26-C , 62-H ) :   0.9714
B( 28-C , 29-C ) :   1.6830 B( 28-C , 63-H ) :   0.9569 B( 29-C , 30-C ) :   1.1216
B( 29-C , 64-H ) :   0.9557 B( 30-C , 31-C ) :   1.2353 B( 30-C , 36-C ) :   1.4570
B( 31-C , 32-C ) :   1.5789 B( 31-C , 65-H ) :   0.9893 B( 32-C , 33-S ) :   1.0238
B( 32-C , 35-S ) :   1.1047 B( 33-S , 34-C ) :   1.0123 B( 34-C , 66-H ) :   0.9728
B( 34-C , 67-H ) :   0.9655 B( 34-C , 68-H ) :   0.9650 B( 35-S , 36-C ) :   1.0932
B( 36-C , 37-C ) :   1.1129 B( 37-C , 38-C ) :   1.7324 B( 37-C , 69-H ) :   0.9499
B( 38-C , 39-C ) :   1.0998 B( 38-C , 70-H ) :   0.9525 B( 39-C , 40-C ) :   1.5805
B( 39-C , 43-S ) :   1.0692 B( 40-C , 41-C ) :   1.1503 B( 40-C , 71-H ) :   0.9949
B( 41-C , 42-C ) :   1.2803 B( 41-C , 47-C ) :   1.3173 B( 42-C , 43-S ) :   1.0458
B( 42-C , 44-C ) :   1.3851 B( 44-C , 45-C ) :   1.3163 B( 44-C , 47-C ) :   0.1066
B( 44-C , 72-H ) :   1.0053 B( 45-C , 46-C ) :   1.2916 B( 45-C , 50-C ) :   1.1573
B( 46-C , 47-C ) :   1.3794 B( 46-C , 48-S ) :   1.0586 B( 47-C , 73-H ) :   1.0064
B( 48-S , 49-C ) :   1.1184 B( 49-C , 50-C ) :   1.6429 B( 49-C , 74-H ) :   0.9679
B( 50-C , 75-H ) :   0.9993

-----------------------------------------------------------------------------
         ABSORPTION SPECTRUM VIA TRANSITION ELECTRIC DIPOLE MOMENTS
-----------------------------------------------------------------------------
State   Energy  Wavelength   fosc         T2         TX        TY        TZ
        (cm-1)    (nm)                  (au**2)     (au)      (au)      (au)
-----------------------------------------------------------------------------
   0   18710.0    534.5   0.068730958   1.20936   0.00372  -0.81423  -0.73917
   1   20890.1    478.7   0.193892718   3.05560   0.36627  -0.70784  -1.55576
   2   22058.4    453.3   0.150953035   2.25290   0.21821   1.48060  -0.11447
   3   24959.7    400.6   0.121242429   1.59916  -0.37613  -1.20426  -0.08619
   4   25567.7    391.1   0.129191673   1.66348   0.48392   1.05755  -0.55758
   5   26930.1    371.3   0.751861094   9.19128   1.43007  -1.90033  -1.88014
   6   27128.8    368.6   0.981191854  11.90690   2.29912   2.34038  -1.06938
   7   29024.3    344.5   0.149661058   1.69755  -0.06957  -1.27648   0.25160
   8   29956.2    333.8   0.087710726   0.96392   0.58057   0.15224  -0.77697
   9   30216.8    330.9   0.049351233   0.53768   0.46368  -0.25251  -0.50884
  10   31831.8    314.2   0.173560264   1.79500   0.30476   1.27954  -0.25476
  11   32322.7    309.4   0.051786216   0.52745   0.63364  -0.04890  -0.35151
  12   32897.6    304.0   0.048576504   0.48611   0.01075  -0.69474  -0.05778
  13   33225.2    301.0   0.079667816   0.78939   0.26001   0.84096  -0.12067
  14   33845.7    295.5   0.066961133   0.65132  -0.75202   0.04256   0.28979
  15   34377.9    290.9   0.193306988   1.85116  -1.03271  -0.06359   0.88353
  16   34477.3    290.0   0.211896161   2.02332  -0.46621  -1.34375  -0.01748
  17   35474.5    281.9   0.239244362   2.22024   0.47080   1.39300   0.24110
  18   35726.5    279.9   0.014280929   0.13160  -0.26853  -0.19343   0.14857
  19   36187.6    276.3   0.018671697   0.16986   0.31925   0.25193   0.06688
  20   36918.1    270.9   0.045791118   0.40834  -0.44071   0.26477   0.37948
  21   37327.2    267.9   0.036540683   0.32228  -0.40011  -0.27863   0.29077
  22   38055.4    262.8   0.083683851   0.72394  -0.43352   0.45713   0.57186
  23   38693.9    258.4   0.072244069   0.61466   0.28476  -0.73037  -0.01147
  24   39047.9    256.1   0.045487155   0.38350   0.40439  -0.13148  -0.45020
  25   39450.4    253.5   0.060777700   0.50719   0.13169  -0.68695  -0.13396
  26   39633.3    252.3   0.098043180   0.81439  -0.53083   0.49706   0.53436
  27   39861.8    250.9   0.150519724   1.24312   0.76225  -0.54278  -0.60620
  28   40322.3    248.0   0.167749695   1.36959   0.75576  -0.61382  -0.64935

FINAL SINGLE POINT ENERGY     -4317.859523671138

DIPOLE MOMENT
-------------
                                X             Y             Z
Electronic contribution:      4.28716      -3.45065      -6.02116
Nuclear contribution   :     -5.15468       4.21615       6.63958
                        -----------------------------------------
Total Dipole Moment    :     -0.86752       0.76550       0.61842
                        -----------------------------------------
Magnitude (a.u.)       :      1.31188
Magnitude (Debye)      :      3.33452

Rotational constants in cm-1:     0.001374     0.001185     0.000682
Rotational constants in MHz :    41.184629    35.511763    20.441955

                             ****ORCA TERMINATED NORMALLY****
TOTAL RUN TIME: 0 days 0 hours 5 minutes 43 seconds 774 msec
