                         Program Version 4.2.0 -  RELEASE  -
|  1> # ORCA input file
|  2> # SCF done       -140.894587427243          0.000776836983
|  3> ! CAM-B3LYP def2-SVP def2/J RIJCOSX Grid4 TightSCF
|  4> %maxcore 5000
|  5> %tddft
|  6>     Mode sTDDFT
|  7>     Ethresh 5.0
|  8>     maxcore 5000
|  9> end
| 10>
| 11> %pal
| 12>   nprocs 6
| 13>   end
| 14> * xyz 0 1
| 15>    C      -12.23786        17.56359        -6.50164
| 16>    O      -13.04355        16.56548        -6.89177
| 17>    C      -12.58249        15.44108        -6.31329
| 18>    C      -11.48876        15.69849        -5.55476
| 19>    C      -11.24510        17.10378        -5.66793
| 20>    C      -10.21371        17.89221        -5.06069
| 21>    C       -9.24797        17.40793        -4.24693
| 22>    C       -8.24931        18.20975        -3.64173
| 23>    C       -7.29498        17.71130        -2.80533
| 24>    C       -6.31890        18.48717        -2.16067
| 25>    C       -5.38823        17.98436        -1.28608
| 26>    C       -4.41480        18.70945        -0.55641
| 27>    C       -3.65556        17.94862         0.27983
| 28>    C       -3.97495        16.57263         0.25352
| 29>    S       -5.27358        16.27595        -0.88426
| 30>    C       -3.41869        15.55338         0.99827
| 31>    C       -2.44051        15.64691         2.01615
| 32>    C       -2.14399        14.45981         2.60797
| 33>    C       -2.85846        13.34996         2.08371
| 34>    S       -3.92613        13.88846         0.79478
| 35>    C       -2.75126        12.06397         2.53102
| 36>    C       -3.40987        10.91477         2.05538
| 37>    S       -4.44524        10.90614         0.63042
| 38>    C       -4.74439         9.21418         0.82244
| 39>    O       -5.53282         8.53253        -0.02309
| 40>    C       -4.10273         8.66960         1.92922
| 41>    C       -3.34496         9.65801         2.60468
| 42>    C       -4.24662         7.29952         2.31329
| 43>    C       -3.72255         6.81241         3.46729
| 44>    C       -3.84377         5.50718         3.97538
| 45>    C       -3.33139         5.19092         5.21130
| 46>    C       -3.36561         3.97259         5.93069
| 47>    C       -2.78736         4.03242         7.16691
| 48>    C       -2.26409         5.30287         7.48712
| 49>    S       -2.51297         6.41626         6.16963
| 50>    C       -1.63729         5.77931         8.62596
| 51>    C       -1.31309         5.15910         9.84765
| 52>    C       -0.70723         5.99530        10.74018
| 53>    C       -0.51983         7.32100        10.26838
| 54>    S       -1.14198         7.45770         8.64117
| 55>    C        0.05113         8.35712        10.96498
| 56>    C        0.24950         9.68172        10.52693
| 57>    S        0.98094        10.83667        11.63838
| 58>    C        0.92618        12.15153        10.52953
| 59>    C        0.37104        11.74223         9.34193
| 60>    C       -0.00707        10.35996         9.34461
| 61>    O       -0.54135        10.01961         8.15034
| 62>    C       -0.51098        11.14773         7.39458
| 63>    N       -1.01264        11.08452         6.08667
| 64>    O       -0.95469        12.11641         5.42617
| 65>    O       -1.47613        10.03573         5.67613
| 66>    C        0.02778        12.22627         8.05218
| 67>    H      -12.45446        18.54735        -6.86868
| 68>    H      -13.11436        14.53279        -6.51707
| 69>    H      -10.92482        14.98924        -4.98573
| 70>    H      -10.23894        18.95068        -5.28590
| 71>    H       -9.22187        16.35009        -4.02328
| 72>    H       -8.26428        19.27171        -3.85236
| 73>    H       -7.28534        16.64752        -2.59981
| 74>    H       -6.30575        19.55415        -2.34244
| 75>    H       -4.31532        19.77524        -0.66717
| 76>    H       -2.87644        18.33657         0.91162
| 77>    H       -1.99914        16.58864         2.28961
| 78>    H       -1.44232        14.32374         3.41171
| 79>    H       -2.08657        11.90315         3.36989
| 80>    H       -5.88030         9.11265        -0.71134
| 81>    H       -2.75981         9.46949         3.48634
| 82>    H       -4.82612         6.66914         1.65322
| 83>    H       -3.16785         7.49784         4.09416
| 84>    H       -4.36080         4.74720         3.40623
| 85>    H       -3.82118         3.08932         5.51752
| 86>    H       -2.72820         3.20409         7.85107
| 87>    H       -1.53407         4.12373        10.03920
| 88>    H       -0.38918         5.70479        11.72610
| 89>    H        0.38841         8.14607        11.97083
| 90>    H        1.29565        13.11343        10.81483
| 91>    H        0.15028        13.21114         7.65242
| 92> *
| 93>
| 94>                          ****END OF INPUT****

CARTESIAN COORDINATES (ANGSTROEM)
---------------------------------
  C    -12.237860   17.563590   -6.501640
  O    -13.043550   16.565480   -6.891770
  C    -12.582490   15.441080   -6.313290
  C    -11.488760   15.698490   -5.554760
  C    -11.245100   17.103780   -5.667930
  C    -10.213710   17.892210   -5.060690
  C     -9.247970   17.407930   -4.246930
  C     -8.249310   18.209750   -3.641730
  C     -7.294980   17.711300   -2.805330
  C     -6.318900   18.487170   -2.160670
  C     -5.388230   17.984360   -1.286080
  C     -4.414800   18.709450   -0.556410
  C     -3.655560   17.948620    0.279830
  C     -3.974950   16.572630    0.253520
  S     -5.273580   16.275950   -0.884260
  C     -3.418690   15.553380    0.998270
  C     -2.440510   15.646910    2.016150
  C     -2.143990   14.459810    2.607970
  C     -2.858460   13.349960    2.083710
  S     -3.926130   13.888460    0.794780
  C     -2.751260   12.063970    2.531020
  C     -3.409870   10.914770    2.055380
  S     -4.445240   10.906140    0.630420
  C     -4.744390    9.214180    0.822440
  O     -5.532820    8.532530   -0.023090
  C     -4.102730    8.669600    1.929220
  C     -3.344960    9.658010    2.604680
  C     -4.246620    7.299520    2.313290
  C     -3.722550    6.812410    3.467290
  C     -3.843770    5.507180    3.975380
  C     -3.331390    5.190920    5.211300
  C     -3.365610    3.972590    5.930690
  C     -2.787360    4.032420    7.166910
  C     -2.264090    5.302870    7.487120
  S     -2.512970    6.416260    6.169630
  C     -1.637290    5.779310    8.625960
  C     -1.313090    5.159100    9.847650
  C     -0.707230    5.995300   10.740180
  C     -0.519830    7.321000   10.268380
  S     -1.141980    7.457700    8.641170
  C      0.051130    8.357120   10.964980
  C      0.249500    9.681720   10.526930
  S      0.980940   10.836670   11.638380
  C      0.926180   12.151530   10.529530
  C      0.371040   11.742230    9.341930
  C     -0.007070   10.359960    9.344610
  O     -0.541350   10.019610    8.150340
  C     -0.510980   11.147730    7.394580
  N     -1.012640   11.084520    6.086670
  O     -0.954690   12.116410    5.426170
  O     -1.476130   10.035730    5.676130
  C      0.027780   12.226270    8.052180
  H    -12.454460   18.547350   -6.868680
  H    -13.114360   14.532790   -6.517070
  H    -10.924820   14.989240   -4.985730
  H    -10.238940   18.950680   -5.285900
  H     -9.221870   16.350090   -4.023280
  H     -8.264280   19.271710   -3.852360
  H     -7.285340   16.647520   -2.599810
  H     -6.305750   19.554150   -2.342440
  H     -4.315320   19.775240   -0.667170
  H     -2.876440   18.336570    0.911620
  H     -1.999140   16.588640    2.289610
  H     -1.442320   14.323740    3.411710
  H     -2.086570   11.903150    3.369890
  H     -5.880300    9.112650   -0.711340
  H     -2.759810    9.469490    3.486340
  H     -4.826120    6.669140    1.653220
  H     -3.167850    7.497840    4.094160
  H     -4.360800    4.747200    3.406230
  H     -3.821180    3.089320    5.517520
  H     -2.728200    3.204090    7.851070
  H     -1.534070    4.123730   10.039200
  H     -0.389180    5.704790   11.726100
  H      0.388410    8.146070   11.970830
  H      1.295650   13.113430   10.814830
  H      0.150280   13.211140    7.652420

 Total Charge           Charge          ....    0
 Multiplicity           Mult            ....    1
 Number of Electrons    NEL             ....  408
 Basis Dimension        Dim             ....  877

ORBITAL ENERGIES
----------------

  NO   OCC          E(Eh)            E(eV)
   0   2.0000     -88.970987     -2421.0236
   1   2.0000     -88.949848     -2420.4484
   2   2.0000     -88.930117     -2419.9115
   3   2.0000     -88.929177     -2419.8859
   4   2.0000     -88.929126     -2419.8845
   5   2.0000     -88.926763     -2419.8203
   6   2.0000     -19.306450      -525.3552
   7   2.0000     -19.276556      -524.5418
   8   2.0000     -19.266394      -524.2652
   9   2.0000     -19.256678      -524.0008
  10   2.0000     -19.252907      -523.8982
  11   2.0000     -14.664872      -399.0515
  12   2.0000     -10.390497      -282.7398
  13   2.0000     -10.353549      -281.7344
  14   2.0000     -10.344157      -281.4788
  15   2.0000     -10.316615      -280.7294
  16   2.0000     -10.315384      -280.6959
  17   2.0000     -10.308446      -280.5071
  18   2.0000     -10.307308      -280.4761
  19   2.0000     -10.307072      -280.4697
  20   2.0000     -10.302800      -280.3534
  21   2.0000     -10.302196      -280.3370
  22   2.0000     -10.297156      -280.1998
  23   2.0000     -10.295032      -280.1421
  24   2.0000     -10.292832      -280.0822
  25   2.0000     -10.292643      -280.0770
  26   2.0000     -10.291651      -280.0501
  27   2.0000     -10.290170      -280.0098
  28   2.0000     -10.288108      -279.9536
  29   2.0000     -10.287486      -279.9367
  30   2.0000     -10.280621      -279.7499
  31   2.0000     -10.279652      -279.7236
  32   2.0000     -10.278765      -279.6994
  33   2.0000     -10.278655      -279.6964
  34   2.0000     -10.273950      -279.5684
  35   2.0000     -10.273509      -279.5564
  36   2.0000     -10.273002      -279.5426
  37   2.0000     -10.269736      -279.4537
  38   2.0000     -10.269271      -279.4411
  39   2.0000     -10.268426      -279.4181
  40   2.0000     -10.268235      -279.4129
  41   2.0000     -10.266805      -279.3740
  42   2.0000     -10.263453      -279.2828
  43   2.0000     -10.263141      -279.2743
  44   2.0000     -10.261547      -279.2309
  45   2.0000     -10.260258      -279.1958
  46   2.0000     -10.260209      -279.1945
  47   2.0000     -10.259335      -279.1707
  48   2.0000     -10.258464      -279.1470
  49   2.0000     -10.258391      -279.1450
  50   2.0000     -10.257941      -279.1328
  51   2.0000     -10.255261      -279.0598
  52   2.0000      -8.065879      -219.4837
  53   2.0000      -8.046117      -218.9460
  54   2.0000      -8.026474      -218.4115
  55   2.0000      -8.025705      -218.3905
  56   2.0000      -8.025391      -218.3820
  57   2.0000      -8.023066      -218.3187
  58   2.0000      -6.035220      -164.2267
  59   2.0000      -6.030936      -164.1101
  60   2.0000      -6.028191      -164.0354
  61   2.0000      -6.015518      -163.6906
  62   2.0000      -6.011495      -163.5811
  63   2.0000      -6.007716      -163.4783
  64   2.0000      -5.996197      -163.1648
  65   2.0000      -5.995448      -163.1444
  66   2.0000      -5.995177      -163.1371
  67   2.0000      -5.992815      -163.0728
  68   2.0000      -5.992129      -163.0541
  69   2.0000      -5.991296      -163.0315
  70   2.0000      -5.991159      -163.0277
  71   2.0000      -5.988874      -162.9656
  72   2.0000      -5.987371      -162.9247
  73   2.0000      -5.986426      -162.8989
  74   2.0000      -5.986204      -162.8929
  75   2.0000      -5.983886      -162.8298
  76   2.0000      -1.332636       -36.2629
  77   2.0000      -1.228532       -33.4301
  78   2.0000      -1.195135       -32.5213
  79   2.0000      -1.162510       -31.6335
  80   2.0000      -1.147234       -31.2178
  81   2.0000      -0.992638       -27.0111
  82   2.0000      -0.985072       -26.8052
  83   2.0000      -0.979202       -26.6454
  84   2.0000      -0.968615       -26.3573
  85   2.0000      -0.963055       -26.2061
  86   2.0000      -0.953859       -25.9558
  87   2.0000      -0.940134       -25.5823
  88   2.0000      -0.908306       -24.7163
  89   2.0000      -0.902154       -24.5489
  90   2.0000      -0.896448       -24.3936
  91   2.0000      -0.889076       -24.1930
  92   2.0000      -0.877068       -23.8662
  93   2.0000      -0.869506       -23.6605
  94   2.0000      -0.856226       -23.2991
  95   2.0000      -0.847756       -23.0686
  96   2.0000      -0.840891       -22.8818
  97   2.0000      -0.832316       -22.6485
  98   2.0000      -0.827226       -22.5100
  99   2.0000      -0.819909       -22.3108
 100   2.0000      -0.813993       -22.1499
 101   2.0000      -0.809065       -22.0158
 102   2.0000      -0.806218       -21.9383
 103   2.0000      -0.800709       -21.7884
 104   2.0000      -0.790893       -21.5213
 105   2.0000      -0.785665       -21.3790
 106   2.0000      -0.761336       -20.7170
 107   2.0000      -0.755759       -20.5652
 108   2.0000      -0.727543       -19.7975
 109   2.0000      -0.724934       -19.7265
 110   2.0000      -0.708124       -19.2690
 111   2.0000      -0.697645       -18.9839
 112   2.0000      -0.691505       -18.8168
 113   2.0000      -0.676778       -18.4161
 114   2.0000      -0.668404       -18.1882
 115   2.0000      -0.663664       -18.0592
 116   2.0000      -0.653952       -17.7949
 117   2.0000      -0.651331       -17.7236
 118   2.0000      -0.649556       -17.6753
 119   2.0000      -0.646743       -17.5988
 120   2.0000      -0.640797       -17.4370
 121   2.0000      -0.630882       -17.1672
 122   2.0000      -0.627735       -17.0815
 123   2.0000      -0.626059       -17.0359
 124   2.0000      -0.619761       -16.8646
 125   2.0000      -0.616799       -16.7840
 126   2.0000      -0.615270       -16.7423
 127   2.0000      -0.607381       -16.5277
 128   2.0000      -0.603632       -16.4257
 129   2.0000      -0.599805       -16.3215
 130   2.0000      -0.597305       -16.2535
 131   2.0000      -0.594033       -16.1645
 132   2.0000      -0.591823       -16.1043
 133   2.0000      -0.587744       -15.9933
 134   2.0000      -0.572592       -15.5810
 135   2.0000      -0.566468       -15.4144
 136   2.0000      -0.565207       -15.3801
 137   2.0000      -0.549697       -14.9580
 138   2.0000      -0.548640       -14.9293
 139   2.0000      -0.535713       -14.5775
 140   2.0000      -0.534288       -14.5387
 141   2.0000      -0.530321       -14.4308
 142   2.0000      -0.526848       -14.3363
 143   2.0000      -0.522940       -14.2299
 144   2.0000      -0.519190       -14.1279
 145   2.0000      -0.514040       -13.9877
 146   2.0000      -0.512567       -13.9477
 147   2.0000      -0.511487       -13.9183
 148   2.0000      -0.507788       -13.8176
 149   2.0000      -0.500436       -13.6175
 150   2.0000      -0.494024       -13.4431
 151   2.0000      -0.488064       -13.2809
 152   2.0000      -0.487358       -13.2617
 153   2.0000      -0.484421       -13.1818
 154   2.0000      -0.480920       -13.0865
 155   2.0000      -0.478992       -13.0340
 156   2.0000      -0.475590       -12.9415
 157   2.0000      -0.474632       -12.9154
 158   2.0000      -0.469928       -12.7874
 159   2.0000      -0.468572       -12.7505
 160   2.0000      -0.464490       -12.6394
 161   2.0000      -0.460627       -12.5343
 162   2.0000      -0.457329       -12.4446
 163   2.0000      -0.454671       -12.3722
 164   2.0000      -0.453209       -12.3324
 165   2.0000      -0.447609       -12.1800
 166   2.0000      -0.443345       -12.0640
 167   2.0000      -0.441975       -12.0267
 168   2.0000      -0.435433       -11.8487
 169   2.0000      -0.433625       -11.7995
 170   2.0000      -0.431698       -11.7471
 171   2.0000      -0.431023       -11.7287
 172   2.0000      -0.429077       -11.6758
 173   2.0000      -0.421818       -11.4783
 174   2.0000      -0.420102       -11.4316
 175   2.0000      -0.417991       -11.3741
 176   2.0000      -0.415769       -11.3137
 177   2.0000      -0.414996       -11.2926
 178   2.0000      -0.410798       -11.1784
 179   2.0000      -0.406694       -11.0667
 180   2.0000      -0.398466       -10.8428
 181   2.0000      -0.397345       -10.8123
 182   2.0000      -0.392934       -10.6923
 183   2.0000      -0.390107       -10.6153
 184   2.0000      -0.383747       -10.4423
 185   2.0000      -0.380116       -10.3435
 186   2.0000      -0.376483       -10.2446
 187   2.0000      -0.374114       -10.1801
 188   2.0000      -0.368384       -10.0242
 189   2.0000      -0.354895        -9.6572
 190   2.0000      -0.338187        -9.2025
 191   2.0000      -0.328965        -8.9516
 192   2.0000      -0.326153        -8.8751
 193   2.0000      -0.321308        -8.7432
 194   2.0000      -0.319445        -8.6925
 195   2.0000      -0.310931        -8.4609
 196   2.0000      -0.310617        -8.4523
 197   2.0000      -0.304717        -8.2918
 198   2.0000      -0.296465        -8.0672
 199   2.0000      -0.280744        -7.6394
 200   2.0000      -0.259348        -7.0572
 201   2.0000      -0.241762        -6.5787
 202   2.0000      -0.198899        -5.4123
 203   2.0000      -0.186506        -5.0751
 204   0.0000      -0.078383        -2.1329
 205   0.0000      -0.065336        -1.7779
 206   0.0000      -0.060166        -1.6372
 207   0.0000      -0.008806        -0.2396
 208   0.0000      -0.005307        -0.1444

MULLIKEN ATOMIC CHARGES
-----------------------
   0 C :    0.072649
   1 O :   -0.183661
   2 C :    0.134369
   3 C :   -0.046572
   4 C :    0.047607
   5 C :    0.014739
   6 C :    0.017090
   7 C :    0.014874
   8 C :    0.006938
   9 C :   -0.018382
  10 C :   -0.015322
  11 C :    0.028655
  12 C :    0.026593
  13 C :   -0.055040
  14 S :    0.057247
  15 C :   -0.034668
  16 C :    0.025628
  17 C :    0.036668
  18 C :   -0.047757
  19 S :    0.045238
  20 C :    0.004290
  21 C :   -0.066024
  22 S :    0.065740
  23 C :   -0.019586
  24 O :   -0.161940
  25 C :    0.084407
  26 C :   -0.018368
  27 C :    0.008465
  28 C :   -0.019825
  29 C :    0.023379
  30 C :   -0.034010
  31 C :    0.045366
  32 C :    0.020077
  33 C :   -0.030118
  34 S :    0.049144
  35 C :   -0.042080
  36 C :    0.040985
  37 C :    0.021643
  38 C :   -0.023376
  39 S :    0.069588
  40 C :    0.042136
  41 C :   -0.227358
  42 S :    0.142961
  43 C :   -0.143736
  44 C :    0.129375
  45 C :    0.191654
  46 O :   -0.193267
  47 C :    0.244945
  48 N :    0.293453
  49 O :   -0.248851
  50 O :   -0.216877
  51 C :   -0.076841
  52 H :   -0.000504
  53 H :    0.005638
  54 H :   -0.013569
  55 H :   -0.027431
  56 H :   -0.021264
  57 H :   -0.021667
  58 H :   -0.008093
  59 H :   -0.023400
  60 H :   -0.018156
  61 H :   -0.018728
  62 H :   -0.021722
  63 H :   -0.007280
  64 H :   -0.022645
  65 H :    0.196603
  66 H :   -0.009779
  67 H :   -0.014873
  68 H :    0.022997
  69 H :   -0.018910
  70 H :   -0.014834
  71 H :   -0.016840
  72 H :   -0.016941
  73 H :   -0.019894
  74 H :   -0.029841
  75 H :    0.027883
  76 H :    0.011010
Sum of atomic charges:   -0.0000000

LOEWDIN ATOMIC CHARGES
----------------------
   0 C :    0.026849
   1 O :    0.019326
   2 C :    0.031588
   3 C :   -0.070422
   4 C :   -0.075462
   5 C :   -0.023923
   6 C :   -0.029839
   7 C :   -0.025709
   8 C :   -0.035459
   9 C :   -0.066526
  10 C :   -0.143581
  11 C :   -0.042736
  12 C :   -0.032919
  13 C :   -0.188248
  14 S :    0.356933
  15 C :   -0.173917
  16 C :   -0.047071
  17 C :   -0.023647
  18 C :   -0.164851
  19 S :    0.347444
  20 C :   -0.057219
  21 C :   -0.174463
  22 S :    0.382437
  23 C :   -0.092096
  24 O :   -0.038886
  25 C :   -0.113677
  26 C :   -0.029274
  27 C :    0.004380
  28 C :   -0.051948
  29 C :   -0.034122
  30 C :   -0.155713
  31 C :   -0.025999
  32 C :   -0.043140
  33 C :   -0.166912
  34 S :    0.384443
  35 C :   -0.197882
  36 C :   -0.026225
  37 C :   -0.049083
  38 C :   -0.137050
  39 S :    0.393713
  40 C :   -0.108649
  41 C :   -0.189886
  42 S :    0.470438
  43 C :   -0.198652
  44 C :   -0.081766
  45 C :    0.004658
  46 O :   -0.002118
  47 C :    0.021166
  48 N :    0.284757
  49 O :   -0.215204
  50 O :   -0.187378
  51 C :   -0.001007
  52 H :    0.019547
  53 H :    0.020699
  54 H :    0.027504
  55 H :    0.026204
  56 H :    0.024898
  57 H :    0.024846
  58 H :    0.020326
  59 H :    0.029623
  60 H :    0.030795
  61 H :    0.029697
  62 H :    0.028744
  63 H :    0.035627
  64 H :    0.035963
  65 H :    0.100995
  66 H :    0.031361
  67 H :    0.030099
  68 H :    0.019545
  69 H :    0.031584
  70 H :    0.032436
  71 H :    0.030371
  72 H :    0.031096
  73 H :    0.029494
  74 H :    0.030218
  75 H :    0.026845
  76 H :    0.046011

  Mayer bond orders larger than 0.100000
B(  0-C ,  1-O ) :   1.1582 B(  0-C ,  4-C ) :   1.5000 B(  0-C , 52-H ) :   1.0060
B(  1-O ,  2-C ) :   1.1455 B(  2-C ,  3-C ) :   1.5897 B(  2-C , 53-H ) :   1.0000
B(  3-C ,  4-C ) :   1.2128 B(  3-C , 54-H ) :   1.0026 B(  4-C ,  5-C ) :   1.0794
B(  5-C ,  6-C ) :   1.6751 B(  5-C , 55-H ) :   0.9790 B(  6-C ,  7-C ) :   1.1396
B(  6-C , 56-H ) :   0.9790 B(  7-C ,  8-C ) :   1.6172 B(  7-C , 57-H ) :   0.9912
B(  8-C ,  9-C ) :   1.1487 B(  8-C , 58-H ) :   0.9745 B(  9-C , 10-C ) :   1.5661
B(  9-C , 59-H ) :   0.9804 B( 10-C , 11-C ) :   1.1451 B( 10-C , 14-S ) :   1.0297
B( 11-C , 12-C ) :   1.5856 B( 11-C , 60-H ) :   0.9984 B( 12-C , 13-C ) :   1.1911
B( 12-C , 61-H ) :   0.9937 B( 13-C , 14-S ) :   1.0343 B( 13-C , 15-C ) :   1.5187
B( 15-C , 16-C ) :   1.1792 B( 15-C , 19-S ) :   1.0444 B( 16-C , 17-C ) :   1.5895
B( 16-C , 62-H ) :   0.9930 B( 17-C , 18-C ) :   1.1426 B( 17-C , 63-H ) :   1.0018
B( 18-C , 19-S ) :   1.0106 B( 18-C , 20-C ) :   1.5858 B( 20-C , 21-C ) :   1.1696
B( 20-C , 64-H ) :   0.9510 B( 21-C , 22-S ) :   1.0379 B( 21-C , 26-C ) :   1.5176
B( 22-S , 23-C ) :   1.1266 B( 23-C , 24-O ) :   1.2302 B( 23-C , 25-C ) :   1.4027
B( 24-O , 65-H ) :   0.9510 B( 25-C , 26-C ) :   1.1973 B( 25-C , 27-C ) :   1.0936
B( 26-C , 66-H ) :   0.9967 B( 27-C , 28-C ) :   1.6351 B( 27-C , 67-H ) :   0.9933
B( 28-C , 29-C ) :   1.1520 B( 28-C , 68-H ) :   0.9592 B( 29-C , 30-C ) :   1.5593
B( 29-C , 69-H ) :   0.9885 B( 30-C , 31-C ) :   1.1474 B( 30-C , 34-S ) :   1.0258
B( 31-C , 32-C ) :   1.5791 B( 31-C , 70-H ) :   0.9973 B( 32-C , 33-C ) :   1.1957
B( 32-C , 71-H ) :   0.9956 B( 33-C , 34-S ) :   1.0668 B( 33-C , 35-C ) :   1.4798
B( 35-C , 36-C ) :   1.2028 B( 35-C , 39-S ) :   1.0280 B( 36-C , 37-C ) :   1.5781
B( 36-C , 72-H ) :   0.9936 B( 37-C , 38-C ) :   1.1516 B( 37-C , 73-H ) :   0.9983
B( 38-C , 39-S ) :   1.0584 B( 38-C , 40-C ) :   1.5828 B( 40-C , 41-C ) :   1.1586
B( 40-C , 74-H ) :   0.9424 B( 41-C , 42-S ) :   1.1372 B( 41-C , 43-C ) :   0.1073
B( 41-C , 45-C ) :   1.4207 B( 42-S , 43-C ) :   1.1725 B( 43-C , 44-C ) :   1.4291
B( 43-C , 75-H ) :   0.9771 B( 44-C , 45-C ) :   1.2295 B( 44-C , 51-C ) :   1.0736
B( 45-C , 46-O ) :   1.0771 B( 46-O , 47-C ) :   1.1272 B( 47-C , 48-N ) :   0.9315
B( 47-C , 51-C ) :   1.5476 B( 48-N , 49-O ) :   1.4873 B( 48-N , 50-O ) :   1.4957
B( 49-O , 50-O ) :   0.2634 B( 51-C , 76-H ) :   1.0248

-----------------------------------------------------------------------------
         ABSORPTION SPECTRUM VIA TRANSITION ELECTRIC DIPOLE MOMENTS
-----------------------------------------------------------------------------
State   Energy  Wavelength   fosc         T2         TX        TY        TZ
        (cm-1)    (nm)                  (au**2)     (au)      (au)      (au)
-----------------------------------------------------------------------------
   0    9489.1   1053.8   0.096684777   3.35434  -0.98840  -0.53359  -1.44661
   1   12120.1    825.1   0.019167751   0.52064  -0.04509  -0.71575   0.07948
   2   13399.8    746.3   1.395086914  34.27512   2.88834  -2.01059   4.67869
   3   15504.9    645.0   0.747640379  15.87446   1.42563  -3.56175   1.07516
   4   16559.0    603.9   0.168387118   3.34772   0.57793   1.40890   1.01426
   5   19657.5    508.7   0.255261911   4.27497  -1.43455   0.19107  -1.47666
   6   22119.7    452.1   0.046163261   0.68706   0.32194   0.75000   0.14464
   7   23707.9    421.8   0.007455352   0.10353  -0.13466   0.20079  -0.21231
   8   23934.0    417.8   0.003296234   0.04534   0.14049   0.10553   0.12028
   9   25771.7    388.0   0.089865249   1.14795  -0.30515  -0.97997   0.30739
  10   26844.2    372.5   0.919306740  11.27419  -1.16598  -3.12906   0.35165
  11   28229.8    354.2   0.863923923  10.07497  -2.25428  -0.91835  -2.03711
  12   28662.0    348.9   0.053951734   0.61969   0.07388  -0.62451   0.47352
  13   28987.0    345.0   0.015108702   0.17159   0.25862   0.32276  -0.02312
  14   29511.4    338.9   0.241302305   2.69183  -0.28027   1.13629  -1.14983
  15   30550.5    327.3   0.040653449   0.43808  -0.29362   0.00278  -0.59318
  16   30858.4    324.1   0.061173959   0.65263   0.47791   0.65122   0.01215
  17   31997.4    312.5   0.052846091   0.54372   0.27943   0.67391  -0.10715
  18   32216.9    310.4   0.093140483   0.95177  -0.02141  -0.94737   0.23193
  19   32610.8    306.6   0.000328637   0.00332   0.00804   0.03828  -0.04228
  20   32818.3    304.7   0.031881754   0.31982  -0.04515   0.49667  -0.26664
  21   32914.2    303.8   0.019236350   0.19240  -0.07508  -0.40917   0.13910
  22   34058.0    293.6   0.040092068   0.38754  -0.37106  -0.42026   0.27062
  23   34158.1    292.8   0.036103596   0.34796  -0.08991  -0.04272  -0.58142
  24   34229.9    292.1   0.087540044   0.84193  -0.53530  -0.00457  -0.74523
  25   34590.9    289.1   0.177174861   1.68623  -0.41651   0.22006  -1.21009
  26   34817.5    287.2   0.002086274   0.01973   0.10715   0.06464   0.06378
  27   35252.1    283.7   0.440645031   4.11509   0.86686   0.34153   1.80194
  28   35788.0    279.4   0.003519543   0.03238  -0.10667  -0.04169  -0.13878
  29   36518.6    273.8   0.020079302   0.18101   0.10742   0.38131   0.15518
  30   36837.3    271.5   0.029255843   0.26146  -0.18499   0.14014  -0.45563
  31   37140.5    269.2   0.006179423   0.05477   0.03780  -0.20932  -0.09763
  32   37433.1    267.1   0.005643151   0.04963   0.02128  -0.20120   0.09325
  33   37715.7    265.1   0.011113788   0.09701  -0.19223  -0.14623  -0.19666
  34   38093.8    262.5   0.000701641   0.00606   0.07013   0.02007   0.02725
  35   38190.7    261.8   0.010647408   0.09178  -0.12017  -0.22606  -0.16198
  36   38499.8    259.7   0.067255510   0.57510   0.25572   0.28522   0.65449
  37   38882.0    257.2   0.038073123   0.32236   0.31772  -0.37409   0.28544
  38   38943.3    256.8   0.040373591   0.34130  -0.34258  -0.45877  -0.11606
  39   39296.6    254.5   0.065230306   0.54647   0.51637  -0.24235   0.47022
  40   39767.1    251.5   0.020748061   0.17176  -0.12175   0.02890  -0.39510
  41   39986.8    250.1   0.004236565   0.03488  -0.10211  -0.11442  -0.10659

FINAL SINGLE POINT ENERGY     -4355.851954327271

DIPOLE MOMENT
-------------
                                X             Y             Z
Electronic contribution:     24.45106     -17.19321      31.21733
Nuclear contribution   :    -23.73068      16.84123     -29.63672
                        -----------------------------------------
Total Dipole Moment    :      0.72038      -0.35198       1.58061
                        -----------------------------------------
Magnitude (a.u.)       :      1.77234
Magnitude (Debye)      :      4.50492

Rotational constants in cm-1:     0.002315     0.000424     0.000369
Rotational constants in MHz :    69.413986    12.706036    11.052555

                             ****ORCA TERMINATED NORMALLY****
TOTAL RUN TIME: 0 days 0 hours 5 minutes 28 seconds 468 msec
