                         Program Version 4.2.0 -  RELEASE  -
|  1> # ORCA input file
|  2> # SCF done       -136.373895661557          0.000613028220
|  3> ! CAM-B3LYP def2-SVP def2/J RIJCOSX Grid4 TightSCF
|  4> %maxcore 5000
|  5> %tddft
|  6>     Mode sTDDFT
|  7>     Ethresh 5.0
|  8>     maxcore 5000
|  9> end
| 10>
| 11> %pal
| 12>   nprocs 6
| 13>   end
| 14> * xyz 0 1
| 15>    C       -0.75501         3.76593       -12.00530
| 16>    O       -1.89402         3.06125       -11.99667
| 17>    C       -2.54473         3.38030       -10.86222
| 18>    C       -1.84130         4.28410       -10.13636
| 19>    C       -0.64936         4.55321       -10.88092
| 20>    C        0.43399         5.43440       -10.56508
| 21>    C        0.51212         6.20737        -9.45600
| 22>    C        1.60175         7.06536        -9.17988
| 23>    C        1.69060         7.84832        -8.06380
| 24>    C        2.77429         8.69159        -7.78991
| 25>    C        2.89551         9.48196        -6.66983
| 26>    C        3.97605        10.33154        -6.34593
| 27>    C        3.83756        10.98772        -5.15680
| 28>    C        2.63830        10.69588        -4.47850
| 29>    S        1.68238         9.55922        -5.39974
| 30>    C        2.21681        11.19301        -3.25279
| 31>    C        2.91309        12.07581        -2.40643
| 32>    C        2.24432        12.37304        -1.25175
| 33>    C        0.98930        11.74480        -1.13735
| 34>    S        0.67720        10.75436        -2.54501
| 35>    C        0.09801        11.86440        -0.08780
| 36>    C       -1.14284        11.24465        -0.03209
| 37>    O       -1.59959        10.45231        -1.03226
| 38>    C       -2.84282        10.01621        -0.69825
| 39>    C       -3.19650        10.53679         0.55735
| 40>    C       -2.13030        11.31026         0.98401
| 41>    O       -1.95229        12.02554         2.11061
| 42>    C       -3.02031        12.00453         3.03355
| 43>    C       -3.53508         9.18710        -1.58202
| 44>    C       -4.80949         8.71327        -1.35882
| 45>    C       -5.50502         7.89636        -2.23972
| 46>    C       -6.79389         7.44130        -2.02028
| 47>    C       -7.56623         6.61716        -2.85891
| 48>    C       -8.81764         6.33850        -2.37954
| 49>    C       -9.09409         6.93235        -1.13484
| 50>    S       -7.71524         7.85479        -0.58496
| 51>    C      -10.26042         6.85272        -0.38862
| 52>    C      -11.44490         6.15790        -0.69481
| 53>    C      -12.41993         6.28201         0.25181
| 54>    C      -12.06192         7.08441         1.36249
| 55>    S      -10.42495         7.67418         1.14973
| 56>    C      -12.87870         7.35244         2.43504
| 57>    C      -12.59705         8.13908         3.56506
| 58>    S      -13.83444         8.30386         4.78715
| 59>    C      -12.81463         9.33009         5.75832
| 60>    C      -13.22092         9.90076         7.03733
| 61>    O      -12.49564        10.60873         7.68960
| 62>    O      -14.46454         9.60055         7.47148
| 63>    C      -11.59266         9.51664         5.14623
| 64>    C      -11.46561         8.85818         3.92950
| 65>    H       -0.09894         3.63883       -12.84384
| 66>    H       -3.48848         2.90176       -10.68915
| 67>    H       -2.12456         4.70839        -9.19579
| 68>    H        1.23863         5.46385       -11.28845
| 69>    H       -0.28886         6.18243        -8.72999
| 70>    H        2.40780         7.09363        -9.90239
| 71>    H        0.88655         7.82420        -7.33847
| 72>    H        3.58695         8.72757        -8.50439
| 73>    H        4.82532        10.43073        -6.99896
| 74>    H        4.56543        11.67086        -4.75744
| 75>    H        3.88240        12.46674        -2.65822
| 76>    H        2.61723        13.02579        -0.48240
| 77>    H        0.36346        12.48431         0.75468
| 78>    H       -4.12081        10.35314         1.06452
| 79>    H       -2.70819        12.62879         3.86822
| 80>    H       -3.21525        10.98811         3.38822
| 81>    H       -3.93288        12.41364         2.59015
| 82>    H       -3.01839         8.92404        -2.49427
| 83>    H       -5.31507         8.99325        -0.44434
| 84>    H       -5.02507         7.59187        -3.16043
| 85>    H       -7.18172         6.25070        -3.79461
| 86>    H       -9.53788         5.72612        -2.89161
| 87>    H      -11.55218         5.58616        -1.59916
| 88>    H      -13.39013         5.82185         0.18769
| 89>    H      -13.86216         6.90095         2.40356
| 90>    H      -14.94127         9.02570         6.85793
| 91>    H      -10.82777        10.12315         5.59664
| 92>    H      -10.58020         8.89832         3.32338
| 93> *
| 94>
| 95>                          ****END OF INPUT****

CARTESIAN COORDINATES (ANGSTROEM)
---------------------------------
  C     -0.755010    3.765930  -12.005300
  O     -1.894020    3.061250  -11.996670
  C     -2.544730    3.380300  -10.862220
  C     -1.841300    4.284100  -10.136360
  C     -0.649360    4.553210  -10.880920
  C      0.433990    5.434400  -10.565080
  C      0.512120    6.207370   -9.456000
  C      1.601750    7.065360   -9.179880
  C      1.690600    7.848320   -8.063800
  C      2.774290    8.691590   -7.789910
  C      2.895510    9.481960   -6.669830
  C      3.976050   10.331540   -6.345930
  C      3.837560   10.987720   -5.156800
  C      2.638300   10.695880   -4.478500
  S      1.682380    9.559220   -5.399740
  C      2.216810   11.193010   -3.252790
  C      2.913090   12.075810   -2.406430
  C      2.244320   12.373040   -1.251750
  C      0.989300   11.744800   -1.137350
  S      0.677200   10.754360   -2.545010
  C      0.098010   11.864400   -0.087800
  C     -1.142840   11.244650   -0.032090
  O     -1.599590   10.452310   -1.032260
  C     -2.842820   10.016210   -0.698250
  C     -3.196500   10.536790    0.557350
  C     -2.130300   11.310260    0.984010
  O     -1.952290   12.025540    2.110610
  C     -3.020310   12.004530    3.033550
  C     -3.535080    9.187100   -1.582020
  C     -4.809490    8.713270   -1.358820
  C     -5.505020    7.896360   -2.239720
  C     -6.793890    7.441300   -2.020280
  C     -7.566230    6.617160   -2.858910
  C     -8.817640    6.338500   -2.379540
  C     -9.094090    6.932350   -1.134840
  S     -7.715240    7.854790   -0.584960
  C    -10.260420    6.852720   -0.388620
  C    -11.444900    6.157900   -0.694810
  C    -12.419930    6.282010    0.251810
  C    -12.061920    7.084410    1.362490
  S    -10.424950    7.674180    1.149730
  C    -12.878700    7.352440    2.435040
  C    -12.597050    8.139080    3.565060
  S    -13.834440    8.303860    4.787150
  C    -12.814630    9.330090    5.758320
  C    -13.220920    9.900760    7.037330
  O    -12.495640   10.608730    7.689600
  O    -14.464540    9.600550    7.471480
  C    -11.592660    9.516640    5.146230
  C    -11.465610    8.858180    3.929500
  H     -0.098940    3.638830  -12.843840
  H     -3.488480    2.901760  -10.689150
  H     -2.124560    4.708390   -9.195790
  H      1.238630    5.463850  -11.288450
  H     -0.288860    6.182430   -8.729990
  H      2.407800    7.093630   -9.902390
  H      0.886550    7.824200   -7.338470
  H      3.586950    8.727570   -8.504390
  H      4.825320   10.430730   -6.998960
  H      4.565430   11.670860   -4.757440
  H      3.882400   12.466740   -2.658220
  H      2.617230   13.025790   -0.482400
  H      0.363460   12.484310    0.754680
  H     -4.120810   10.353140    1.064520
  H     -2.708190   12.628790    3.868220
  H     -3.215250   10.988110    3.388220
  H     -3.932880   12.413640    2.590150
  H     -3.018390    8.924040   -2.494270
  H     -5.315070    8.993250   -0.444340
  H     -5.025070    7.591870   -3.160430
  H     -7.181720    6.250700   -3.794610
  H     -9.537880    5.726120   -2.891610
  H    -11.552180    5.586160   -1.599160
  H    -13.390130    5.821850    0.187690
  H    -13.862160    6.900950    2.403560
  H    -14.941270    9.025700    6.857930
  H    -10.827770   10.123150    5.596640
  H    -10.580200    8.898320    3.323380

 Total Charge           Charge          ....    0
 Multiplicity           Mult            ....    1
 Number of Electrons    NEL             ....  388
 Basis Dimension        Dim             ....  860

ORBITAL ENERGIES
----------------

  NO   OCC          E(Eh)            E(eV)
   0   2.0000     -88.957362     -2420.6529
   1   2.0000     -88.945586     -2420.3324
   2   2.0000     -88.945245     -2420.3232
   3   2.0000     -88.938618     -2420.1428
   4   2.0000     -88.937528     -2420.1132
   5   2.0000     -19.290583      -524.9234
   6   2.0000     -19.284641      -524.7617
   7   2.0000     -19.258160      -524.0412
   8   2.0000     -19.243654      -523.6464
   9   2.0000     -19.176888      -521.8297
  10   2.0000     -10.387604      -282.6611
  11   2.0000     -10.337617      -281.3008
  12   2.0000     -10.334520      -281.2166
  13   2.0000     -10.330093      -281.0961
  14   2.0000     -10.329021      -281.0669
  15   2.0000     -10.316043      -280.7138
  16   2.0000     -10.315897      -280.7098
  17   2.0000     -10.312963      -280.6300
  18   2.0000     -10.309085      -280.5245
  19   2.0000     -10.309029      -280.5229
  20   2.0000     -10.304872      -280.4098
  21   2.0000     -10.304016      -280.3865
  22   2.0000     -10.303505      -280.3726
  23   2.0000     -10.300747      -280.2976
  24   2.0000     -10.299667      -280.2682
  25   2.0000     -10.299236      -280.2565
  26   2.0000     -10.291419      -280.0438
  27   2.0000     -10.285588      -279.8851
  28   2.0000     -10.285382      -279.8795
  29   2.0000     -10.284302      -279.8501
  30   2.0000     -10.283825      -279.8371
  31   2.0000     -10.282941      -279.8131
  32   2.0000     -10.280416      -279.7444
  33   2.0000     -10.279711      -279.7252
  34   2.0000     -10.279413      -279.7170
  35   2.0000     -10.278452      -279.6909
  36   2.0000     -10.278388      -279.6892
  37   2.0000     -10.278124      -279.6820
  38   2.0000     -10.278038      -279.6796
  39   2.0000     -10.277586      -279.6673
  40   2.0000     -10.276337      -279.6334
  41   2.0000     -10.275940      -279.6225
  42   2.0000     -10.273719      -279.5621
  43   2.0000     -10.273030      -279.5434
  44   2.0000     -10.270057      -279.4625
  45   2.0000     -10.269695      -279.4526
  46   2.0000     -10.268759      -279.4271
  47   2.0000     -10.268669      -279.4247
  48   2.0000     -10.266968      -279.3784
  49   2.0000     -10.263082      -279.2726
  50   2.0000      -8.053211      -219.1390
  51   2.0000      -8.041538      -218.8214
  52   2.0000      -8.041470      -218.8195
  53   2.0000      -8.034809      -218.6383
  54   2.0000      -8.033404      -218.6000
  55   2.0000      -6.022430      -163.8786
  56   2.0000      -6.018525      -163.7724
  57   2.0000      -6.015328      -163.6854
  58   2.0000      -6.011236      -163.5740
  59   2.0000      -6.011170      -163.5723
  60   2.0000      -6.007226      -163.4649
  61   2.0000      -6.007129      -163.4623
  62   2.0000      -6.004465      -163.3898
  63   2.0000      -6.003151      -163.3540
  64   2.0000      -6.002548      -163.3376
  65   2.0000      -6.002507      -163.3365
  66   2.0000      -6.000546      -163.2832
  67   2.0000      -5.998943      -163.2395
  68   2.0000      -5.995828      -163.1548
  69   2.0000      -5.994447      -163.1172
  70   2.0000      -1.208682       -32.8899
  71   2.0000      -1.203405       -32.7463
  72   2.0000      -1.163433       -31.6586
  73   2.0000      -1.160659       -31.5831
  74   2.0000      -1.076115       -29.2826
  75   2.0000      -0.994691       -27.0669
  76   2.0000      -0.987722       -26.8773
  77   2.0000      -0.980985       -26.6940
  78   2.0000      -0.969724       -26.3875
  79   2.0000      -0.966727       -26.3060
  80   2.0000      -0.920319       -25.0431
  81   2.0000      -0.917455       -24.9652
  82   2.0000      -0.902288       -24.5525
  83   2.0000      -0.897827       -24.4311
  84   2.0000      -0.894040       -24.3281
  85   2.0000      -0.882655       -24.0183
  86   2.0000      -0.867832       -23.6149
  87   2.0000      -0.856227       -23.2991
  88   2.0000      -0.847086       -23.0504
  89   2.0000      -0.840829       -22.8801
  90   2.0000      -0.835329       -22.7305
  91   2.0000      -0.831692       -22.6315
  92   2.0000      -0.826797       -22.4983
  93   2.0000      -0.821045       -22.3418
  94   2.0000      -0.816005       -22.2046
  95   2.0000      -0.814267       -22.1573
  96   2.0000      -0.807268       -21.9669
  97   2.0000      -0.796056       -21.6618
  98   2.0000      -0.781876       -21.2759
  99   2.0000      -0.761266       -20.7151
 100   2.0000      -0.743769       -20.2390
 101   2.0000      -0.725042       -19.7294
 102   2.0000      -0.709541       -19.3076
 103   2.0000      -0.700165       -19.0525
 104   2.0000      -0.692679       -18.8488
 105   2.0000      -0.686603       -18.6834
 106   2.0000      -0.679585       -18.4924
 107   2.0000      -0.664084       -18.0707
 108   2.0000      -0.661869       -18.0104
 109   2.0000      -0.659316       -17.9409
 110   2.0000      -0.656147       -17.8547
 111   2.0000      -0.649104       -17.6630
 112   2.0000      -0.648399       -17.6438
 113   2.0000      -0.637660       -17.3516
 114   2.0000      -0.633470       -17.2376
 115   2.0000      -0.626553       -17.0494
 116   2.0000      -0.621737       -16.9183
 117   2.0000      -0.617034       -16.7903
 118   2.0000      -0.613747       -16.7009
 119   2.0000      -0.610289       -16.6068
 120   2.0000      -0.603993       -16.4355
 121   2.0000      -0.600327       -16.3357
 122   2.0000      -0.597786       -16.2666
 123   2.0000      -0.591025       -16.0826
 124   2.0000      -0.577656       -15.7188
 125   2.0000      -0.571620       -15.5546
 126   2.0000      -0.563963       -15.3462
 127   2.0000      -0.551528       -15.0078
 128   2.0000      -0.545942       -14.8558
 129   2.0000      -0.544560       -14.8182
 130   2.0000      -0.542245       -14.7552
 131   2.0000      -0.541883       -14.7454
 132   2.0000      -0.538929       -14.6650
 133   2.0000      -0.538198       -14.6451
 134   2.0000      -0.528977       -14.3942
 135   2.0000      -0.520008       -14.1501
 136   2.0000      -0.519601       -14.1391
 137   2.0000      -0.518158       -14.0998
 138   2.0000      -0.513034       -13.9604
 139   2.0000      -0.511547       -13.9199
 140   2.0000      -0.506170       -13.7736
 141   2.0000      -0.502680       -13.6786
 142   2.0000      -0.496648       -13.5145
 143   2.0000      -0.496559       -13.5121
 144   2.0000      -0.490097       -13.3362
 145   2.0000      -0.489324       -13.3152
 146   2.0000      -0.488647       -13.2968
 147   2.0000      -0.487393       -13.2626
 148   2.0000      -0.483412       -13.1543
 149   2.0000      -0.480834       -13.0842
 150   2.0000      -0.474389       -12.9088
 151   2.0000      -0.474036       -12.8992
 152   2.0000      -0.467391       -12.7183
 153   2.0000      -0.464066       -12.6279
 154   2.0000      -0.460781       -12.5385
 155   2.0000      -0.460011       -12.5175
 156   2.0000      -0.455984       -12.4080
 157   2.0000      -0.455165       -12.3857
 158   2.0000      -0.452085       -12.3019
 159   2.0000      -0.448418       -12.2021
 160   2.0000      -0.447202       -12.1690
 161   2.0000      -0.441574       -12.0158
 162   2.0000      -0.437325       -11.9002
 163   2.0000      -0.435297       -11.8450
 164   2.0000      -0.430537       -11.7155
 165   2.0000      -0.428217       -11.6524
 166   2.0000      -0.426621       -11.6089
 167   2.0000      -0.425270       -11.5722
 168   2.0000      -0.423863       -11.5339
 169   2.0000      -0.421330       -11.4650
 170   2.0000      -0.417438       -11.3591
 171   2.0000      -0.416265       -11.3272
 172   2.0000      -0.410730       -11.1765
 173   2.0000      -0.398100       -10.8328
 174   2.0000      -0.395581       -10.7643
 175   2.0000      -0.388111       -10.5610
 176   2.0000      -0.386005       -10.5037
 177   2.0000      -0.375752       -10.2247
 178   2.0000      -0.367876       -10.0104
 179   2.0000      -0.349899        -9.5212
 180   2.0000      -0.337135        -9.1739
 181   2.0000      -0.336384        -9.1535
 182   2.0000      -0.334337        -9.0978
 183   2.0000      -0.329351        -8.9621
 184   2.0000      -0.325942        -8.8693
 185   2.0000      -0.324198        -8.8219
 186   2.0000      -0.320100        -8.7104
 187   2.0000      -0.315706        -8.5908
 188   2.0000      -0.310440        -8.4475
 189   2.0000      -0.292191        -7.9509
 190   2.0000      -0.275041        -7.4843
 191   2.0000      -0.248424        -6.7600
 192   2.0000      -0.215136        -5.8541
 193   2.0000      -0.181710        -4.9446
 194   0.0000      -0.096453        -2.6246
 195   0.0000      -0.064932        -1.7669
 196   0.0000      -0.030156        -0.8206
 197   0.0000      -0.008403        -0.2287
 198   0.0000       0.013538         0.3684

MULLIKEN ATOMIC CHARGES
-----------------------
   0 C :    0.074339
   1 O :   -0.181136
   2 C :    0.136578
   3 C :   -0.045152
   4 C :    0.046918
   5 C :    0.016598
   6 C :    0.016876
   7 C :    0.017911
   8 C :    0.006129
   9 C :   -0.013309
  10 C :   -0.021958
  11 C :    0.034411
  12 C :    0.018891
  13 C :   -0.047289
  14 S :    0.072927
  15 C :   -0.047615
  16 C :    0.020927
  17 C :    0.026284
  18 C :   -0.017040
  19 S :    0.104483
  20 C :   -0.068987
  21 C :    0.117675
  22 O :   -0.219721
  23 C :    0.210601
  24 C :   -0.164410
  25 C :    0.214127
  26 O :   -0.299048
  27 C :    0.180316
  28 C :   -0.002558
  29 C :   -0.013433
  30 C :    0.007664
  31 C :   -0.030726
  32 C :    0.042748
  33 C :    0.010450
  34 C :   -0.031905
  35 S :    0.068222
  36 C :   -0.046946
  37 C :    0.031992
  38 C :    0.023824
  39 C :   -0.022834
  40 S :    0.059925
  41 C :    0.033762
  42 C :   -0.083285
  43 S :    0.073467
  44 C :   -0.180132
  45 C :    0.178430
  46 O :   -0.183776
  47 O :   -0.169187
  48 C :    0.042052
  49 C :    0.001427
  50 H :    0.003535
  51 H :    0.007352
  52 H :   -0.013723
  53 H :   -0.023288
  54 H :   -0.018943
  55 H :   -0.017268
  56 H :   -0.006866
  57 H :   -0.018225
  58 H :   -0.015637
  59 H :   -0.016248
  60 H :   -0.018959
  61 H :   -0.016222
  62 H :   -0.003094
  63 H :   -0.016879
  64 H :    0.043998
  65 H :    0.026782
  66 H :    0.026837
  67 H :   -0.003887
  68 H :   -0.002632
  69 H :   -0.015456
  70 H :   -0.014229
  71 H :   -0.014518
  72 H :   -0.014930
  73 H :   -0.015624
  74 H :   -0.020951
  75 H :    0.174736
  76 H :    0.005024
  77 H :   -0.000191
Sum of atomic charges:   -0.0000000

LOEWDIN ATOMIC CHARGES
----------------------
   0 C :    0.031184
   1 O :    0.021970
   2 C :    0.033521
   3 C :   -0.069457
   4 C :   -0.077009
   5 C :   -0.015960
   6 C :   -0.032253
   7 C :   -0.016965
   8 C :   -0.038570
   9 C :   -0.054023
  10 C :   -0.149374
  11 C :   -0.036451
  12 C :   -0.036980
  13 C :   -0.177341
  14 S :    0.369060
  15 C :   -0.186450
  16 C :   -0.038079
  17 C :   -0.039853
  18 C :   -0.148706
  19 S :    0.391525
  20 C :   -0.074535
  21 C :    0.007618
  22 O :    0.005286
  23 C :    0.035644
  24 C :   -0.092226
  25 C :    0.021052
  26 O :   -0.094825
  27 C :    0.083332
  28 C :   -0.029577
  29 C :   -0.038343
  30 C :   -0.041574
  31 C :   -0.158586
  32 C :   -0.028230
  33 C :   -0.044996
  34 C :   -0.165124
  35 S :    0.372739
  36 C :   -0.193120
  37 C :   -0.030153
  38 C :   -0.044649
  39 C :   -0.133592
  40 S :    0.383793
  41 C :   -0.098082
  42 C :   -0.145157
  43 S :    0.406132
  44 C :   -0.250279
  45 C :    0.061258
  46 O :   -0.172388
  47 O :   -0.043652
  48 C :   -0.004862
  49 C :   -0.079366
  50 H :    0.021049
  51 H :    0.021604
  52 H :    0.027754
  53 H :    0.027664
  54 H :    0.025557
  55 H :    0.026360
  56 H :    0.021726
  57 H :    0.031731
  58 H :    0.032083
  59 H :    0.030633
  60 H :    0.029331
  61 H :    0.031839
  62 H :    0.044655
  63 H :    0.030494
  64 H :    0.031280
  65 H :    0.018144
  66 H :    0.018148
  67 H :    0.039650
  68 H :    0.019929
  69 H :    0.034072
  70 H :    0.033300
  71 H :    0.030928
  72 H :    0.031775
  73 H :    0.031980
  74 H :    0.031316
  75 H :    0.074814
  76 H :    0.040730
  77 H :    0.018130

  Mayer bond orders larger than 0.100000
B(  0-C ,  1-O ) :   1.1635 B(  0-C ,  4-C ) :   1.4947 B(  0-C , 50-H ) :   1.0062
B(  1-O ,  2-C ) :   1.1440 B(  2-C ,  3-C ) :   1.5917 B(  2-C , 51-H ) :   1.0002
B(  3-C ,  4-C ) :   1.2097 B(  3-C , 52-H ) :   1.0027 B(  4-C ,  5-C ) :   1.0835
B(  5-C ,  6-C ) :   1.6643 B(  5-C , 53-H ) :   0.9788 B(  6-C ,  7-C ) :   1.1477
B(  6-C , 54-H ) :   0.9796 B(  7-C ,  8-C ) :   1.5975 B(  7-C , 55-H ) :   0.9911
B(  8-C ,  9-C ) :   1.1656 B(  8-C , 56-H ) :   0.9765 B(  9-C , 10-C ) :   1.5401
B(  9-C , 57-H ) :   0.9801 B( 10-C , 11-C ) :   1.1633 B( 10-C , 14-S ) :   1.0315
B( 11-C , 12-C ) :   1.5590 B( 11-C , 58-H ) :   0.9993 B( 12-C , 13-C ) :   1.2166
B( 12-C , 59-H ) :   0.9943 B( 13-C , 14-S ) :   1.0522 B( 13-C , 15-C ) :   1.4606
B( 15-C , 16-C ) :   1.2231 B( 15-C , 19-S ) :   1.0373 B( 16-C , 17-C ) :   1.5425
B( 16-C , 60-H ) :   0.9951 B( 17-C , 18-C ) :   1.1866 B( 17-C , 61-H ) :   1.0005
B( 18-C , 19-S ) :   1.0573 B( 18-C , 20-C ) :   1.4639 B( 20-C , 21-C ) :   1.2664
B( 20-C , 62-H ) :   0.9684 B( 21-C , 22-O ) :   1.1168 B( 21-C , 25-C ) :   1.2745
B( 22-O , 23-C ) :   1.1094 B( 23-C , 24-C ) :   1.3115 B( 23-C , 28-C ) :   1.2170
B( 24-C , 25-C ) :   1.2926 B( 24-C , 63-H ) :   1.0140 B( 25-C , 26-O ) :   1.1940
B( 26-O , 27-C ) :   0.9534 B( 27-C , 64-H ) :   0.9812 B( 27-C , 65-H ) :   0.9702
B( 27-C , 66-H ) :   0.9701 B( 28-C , 29-C ) :   1.5072 B( 28-C , 67-H ) :   0.9764
B( 29-C , 30-C ) :   1.2454 B( 29-C , 68-H ) :   0.9677 B( 30-C , 31-C ) :   1.4798
B( 30-C , 69-H ) :   0.9847 B( 31-C , 32-C ) :   1.1877 B( 31-C , 35-S ) :   1.0325
B( 32-C , 33-C ) :   1.5398 B( 32-C , 70-H ) :   0.9996 B( 33-C , 34-C ) :   1.2229
B( 33-C , 71-H ) :   0.9944 B( 34-C , 35-S ) :   1.0615 B( 34-C , 36-C ) :   1.4621
B( 36-C , 37-C ) :   1.2165 B( 36-C , 40-S ) :   1.0328 B( 37-C , 38-C ) :   1.5643
B( 37-C , 72-H ) :   0.9924 B( 38-C , 39-C ) :   1.1608 B( 38-C , 73-H ) :   0.9984
B( 39-C , 40-S ) :   1.0522 B( 39-C , 41-C ) :   1.5844 B( 41-C , 42-C ) :   1.1732
B( 41-C , 74-H ) :   0.9496 B( 42-C , 43-S ) :   1.1314 B( 42-C , 49-C ) :   1.4416
B( 43-S , 44-C ) :   1.0751 B( 44-C , 45-C ) :   0.9600 B( 44-C , 48-C ) :   1.5231
B( 45-C , 46-O ) :   2.1929 B( 45-C , 47-O ) :   1.2239 B( 47-O , 75-H ) :   0.9537
B( 48-C , 49-C ) :   1.2914 B( 48-C , 76-H ) :   1.0006 B( 49-C , 77-H ) :   0.9805

-----------------------------------------------------------------------------
         ABSORPTION SPECTRUM VIA TRANSITION ELECTRIC DIPOLE MOMENTS
-----------------------------------------------------------------------------
State   Energy  Wavelength   fosc         T2         TX        TY        TZ
        (cm-1)    (nm)                  (au**2)     (au)      (au)      (au)
-----------------------------------------------------------------------------
   0    7281.4   1373.4   1.239858821  56.05737  -6.06684  -0.20798   4.38265
   1   13244.2    755.0   0.128522291   3.19468   0.69247  -0.59111  -1.53810
   2   15236.1    656.3   0.529674410  11.44486  -2.63623  -1.85707  -1.02296
   3   19398.3    515.5   0.003125478   0.05304  -0.09948   0.06409   0.19758
   4   22039.3    453.7   0.132011612   1.97192  -0.24833  -0.81903  -1.11331
   5   22745.2    439.7   1.720699503  24.90520  -1.38979  -3.05526  -3.69311
   6   24460.6    408.8   0.575462125   7.74507  -1.20702  -1.78340  -1.76285
   7   27672.7    361.4   0.097053781   1.15461  -0.13537   0.40346   0.98667
   8   27987.0    357.3   0.020261039   0.23833   0.07238  -0.15797  -0.45622
   9   28663.8    348.9   0.138117943   1.58633   1.07924   0.47887  -0.43845
  10   29221.1    342.2   0.160078876   1.80349   0.36103  -0.40307  -1.22910
  11   30805.3    324.6   0.042301247   0.45207   0.54714   0.38145   0.08489
  12   31663.7    315.8   0.006199546   0.06446  -0.05752  -0.14384  -0.20114
  13   32063.3    311.9   0.019329363   0.19847  -0.06179  -0.19802  -0.39425
  14   32397.1    308.7   0.000011809   0.00012   0.00024  -0.00601   0.00915
  15   32823.6    304.7   0.004392853   0.04406   0.15706  -0.01364  -0.13858
  16   33269.6    300.6   0.000787735   0.00779  -0.05638  -0.05728  -0.03654
  17   33484.5    298.6   0.002873308   0.02825   0.01108   0.05918   0.15692
  18   34276.3    291.7   0.067900543   0.65216   0.28442   0.53794   0.53093
  19   34787.6    287.5   0.045641175   0.43192   0.17919   0.39227   0.49592
  20   35253.2    283.7   0.036759605   0.34328   0.26833   0.38499   0.35080
  21   35656.3    280.5   0.004933972   0.04555   0.19740   0.08049   0.01056
  22   35662.9    280.4   0.064399160   0.59448  -0.65957  -0.39909   0.01335
  23   36312.1    275.4   0.019418462   0.17605   0.16476   0.29989   0.24284
  24   36608.6    273.2   0.045720324   0.41115   0.55726   0.19416  -0.25084
  25   36754.0    272.1   0.007890453   0.07068   0.03550  -0.13589  -0.22572
  26   37464.5    266.9   0.033449686   0.29393   0.43819  -0.00142  -0.31924
  27   38215.1    261.7   0.023359567   0.20124   0.25159   0.31357   0.19903
  28   38419.4    260.3   0.032306455   0.27683  -0.10622   0.23556   0.45832
  29   40192.0    248.8   0.004355764   0.03568  -0.01397  -0.11435  -0.14969
  30   40286.6    248.2   0.003944689   0.03223  -0.12992  -0.11011  -0.05686

FINAL SINGLE POINT ENERGY     -3905.029466505303

DIPOLE MOMENT
-------------
                                X             Y             Z
Electronic contribution:    -24.73719       3.73714      24.39274
Nuclear contribution   :     26.29551      -4.57722     -27.06417
                        -----------------------------------------
Total Dipole Moment    :      1.55832      -0.84008      -2.67143
                        -----------------------------------------
Magnitude (a.u.)       :      3.20478
Magnitude (Debye)      :      8.14591

Rotational constants in cm-1:     0.001619     0.000426     0.000337
Rotational constants in MHz :    48.547372    12.757873    10.110727

                             ****ORCA TERMINATED NORMALLY****
TOTAL RUN TIME: 0 days 0 hours 5 minutes 14 seconds 919 msec
