                         Program Version 4.2.0 -  RELEASE  -
|  1> # ORCA input file
|  2> # SCF done       -151.381042696577          0.000385975164
|  3> ! CAM-B3LYP def2-SVP def2/J RIJCOSX Grid4 TightSCF
|  4> %maxcore 5000
|  5> %tddft
|  6>     Mode sTDDFT
|  7>     Ethresh 5.0
|  8>     maxcore 5000
|  9> end
| 10>
| 11> %pal
| 12>   nprocs 6
| 13>   end
| 14> * xyz 0 1
| 15>    C       -2.11048         4.43190         1.06760
| 16>    O       -3.29293         3.81512         1.19334
| 17>    C       -3.11715         2.53592         0.81530
| 18>    C       -1.83152         2.31778         0.44435
| 19>    C       -1.14853         3.56379         0.60544
| 20>    C        0.24513         3.79090         0.34636
| 21>    C        0.88920         4.95798         0.55692
| 22>    C        2.28528         5.19395         0.36823
| 23>    C        3.17270         4.34057        -0.20049
| 24>    C        4.57810         4.58466        -0.23046
| 25>    C        5.49796         3.69583        -0.73759
| 26>    O        6.86272         3.86000        -0.57123
| 27>    C        7.24296         5.00334         0.05925
| 28>    C        6.29225         5.95838         0.52339
| 29>    C        6.87055         7.03616         1.10816
| 30>    S        8.59020         6.90220         1.10255
| 31>    C        8.52365         5.37513         0.30273
| 32>    O        4.95231         5.76285         0.39019
| 33>    C        5.16217         2.51728        -1.46711
| 34>    C        6.02176         1.48148        -1.62929
| 35>    C        5.73787         0.32064        -2.38526
| 36>    S        4.49106         0.26883        -3.60265
| 37>    C        4.80758        -1.41565        -3.94078
| 38>    C        5.82028        -1.89368        -3.11512
| 39>    C        6.36144        -0.91419        -2.27210
| 40>    S        7.63191        -1.19841        -1.08161
| 41>    C        9.03631        -1.64272        -2.17162
| 42>    C        9.05765        -3.09906        -2.61101
| 43>    C        8.05943        -3.42520        -3.71146
| 44>    S        6.32615        -3.58271        -3.14043
| 45>    C        4.10581        -2.13293        -4.92786
| 46>    C        3.39711        -1.55917        -5.94584
| 47>    C        2.69668        -2.29328        -6.90976
| 48>    C        2.19682        -1.76815        -8.07974
| 49>    C        1.42586        -2.44335        -9.05407
| 50>    C        1.13498        -1.69350       -10.15498
| 51>    C        1.69064        -0.39608       -10.12133
| 52>    S        2.53304        -0.12937        -8.61410
| 53>    C        1.67943         0.55651       -11.12635
| 54>    C        1.01514         0.50195       -12.36978
| 55>    C        1.25492         1.57961       -13.16705
| 56>    C        2.14146         2.53527       -12.60589
| 57>    S        2.61883         2.02698       -10.99806
| 58>    C        2.56163         3.67604       -13.24386
| 59>    C        3.50074         4.62596       -12.80188
| 60>    S        3.80449         6.05407       -13.78587
| 61>    C        5.00614         6.69215       -12.73441
| 62>    C        5.18404         5.85665       -11.65867
| 63>    C        4.33817         4.70277       -11.70100
| 64>    O        4.57142         3.90797       -10.63464
| 65>    C        5.53875         4.53395        -9.91637
| 66>    N        5.98624         3.90776        -8.73185
| 67>    O        6.85160         4.49331        -8.10376
| 68>    O        5.49321         2.84398        -8.42165
| 69>    C        5.95573         5.71375       -10.47344
| 70>    H       -2.07298         5.46994         1.33070
| 71>    H       -3.97240         1.89096         0.85666
| 72>    H       -1.40391         1.39838         0.10071
| 73>    H        0.78753         2.92999        -0.01800
| 74>    H        0.32198         5.79320         0.94479
| 75>    H        2.66103         6.13690         0.74057
| 76>    H        2.83979         3.40257        -0.61064
| 77>    H        6.39206         7.89155         1.53655
| 78>    H        9.42191         4.84789         0.05958
| 79>    H        4.18042         2.46347        -1.91157
| 80>    H        6.97136         1.48974        -1.11172
| 81>    H        9.01781        -0.96358        -3.02427
| 82>    H        9.91246        -1.42457        -1.56132
| 83>    H        8.86838        -3.74132        -1.74819
| 84>    H       10.06060        -3.32455        -2.98674
| 85>    H        8.27879        -4.40436        -4.13675
| 86>    H        8.07535        -2.67938        -4.50647
| 87>    H        4.20304        -3.21022        -4.88715
| 88>    H        3.40259        -0.47990        -6.04122
| 89>    H        2.55023        -3.35255        -6.74046
| 90>    H        1.10980        -3.46188        -8.91105
| 91>    H        0.56411        -2.04664       -10.99495
| 92>    H        0.37853        -0.32089       -12.64169
| 93>    H        0.83863         1.71560       -14.14960
| 94>    H        2.13135         3.87085       -14.21731
| 95>    H        5.49389         7.61431       -12.96963
| 96>    H        6.70756         6.36620       -10.08097
| 97> *
| 98>
| 99>                          ****END OF INPUT****

CARTESIAN COORDINATES (ANGSTROEM)
---------------------------------
  C     -2.110480    4.431900    1.067600
  O     -3.292930    3.815120    1.193340
  C     -3.117150    2.535920    0.815300
  C     -1.831520    2.317780    0.444350
  C     -1.148530    3.563790    0.605440
  C      0.245130    3.790900    0.346360
  C      0.889200    4.957980    0.556920
  C      2.285280    5.193950    0.368230
  C      3.172700    4.340570   -0.200490
  C      4.578100    4.584660   -0.230460
  C      5.497960    3.695830   -0.737590
  O      6.862720    3.860000   -0.571230
  C      7.242960    5.003340    0.059250
  C      6.292250    5.958380    0.523390
  C      6.870550    7.036160    1.108160
  S      8.590200    6.902200    1.102550
  C      8.523650    5.375130    0.302730
  O      4.952310    5.762850    0.390190
  C      5.162170    2.517280   -1.467110
  C      6.021760    1.481480   -1.629290
  C      5.737870    0.320640   -2.385260
  S      4.491060    0.268830   -3.602650
  C      4.807580   -1.415650   -3.940780
  C      5.820280   -1.893680   -3.115120
  C      6.361440   -0.914190   -2.272100
  S      7.631910   -1.198410   -1.081610
  C      9.036310   -1.642720   -2.171620
  C      9.057650   -3.099060   -2.611010
  C      8.059430   -3.425200   -3.711460
  S      6.326150   -3.582710   -3.140430
  C      4.105810   -2.132930   -4.927860
  C      3.397110   -1.559170   -5.945840
  C      2.696680   -2.293280   -6.909760
  C      2.196820   -1.768150   -8.079740
  C      1.425860   -2.443350   -9.054070
  C      1.134980   -1.693500  -10.154980
  C      1.690640   -0.396080  -10.121330
  S      2.533040   -0.129370   -8.614100
  C      1.679430    0.556510  -11.126350
  C      1.015140    0.501950  -12.369780
  C      1.254920    1.579610  -13.167050
  C      2.141460    2.535270  -12.605890
  S      2.618830    2.026980  -10.998060
  C      2.561630    3.676040  -13.243860
  C      3.500740    4.625960  -12.801880
  S      3.804490    6.054070  -13.785870
  C      5.006140    6.692150  -12.734410
  C      5.184040    5.856650  -11.658670
  C      4.338170    4.702770  -11.701000
  O      4.571420    3.907970  -10.634640
  C      5.538750    4.533950   -9.916370
  N      5.986240    3.907760   -8.731850
  O      6.851600    4.493310   -8.103760
  O      5.493210    2.843980   -8.421650
  C      5.955730    5.713750  -10.473440
  H     -2.072980    5.469940    1.330700
  H     -3.972400    1.890960    0.856660
  H     -1.403910    1.398380    0.100710
  H      0.787530    2.929990   -0.018000
  H      0.321980    5.793200    0.944790
  H      2.661030    6.136900    0.740570
  H      2.839790    3.402570   -0.610640
  H      6.392060    7.891550    1.536550
  H      9.421910    4.847890    0.059580
  H      4.180420    2.463470   -1.911570
  H      6.971360    1.489740   -1.111720
  H      9.017810   -0.963580   -3.024270
  H      9.912460   -1.424570   -1.561320
  H      8.868380   -3.741320   -1.748190
  H     10.060600   -3.324550   -2.986740
  H      8.278790   -4.404360   -4.136750
  H      8.075350   -2.679380   -4.506470
  H      4.203040   -3.210220   -4.887150
  H      3.402590   -0.479900   -6.041220
  H      2.550230   -3.352550   -6.740460
  H      1.109800   -3.461880   -8.911050
  H      0.564110   -2.046640  -10.994950
  H      0.378530   -0.320890  -12.641690
  H      0.838630    1.715600  -14.149600
  H      2.131350    3.870850  -14.217310
  H      5.493890    7.614310  -12.969630
  H      6.707560    6.366200  -10.080970

 Total Charge           Charge          ....    0
 Multiplicity           Mult            ....    1
 Number of Electrons    NEL             ....  440
 Basis Dimension        Dim             ....  933

ORBITAL ENERGIES
----------------

  NO   OCC          E(Eh)            E(eV)
   0   2.0000     -88.970077     -2420.9989
   1   2.0000     -88.947736     -2420.3910
   2   2.0000     -88.946322     -2420.3525
   3   2.0000     -88.935932     -2420.0697
   4   2.0000     -88.934950     -2420.0430
   5   2.0000     -88.912342     -2419.4278
   6   2.0000     -88.911823     -2419.4137
   7   2.0000     -19.303464      -525.2740
   8   2.0000     -19.279105      -524.6111
   9   2.0000     -19.261311      -524.1269
  10   2.0000     -19.260965      -524.1175
  11   2.0000     -19.239240      -523.5263
  12   2.0000     -19.236350      -523.4477
  13   2.0000     -14.650327      -398.6557
  14   2.0000     -10.383034      -282.5367
  15   2.0000     -10.342249      -281.4269
  16   2.0000     -10.331898      -281.1452
  17   2.0000     -10.331036      -281.1218
  18   2.0000     -10.329089      -281.0688
  19   2.0000     -10.328518      -281.0533
  20   2.0000     -10.315154      -280.6896
  21   2.0000     -10.308479      -280.5080
  22   2.0000     -10.308128      -280.4984
  23   2.0000     -10.307388      -280.4783
  24   2.0000     -10.307096      -280.4704
  25   2.0000     -10.305475      -280.4262
  26   2.0000     -10.304522      -280.4003
  27   2.0000     -10.299937      -280.2755
  28   2.0000     -10.298601      -280.2392
  29   2.0000     -10.296795      -280.1900
  30   2.0000     -10.296282      -280.1761
  31   2.0000     -10.294521      -280.1282
  32   2.0000     -10.289041      -279.9790
  33   2.0000     -10.288539      -279.9654
  34   2.0000     -10.288268      -279.9580
  35   2.0000     -10.287596      -279.9397
  36   2.0000     -10.283966      -279.8409
  37   2.0000     -10.282764      -279.8082
  38   2.0000     -10.282345      -279.7968
  39   2.0000     -10.282037      -279.7884
  40   2.0000     -10.281438      -279.7721
  41   2.0000     -10.278967      -279.7049
  42   2.0000     -10.278198      -279.6840
  43   2.0000     -10.272781      -279.5366
  44   2.0000     -10.272646      -279.5329
  45   2.0000     -10.271627      -279.5052
  46   2.0000     -10.269941      -279.4593
  47   2.0000     -10.269851      -279.4568
  48   2.0000     -10.267944      -279.4050
  49   2.0000     -10.266926      -279.3772
  50   2.0000     -10.266818      -279.3743
  51   2.0000     -10.262724      -279.2629
  52   2.0000     -10.262626      -279.2603
  53   2.0000     -10.260762      -279.2095
  54   2.0000     -10.256033      -279.0808
  55   2.0000      -8.065073      -219.4618
  56   2.0000      -8.043035      -218.8621
  57   2.0000      -8.042158      -218.8382
  58   2.0000      -8.032343      -218.5712
  59   2.0000      -8.031146      -218.5386
  60   2.0000      -8.007208      -217.8872
  61   2.0000      -8.006918      -217.8793
  62   2.0000      -6.034431      -164.2052
  63   2.0000      -6.030135      -164.0883
  64   2.0000      -6.027330      -164.0120
  65   2.0000      -6.012200      -163.6003
  66   2.0000      -6.011673      -163.5859
  67   2.0000      -6.008434      -163.4978
  68   2.0000      -6.007534      -163.4733
  69   2.0000      -6.005036      -163.4053
  70   2.0000      -6.003798      -163.3717
  71   2.0000      -6.002049      -163.3241
  72   2.0000      -6.000900      -163.2928
  73   2.0000      -5.998023      -163.2145
  74   2.0000      -5.996766      -163.1803
  75   2.0000      -5.993230      -163.0841
  76   2.0000      -5.991923      -163.0485
  77   2.0000      -5.977751      -162.6629
  78   2.0000      -5.977488      -162.6557
  79   2.0000      -5.973854      -162.5568
  80   2.0000      -5.973621      -162.5505
  81   2.0000      -5.966585      -162.3590
  82   2.0000      -5.966194      -162.3484
  83   2.0000      -1.321035       -35.9472
  84   2.0000      -1.225434       -33.3457
  85   2.0000      -1.197158       -32.5763
  86   2.0000      -1.187344       -32.3093
  87   2.0000      -1.150497       -31.3066
  88   2.0000      -1.136811       -30.9342
  89   2.0000      -0.992486       -27.0069
  90   2.0000      -0.986855       -26.8537
  91   2.0000      -0.985418       -26.8146
  92   2.0000      -0.974447       -26.5161
  93   2.0000      -0.966201       -26.2917
  94   2.0000      -0.930899       -25.3311
  95   2.0000      -0.916552       -24.9407
  96   2.0000      -0.914453       -24.8835
  97   2.0000      -0.908909       -24.7327
  98   2.0000      -0.900125       -24.4936
  99   2.0000      -0.893614       -24.3165
 100   2.0000      -0.885127       -24.0855
 101   2.0000      -0.875159       -23.8143
 102   2.0000      -0.869757       -23.6673
 103   2.0000      -0.853168       -23.2159
 104   2.0000      -0.851602       -23.1733
 105   2.0000      -0.843747       -22.9595
 106   2.0000      -0.837953       -22.8019
 107   2.0000      -0.827883       -22.5279
 108   2.0000      -0.823062       -22.3967
 109   2.0000      -0.817869       -22.2553
 110   2.0000      -0.811182       -22.0734
 111   2.0000      -0.803575       -21.8664
 112   2.0000      -0.796443       -21.6723
 113   2.0000      -0.788747       -21.4629
 114   2.0000      -0.780353       -21.2345
 115   2.0000      -0.762451       -20.7473
 116   2.0000      -0.754366       -20.5274
 117   2.0000      -0.739697       -20.1282
 118   2.0000      -0.731981       -19.9182
 119   2.0000      -0.715487       -19.4694
 120   2.0000      -0.704846       -19.1798
 121   2.0000      -0.701513       -19.0891
 122   2.0000      -0.688968       -18.7478
 123   2.0000      -0.677457       -18.4345
 124   2.0000      -0.672325       -18.2949
 125   2.0000      -0.666772       -18.1438
 126   2.0000      -0.665491       -18.1089
 127   2.0000      -0.661721       -18.0063
 128   2.0000      -0.655707       -17.8427
 129   2.0000      -0.648581       -17.6488
 130   2.0000      -0.645320       -17.5601
 131   2.0000      -0.637076       -17.3357
 132   2.0000      -0.635327       -17.2881
 133   2.0000      -0.627871       -17.0852
 134   2.0000      -0.620644       -16.8886
 135   2.0000      -0.619111       -16.8469
 136   2.0000      -0.614851       -16.7309
 137   2.0000      -0.612177       -16.6582
 138   2.0000      -0.608618       -16.5613
 139   2.0000      -0.596536       -16.2326
 140   2.0000      -0.593228       -16.1426
 141   2.0000      -0.591558       -16.0971
 142   2.0000      -0.581858       -15.8332
 143   2.0000      -0.572687       -15.5836
 144   2.0000      -0.565509       -15.3883
 145   2.0000      -0.563311       -15.3285
 146   2.0000      -0.561636       -15.2829
 147   2.0000      -0.561391       -15.2762
 148   2.0000      -0.553052       -15.0493
 149   2.0000      -0.549480       -14.9521
 150   2.0000      -0.543374       -14.7860
 151   2.0000      -0.538374       -14.6499
 152   2.0000      -0.536016       -14.5857
 153   2.0000      -0.535204       -14.5636
 154   2.0000      -0.527180       -14.3453
 155   2.0000      -0.522366       -14.2143
 156   2.0000      -0.519948       -14.1485
 157   2.0000      -0.517668       -14.0865
 158   2.0000      -0.511832       -13.9277
 159   2.0000      -0.510827       -13.9003
 160   2.0000      -0.507807       -13.8181
 161   2.0000      -0.504180       -13.7194
 162   2.0000      -0.498718       -13.5708
 163   2.0000      -0.492089       -13.3904
 164   2.0000      -0.491806       -13.3827
 165   2.0000      -0.489611       -13.3230
 166   2.0000      -0.488045       -13.2804
 167   2.0000      -0.485421       -13.2090
 168   2.0000      -0.482006       -13.1160
 169   2.0000      -0.476569       -12.9681
 170   2.0000      -0.472925       -12.8689
 171   2.0000      -0.471208       -12.8222
 172   2.0000      -0.470112       -12.7924
 173   2.0000      -0.467713       -12.7271
 174   2.0000      -0.465270       -12.6606
 175   2.0000      -0.460931       -12.5426
 176   2.0000      -0.457557       -12.4508
 177   2.0000      -0.454972       -12.3804
 178   2.0000      -0.452923       -12.3246
 179   2.0000      -0.448921       -12.2157
 180   2.0000      -0.443555       -12.0697
 181   2.0000      -0.442746       -12.0477
 182   2.0000      -0.438012       -11.9189
 183   2.0000      -0.434523       -11.8240
 184   2.0000      -0.430816       -11.7231
 185   2.0000      -0.429898       -11.6981
 186   2.0000      -0.427361       -11.6291
 187   2.0000      -0.426152       -11.5962
 188   2.0000      -0.421509       -11.4699
 189   2.0000      -0.416883       -11.3440
 190   2.0000      -0.412154       -11.2153
 191   2.0000      -0.411457       -11.1963
 192   2.0000      -0.410671       -11.1749
 193   2.0000      -0.401552       -10.9268
 194   2.0000      -0.401355       -10.9214
 195   2.0000      -0.397685       -10.8216
 196   2.0000      -0.387909       -10.5555
 197   2.0000      -0.385499       -10.4900
 198   2.0000      -0.384211       -10.4549
 199   2.0000      -0.379846       -10.3361
 200   2.0000      -0.375883       -10.2283
 201   2.0000      -0.374411       -10.1882
 202   2.0000      -0.369177       -10.0458
 203   2.0000      -0.365713        -9.9515
 204   2.0000      -0.356238        -9.6937
 205   2.0000      -0.337816        -9.1924
 206   2.0000      -0.330484        -8.9929
 207   2.0000      -0.322744        -8.7823
 208   2.0000      -0.319304        -8.6887
 209   2.0000      -0.316719        -8.6184
 210   2.0000      -0.314085        -8.5467
 211   2.0000      -0.303772        -8.2660
 212   2.0000      -0.294867        -8.0237
 213   2.0000      -0.290612        -7.9080
 214   2.0000      -0.285223        -7.7613
 215   2.0000      -0.278602        -7.5812
 216   2.0000      -0.268102        -7.2954
 217   2.0000      -0.254277        -6.9192
 218   2.0000      -0.221196        -6.0190
 219   2.0000      -0.195842        -5.3291
 220   0.0000      -0.080383        -2.1873
 221   0.0000      -0.057728        -1.5708
 222   0.0000      -0.041483        -1.1288
 223   0.0000      -0.015386        -0.4187
 224   0.0000       0.010009         0.2724

MULLIKEN ATOMIC CHARGES
-----------------------
   0 C :    0.063050
   1 O :   -0.179061
   2 C :    0.130395
   3 C :   -0.042739
   4 C :    0.040741
   5 C :    0.047330
   6 C :    0.009419
   7 C :    0.032008
   8 C :   -0.059170
   9 C :    0.181469
  10 C :    0.154559
  11 O :   -0.254064
  12 C :    0.222326
  13 C :    0.219414
  14 C :   -0.176325
  15 S :    0.100797
  16 C :   -0.174473
  17 O :   -0.257938
  18 C :   -0.079243
  19 C :    0.021567
  20 C :   -0.083560
  21 S :    0.130258
  22 C :   -0.080101
  23 C :   -0.038222
  24 C :   -0.037369
  25 S :   -0.002361
  26 C :   -0.092946
  27 C :    0.099705
  28 C :   -0.092134
  29 S :   -0.010955
  30 C :   -0.011698
  31 C :   -0.002521
  32 C :   -0.018367
  33 C :   -0.022581
  34 C :    0.037837
  35 C :    0.021813
  36 C :   -0.052060
  37 S :    0.098579
  38 C :   -0.047820
  39 C :    0.031946
  40 C :    0.028635
  41 C :   -0.032800
  42 S :    0.103365
  43 C :    0.038156
  44 C :   -0.230231
  45 S :    0.141257
  46 C :   -0.140335
  47 C :    0.128159
  48 C :    0.195186
  49 O :   -0.190651
  50 C :    0.249332
  51 N :    0.272244
  52 O :   -0.252568
  53 O :   -0.226867
  54 C :   -0.083884
  55 H :    0.002893
  56 H :    0.007706
  57 H :   -0.013795
  58 H :   -0.025801
  59 H :   -0.023936
  60 H :   -0.005190
  61 H :   -0.010696
  62 H :    0.020471
  63 H :    0.022068
  64 H :    0.008029
  65 H :    0.009962
  66 H :    0.050345
  67 H :    0.049395
  68 H :    0.020342
  69 H :    0.012371
  70 H :    0.049296
  71 H :    0.051443
  72 H :   -0.002005
  73 H :    0.012832
  74 H :   -0.012842
  75 H :   -0.014200
  76 H :   -0.016221
  77 H :   -0.015706
  78 H :   -0.017227
  79 H :   -0.025691
  80 H :    0.028542
  81 H :    0.011113
Sum of atomic charges:    0.0000000

LOEWDIN ATOMIC CHARGES
----------------------
   0 C :    0.031770
   1 O :    0.025236
   2 C :    0.027793
   3 C :   -0.070310
   4 C :   -0.078705
   5 C :   -0.006622
   6 C :   -0.034907
   7 C :   -0.021364
   8 C :   -0.037542
   9 C :    0.027060
  10 C :    0.021754
  11 O :   -0.053317
  12 C :   -0.006722
  13 C :   -0.006513
  14 C :   -0.214009
  15 S :    0.428229
  16 C :   -0.212443
  17 O :   -0.054290
  18 C :   -0.046051
  19 C :   -0.031670
  20 C :   -0.174540
  21 S :    0.437143
  22 C :   -0.176209
  23 C :   -0.215904
  24 C :   -0.215693
  25 S :    0.283572
  26 C :   -0.129650
  27 C :   -0.065753
  28 C :   -0.128952
  29 S :    0.275636
  30 C :   -0.038245
  31 C :   -0.036187
  32 C :   -0.051759
  33 C :   -0.148494
  34 C :   -0.032483
  35 C :   -0.035691
  36 C :   -0.174012
  37 S :    0.385083
  38 C :   -0.187347
  39 C :   -0.030970
  40 C :   -0.039994
  41 C :   -0.141652
  42 S :    0.399377
  43 C :   -0.094648
  44 C :   -0.196095
  45 S :    0.467466
  46 C :   -0.194420
  47 C :   -0.080767
  48 C :    0.007917
  49 O :   -0.000468
  50 C :    0.026472
  51 N :    0.272812
  52 O :   -0.213652
  53 O :   -0.189800
  54 C :   -0.010847
  55 H :    0.018795
  56 H :    0.020958
  57 H :    0.028896
  58 H :    0.026161
  59 H :    0.025036
  60 H :    0.029436
  61 H :    0.029131
  62 H :    0.027361
  63 H :    0.027984
  64 H :    0.025957
  65 H :    0.030739
  66 H :    0.025085
  67 H :    0.027706
  68 H :    0.024464
  69 H :    0.027620
  70 H :    0.027495
  71 H :    0.025379
  72 H :    0.028320
  73 H :    0.020639
  74 H :    0.033484
  75 H :    0.032750
  76 H :    0.030495
  77 H :    0.030691
  78 H :    0.030992
  79 H :    0.032031
  80 H :    0.027376
  81 H :    0.046397

  Mayer bond orders larger than 0.100000
B(  0-C ,  1-O ) :   1.1726 B(  0-C ,  4-C ) :   1.5040 B(  0-C , 55-H ) :   1.0030
B(  1-O ,  2-C ) :   1.1461 B(  2-C ,  3-C ) :   1.5754 B(  2-C , 56-H ) :   1.0015
B(  3-C ,  4-C ) :   1.2077 B(  3-C , 57-H ) :   1.0072 B(  4-C ,  5-C ) :   1.0936
B(  5-C ,  6-C ) :   1.7317 B(  5-C , 58-H ) :   0.9654 B(  6-C ,  7-C ) :   1.1116
B(  6-C , 59-H ) :   0.9730 B(  7-C ,  8-C ) :   1.6911 B(  7-C , 60-H ) :   0.9712
B(  8-C ,  9-C ) :   1.1827 B(  8-C , 61-H ) :   0.9469 B(  9-C , 10-C ) :   1.4601
B(  9-C , 17-O ) :   1.0525 B( 10-C , 11-O ) :   1.0599 B( 10-C , 18-C ) :   1.1706
B( 11-O , 12-C ) :   1.0590 B( 12-C , 13-C ) :   1.1995 B( 12-C , 16-C ) :   1.5727
B( 13-C , 14-C ) :   1.5718 B( 13-C , 17-O ) :   1.0590 B( 14-C , 15-S ) :   1.1376
B( 14-C , 62-H ) :   0.9728 B( 15-S , 16-C ) :   1.1382 B( 16-C , 63-H ) :   0.9718
B( 18-C , 19-C ) :   1.6478 B( 18-C , 64-H ) :   0.9556 B( 19-C , 20-C ) :   1.1548
B( 19-C , 65-H ) :   0.9627 B( 20-C , 21-S ) :   1.1118 B( 20-C , 24-C ) :   1.5131
B( 21-S , 22-C ) :   1.1047 B( 22-C , 23-C ) :   1.4979 B( 22-C , 30-C ) :   1.1749
B( 23-C , 24-C ) :   1.2793 B( 23-C , 29-S ) :   1.0432 B( 24-C , 25-S ) :   1.0437
B( 25-S , 26-C ) :   1.0173 B( 26-C , 27-C ) :   1.0392 B( 26-C , 66-H ) :   0.9489
B( 26-C , 67-H ) :   0.9528 B( 27-C , 28-C ) :   1.0398 B( 27-C , 68-H ) :   0.9377
B( 27-C , 69-H ) :   0.9312 B( 28-C , 29-S ) :   1.0150 B( 28-C , 70-H ) :   0.9527
B( 28-C , 71-H ) :   0.9489 B( 30-C , 31-C ) :   1.5987 B( 30-C , 72-H ) :   0.9713
B( 31-C , 32-C ) :   1.1781 B( 31-C , 73-H ) :   0.9702 B( 32-C , 33-C ) :   1.5452
B( 32-C , 74-H ) :   0.9840 B( 33-C , 34-C ) :   1.1522 B( 33-C , 37-S ) :   1.0341
B( 34-C , 35-C ) :   1.5790 B( 34-C , 75-H ) :   0.9988 B( 35-C , 36-C ) :   1.1964
B( 35-C , 76-H ) :   0.9935 B( 36-C , 37-S ) :   1.0573 B( 36-C , 38-C ) :   1.4902
B( 38-C , 39-C ) :   1.1935 B( 38-C , 42-S ) :   1.0367 B( 39-C , 40-C ) :   1.5859
B( 39-C , 77-H ) :   0.9930 B( 40-C , 41-C ) :   1.1439 B( 40-C , 78-H ) :   0.9995
B( 41-C , 42-S ) :   1.0512 B( 41-C , 43-C ) :   1.5939 B( 43-C , 44-C ) :   1.1557
B( 43-C , 79-H ) :   0.9432 B( 44-C , 45-S ) :   1.1345 B( 44-C , 46-C ) :   0.1082
B( 44-C , 48-C ) :   1.4249 B( 45-S , 46-C ) :   1.1740 B( 46-C , 47-C ) :   1.4312
B( 46-C , 80-H ) :   0.9769 B( 47-C , 48-C ) :   1.2326 B( 47-C , 54-C ) :   1.0625
B( 48-C , 49-O ) :   1.0920 B( 49-O , 50-C ) :   1.1207 B( 50-C , 51-N ) :   0.9161
B( 50-C , 54-C ) :   1.5755 B( 51-N , 52-O ) :   1.5283 B( 51-N , 53-O ) :   1.5164
B( 52-O , 53-O ) :   0.2808 B( 54-C , 81-H ) :   1.0269

-----------------------------------------------------------------------------
         ABSORPTION SPECTRUM VIA TRANSITION ELECTRIC DIPOLE MOMENTS
-----------------------------------------------------------------------------
State   Energy  Wavelength   fosc         T2         TX        TY        TZ
        (cm-1)    (nm)                  (au**2)     (au)      (au)      (au)
-----------------------------------------------------------------------------
   0   11845.7    844.2   0.803744903  22.33742  -0.06628  -1.92304   4.31682
   1   14715.0    679.6   0.242173947   5.41806  -0.39079  -0.12698  -2.29112
   2   18612.2    537.3   0.237302347   4.19739  -0.22429   2.02277   0.23552
   3   20459.2    488.8   0.658394305  10.59431  -0.85946   3.09215   0.54243
   4   23130.9    432.3   0.049263559   0.70115   0.74941  -0.28633  -0.23988
   5   23775.8    420.6   0.095647972   1.32439  -0.18348   0.99980   0.53957
   6   25690.2    389.3   0.815505076  10.45044  -3.13811  -0.65613  -0.41494
   7   26637.7    375.4   0.189310615   2.33966   0.99962   0.79918   0.83769
   8   28072.4    356.2   0.075318353   0.88328  -0.71995  -0.55372  -0.24155
   9   28924.5    345.7   0.107283367   1.22108  -0.69089  -0.28049  -0.81552
  10   29378.6    340.4   0.216831902   2.42978   1.44629   0.39947   0.42244
  11   29959.5    333.8   0.075709423   0.83194  -0.68017   0.57410   0.19928
  12   30655.9    326.2   0.069129073   0.74237  -0.24398  -0.43087   0.70512
  13   31506.2    317.4   0.075541272   0.78934   0.62734   0.24350   0.58008
  14   32154.5    311.0   0.029674906   0.30382   0.00001  -0.37761  -0.40154
  15   32433.4    308.3   0.196127169   1.99077  -0.98110  -1.01305   0.04398
  16   32503.0    307.7   0.008118835   0.08223   0.18203   0.22080  -0.01859
  17   33231.2    300.9   0.043060407   0.42659  -0.36743   0.53956  -0.02141
  18   33703.2    296.7   0.015304093   0.14949   0.36282  -0.06381   0.11740
  19   34013.6    294.0   0.054804556   0.53044   0.66484   0.29205  -0.05601
  20   34079.9    293.4   0.096839514   0.93547   0.84087   0.22228   0.42308
  21   34213.6    292.3   0.065609883   0.63131  -0.79325  -0.02086   0.04036
  22   35132.2    284.6   0.026846979   0.25157   0.10267  -0.49078  -0.01301
  23   35878.7    278.7   0.088101443   0.80839  -0.00907   0.68374  -0.58378
  24   35954.0    278.1   0.133817379   1.22530  -0.19764   0.88374  -0.63659
  25   36409.4    274.7   0.059284823   0.53605  -0.25365   0.20362  -0.65594
  26   36497.2    274.0   0.053228042   0.48013  -0.47792   0.15089  -0.47849
  27   36598.4    273.2   0.072056419   0.64817   0.22708   0.59227  -0.49580
  28   36863.6    271.3   0.178954073   1.59816  -0.91274  -0.17233  -0.85753
  29   37225.6    268.6   0.016487852   0.14581  -0.31804   0.06591  -0.20080
  30   37454.6    267.0   0.014138473   0.12427   0.04749   0.15988  -0.31057
  31   37844.1    264.2   0.075658685   0.65817  -0.27579   0.62726  -0.43434
  32   37962.6    263.4   0.008539970   0.07406   0.09523   0.12541   0.22195
  33   38423.6    260.3   0.079252470   0.67903   0.15977  -0.66269   0.46297
  34   38590.5    259.1   0.058516528   0.49920   0.50880   0.33892   0.35420
  35   38647.7    258.7   0.004645594   0.03957   0.15395   0.09613  -0.08143
  36   38991.7    256.5   0.216680746   1.82947  -0.03401  -0.69743   1.15840
  37   39318.7    254.3   0.076930909   0.64414   0.59618  -0.29555   0.44873
  38   39780.2    251.4   0.013350126   0.11048   0.14211   0.01441   0.30013
  39   40041.0    249.7   0.016219721   0.13336   0.03411   0.24113   0.27212

FINAL SINGLE POINT ENERGY     -4868.325812529047

DIPOLE MOMENT
-------------
                                X             Y             Z
Electronic contribution:      5.23548      21.74410     -22.71083
Nuclear contribution   :     -5.36740     -21.79641      20.58404
                        -----------------------------------------
Total Dipole Moment    :     -0.13191      -0.05230      -2.12679
                        -----------------------------------------
Magnitude (a.u.)       :      2.13151
Magnitude (Debye)      :      5.41788

Rotational constants in cm-1:     0.001067     0.000569     0.000543
Rotational constants in MHz :    32.002328    17.064626    16.290067

                             ****ORCA TERMINATED NORMALLY****
TOTAL RUN TIME: 0 days 0 hours 6 minutes 25 seconds 269 msec
