                         Program Version 4.2.0 -  RELEASE  -
|  1> # ORCA input file
|  2> # SCF done       -126.107888193727          0.000853547788
|  3> ! CAM-B3LYP def2-SVP def2/J RIJCOSX Grid4 TightSCF
|  4> %maxcore 5000
|  5> %tddft
|  6>     Mode sTDDFT
|  7>     Ethresh 5.0
|  8>     maxcore 5000
|  9> end
| 10>
| 11> %pal
| 12>   nprocs 6
| 13>   end
| 14> * xyz 0 1
| 15>    C       -2.53964         1.88442        -3.20405
| 16>    O       -3.31565         1.12480        -3.97962
| 17>    C       -2.53864         0.63307        -4.96545
| 18>    C       -1.26402         1.07517        -4.84050
| 19>    C       -1.24430         1.90741        -3.67641
| 20>    C       -0.10149         2.59052        -3.14910
| 21>    C       -0.05507         3.25452        -1.97256
| 22>    C        1.14071         3.85199        -1.48812
| 23>    C        1.27039         4.40364        -0.25451
| 24>    C        2.47472         4.89816         0.31722
| 25>    S        2.38745         6.06745         1.59628
| 26>    C        4.11605         6.15564         1.64978
| 27>    N        4.71770         7.01344         2.57717
| 28>    O        5.93517         7.06647         2.59007
| 29>    O        3.97695         7.64790         3.30915
| 30>    C        4.72763         5.32372         0.74676
| 31>    C        3.80567         4.58295        -0.01079
| 32>    C        4.14141         3.55778        -0.95723
| 33>    C        5.27595         3.44946        -1.67493
| 34>    C        5.42291         2.45798        -2.68966
| 35>    C        6.52410         2.16649        -3.46611
| 36>    C        6.29032         1.18634        -4.43266
| 37>    C        4.99367         0.71163        -4.42911
| 38>    S        4.05934         1.49571        -3.18450
| 39>    C        4.33612        -0.20582        -5.29270
| 40>    S        2.63008        -0.00785        -5.54401
| 41>    C        2.63868        -1.32815        -6.66118
| 42>    N        1.42260        -1.67027        -7.26190
| 43>    O        1.40826        -2.60146        -8.04391
| 44>    O        0.45339        -0.99367        -6.95101
| 45>    C        3.87340        -1.89581        -6.82231
| 46>    C        4.86758        -1.27501        -6.03427
| 47>    C        6.21883        -1.72421        -5.91775
| 48>    C        6.80570        -2.65996        -6.70850
| 49>    C        8.13188        -3.09775        -6.52915
| 50>    C        8.74335        -4.04810        -7.30171
| 51>    C       10.07498        -4.52512        -7.16769
| 52>    C       10.42171        -5.48088        -8.06709
| 53>    C        9.38548        -5.82472        -8.97245
| 54>    S        7.94996        -4.87543        -8.63378
| 55>    C        9.42279        -6.75352        -9.98357
| 56>    C       10.52092        -7.58259       -10.35379
| 57>    C       10.26833        -8.40960       -11.39075
| 58>    C        8.94074        -8.30102       -11.92686
| 59>    S        8.04599        -7.07224       -11.01772
| 60>    C        8.40884        -8.98926       -12.94532
| 61>    H       -3.00408         2.36447        -2.36533
| 62>    H       -3.00207        -0.01075        -5.68530
| 63>    H       -0.44058         0.83233        -5.47919
| 64>    H        0.79597         2.52387        -3.75125
| 65>    H       -0.93060         3.29812        -1.33970
| 66>    H        1.97934         3.85162        -2.16974
| 67>    H        0.38525         4.50810         0.36067
| 68>    H        5.79620         5.23802         0.67049
| 69>    H        3.37620         2.80760        -1.10978
| 70>    H        6.09216         4.14805        -1.55816
| 71>    H        7.47154         2.65919        -3.33766
| 72>    H        7.02682         0.87962        -5.15292
| 73>    H        4.03753        -2.73881        -7.46788
| 74>    H        6.79640        -1.29732        -5.11035
| 75>    H        6.25831        -3.10030        -7.53070
| 76>    H        8.71068        -2.66085        -5.72562
| 77>    H       10.72887        -4.13970        -6.40503
| 78>    H       11.38816        -5.95053        -8.10806
| 79>    H       11.46067        -7.53175        -9.83304
| 80>    H       10.97304        -9.10571       -11.80991
| 81>    H        8.98823        -9.72784       -13.47076
| 82>    H        7.39637        -8.82997       -13.26811
| 83> *
| 84>
| 85>                          ****END OF INPUT****

CARTESIAN COORDINATES (ANGSTROEM)
---------------------------------
  C     -2.539640    1.884420   -3.204050
  O     -3.315650    1.124800   -3.979620
  C     -2.538640    0.633070   -4.965450
  C     -1.264020    1.075170   -4.840500
  C     -1.244300    1.907410   -3.676410
  C     -0.101490    2.590520   -3.149100
  C     -0.055070    3.254520   -1.972560
  C      1.140710    3.851990   -1.488120
  C      1.270390    4.403640   -0.254510
  C      2.474720    4.898160    0.317220
  S      2.387450    6.067450    1.596280
  C      4.116050    6.155640    1.649780
  N      4.717700    7.013440    2.577170
  O      5.935170    7.066470    2.590070
  O      3.976950    7.647900    3.309150
  C      4.727630    5.323720    0.746760
  C      3.805670    4.582950   -0.010790
  C      4.141410    3.557780   -0.957230
  C      5.275950    3.449460   -1.674930
  C      5.422910    2.457980   -2.689660
  C      6.524100    2.166490   -3.466110
  C      6.290320    1.186340   -4.432660
  C      4.993670    0.711630   -4.429110
  S      4.059340    1.495710   -3.184500
  C      4.336120   -0.205820   -5.292700
  S      2.630080   -0.007850   -5.544010
  C      2.638680   -1.328150   -6.661180
  N      1.422600   -1.670270   -7.261900
  O      1.408260   -2.601460   -8.043910
  O      0.453390   -0.993670   -6.951010
  C      3.873400   -1.895810   -6.822310
  C      4.867580   -1.275010   -6.034270
  C      6.218830   -1.724210   -5.917750
  C      6.805700   -2.659960   -6.708500
  C      8.131880   -3.097750   -6.529150
  C      8.743350   -4.048100   -7.301710
  C     10.074980   -4.525120   -7.167690
  C     10.421710   -5.480880   -8.067090
  C      9.385480   -5.824720   -8.972450
  S      7.949960   -4.875430   -8.633780
  C      9.422790   -6.753520   -9.983570
  C     10.520920   -7.582590  -10.353790
  C     10.268330   -8.409600  -11.390750
  C      8.940740   -8.301020  -11.926860
  S      8.045990   -7.072240  -11.017720
  C      8.408840   -8.989260  -12.945320
  H     -3.004080    2.364470   -2.365330
  H     -3.002070   -0.010750   -5.685300
  H     -0.440580    0.832330   -5.479190
  H      0.795970    2.523870   -3.751250
  H     -0.930600    3.298120   -1.339700
  H      1.979340    3.851620   -2.169740
  H      0.385250    4.508100    0.360670
  H      5.796200    5.238020    0.670490
  H      3.376200    2.807600   -1.109780
  H      6.092160    4.148050   -1.558160
  H      7.471540    2.659190   -3.337660
  H      7.026820    0.879620   -5.152920
  H      4.037530   -2.738810   -7.467880
  H      6.796400   -1.297320   -5.110350
  H      6.258310   -3.100300   -7.530700
  H      8.710680   -2.660850   -5.725620
  H     10.728870   -4.139700   -6.405030
  H     11.388160   -5.950530   -8.108060
  H     11.460670   -7.531750   -9.833040
  H     10.973040   -9.105710  -11.809910
  H      8.988230   -9.727840  -13.470760
  H      7.396370   -8.829970  -13.268110

 Total Charge           Charge          ....    0
 Multiplicity           Mult            ....    1
 Number of Electrons    NEL             ....  360
 Basis Dimension        Dim             ....  774

ORBITAL ENERGIES
----------------

  NO   OCC          E(Eh)            E(eV)
   0   2.0000     -88.981245     -2421.3028
   1   2.0000     -88.974694     -2421.1245
   2   2.0000     -88.967963     -2420.9413
   3   2.0000     -88.945036     -2420.3175
   4   2.0000     -88.941204     -2420.2132
   5   2.0000     -19.285974      -524.7980
   6   2.0000     -19.243335      -523.6378
   7   2.0000     -19.243120      -523.6319
   8   2.0000     -19.233255      -523.3635
   9   2.0000     -19.232310      -523.3378
  10   2.0000     -14.653648      -398.7460
  11   2.0000     -14.644025      -398.4842
  12   2.0000     -10.345693      -281.5206
  13   2.0000     -10.339155      -281.3427
  14   2.0000     -10.330985      -281.1204
  15   2.0000     -10.323899      -280.9276
  16   2.0000     -10.320770      -280.8424
  17   2.0000     -10.319041      -280.7954
  18   2.0000     -10.315508      -280.6992
  19   2.0000     -10.313876      -280.6548
  20   2.0000     -10.311038      -280.5776
  21   2.0000     -10.310796      -280.5710
  22   2.0000     -10.310296      -280.5574
  23   2.0000     -10.309223      -280.5282
  24   2.0000     -10.307235      -280.4741
  25   2.0000     -10.302668      -280.3498
  26   2.0000     -10.302151      -280.3358
  27   2.0000     -10.296882      -280.1924
  28   2.0000     -10.293317      -280.0954
  29   2.0000     -10.292588      -280.0755
  30   2.0000     -10.292182      -280.0645
  31   2.0000     -10.291502      -280.0460
  32   2.0000     -10.291367      -280.0423
  33   2.0000     -10.291318      -280.0410
  34   2.0000     -10.288768      -279.9716
  35   2.0000     -10.288272      -279.9581
  36   2.0000     -10.286814      -279.9185
  37   2.0000     -10.286809      -279.9183
  38   2.0000     -10.286198      -279.9017
  39   2.0000     -10.284954      -279.8678
  40   2.0000     -10.283366      -279.8246
  41   2.0000     -10.279625      -279.7228
  42   2.0000     -10.276457      -279.6366
  43   2.0000     -10.273473      -279.5554
  44   2.0000     -10.270297      -279.4690
  45   2.0000     -10.257500      -279.1208
  46   2.0000      -8.076352      -219.7687
  47   2.0000      -8.070196      -219.6012
  48   2.0000      -8.063700      -219.4244
  49   2.0000      -8.041441      -218.8187
  50   2.0000      -8.038002      -218.7252
  51   2.0000      -6.045848      -164.5159
  52   2.0000      -6.041502      -164.3976
  53   2.0000      -6.039577      -164.3452
  54   2.0000      -6.038200      -164.3078
  55   2.0000      -6.035257      -164.2277
  56   2.0000      -6.032926      -164.1643
  57   2.0000      -6.032198      -164.1445
  58   2.0000      -6.028919      -164.0552
  59   2.0000      -6.025762      -163.9693
  60   2.0000      -6.011196      -163.5730
  61   2.0000      -6.007818      -163.4810
  62   2.0000      -6.007297      -163.4669
  63   2.0000      -6.003915      -163.3748
  64   2.0000      -6.002147      -163.3267
  65   2.0000      -5.998496      -163.2274
  66   2.0000      -1.322927       -35.9987
  67   2.0000      -1.313135       -35.7322
  68   2.0000      -1.204335       -32.7716
  69   2.0000      -1.141987       -31.0750
  70   2.0000      -1.131780       -30.7973
  71   2.0000      -1.019203       -27.7339
  72   2.0000      -1.008752       -27.4495
  73   2.0000      -0.995222       -27.0814
  74   2.0000      -0.992977       -27.0203
  75   2.0000      -0.972326       -26.4583
  76   2.0000      -0.930926       -25.3318
  77   2.0000      -0.925019       -25.1711
  78   2.0000      -0.918254       -24.9870
  79   2.0000      -0.907903       -24.7053
  80   2.0000      -0.898767       -24.4567
  81   2.0000      -0.884510       -24.0688
  82   2.0000      -0.879333       -23.9279
  83   2.0000      -0.865186       -23.5429
  84   2.0000      -0.858584       -23.3633
  85   2.0000      -0.847705       -23.0672
  86   2.0000      -0.842913       -22.9368
  87   2.0000      -0.840892       -22.8818
  88   2.0000      -0.829611       -22.5748
  89   2.0000      -0.824503       -22.4359
  90   2.0000      -0.819583       -22.3020
  91   2.0000      -0.815592       -22.1934
  92   2.0000      -0.787969       -21.4417
  93   2.0000      -0.775556       -21.1040
  94   2.0000      -0.761469       -20.7206
  95   2.0000      -0.738561       -20.0973
  96   2.0000      -0.725385       -19.7387
  97   2.0000      -0.704156       -19.1611
  98   2.0000      -0.691361       -18.8129
  99   2.0000      -0.683475       -18.5983
 100   2.0000      -0.674865       -18.3640
 101   2.0000      -0.670389       -18.2422
 102   2.0000      -0.658617       -17.9219
 103   2.0000      -0.653440       -17.7810
 104   2.0000      -0.648551       -17.6480
 105   2.0000      -0.640854       -17.4385
 106   2.0000      -0.635969       -17.3056
 107   2.0000      -0.634213       -17.2578
 108   2.0000      -0.633261       -17.2319
 109   2.0000      -0.632256       -17.2046
 110   2.0000      -0.626168       -17.0389
 111   2.0000      -0.625240       -17.0137
 112   2.0000      -0.623236       -16.9591
 113   2.0000      -0.618142       -16.8205
 114   2.0000      -0.610986       -16.6258
 115   2.0000      -0.605562       -16.4782
 116   2.0000      -0.600496       -16.3403
 117   2.0000      -0.593690       -16.1551
 118   2.0000      -0.591356       -16.0916
 119   2.0000      -0.575326       -15.6554
 120   2.0000      -0.573292       -15.6001
 121   2.0000      -0.566421       -15.4131
 122   2.0000      -0.557276       -15.1643
 123   2.0000      -0.555895       -15.1267
 124   2.0000      -0.545786       -14.8516
 125   2.0000      -0.542402       -14.7595
 126   2.0000      -0.535152       -14.5622
 127   2.0000      -0.529038       -14.3959
 128   2.0000      -0.519958       -14.1488
 129   2.0000      -0.518283       -14.1032
 130   2.0000      -0.515450       -14.0261
 131   2.0000      -0.509501       -13.8642
 132   2.0000      -0.506367       -13.7790
 133   2.0000      -0.503061       -13.6890
 134   2.0000      -0.500766       -13.6265
 135   2.0000      -0.497796       -13.5457
 136   2.0000      -0.493978       -13.4418
 137   2.0000      -0.490449       -13.3458
 138   2.0000      -0.488129       -13.2827
 139   2.0000      -0.484228       -13.1765
 140   2.0000      -0.478738       -13.0271
 141   2.0000      -0.476357       -12.9623
 142   2.0000      -0.473299       -12.8791
 143   2.0000      -0.471221       -12.8226
 144   2.0000      -0.467123       -12.7111
 145   2.0000      -0.465190       -12.6585
 146   2.0000      -0.463234       -12.6052
 147   2.0000      -0.458482       -12.4759
 148   2.0000      -0.450785       -12.2665
 149   2.0000      -0.447154       -12.1677
 150   2.0000      -0.443446       -12.0668
 151   2.0000      -0.440072       -11.9750
 152   2.0000      -0.432604       -11.7718
 153   2.0000      -0.430394       -11.7116
 154   2.0000      -0.425919       -11.5898
 155   2.0000      -0.421814       -11.4781
 156   2.0000      -0.420331       -11.4378
 157   2.0000      -0.417729       -11.3670
 158   2.0000      -0.405206       -11.0262
 159   2.0000      -0.399294       -10.8653
 160   2.0000      -0.389950       -10.6111
 161   2.0000      -0.385005       -10.4765
 162   2.0000      -0.382653       -10.4125
 163   2.0000      -0.380423       -10.3518
 164   2.0000      -0.380127       -10.3438
 165   2.0000      -0.373136       -10.1536
 166   2.0000      -0.370132       -10.0718
 167   2.0000      -0.360526        -9.8104
 168   2.0000      -0.359744        -9.7891
 169   2.0000      -0.346111        -9.4181
 170   2.0000      -0.340463        -9.2645
 171   2.0000      -0.338780        -9.2187
 172   2.0000      -0.336587        -9.1590
 173   2.0000      -0.327275        -8.9056
 174   2.0000      -0.322486        -8.7753
 175   2.0000      -0.305786        -8.3209
 176   2.0000      -0.294090        -8.0026
 177   2.0000      -0.271686        -7.3930
 178   2.0000      -0.249299        -6.7838
 179   2.0000      -0.218903        -5.9567
 180   0.0000      -0.081394        -2.2148
 181   0.0000      -0.068315        -1.8589
 182   0.0000      -0.064785        -1.7629
 183   0.0000      -0.035681        -0.9709
 184   0.0000      -0.015171        -0.4128

MULLIKEN ATOMIC CHARGES
-----------------------
   0 C :    0.071169
   1 O :   -0.174156
   2 C :    0.134579
   3 C :   -0.039025
   4 C :    0.041438
   5 C :    0.037865
   6 C :    0.004835
   7 C :    0.008770
   8 C :    0.005881
   9 C :   -0.101622
  10 S :    0.191962
  11 C :   -0.013855
  12 N :    0.276683
  13 O :   -0.253542
  14 O :   -0.260356
  15 C :    0.001207
  16 C :    0.113327
  17 C :   -0.067383
  18 C :    0.037426
  19 C :   -0.042788
  20 C :    0.001286
  21 C :    0.025543
  22 C :   -0.098432
  23 S :    0.096415
  24 C :   -0.073179
  25 S :    0.169304
  26 C :    0.007083
  27 N :    0.288403
  28 O :   -0.239025
  29 O :   -0.268265
  30 C :   -0.015098
  31 C :    0.140638
  32 C :   -0.057608
  33 C :    0.020150
  34 C :   -0.024798
  35 C :   -0.010879
  36 C :    0.032844
  37 C :    0.032641
  38 C :   -0.049712
  39 S :    0.067245
  40 C :   -0.065319
  41 C :    0.030115
  42 C :    0.052909
  43 C :   -0.065659
  44 S :    0.084804
  45 C :   -0.025997
  46 H :    0.005126
  47 H :    0.016616
  48 H :   -0.013956
  49 H :   -0.018359
  50 H :   -0.014120
  51 H :    0.012518
  52 H :   -0.004925
  53 H :    0.006283
  54 H :    0.029049
  55 H :   -0.006321
  56 H :   -0.013001
  57 H :   -0.003311
  58 H :    0.011716
  59 H :   -0.014871
  60 H :    0.000075
  61 H :   -0.019624
  62 H :   -0.013270
  63 H :   -0.013320
  64 H :   -0.011368
  65 H :   -0.009594
  66 H :    0.022118
  67 H :    0.024715
Sum of atomic charges:   -0.0000000

LOEWDIN ATOMIC CHARGES
----------------------
   0 C :    0.040193
   1 O :    0.030094
   2 C :    0.035838
   3 C :   -0.062292
   4 C :   -0.087974
   5 C :    0.010944
   6 C :   -0.038422
   7 C :    0.006163
   8 C :   -0.068864
   9 C :   -0.139060
  10 S :    0.480273
  11 C :   -0.203390
  12 N :    0.273626
  13 O :   -0.218977
  14 O :   -0.226665
  15 C :   -0.006218
  16 C :   -0.069398
  17 C :   -0.021820
  18 C :   -0.041995
  19 C :   -0.153731
  20 C :   -0.057724
  21 C :   -0.045020
  22 C :   -0.192216
  23 S :    0.428090
  24 C :   -0.164691
  25 S :    0.467105
  26 C :   -0.199278
  27 N :    0.277248
  28 O :   -0.205537
  29 O :   -0.232526
  30 C :   -0.000808
  31 C :   -0.056920
  32 C :   -0.035403
  33 C :   -0.018644
  34 C :   -0.067066
  35 C :   -0.137116
  36 C :   -0.037455
  37 C :   -0.025615
  38 C :   -0.183079
  39 S :    0.362211
  40 C :   -0.173380
  41 C :   -0.027191
  42 C :   -0.027838
  43 C :   -0.140058
  44 S :    0.354878
  45 C :   -0.071126
  46 H :    0.019776
  47 H :    0.025256
  48 H :    0.024875
  49 H :    0.027418
  50 H :    0.026238
  51 H :    0.031149
  52 H :    0.030403
  53 H :    0.042491
  54 H :    0.026138
  55 H :    0.034531
  56 H :    0.032712
  57 H :    0.033649
  58 H :    0.044262
  59 H :    0.029458
  60 H :    0.021647
  61 H :    0.031511
  62 H :    0.033317
  63 H :    0.032007
  64 H :    0.032437
  65 H :    0.034256
  66 H :    0.029625
  67 H :    0.027678

  Mayer bond orders larger than 0.100000
B(  0-C ,  1-O ) :   1.1923 B(  0-C ,  4-C ) :   1.4880 B(  0-C , 46-H ) :   1.0037
B(  1-O ,  2-C ) :   1.1323 B(  2-C ,  3-C ) :   1.5909 B(  2-C , 47-H ) :   1.0001
B(  3-C ,  4-C ) :   1.1970 B(  3-C , 48-H ) :   1.0059 B(  4-C ,  5-C ) :   1.0793
B(  5-C ,  6-C ) :   1.6816 B(  5-C , 49-H ) :   0.9768 B(  6-C ,  7-C ) :   1.1418
B(  6-C , 50-H ) :   0.9834 B(  7-C ,  8-C ) :   1.6489 B(  7-C , 51-H ) :   0.9829
B(  8-C ,  9-C ) :   1.1239 B(  8-C , 52-H ) :   0.9577 B(  9-C , 10-S ) :   1.1405
B(  9-C , 16-C ) :   1.4088 B( 10-S , 11-C ) :   1.1130 B( 11-C , 12-N ) :   0.9621
B( 11-C , 15-C ) :   1.4787 B( 12-N , 13-O ) :   1.5328 B( 12-N , 14-O ) :   1.5164
B( 13-O , 14-O ) :   0.2624 B( 15-C , 16-C ) :   1.2398 B( 15-C , 53-H ) :   1.0011
B( 16-C , 17-C ) :   1.0858 B( 17-C , 18-C ) :   1.7070 B( 17-C , 54-H ) :   0.9523
B( 18-C , 19-C ) :   1.1329 B( 18-C , 55-H ) :   0.9798 B( 19-C , 20-C ) :   1.4886
B( 19-C , 22-C ) :   0.1040 B( 19-C , 23-S ) :   1.1130 B( 20-C , 21-C ) :   1.2532
B( 20-C , 56-H ) :   1.0013 B( 21-C , 22-C ) :   1.5070 B( 21-C , 57-H ) :   0.9965
B( 22-C , 23-S ) :   1.1157 B( 22-C , 24-C ) :   1.1198 B( 24-C , 25-S ) :   1.1343
B( 24-C , 31-C ) :   1.4294 B( 25-S , 26-C ) :   1.1086 B( 26-C , 27-N ) :   0.9630
B( 26-C , 30-C ) :   1.4929 B( 27-N , 28-O ) :   1.5424 B( 27-N , 29-O ) :   1.4712
B( 28-O , 29-O ) :   0.2608 B( 30-C , 31-C ) :   1.2084 B( 30-C , 58-H ) :   0.9987
B( 31-C , 32-C ) :   1.0879 B( 32-C , 33-C ) :   1.6581 B( 32-C , 59-H ) :   0.9799
B( 33-C , 34-C ) :   1.1415 B( 33-C , 60-H ) :   0.9695 B( 34-C , 35-C ) :   1.5747
B( 34-C , 61-H ) :   0.9860 B( 35-C , 36-C ) :   1.1283 B( 35-C , 39-S ) :   1.0337
B( 36-C , 37-C ) :   1.6098 B( 36-C , 62-H ) :   0.9993 B( 37-C , 38-C ) :   1.1718
B( 37-C , 63-H ) :   0.9922 B( 38-C , 39-S ) :   1.0317 B( 38-C , 40-C ) :   1.5599
B( 40-C , 41-C ) :   1.1504 B( 40-C , 44-S ) :   1.0478 B( 41-C , 42-C ) :   1.6645
B( 41-C , 64-H ) :   0.9913 B( 42-C , 43-C ) :   1.0786 B( 42-C , 65-H ) :   0.9929
B( 43-C , 44-S ) :   1.0063 B( 43-C , 45-C ) :   1.8665 B( 45-C , 66-H ) :   0.9511
B( 45-C , 67-H ) :   0.9414

-----------------------------------------------------------------------------
         ABSORPTION SPECTRUM VIA TRANSITION ELECTRIC DIPOLE MOMENTS
-----------------------------------------------------------------------------
State   Energy  Wavelength   fosc         T2         TX        TY        TZ
        (cm-1)    (nm)                  (au**2)     (au)      (au)      (au)
-----------------------------------------------------------------------------
   0   16647.2    600.7   1.225474346  24.23473  -1.54996   3.50398   3.09103
   1   19538.5    511.8   0.685186674  11.54498  -1.46672   2.30728   2.01747
   2   21497.8    465.2   0.083601011   1.28024   1.12914   0.02965   0.06635
   3   23032.6    434.2   0.280642154   4.01131   1.21947   1.03399   1.20626
   4   25574.0    391.0   0.397134752   5.11227  -1.36689  -1.15546  -1.38159
   5   26387.4    379.0   0.348902761   4.35295  -0.87093  -1.30602  -1.37432
   6   27427.2    364.6   0.110450438   1.32575   0.24040   0.79469   0.79776
   7   27961.7    357.6   0.321326272   3.78319  -1.48368  -0.64578  -1.07929
   8   29784.7    335.7   0.045360286   0.50137  -0.55574  -0.26203  -0.35194
   9   30172.1    331.4   0.083474290   0.91080   0.42253  -0.60553  -0.60465
  10   31035.6    322.2   0.082797711   0.87828   0.02991  -0.39439  -0.84961
  11   32341.9    309.2   0.061103045   0.62198  -0.77129  -0.05200  -0.15615
  12   32974.4    303.3   0.149120542   1.48880  -1.17550   0.26917  -0.18588
  13   33506.4    298.5   0.083256261   0.81802   0.66229   0.22203   0.57454
  14   34453.9    290.2   0.013428380   0.12831  -0.23590   0.25607   0.08418
  15   34597.0    289.0   0.001293760   0.01231   0.08946  -0.04533   0.04746
  16   34807.6    287.3   0.005192725   0.04911  -0.11746  -0.13095  -0.13479
  17   35007.7    285.7   0.081040566   0.76210   0.29041   0.50410   0.65088
  18   36455.0    274.3   0.048711335   0.43989   0.57249   0.07989   0.32521
  19   36640.1    272.9   0.203179915   1.82558  -1.30912   0.24204  -0.23061
  20   36973.1    270.5   0.169623019   1.51034   0.88880   0.36780   0.76491
  21   37223.6    268.6   0.047240291   0.41780  -0.63393   0.12050   0.03768
  22   37864.1    264.1   0.272788079   2.37177  -0.32881  -0.99244  -1.13080
  23   38314.0    261.0   0.016730238   0.14375  -0.15470  -0.25976  -0.22880
  24   38550.0    259.4   0.086343330   0.73736  -0.84333  -0.00108  -0.16171
  25   39058.4    256.0   0.089582996   0.75507   0.29327  -0.50584  -0.64280
  26   39398.1    253.8   0.284410370   2.37654  -0.11476  -0.85841  -1.27534
  27   39881.1    250.7   0.077258854   0.63776  -0.77608  -0.18800   0.01086

FINAL SINGLE POINT ENERGY     -3782.272756346418

DIPOLE MOMENT
-------------
                                X             Y             Z
Electronic contribution:    -10.67666      15.16983      13.00149
Nuclear contribution   :     12.71598     -17.08869     -14.43138
                        -----------------------------------------
Total Dipole Moment    :      2.03932      -1.91886      -1.42989
                        -----------------------------------------
Magnitude (a.u.)       :      3.14411
Magnitude (Debye)      :      7.99169

Rotational constants in cm-1:     0.002820     0.000560     0.000470
Rotational constants in MHz :    84.550477    16.787767    14.081618

                             ****ORCA TERMINATED NORMALLY****
TOTAL RUN TIME: 0 days 0 hours 4 minutes 10 seconds 654 msec
