                         Program Version 4.2.0 -  RELEASE  -
|  1> # ORCA input file
|  2> # SCF done       -158.414609043378          0.000691959926
|  3> ! CAM-B3LYP def2-SVP def2/J RIJCOSX Grid4 TightSCF
|  4> %maxcore 5000
|  5> %tddft
|  6>     Mode sTDDFT
|  7>     Ethresh 5.0
|  8>     maxcore 5000
|  9> end
| 10>
| 11> %pal
| 12>   nprocs 6
| 13>   end
| 14> * xyz 0 1
| 15>    C       -6.91517        -0.58520        -5.23295
| 16>    O       -7.58410        -1.39784        -4.41335
| 17>    C       -6.69126        -1.91345        -3.54759
| 18>    C       -5.44566        -1.44088        -3.79847
| 19>    C       -5.57447        -0.55630        -4.91567
| 20>    C       -4.56732         0.21025        -5.58387
| 21>    C       -3.25873         0.23299        -5.24633
| 22>    C       -2.29705         1.01952        -5.93149
| 23>    C       -0.98500         1.06963        -5.58597
| 24>    C       -0.01263         1.86120        -6.24257
| 25>    S       -0.44259         2.84454        -7.60701
| 26>    C        1.18477         3.42332        -7.71490
| 27>    N        1.50260         4.33602        -8.73126
| 28>    O        2.65063         4.73447        -8.79202
| 29>    O        0.59797         4.66521        -9.47830
| 30>    C        2.01313         2.89997        -6.76005
| 31>    C        1.35051         1.99669        -5.90492
| 32>    C        1.97062         1.29115        -4.82669
| 33>    C        3.21781         1.51613        -4.35187
| 34>    C        3.78883         0.78199        -3.27958
| 35>    S        2.94097        -0.56929        -2.58904
| 36>    C        4.22962        -0.81414        -1.46467
| 37>    N        4.11942        -1.86579        -0.54379
| 38>    O        5.03745        -2.03039         0.23781
| 39>    O        3.10507        -2.53937        -0.59553
| 40>    C        5.25049         0.08651        -1.60372
| 41>    C        5.02004         1.01420        -2.63983
| 42>    C        5.91388         2.08041        -2.98729
| 43>    C        7.02448         2.41634        -2.29813
| 44>    C        7.88608         3.49406        -2.64249
| 45>    S        7.60608         4.48332        -4.06829
| 46>    C        8.98595         5.44675        -3.69860
| 47>    C        9.61641         5.00805        -2.52777
| 48>    C        8.99676         3.90681        -1.93657
| 49>    S       11.01184         5.96270        -2.11248
| 50>    C       10.74440         6.95438        -3.51994
| 51>    C       11.40385         8.05629        -4.05469
| 52>    C       10.80304         8.50838        -5.21695
| 53>    S        9.39421         7.54893        -5.64995
| 54>    C        9.62618         6.55164        -4.26667
| 55>    C       11.22357         9.60102        -6.00885
| 56>    C       10.61759        10.00360        -7.15742
| 57>    C       11.09599        11.10134        -7.90526
| 58>    C       10.55162        11.54632        -9.07667
| 59>    C       11.01383        12.65856        -9.88461
| 60>    C       12.03674        13.52360        -9.59377
| 61>    C       12.83671        13.49292        -8.43241
| 62>    N       13.53092        13.54525        -7.51856
| 63>    C       12.43354        14.59316       -10.42403
| 64>    N       12.81085        15.48017       -11.04792
| 65>    C       10.17301        12.71466       -11.07909
| 66>    C        9.20166        11.70143       -11.00140
| 67>    C        9.38025        10.93241        -9.75807
| 68>    O        8.70903         9.99414        -9.38294
| 69>    C        8.26342        11.52925       -12.00140
| 70>    C        8.30240        12.37990       -13.09376
| 71>    C        9.26112        13.38733       -13.19335
| 72>    C       10.20159        13.55595       -12.17880
| 73>    C        9.29640        14.27231       -14.39858
| 74>    H       -7.47096        -0.07890        -5.99759
| 75>    H       -7.06257        -2.59610        -2.80940
| 76>    H       -4.55061        -1.68421        -3.26586
| 77>    H       -4.91081         0.81075        -6.41633
| 78>    H       -2.90715        -0.36253        -4.41541
| 79>    H       -2.64571         1.61333        -6.76748
| 80>    H       -0.65053         0.47776        -4.74553
| 81>    H        3.05477         3.15769        -6.70695
| 82>    H        1.38199         0.51940        -4.35052
| 83>    H        3.82459         2.29923        -4.77972
| 84>    H        6.12361         0.05655        -0.97871
| 85>    H        5.66365         2.66682        -3.86003
| 86>    H        7.31053         1.87326        -1.40870
| 87>    H        9.33549         3.43229        -1.03423
| 88>    H       12.27783         8.51137        -3.62645
| 89>    H       12.09611        10.13440        -5.65022
| 90>    H        9.74782         9.47561        -7.52228
| 91>    H       11.96615        11.60842        -7.50774
| 92>    H        7.52451        10.74703       -11.91986
| 93>    H        7.57897        12.26452       -13.88767
| 94>    H       10.93794        14.33835       -12.26741
| 95>    H        9.82059        13.76666       -15.21025
| 96>    H        9.81984        15.20061       -14.18553
| 97>    H        8.29007        14.49969       -14.74290
| 98> *
| 99>
|100>                          ****END OF INPUT****

CARTESIAN COORDINATES (ANGSTROEM)
---------------------------------
  C     -6.915170   -0.585200   -5.232950
  O     -7.584100   -1.397840   -4.413350
  C     -6.691260   -1.913450   -3.547590
  C     -5.445660   -1.440880   -3.798470
  C     -5.574470   -0.556300   -4.915670
  C     -4.567320    0.210250   -5.583870
  C     -3.258730    0.232990   -5.246330
  C     -2.297050    1.019520   -5.931490
  C     -0.985000    1.069630   -5.585970
  C     -0.012630    1.861200   -6.242570
  S     -0.442590    2.844540   -7.607010
  C      1.184770    3.423320   -7.714900
  N      1.502600    4.336020   -8.731260
  O      2.650630    4.734470   -8.792020
  O      0.597970    4.665210   -9.478300
  C      2.013130    2.899970   -6.760050
  C      1.350510    1.996690   -5.904920
  C      1.970620    1.291150   -4.826690
  C      3.217810    1.516130   -4.351870
  C      3.788830    0.781990   -3.279580
  S      2.940970   -0.569290   -2.589040
  C      4.229620   -0.814140   -1.464670
  N      4.119420   -1.865790   -0.543790
  O      5.037450   -2.030390    0.237810
  O      3.105070   -2.539370   -0.595530
  C      5.250490    0.086510   -1.603720
  C      5.020040    1.014200   -2.639830
  C      5.913880    2.080410   -2.987290
  C      7.024480    2.416340   -2.298130
  C      7.886080    3.494060   -2.642490
  S      7.606080    4.483320   -4.068290
  C      8.985950    5.446750   -3.698600
  C      9.616410    5.008050   -2.527770
  C      8.996760    3.906810   -1.936570
  S     11.011840    5.962700   -2.112480
  C     10.744400    6.954380   -3.519940
  C     11.403850    8.056290   -4.054690
  C     10.803040    8.508380   -5.216950
  S      9.394210    7.548930   -5.649950
  C      9.626180    6.551640   -4.266670
  C     11.223570    9.601020   -6.008850
  C     10.617590   10.003600   -7.157420
  C     11.095990   11.101340   -7.905260
  C     10.551620   11.546320   -9.076670
  C     11.013830   12.658560   -9.884610
  C     12.036740   13.523600   -9.593770
  C     12.836710   13.492920   -8.432410
  N     13.530920   13.545250   -7.518560
  C     12.433540   14.593160  -10.424030
  N     12.810850   15.480170  -11.047920
  C     10.173010   12.714660  -11.079090
  C      9.201660   11.701430  -11.001400
  C      9.380250   10.932410   -9.758070
  O      8.709030    9.994140   -9.382940
  C      8.263420   11.529250  -12.001400
  C      8.302400   12.379900  -13.093760
  C      9.261120   13.387330  -13.193350
  C     10.201590   13.555950  -12.178800
  C      9.296400   14.272310  -14.398580
  H     -7.470960   -0.078900   -5.997590
  H     -7.062570   -2.596100   -2.809400
  H     -4.550610   -1.684210   -3.265860
  H     -4.910810    0.810750   -6.416330
  H     -2.907150   -0.362530   -4.415410
  H     -2.645710    1.613330   -6.767480
  H     -0.650530    0.477760   -4.745530
  H      3.054770    3.157690   -6.706950
  H      1.381990    0.519400   -4.350520
  H      3.824590    2.299230   -4.779720
  H      6.123610    0.056550   -0.978710
  H      5.663650    2.666820   -3.860030
  H      7.310530    1.873260   -1.408700
  H      9.335490    3.432290   -1.034230
  H     12.277830    8.511370   -3.626450
  H     12.096110   10.134400   -5.650220
  H      9.747820    9.475610   -7.522280
  H     11.966150   11.608420   -7.507740
  H      7.524510   10.747030  -11.919860
  H      7.578970   12.264520  -13.887670
  H     10.937940   14.338350  -12.267410
  H      9.820590   13.766660  -15.210250
  H      9.819840   15.200610  -14.185530
  H      8.290070   14.499690  -14.742900

 Total Charge           Charge          ....    0
 Multiplicity           Mult            ....    1
 Number of Electrons    NEL             ....  444
 Basis Dimension        Dim             ....  966

ORBITAL ENERGIES
----------------

  NO   OCC          E(Eh)            E(eV)
   0   2.0000     -88.982479     -2421.3363
   1   2.0000     -88.982056     -2421.3248
   2   2.0000     -88.971557     -2421.0392
   3   2.0000     -88.970798     -2421.0185
   4   2.0000     -88.968876     -2420.9662
   5   2.0000     -19.299434      -525.1643
   6   2.0000     -19.242990      -523.6284
   7   2.0000     -19.242398      -523.6123
   8   2.0000     -19.241117      -523.5774
   9   2.0000     -19.240527      -523.5613
  10   2.0000     -19.209344      -522.7128
  11   2.0000     -14.653760      -398.7491
  12   2.0000     -14.651951      -398.6999
  13   2.0000     -14.411775      -392.1643
  14   2.0000     -14.408453      -392.0739
  15   2.0000     -10.359620      -281.8996
  16   2.0000     -10.349403      -281.6216
  17   2.0000     -10.347968      -281.5825
  18   2.0000     -10.335881      -281.2536
  19   2.0000     -10.334322      -281.2112
  20   2.0000     -10.333821      -281.1976
  21   2.0000     -10.332972      -281.1745
  22   2.0000     -10.331814      -281.1429
  23   2.0000     -10.328653      -281.0569
  24   2.0000     -10.321502      -280.8623
  25   2.0000     -10.320141      -280.8253
  26   2.0000     -10.318168      -280.7716
  27   2.0000     -10.317142      -280.7437
  28   2.0000     -10.315422      -280.6969
  29   2.0000     -10.314869      -280.6819
  30   2.0000     -10.314131      -280.6618
  31   2.0000     -10.311900      -280.6011
  32   2.0000     -10.310718      -280.5689
  33   2.0000     -10.310099      -280.5521
  34   2.0000     -10.307909      -280.4925
  35   2.0000     -10.307613      -280.4844
  36   2.0000     -10.307583      -280.4836
  37   2.0000     -10.307440      -280.4797
  38   2.0000     -10.306734      -280.4605
  39   2.0000     -10.303880      -280.3828
  40   2.0000     -10.301542      -280.3192
  41   2.0000     -10.300891      -280.3015
  42   2.0000     -10.300492      -280.2906
  43   2.0000     -10.298174      -280.2276
  44   2.0000     -10.297825      -280.2181
  45   2.0000     -10.297712      -280.2150
  46   2.0000     -10.297173      -280.2003
  47   2.0000     -10.296412      -280.1796
  48   2.0000     -10.294191      -280.1192
  49   2.0000     -10.288702      -279.9698
  50   2.0000     -10.287560      -279.9387
  51   2.0000     -10.286666      -279.9144
  52   2.0000     -10.284770      -279.8628
  53   2.0000     -10.284328      -279.8508
  54   2.0000     -10.283872      -279.8384
  55   2.0000     -10.281397      -279.7710
  56   2.0000     -10.280508      -279.7468
  57   2.0000     -10.276560      -279.6394
  58   2.0000     -10.270015      -279.4613
  59   2.0000      -8.077816      -219.8086
  60   2.0000      -8.077504      -219.8001
  61   2.0000      -8.066529      -219.5014
  62   2.0000      -8.065724      -219.4795
  63   2.0000      -8.064026      -219.4333
  64   2.0000      -6.047219      -164.5532
  65   2.0000      -6.046901      -164.5446
  66   2.0000      -6.042991      -164.4382
  67   2.0000      -6.042619      -164.4280
  68   2.0000      -6.039682      -164.3481
  69   2.0000      -6.039381      -164.3399
  70   2.0000      -6.036070      -164.2498
  71   2.0000      -6.035236      -164.2271
  72   2.0000      -6.033794      -164.1879
  73   2.0000      -6.032081      -164.1413
  74   2.0000      -6.031176      -164.1166
  75   2.0000      -6.029926      -164.0826
  76   2.0000      -6.028075      -164.0323
  77   2.0000      -6.027339      -164.0122
  78   2.0000      -6.024953      -163.9473
  79   2.0000      -1.323592       -36.0168
  80   2.0000      -1.321857       -35.9696
  81   2.0000      -1.219537       -33.1853
  82   2.0000      -1.142523       -31.0896
  83   2.0000      -1.140927       -31.0462
  84   2.0000      -1.123740       -30.5785
  85   2.0000      -1.029738       -28.0206
  86   2.0000      -1.019247       -27.7351
  87   2.0000      -1.016111       -27.6498
  88   2.0000      -1.012244       -27.5446
  89   2.0000      -0.991330       -26.9755
  90   2.0000      -0.990541       -26.9540
  91   2.0000      -0.987694       -26.8765
  92   2.0000      -0.948781       -25.8176
  93   2.0000      -0.943960       -25.6865
  94   2.0000      -0.940225       -25.5848
  95   2.0000      -0.935874       -25.4664
  96   2.0000      -0.922287       -25.0967
  97   2.0000      -0.917335       -24.9620
  98   2.0000      -0.910889       -24.7865
  99   2.0000      -0.896722       -24.4010
 100   2.0000      -0.896025       -24.3821
 101   2.0000      -0.882706       -24.0197
 102   2.0000      -0.876976       -23.8637
 103   2.0000      -0.864617       -23.5274
 104   2.0000      -0.857505       -23.3339
 105   2.0000      -0.854892       -23.2628
 106   2.0000      -0.848484       -23.0884
 107   2.0000      -0.845022       -22.9942
 108   2.0000      -0.840885       -22.8816
 109   2.0000      -0.834614       -22.7110
 110   2.0000      -0.815008       -22.1775
 111   2.0000      -0.802591       -21.8396
 112   2.0000      -0.794427       -21.6174
 113   2.0000      -0.788553       -21.4576
 114   2.0000      -0.778568       -21.1859
 115   2.0000      -0.766565       -20.8593
 116   2.0000      -0.747416       -20.3382
 117   2.0000      -0.736035       -20.0285
 118   2.0000      -0.726168       -19.7600
 119   2.0000      -0.708670       -19.2839
 120   2.0000      -0.695551       -18.9269
 121   2.0000      -0.684082       -18.6148
 122   2.0000      -0.680192       -18.5090
 123   2.0000      -0.677058       -18.4237
 124   2.0000      -0.668892       -18.2015
 125   2.0000      -0.667132       -18.1536
 126   2.0000      -0.664681       -18.0869
 127   2.0000      -0.660088       -17.9619
 128   2.0000      -0.655060       -17.8251
 129   2.0000      -0.648378       -17.6433
 130   2.0000      -0.643223       -17.5030
 131   2.0000      -0.641377       -17.4528
 132   2.0000      -0.635941       -17.3048
 133   2.0000      -0.634955       -17.2780
 134   2.0000      -0.633532       -17.2393
 135   2.0000      -0.633154       -17.2290
 136   2.0000      -0.630940       -17.1688
 137   2.0000      -0.627078       -17.0636
 138   2.0000      -0.621376       -16.9085
 139   2.0000      -0.616838       -16.7850
 140   2.0000      -0.615347       -16.7444
 141   2.0000      -0.602313       -16.3898
 142   2.0000      -0.587516       -15.9871
 143   2.0000      -0.584308       -15.8998
 144   2.0000      -0.582412       -15.8482
 145   2.0000      -0.576724       -15.6935
 146   2.0000      -0.569828       -15.5058
 147   2.0000      -0.562385       -15.3033
 148   2.0000      -0.560781       -15.2596
 149   2.0000      -0.557244       -15.1634
 150   2.0000      -0.554201       -15.0806
 151   2.0000      -0.553044       -15.0491
 152   2.0000      -0.543076       -14.7779
 153   2.0000      -0.541679       -14.7398
 154   2.0000      -0.534347       -14.5403
 155   2.0000      -0.531996       -14.4764
 156   2.0000      -0.531108       -14.4522
 157   2.0000      -0.527850       -14.3635
 158   2.0000      -0.527541       -14.3551
 159   2.0000      -0.520973       -14.1764
 160   2.0000      -0.515128       -14.0173
 161   2.0000      -0.511041       -13.9061
 162   2.0000      -0.509485       -13.8638
 163   2.0000      -0.508238       -13.8299
 164   2.0000      -0.506227       -13.7751
 165   2.0000      -0.502095       -13.6627
 166   2.0000      -0.499705       -13.5977
 167   2.0000      -0.497628       -13.5412
 168   2.0000      -0.492782       -13.4093
 169   2.0000      -0.489966       -13.3326
 170   2.0000      -0.488965       -13.3054
 171   2.0000      -0.484880       -13.1942
 172   2.0000      -0.483417       -13.1544
 173   2.0000      -0.481414       -13.0999
 174   2.0000      -0.479703       -13.0534
 175   2.0000      -0.477277       -12.9874
 176   2.0000      -0.476538       -12.9673
 177   2.0000      -0.472417       -12.8551
 178   2.0000      -0.467197       -12.7131
 179   2.0000      -0.462274       -12.5791
 180   2.0000      -0.458539       -12.4775
 181   2.0000      -0.449824       -12.2403
 182   2.0000      -0.447094       -12.1660
 183   2.0000      -0.446284       -12.1440
 184   2.0000      -0.445308       -12.1174
 185   2.0000      -0.444206       -12.0875
 186   2.0000      -0.442801       -12.0492
 187   2.0000      -0.440036       -11.9740
 188   2.0000      -0.439366       -11.9558
 189   2.0000      -0.439215       -11.9517
 190   2.0000      -0.436598       -11.8804
 191   2.0000      -0.433540       -11.7972
 192   2.0000      -0.424696       -11.5566
 193   2.0000      -0.422132       -11.4868
 194   2.0000      -0.419259       -11.4086
 195   2.0000      -0.418087       -11.3767
 196   2.0000      -0.416240       -11.3265
 197   2.0000      -0.415636       -11.3100
 198   2.0000      -0.401028       -10.9125
 199   2.0000      -0.400061       -10.8862
 200   2.0000      -0.398058       -10.8317
 201   2.0000      -0.392196       -10.6722
 202   2.0000      -0.389648       -10.6029
 203   2.0000      -0.387775       -10.5519
 204   2.0000      -0.382225       -10.4009
 205   2.0000      -0.380650       -10.3580
 206   2.0000      -0.369897       -10.0654
 207   2.0000      -0.368325       -10.0226
 208   2.0000      -0.367751       -10.0070
 209   2.0000      -0.356740        -9.7074
 210   2.0000      -0.348142        -9.4734
 211   2.0000      -0.344410        -9.3719
 212   2.0000      -0.338666        -9.2156
 213   2.0000      -0.328553        -8.9404
 214   2.0000      -0.327879        -8.9220
 215   2.0000      -0.320956        -8.7336
 216   2.0000      -0.311685        -8.4814
 217   2.0000      -0.302874        -8.2416
 218   2.0000      -0.294957        -8.0262
 219   2.0000      -0.285028        -7.7560
 220   2.0000      -0.260921        -7.1000
 221   2.0000      -0.244251        -6.6464
 222   0.0000      -0.094672        -2.5761
 223   0.0000      -0.085351        -2.3225
 224   0.0000      -0.070254        -1.9117
 225   0.0000      -0.058973        -1.6047
 226   0.0000      -0.045131        -1.2281

MULLIKEN ATOMIC CHARGES
-----------------------
   0 C :    0.082638
   1 O :   -0.172815
   2 C :    0.139777
   3 C :   -0.044376
   4 C :    0.037760
   5 C :    0.035283
   6 C :    0.005563
   7 C :    0.024799
   8 C :   -0.024779
   9 C :   -0.064934
  10 S :    0.172681
  11 C :   -0.000419
  12 N :    0.274771
  13 O :   -0.246158
  14 O :   -0.258196
  15 C :    0.000930
  16 C :    0.116791
  17 C :   -0.030282
  18 C :    0.008207
  19 C :   -0.085149
  20 S :    0.156729
  21 C :    0.006680
  22 N :    0.275047
  23 O :   -0.246342
  24 O :   -0.256919
  25 C :    0.001492
  26 C :    0.120297
  27 C :   -0.036170
  28 C :    0.033584
  29 C :   -0.043892
  30 S :    0.134075
  31 C :   -0.073382
  32 C :   -0.015527
  33 C :   -0.043546
  34 S :    0.164012
  35 C :   -0.022381
  36 C :   -0.026008
  37 C :   -0.051423
  38 S :    0.167322
  39 C :   -0.067589
  40 C :    0.046752
  41 C :   -0.021405
  42 C :   -0.039246
  43 C :   -0.070615
  44 C :    0.328994
  45 C :   -0.352558
  46 C :   -0.189931
  47 N :    0.142454
  48 C :   -0.186145
  49 N :    0.145603
  50 C :    0.041953
  51 C :   -0.021894
  52 C :    0.145293
  53 O :   -0.152277
  54 C :   -0.021394
  55 C :    0.004751
  56 C :   -0.036424
  57 C :   -0.069034
  58 C :    0.084675
  59 H :    0.011101
  60 H :    0.016068
  61 H :   -0.006596
  62 H :   -0.013366
  63 H :   -0.011321
  64 H :    0.005322
  65 H :   -0.009996
  66 H :    0.009407
  67 H :    0.000563
  68 H :   -0.010527
  69 H :    0.007987
  70 H :   -0.011383
  71 H :   -0.011777
  72 H :   -0.011536
  73 H :   -0.005426
  74 H :    0.008875
  75 H :    0.033434
  76 H :    0.006369
  77 H :   -0.004252
  78 H :   -0.015624
  79 H :   -0.011360
  80 H :    0.042430
  81 H :    0.029018
  82 H :    0.024889
Sum of atomic charges:    0.0000000

LOEWDIN ATOMIC CHARGES
----------------------
   0 C :    0.042859
   1 O :    0.030400
   2 C :    0.039136
   3 C :   -0.065856
   4 C :   -0.082531
   5 C :    0.008763
   6 C :   -0.038069
   7 C :    0.005996
   8 C :   -0.063734
   9 C :   -0.132294
  10 S :    0.478788
  11 C :   -0.196132
  12 N :    0.273088
  13 O :   -0.212968
  14 O :   -0.223931
  15 C :   -0.005055
  16 C :   -0.070838
  17 C :   -0.005771
  18 C :   -0.045061
  19 C :   -0.141624
  20 S :    0.472747
  21 C :   -0.194750
  22 N :    0.273366
  23 O :   -0.212364
  24 O :   -0.223987
  25 C :   -0.005687
  26 C :   -0.060030
  27 C :   -0.029251
  28 C :   -0.028651
  29 C :   -0.153262
  30 S :    0.425491
  31 C :   -0.216159
  32 C :   -0.186276
  33 C :   -0.061920
  34 S :    0.410776
  35 C :   -0.195169
  36 C :   -0.040166
  37 C :   -0.168837
  38 S :    0.447951
  39 C :   -0.203325
  40 C :    0.015408
  41 C :   -0.044703
  42 C :    0.064770
  43 C :   -0.098253
  44 C :    0.077434
  45 C :   -0.142098
  46 C :   -0.019038
  47 N :   -0.057398
  48 C :   -0.017688
  49 N :   -0.057459
  50 C :   -0.010642
  51 C :   -0.050669
  52 C :    0.084188
  53 O :   -0.146084
  54 C :    0.016107
  55 C :   -0.008410
  56 C :   -0.000116
  57 C :   -0.008223
  58 C :   -0.043374
  59 H :    0.024381
  60 H :    0.025129
  61 H :    0.030343
  62 H :    0.032401
  63 H :    0.028567
  64 H :    0.025359
  65 H :    0.033141
  66 H :    0.041904
  67 H :    0.022291
  68 H :    0.032541
  69 H :    0.041727
  70 H :    0.021138
  71 H :    0.035028
  72 H :    0.035388
  73 H :    0.038232
  74 H :    0.042362
  75 H :    0.027724
  76 H :    0.041102
  77 H :    0.039607
  78 H :    0.031073
  79 H :    0.036241
  80 H :    0.043588
  81 H :    0.036409
  82 H :    0.034901

  Mayer bond orders larger than 0.100000
B(  0-C ,  1-O ) :   1.1820 B(  0-C ,  4-C ) :   1.4859 B(  0-C , 59-H ) :   1.0070
B(  1-O ,  2-C ) :   1.1374 B(  2-C ,  3-C ) :   1.5969 B(  2-C , 60-H ) :   0.9997
B(  3-C ,  4-C ) :   1.2098 B(  3-C , 61-H ) :   1.0035 B(  4-C ,  5-C ) :   1.0836
B(  5-C ,  6-C ) :   1.6685 B(  5-C , 62-H ) :   0.9805 B(  6-C ,  7-C ) :   1.1455
B(  6-C , 63-H ) :   0.9860 B(  7-C ,  8-C ) :   1.6232 B(  7-C , 64-H ) :   0.9841
B(  8-C ,  9-C ) :   1.1682 B(  8-C , 65-H ) :   0.9774 B(  9-C , 10-S ) :   1.1267
B(  9-C , 16-C ) :   1.3767 B( 10-S , 11-C ) :   1.1073 B( 11-C , 12-N ) :   0.9583
B( 11-C , 15-C ) :   1.5074 B( 12-N , 13-O ) :   1.5334 B( 12-N , 14-O ) :   1.5171
B( 13-O , 14-O ) :   0.2647 B( 15-C , 16-C ) :   1.2143 B( 15-C , 66-H ) :   0.9949
B( 16-C , 17-C ) :   1.1177 B( 17-C , 18-C ) :   1.6737 B( 17-C , 67-H ) :   0.9683
B( 18-C , 19-C ) :   1.1705 B( 18-C , 68-H ) :   0.9709 B( 19-C , 20-S ) :   1.1181
B( 19-C , 26-C ) :   1.3937 B( 20-S , 21-C ) :   1.1133 B( 21-C , 22-N ) :   0.9582
B( 21-C , 25-C ) :   1.5058 B( 22-N , 23-O ) :   1.5342 B( 22-N , 24-O ) :   1.5184
B( 23-O , 24-O ) :   0.2654 B( 25-C , 26-C ) :   1.2104 B( 25-C , 69-H ) :   0.9959
B( 26-C , 27-C ) :   1.1099 B( 27-C , 28-C ) :   1.6815 B( 27-C , 70-H ) :   0.9689
B( 28-C , 29-C ) :   1.1512 B( 28-C , 71-H ) :   0.9766 B( 29-C , 30-S ) :   1.0871
B( 29-C , 33-C ) :   1.4925 B( 30-S , 31-C ) :   1.0691 B( 31-C , 32-C ) :   1.4529
B( 31-C , 39-C ) :   1.3208 B( 32-C , 33-C ) :   1.2559 B( 32-C , 34-S ) :   1.0538
B( 33-C , 72-H ) :   1.0072 B( 34-S , 35-C ) :   1.0463 B( 35-C , 36-C ) :   1.2838
B( 35-C , 39-C ) :   1.4311 B( 36-C , 37-C ) :   1.4529 B( 36-C , 73-H ) :   1.0079
B( 37-C , 38-S ) :   1.0778 B( 37-C , 40-C ) :   1.1698 B( 38-S , 39-C ) :   1.0852
B( 40-C , 41-C ) :   1.5406 B( 40-C , 74-H ) :   0.9868 B( 41-C , 42-C ) :   1.1819
B( 41-C , 75-H ) :   0.9721 B( 42-C , 43-C ) :   1.5338 B( 42-C , 76-H ) :   0.9618
B( 43-C , 44-C ) :   1.0708 B( 43-C , 52-C ) :   0.9421 B( 44-C , 45-C ) :   1.6224
B( 44-C , 50-C ) :   0.9826 B( 45-C , 46-C ) :   1.1457 B( 45-C , 48-C ) :   1.1466
B( 46-C , 47-N ) :   2.9621 B( 48-C , 49-N ) :   2.9645 B( 50-C , 51-C ) :   1.3339
B( 50-C , 57-C ) :   1.3641 B( 51-C , 52-C ) :   0.9521 B( 51-C , 54-C ) :   1.3750
B( 52-C , 53-O ) :   2.1952 B( 54-C , 55-C ) :   1.3520 B( 54-C , 77-H ) :   1.0070
B( 55-C , 56-C ) :   1.3787 B( 55-C , 78-H ) :   0.9932 B( 56-C , 57-C ) :   1.3617
B( 56-C , 58-C ) :   1.0526 B( 57-C , 79-H ) :   0.9834 B( 58-C , 80-H ) :   0.9515
B( 58-C , 81-H ) :   0.9592 B( 58-C , 82-H ) :   0.9580

-----------------------------------------------------------------------------
         ABSORPTION SPECTRUM VIA TRANSITION ELECTRIC DIPOLE MOMENTS
-----------------------------------------------------------------------------
State   Energy  Wavelength   fosc         T2         TX        TY        TZ
        (cm-1)    (nm)                  (au**2)     (au)      (au)      (au)
-----------------------------------------------------------------------------
   0   18369.3    544.4   1.787615235  32.03734  -3.37913  -4.00836   2.13352
   1   21149.3    472.8   1.043740360  16.24699   2.91752  -1.32004   2.44798
   2   23779.5    420.5   0.471305373   6.52492  -1.32954  -1.51569   1.56842
   3   24108.5    414.8   0.114056722   1.55749  -1.05586   0.36294  -0.55761
   4   25947.3    385.4   0.022852665   0.28995  -0.34657  -0.31580  -0.26478
   5   26970.6    370.8   0.283269209   3.45768   0.40555   1.18087  -1.37796
   6   27936.4    358.0   0.130975033   1.54345   0.00438  -0.60705   1.08394
   7   28486.6    351.0   0.075144852   0.86843   0.79853   0.44108   0.19034
   8   28588.4    349.8   0.152384323   1.75480   0.93108   0.89901  -0.28225
   9   28611.8    349.5   0.343795848   3.95577  -1.45425  -1.33032   0.26680
  10   29801.7    335.6   0.112336675   1.24095   0.57197  -0.45581   0.84026
  11   30324.7    329.8   0.383246126   4.16062  -0.93944   0.57086  -1.71819
  12   31692.0    315.5   0.203274245   2.11159   1.15037   0.25976   0.84897
  13   31867.3    313.8   0.067300522   0.69526   0.64178   0.14581   0.51198
  14   33083.8    302.3   0.043141960   0.42930   0.61676   0.21996  -0.02280
  15   33286.0    300.4   0.076864141   0.76022  -0.01217   0.67086  -0.55679
  16   33517.5    298.4   0.009248470   0.09084  -0.21691   0.15242  -0.14338
  17   34062.4    293.6   0.042506745   0.41083   0.33554  -0.53543   0.10749
  18   34281.7    291.7   0.058395287   0.56078   0.51634   0.05786   0.53928
  19   34777.6    287.5   0.115581675   1.09412  -0.85189  -0.43425  -0.42407
  20   35791.4    279.4   0.070433983   0.64786  -0.58373  -0.25370  -0.49270
  21   36262.6    275.8   0.091654754   0.83209  -0.31374  -0.68816   0.50999
  22   36622.5    273.1   0.107524881   0.96658   0.27568  -0.27918   0.90146
  23   37132.9    269.3   0.018117646   0.16063  -0.06374   0.39247   0.05031
  24   37177.6    269.0   0.078325377   0.69358  -0.30916  -0.49305   0.59573
  25   37669.6    265.5   0.595817974   5.20712   1.78828   0.78501   1.18023
  26   37752.2    264.9   0.145445463   1.26833  -0.94468  -0.61240   0.02954
  27   38598.6    259.1   0.020945637   0.17865   0.31614   0.26957  -0.07768
  28   38988.5    256.5   0.004091061   0.03454   0.16181   0.08089  -0.04265
  29   39385.5    253.9   0.003403929   0.02845  -0.05303  -0.02055   0.15880
  30   39656.2    252.2   0.197692726   1.64118  -0.07297  -0.91171   0.89702
  31   39731.2    251.7   0.083521627   0.69206  -0.75664  -0.26068  -0.22716
  32   40171.9    248.9   0.008792656   0.07206   0.16467  -0.13681   0.16194

FINAL SINGLE POINT ENERGY     -4348.581008561010

DIPOLE MOMENT
-------------
                                X             Y             Z
Electronic contribution:     20.84811      -7.06606      19.68456
Nuclear contribution   :    -23.39558       5.25576     -19.30132
                        -----------------------------------------
Total Dipole Moment    :     -2.54747      -1.81030       0.38324
                        -----------------------------------------
Magnitude (a.u.)       :      3.14860
Magnitude (Debye)      :      8.00310

Rotational constants in cm-1:     0.001315     0.000342     0.000275
Rotational constants in MHz :    39.421071    10.254562     8.251231

                             ****ORCA TERMINATED NORMALLY****
TOTAL RUN TIME: 0 days 0 hours 5 minutes 55 seconds 783 msec
