                         Program Version 4.2.0 -  RELEASE  -
|  1> # ORCA input file
|  2> # SCF done       -154.379604578281          0.000890295455
|  3> ! CAM-B3LYP def2-SVP def2/J RIJCOSX Grid4 TightSCF
|  4> %maxcore 5000
|  5> %tddft
|  6>     Mode sTDDFT
|  7>     Ethresh 5.0
|  8>     maxcore 5000
|  9> end
| 10>
| 11> %pal
| 12>   nprocs 6
| 13>   end
| 14> * xyz 0 1
| 15>    C       16.29293         1.87627        -1.32719
| 16>    O       16.81500         0.84573        -0.64873
| 17>    C       15.81066        -0.01708        -0.41050
| 18>    C       14.64481         0.44116        -0.92966
| 19>    C       14.94647         1.69816        -1.54153
| 20>    C       14.07326         2.59860        -2.23820
| 21>    C       12.75366         2.40134        -2.43723
| 22>    C       11.92448         3.31380        -3.14624
| 23>    C       10.60092         3.10901        -3.35621
| 24>    C        9.76844         4.00606        -4.08959
| 25>    C        8.42574         3.81685        -4.32801
| 26>    O        7.67819         4.69756        -5.09288
| 27>    C        8.34005         5.79324        -5.55144
| 28>    C        9.72478         5.99926        -5.28833
| 29>    C       10.19749         7.15013        -5.82701
| 30>    S        8.95551         8.00229        -6.66838
| 31>    C        7.78849         6.79114        -6.28460
| 32>    O       10.45874         5.10760        -4.57118
| 33>    C        7.66345         2.72316        -3.82105
| 34>    C        6.34695         2.55547        -4.11203
| 35>    C        5.47181         1.54330        -3.64593
| 36>    S        3.76982         1.79057        -3.91334
| 37>    C        3.34981         0.32183        -3.07346
| 38>    C        4.49911        -0.32048        -2.61673
| 39>    C        5.68108         0.34795        -2.96319
| 40>    C        7.03457        -0.21846        -2.66849
| 41>    C        6.97055        -1.73509        -2.42169
| 42>    C        6.75996        -2.46123        -3.74457
| 43>    O        5.69258        -2.85188        -4.13833
| 44>    C        8.03125        -2.68334        -4.52833
| 45>    C        5.88762        -2.01957        -1.38080
| 46>    C        4.49337        -1.60432        -1.85098
| 47>    C        1.96935         0.01726        -2.99845
| 48>    C        1.36573        -1.04301        -2.39785
| 49>    C       -0.03386        -1.24841        -2.38081
| 50>    S       -0.67699        -2.58409        -1.42804
| 51>    C       -2.28022        -2.17112        -1.87104
| 52>    C       -2.30681        -1.06097        -2.72864
| 53>    C       -1.05383        -0.54215        -3.01187
| 54>    C       -3.71877        -0.80073        -3.05725
| 55>    O       -4.18880         0.05016        -3.77530
| 56>    C       -4.48663        -1.85211        -2.28787
| 57>    C       -3.58016        -2.64385        -1.59992
| 58>    C       -5.88205        -1.89418        -2.34388
| 59>    C       -6.69538        -2.74219        -1.62708
| 60>    C       -8.08326        -2.72697        -1.72285
| 61>    C       -8.93471        -3.52248        -0.98306
| 62>    C      -10.34487        -3.54177        -1.04915
| 63>    C      -10.93763        -4.41392        -0.18501
| 64>    C      -10.02366        -5.13280         0.61770
| 65>    S       -8.38077        -4.66836         0.22490
| 66>    C      -10.30833        -6.06452         1.59363
| 67>    C      -11.59097        -6.51734         2.00260
| 68>    C      -11.56899        -7.43283         2.99874
| 69>    C      -10.25505        -7.77529         3.45800
| 70>    S       -9.05848        -6.85720         2.52967
| 71>    C       -9.92202        -8.63868         4.42855
| 72>    H       16.95452         2.67232        -1.60654
| 73>    H       16.05138        -0.91137         0.12964
| 74>    H       13.69240        -0.04454        -0.88694
| 75>    H       14.54011         3.49487        -2.62543
| 76>    H       12.28080         1.50819        -2.05114
| 77>    H       12.38873         4.20742        -3.53768
| 78>    H       10.14244         2.21545        -2.96426
| 79>    H       11.19152         7.54236        -5.78043
| 80>    H        6.77666         6.88395        -6.61882
| 81>    H        8.17158         2.05125        -3.15572
| 82>    H        5.87928         3.29946        -4.74298
| 83>    H        7.44528         0.25969        -1.77254
| 84>    H        7.70386        -0.00230        -3.50409
| 85>    H        7.94107        -2.05401        -2.02525
| 86>    H        7.79495        -2.91201        -5.56415
| 87>    H        8.55188        -3.53764        -4.09655
| 88>    H        8.69211        -1.82268        -4.47637
| 89>    H        6.14574        -1.46995        -0.47174
| 90>    H        5.87903        -3.08358        -1.13727
| 91>    H        3.84485        -1.50424        -0.97658
| 92>    H        4.08058        -2.38415        -2.49499
| 93>    H        1.33526         0.74440        -3.48903
| 94>    H        1.94644        -1.78962        -1.88233
| 95>    H       -0.87919         0.30399        -3.65030
| 96>    H       -3.81459        -3.48038        -0.96807
| 97>    H       -6.34161        -1.16959        -3.00559
| 98>    H       -6.24850        -3.45189        -0.94302
| 99>    H       -8.54239        -2.03900        -2.42154
|100>    H      -10.88065        -2.90763        -1.73370
|101>    H      -12.00042        -4.55362        -0.10222
|102>    H      -12.48916        -6.14697         1.54108
|103>    H      -12.43981        -7.88763         3.43645
|104>    H      -10.68150        -9.17517         4.96933
|105>    H       -8.89772        -8.82059         4.69699
|106> *
|107>
|108>                          ****END OF INPUT****

CARTESIAN COORDINATES (ANGSTROEM)
---------------------------------
  C     16.292930    1.876270   -1.327190
  O     16.815000    0.845730   -0.648730
  C     15.810660   -0.017080   -0.410500
  C     14.644810    0.441160   -0.929660
  C     14.946470    1.698160   -1.541530
  C     14.073260    2.598600   -2.238200
  C     12.753660    2.401340   -2.437230
  C     11.924480    3.313800   -3.146240
  C     10.600920    3.109010   -3.356210
  C      9.768440    4.006060   -4.089590
  C      8.425740    3.816850   -4.328010
  O      7.678190    4.697560   -5.092880
  C      8.340050    5.793240   -5.551440
  C      9.724780    5.999260   -5.288330
  C     10.197490    7.150130   -5.827010
  S      8.955510    8.002290   -6.668380
  C      7.788490    6.791140   -6.284600
  O     10.458740    5.107600   -4.571180
  C      7.663450    2.723160   -3.821050
  C      6.346950    2.555470   -4.112030
  C      5.471810    1.543300   -3.645930
  S      3.769820    1.790570   -3.913340
  C      3.349810    0.321830   -3.073460
  C      4.499110   -0.320480   -2.616730
  C      5.681080    0.347950   -2.963190
  C      7.034570   -0.218460   -2.668490
  C      6.970550   -1.735090   -2.421690
  C      6.759960   -2.461230   -3.744570
  O      5.692580   -2.851880   -4.138330
  C      8.031250   -2.683340   -4.528330
  C      5.887620   -2.019570   -1.380800
  C      4.493370   -1.604320   -1.850980
  C      1.969350    0.017260   -2.998450
  C      1.365730   -1.043010   -2.397850
  C     -0.033860   -1.248410   -2.380810
  S     -0.676990   -2.584090   -1.428040
  C     -2.280220   -2.171120   -1.871040
  C     -2.306810   -1.060970   -2.728640
  C     -1.053830   -0.542150   -3.011870
  C     -3.718770   -0.800730   -3.057250
  O     -4.188800    0.050160   -3.775300
  C     -4.486630   -1.852110   -2.287870
  C     -3.580160   -2.643850   -1.599920
  C     -5.882050   -1.894180   -2.343880
  C     -6.695380   -2.742190   -1.627080
  C     -8.083260   -2.726970   -1.722850
  C     -8.934710   -3.522480   -0.983060
  C    -10.344870   -3.541770   -1.049150
  C    -10.937630   -4.413920   -0.185010
  C    -10.023660   -5.132800    0.617700
  S     -8.380770   -4.668360    0.224900
  C    -10.308330   -6.064520    1.593630
  C    -11.590970   -6.517340    2.002600
  C    -11.568990   -7.432830    2.998740
  C    -10.255050   -7.775290    3.458000
  S     -9.058480   -6.857200    2.529670
  C     -9.922020   -8.638680    4.428550
  H     16.954520    2.672320   -1.606540
  H     16.051380   -0.911370    0.129640
  H     13.692400   -0.044540   -0.886940
  H     14.540110    3.494870   -2.625430
  H     12.280800    1.508190   -2.051140
  H     12.388730    4.207420   -3.537680
  H     10.142440    2.215450   -2.964260
  H     11.191520    7.542360   -5.780430
  H      6.776660    6.883950   -6.618820
  H      8.171580    2.051250   -3.155720
  H      5.879280    3.299460   -4.742980
  H      7.445280    0.259690   -1.772540
  H      7.703860   -0.002300   -3.504090
  H      7.941070   -2.054010   -2.025250
  H      7.794950   -2.912010   -5.564150
  H      8.551880   -3.537640   -4.096550
  H      8.692110   -1.822680   -4.476370
  H      6.145740   -1.469950   -0.471740
  H      5.879030   -3.083580   -1.137270
  H      3.844850   -1.504240   -0.976580
  H      4.080580   -2.384150   -2.494990
  H      1.335260    0.744400   -3.489030
  H      1.946440   -1.789620   -1.882330
  H     -0.879190    0.303990   -3.650300
  H     -3.814590   -3.480380   -0.968070
  H     -6.341610   -1.169590   -3.005590
  H     -6.248500   -3.451890   -0.943020
  H     -8.542390   -2.039000   -2.421540
  H    -10.880650   -2.907630   -1.733700
  H    -12.000420   -4.553620   -0.102220
  H    -12.489160   -6.146970    1.541080
  H    -12.439810   -7.887630    3.436450
  H    -10.681500   -9.175170    4.969330
  H     -8.897720   -8.820590    4.696990

 Total Charge           Charge          ....    0
 Multiplicity           Mult            ....    1
 Number of Electrons    NEL             ....  436
 Basis Dimension        Dim             ....  988

ORBITAL ENERGIES
----------------

  NO   OCC          E(Eh)            E(eV)
   0   2.0000     -88.961427     -2420.7635
   1   2.0000     -88.950370     -2420.4626
   2   2.0000     -88.939824     -2420.1757
   3   2.0000     -88.938936     -2420.1515
   4   2.0000     -88.935627     -2420.0614
   5   2.0000     -19.284759      -524.7650
   6   2.0000     -19.266288      -524.2623
   7   2.0000     -19.265702      -524.2464
   8   2.0000     -19.213802      -522.8341
   9   2.0000     -19.204984      -522.5942
  10   2.0000     -10.354790      -281.7682
  11   2.0000     -10.353934      -281.7449
  12   2.0000     -10.337557      -281.2992
  13   2.0000     -10.336606      -281.2734
  14   2.0000     -10.333146      -281.1792
  15   2.0000     -10.332855      -281.1713
  16   2.0000     -10.316284      -280.7203
  17   2.0000     -10.315713      -280.7048
  18   2.0000     -10.306441      -280.4525
  19   2.0000     -10.305044      -280.4145
  20   2.0000     -10.303420      -280.3703
  21   2.0000     -10.301036      -280.3054
  22   2.0000     -10.298196      -280.2282
  23   2.0000     -10.297861      -280.2190
  24   2.0000     -10.289530      -279.9924
  25   2.0000     -10.288590      -279.9668
  26   2.0000     -10.286694      -279.9152
  27   2.0000     -10.286588      -279.9123
  28   2.0000     -10.286181      -279.9012
  29   2.0000     -10.286083      -279.8985
  30   2.0000     -10.283178      -279.8195
  31   2.0000     -10.281991      -279.7872
  32   2.0000     -10.281006      -279.7604
  33   2.0000     -10.279439      -279.7178
  34   2.0000     -10.279397      -279.7166
  35   2.0000     -10.276517      -279.6382
  36   2.0000     -10.275859      -279.6204
  37   2.0000     -10.275511      -279.6109
  38   2.0000     -10.274799      -279.5915
  39   2.0000     -10.274438      -279.5817
  40   2.0000     -10.273859      -279.5659
  41   2.0000     -10.273667      -279.5607
  42   2.0000     -10.272140      -279.5191
  43   2.0000     -10.272070      -279.5172
  44   2.0000     -10.271089      -279.4905
  45   2.0000     -10.270972      -279.4874
  46   2.0000     -10.269684      -279.4523
  47   2.0000     -10.268806      -279.4284
  48   2.0000     -10.267928      -279.4045
  49   2.0000     -10.267519      -279.3934
  50   2.0000     -10.267340      -279.3885
  51   2.0000     -10.267175      -279.3840
  52   2.0000     -10.267137      -279.3830
  53   2.0000     -10.266758      -279.3727
  54   2.0000     -10.263462      -279.2830
  55   2.0000     -10.262582      -279.2591
  56   2.0000     -10.259934      -279.1870
  57   2.0000      -8.056340      -219.2242
  58   2.0000      -8.046126      -218.9462
  59   2.0000      -8.035788      -218.6649
  60   2.0000      -8.035212      -218.6492
  61   2.0000      -8.032270      -218.5692
  62   2.0000      -6.025412      -163.9598
  63   2.0000      -6.021508      -163.8536
  64   2.0000      -6.018848      -163.7812
  65   2.0000      -6.015651      -163.6942
  66   2.0000      -6.011494      -163.5811
  67   2.0000      -6.007776      -163.4799
  68   2.0000      -6.004925      -163.4023
  69   2.0000      -6.004852      -163.4003
  70   2.0000      -6.002105      -163.3256
  71   2.0000      -6.001085      -163.2978
  72   2.0000      -6.000988      -163.2952
  73   2.0000      -5.998149      -163.2179
  74   2.0000      -5.997934      -163.2121
  75   2.0000      -5.996103      -163.1623
  76   2.0000      -5.992840      -163.0735
  77   2.0000      -1.203762       -32.7560
  78   2.0000      -1.191905       -32.4334
  79   2.0000      -1.154991       -31.4289
  80   2.0000      -1.124460       -30.5981
  81   2.0000      -1.122908       -30.5559
  82   2.0000      -0.992357       -27.0034
  83   2.0000      -0.988494       -26.8983
  84   2.0000      -0.980187       -26.6722
  85   2.0000      -0.978082       -26.6150
  86   2.0000      -0.965760       -26.2797
  87   2.0000      -0.931967       -25.3601
  88   2.0000      -0.921032       -25.0626
  89   2.0000      -0.919490       -25.0206
  90   2.0000      -0.910761       -24.7831
  91   2.0000      -0.899723       -24.4827
  92   2.0000      -0.892972       -24.2990
  93   2.0000      -0.879071       -23.9207
  94   2.0000      -0.868453       -23.6318
  95   2.0000      -0.858890       -23.3716
  96   2.0000      -0.851407       -23.1680
  97   2.0000      -0.841548       -22.8997
  98   2.0000      -0.840165       -22.8621
  99   2.0000      -0.837293       -22.7839
 100   2.0000      -0.834331       -22.7033
 101   2.0000      -0.828058       -22.5326
 102   2.0000      -0.824670       -22.4404
 103   2.0000      -0.814177       -22.1549
 104   2.0000      -0.811794       -22.0900
 105   2.0000      -0.809138       -22.0178
 106   2.0000      -0.801983       -21.8231
 107   2.0000      -0.793573       -21.5942
 108   2.0000      -0.778844       -21.1934
 109   2.0000      -0.753580       -20.5059
 110   2.0000      -0.742977       -20.2174
 111   2.0000      -0.737083       -20.0571
 112   2.0000      -0.726385       -19.7659
 113   2.0000      -0.719411       -19.5762
 114   2.0000      -0.708494       -19.2791
 115   2.0000      -0.700171       -19.0526
 116   2.0000      -0.692456       -18.8427
 117   2.0000      -0.682100       -18.5609
 118   2.0000      -0.677925       -18.4473
 119   2.0000      -0.673986       -18.3401
 120   2.0000      -0.662950       -18.0398
 121   2.0000      -0.655928       -17.8487
 122   2.0000      -0.649693       -17.6790
 123   2.0000      -0.648729       -17.6528
 124   2.0000      -0.637903       -17.3582
 125   2.0000      -0.632581       -17.2134
 126   2.0000      -0.627778       -17.0827
 127   2.0000      -0.624484       -16.9931
 128   2.0000      -0.620355       -16.8807
 129   2.0000      -0.615429       -16.7467
 130   2.0000      -0.611706       -16.6454
 131   2.0000      -0.606597       -16.5063
 132   2.0000      -0.597975       -16.2717
 133   2.0000      -0.594352       -16.1731
 134   2.0000      -0.586687       -15.9646
 135   2.0000      -0.579267       -15.7626
 136   2.0000      -0.573397       -15.6029
 137   2.0000      -0.571229       -15.5439
 138   2.0000      -0.564433       -15.3590
 139   2.0000      -0.560105       -15.2412
 140   2.0000      -0.558760       -15.2046
 141   2.0000      -0.556666       -15.1477
 142   2.0000      -0.553811       -15.0700
 143   2.0000      -0.543101       -14.7785
 144   2.0000      -0.542557       -14.7637
 145   2.0000      -0.539381       -14.6773
 146   2.0000      -0.535761       -14.5788
 147   2.0000      -0.531675       -14.4676
 148   2.0000      -0.529960       -14.4210
 149   2.0000      -0.524747       -14.2791
 150   2.0000      -0.521635       -14.1944
 151   2.0000      -0.513648       -13.9771
 152   2.0000      -0.513017       -13.9599
 153   2.0000      -0.511924       -13.9302
 154   2.0000      -0.511064       -13.9068
 155   2.0000      -0.507472       -13.8090
 156   2.0000      -0.499218       -13.5844
 157   2.0000      -0.497236       -13.5305
 158   2.0000      -0.495513       -13.4836
 159   2.0000      -0.494206       -13.4480
 160   2.0000      -0.491673       -13.3791
 161   2.0000      -0.491324       -13.3696
 162   2.0000      -0.491040       -13.3619
 163   2.0000      -0.490900       -13.3581
 164   2.0000      -0.488354       -13.2888
 165   2.0000      -0.483435       -13.1549
 166   2.0000      -0.479701       -13.0533
 167   2.0000      -0.475240       -12.9319
 168   2.0000      -0.475122       -12.9287
 169   2.0000      -0.471203       -12.8221
 170   2.0000      -0.467645       -12.7253
 171   2.0000      -0.464774       -12.6471
 172   2.0000      -0.463001       -12.5989
 173   2.0000      -0.460185       -12.5223
 174   2.0000      -0.459469       -12.5028
 175   2.0000      -0.458878       -12.4867
 176   2.0000      -0.456916       -12.4333
 177   2.0000      -0.451260       -12.2794
 178   2.0000      -0.449268       -12.2252
 179   2.0000      -0.447757       -12.1841
 180   2.0000      -0.446593       -12.1524
 181   2.0000      -0.440623       -11.9900
 182   2.0000      -0.436714       -11.8836
 183   2.0000      -0.435081       -11.8392
 184   2.0000      -0.433120       -11.7858
 185   2.0000      -0.425388       -11.5754
 186   2.0000      -0.424942       -11.5633
 187   2.0000      -0.424202       -11.5431
 188   2.0000      -0.420921       -11.4539
 189   2.0000      -0.419538       -11.4162
 190   2.0000      -0.419072       -11.4035
 191   2.0000      -0.415530       -11.3071
 192   2.0000      -0.414583       -11.2814
 193   2.0000      -0.408456       -11.1146
 194   2.0000      -0.402656       -10.9568
 195   2.0000      -0.399048       -10.8586
 196   2.0000      -0.392834       -10.6896
 197   2.0000      -0.391748       -10.6600
 198   2.0000      -0.387873       -10.5546
 199   2.0000      -0.385212       -10.4821
 200   2.0000      -0.377693       -10.2776
 201   2.0000      -0.366584        -9.9753
 202   2.0000      -0.348249        -9.4763
 203   2.0000      -0.333246        -9.0681
 204   2.0000      -0.331273        -9.0144
 205   2.0000      -0.325984        -8.8705
 206   2.0000      -0.325274        -8.8511
 207   2.0000      -0.320571        -8.7232
 208   2.0000      -0.315570        -8.5871
 209   2.0000      -0.311218        -8.4687
 210   2.0000      -0.302228        -8.2241
 211   2.0000      -0.299719        -8.1558
 212   2.0000      -0.296313        -8.0631
 213   2.0000      -0.275999        -7.5103
 214   2.0000      -0.271730        -7.3941
 215   2.0000      -0.244288        -6.6474
 216   2.0000      -0.218893        -5.9564
 217   2.0000      -0.195688        -5.3249
 218   0.0000      -0.087811        -2.3895
 219   0.0000      -0.049648        -1.3510
 220   0.0000      -0.041755        -1.1362
 221   0.0000      -0.013898        -0.3782
 222   0.0000       0.011338         0.3085

MULLIKEN ATOMIC CHARGES
-----------------------
   0 C :    0.072103
   1 O :   -0.181438
   2 C :    0.139431
   3 C :   -0.051202
   4 C :    0.050450
   5 C :    0.023755
   6 C :    0.014799
   7 C :    0.039875
   8 C :   -0.068524
   9 C :    0.173642
  10 C :    0.176760
  11 O :   -0.260499
  12 C :    0.221017
  13 C :    0.223873
  14 C :   -0.180678
  15 S :    0.103450
  16 C :   -0.172923
  17 O :   -0.259833
  18 C :   -0.092011
  19 C :    0.065701
  20 C :   -0.125422
  21 S :    0.115319
  22 C :   -0.122179
  23 C :   -0.070073
  24 C :   -0.096082
  25 C :    0.135268
  26 C :   -0.085898
  27 C :   -0.004290
  28 O :   -0.174377
  29 C :    0.053749
  30 C :    0.097368
  31 C :    0.101012
  32 C :    0.045155
  33 C :    0.034812
  34 C :   -0.097846
  35 S :    0.153717
  36 C :   -0.046576
  37 C :   -0.005807
  38 C :   -0.012907
  39 C :    0.158186
  40 O :   -0.120675
  41 C :   -0.036906
  42 C :   -0.035937
  43 C :   -0.007120
  44 C :    0.018538
  45 C :   -0.011408
  46 C :   -0.019307
  47 C :    0.034630
  48 C :    0.023449
  49 C :   -0.046829
  50 S :    0.070841
  51 C :   -0.067096
  52 C :    0.030486
  53 C :    0.050536
  54 C :   -0.064427
  55 S :    0.079706
  56 C :   -0.029612
  57 H :    0.003658
  58 H :    0.007924
  59 H :   -0.016170
  60 H :   -0.022806
  61 H :   -0.025860
  62 H :   -0.001108
  63 H :   -0.023211
  64 H :    0.021006
  65 H :    0.022768
  66 H :   -0.022645
  67 H :   -0.004152
  68 H :    0.030120
  69 H :    0.015708
  70 H :   -0.004184
  71 H :    0.037883
  72 H :    0.040117
  73 H :    0.026546
  74 H :   -0.002418
  75 H :    0.001583
  76 H :    0.021531
  77 H :    0.045390
  78 H :   -0.024389
  79 H :   -0.029376
  80 H :   -0.006906
  81 H :   -0.012003
  82 H :   -0.006617
  83 H :   -0.006736
  84 H :   -0.013124
  85 H :   -0.012572
  86 H :   -0.014431
  87 H :   -0.012713
  88 H :   -0.012771
  89 H :    0.019416
  90 H :    0.020795
Sum of atomic charges:   -0.0000000

LOEWDIN ATOMIC CHARGES
----------------------
   0 C :    0.031108
   1 O :    0.022222
   2 C :    0.033617
   3 C :   -0.070982
   4 C :   -0.077280
   5 C :   -0.014067
   6 C :   -0.032583
   7 C :   -0.012249
   8 C :   -0.050157
   9 C :    0.023192
  10 C :    0.026311
  11 O :   -0.054770
  12 C :   -0.007685
  13 C :   -0.007602
  14 C :   -0.213868
  15 S :    0.430353
  16 C :   -0.212291
  17 O :   -0.055562
  18 C :   -0.053981
  19 C :   -0.033791
  20 C :   -0.176224
  21 S :    0.434111
  22 C :   -0.167875
  23 C :   -0.046755
  24 C :   -0.059608
  25 C :   -0.015084
  26 C :   -0.059669
  27 C :    0.090293
  28 O :   -0.130784
  29 C :   -0.077220
  30 C :   -0.015712
  31 C :   -0.032588
  32 C :   -0.039521
  33 C :   -0.052267
  34 C :   -0.166441
  35 S :    0.451172
  36 C :   -0.173756
  37 C :   -0.106322
  38 C :   -0.022652
  39 C :    0.100348
  40 O :   -0.111069
  41 C :   -0.065694
  42 C :   -0.010375
  43 C :   -0.020205
  44 C :   -0.019488
  45 C :   -0.054416
  46 C :   -0.145734
  47 C :   -0.035129
  48 C :   -0.033323
  49 C :   -0.180131
  50 S :    0.367377
  51 C :   -0.178265
  52 C :   -0.026876
  53 C :   -0.033325
  54 C :   -0.139377
  55 S :    0.352488
  56 C :   -0.077452
  57 H :    0.021293
  58 H :    0.021741
  59 H :    0.026681
  60 H :    0.028759
  61 H :    0.021978
  62 H :    0.030067
  63 H :    0.027523
  64 H :    0.027539
  65 H :    0.028356
  66 H :    0.026381
  67 H :    0.030244
  68 H :    0.034079
  69 H :    0.028615
  70 H :    0.029879
  71 H :    0.039809
  72 H :    0.047927
  73 H :    0.033144
  74 H :    0.023849
  75 H :    0.026906
  76 H :    0.029419
  77 H :    0.036363
  78 H :    0.025710
  79 H :    0.025772
  80 H :    0.035985
  81 H :    0.028723
  82 H :    0.033053
  83 H :    0.020024
  84 H :    0.034397
  85 H :    0.033569
  86 H :    0.030858
  87 H :    0.032010
  88 H :    0.032839
  89 H :    0.028313
  90 H :    0.025809

  Mayer bond orders larger than 0.100000
B(  0-C ,  1-O ) :   1.1638 B(  0-C ,  4-C ) :   1.5001 B(  0-C , 57-H ) :   1.0069
B(  1-O ,  2-C ) :   1.1439 B(  2-C ,  3-C ) :   1.5896 B(  2-C , 58-H ) :   1.0001
B(  3-C ,  4-C ) :   1.2121 B(  3-C , 59-H ) :   1.0033 B(  4-C ,  5-C ) :   1.0737
B(  5-C ,  6-C ) :   1.6942 B(  5-C , 60-H ) :   0.9791 B(  6-C ,  7-C ) :   1.1074
B(  6-C , 61-H ) :   0.9811 B(  7-C ,  8-C ) :   1.6505 B(  7-C , 62-H ) :   0.9912
B(  8-C ,  9-C ) :   1.1529 B(  8-C , 63-H ) :   0.9609 B(  9-C , 10-C ) :   1.4548
B(  9-C , 17-O ) :   1.0540 B( 10-C , 11-O ) :   1.0527 B( 10-C , 18-C ) :   1.1882
B( 11-O , 12-C ) :   1.0545 B( 12-C , 13-C ) :   1.2018 B( 12-C , 16-C ) :   1.5714
B( 13-C , 14-C ) :   1.5683 B( 13-C , 17-O ) :   1.0589 B( 14-C , 15-S ) :   1.1399
B( 14-C , 64-H ) :   0.9735 B( 15-S , 16-C ) :   1.1384 B( 16-C , 65-H ) :   0.9723
B( 18-C , 19-C ) :   1.6502 B( 18-C , 66-H ) :   0.9456 B( 19-C , 20-C ) :   1.1162
B( 19-C , 67-H ) :   0.9518 B( 20-C , 21-S ) :   1.1203 B( 20-C , 22-C ) :   0.1009
B( 20-C , 24-C ) :   1.4702 B( 21-S , 22-C ) :   1.1205 B( 22-C , 23-C ) :   1.4731
B( 22-C , 32-C ) :   1.1597 B( 23-C , 24-C ) :   1.3480 B( 23-C , 31-C ) :   1.0678
B( 24-C , 25-C ) :   1.0506 B( 25-C , 26-C ) :   1.0455 B( 25-C , 68-H ) :   0.8949
B( 25-C , 69-H ) :   0.9093 B( 26-C , 27-C ) :   0.9035 B( 26-C , 30-C ) :   1.0453
B( 26-C , 70-H ) :   0.9065 B( 27-C , 28-O ) :   2.1902 B( 27-C , 29-C ) :   1.0385
B( 29-C , 71-H ) :   0.9539 B( 29-C , 72-H ) :   0.9411 B( 29-C , 73-H ) :   0.9522
B( 30-C , 31-C ) :   1.0768 B( 30-C , 74-H ) :   0.9365 B( 30-C , 75-H ) :   0.9334
B( 31-C , 76-H ) :   0.9049 B( 31-C , 77-H ) :   0.8882 B( 32-C , 33-C ) :   1.6717
B( 32-C , 78-H ) :   0.9434 B( 33-C , 34-C ) :   1.1395 B( 33-C , 79-H ) :   0.9510
B( 34-C , 35-S ) :   1.1072 B( 34-C , 38-C ) :   1.4317 B( 35-S , 36-C ) :   1.1227
B( 36-C , 37-C ) :   1.4248 B( 36-C , 42-C ) :   1.1022 B( 37-C , 38-C ) :   1.3278
B( 37-C , 39-C ) :   0.9253 B( 38-C , 80-H ) :   0.9997 B( 39-C , 40-O ) :   2.2694
B( 39-C , 41-C ) :   0.9134 B( 41-C , 42-C ) :   1.5496 B( 41-C , 43-C ) :   1.1888
B( 42-C , 81-H ) :   1.0147 B( 43-C , 44-C ) :   1.5308 B( 43-C , 82-H ) :   0.9784
B( 44-C , 45-C ) :   1.2123 B( 44-C , 83-H ) :   0.9713 B( 45-C , 46-C ) :   1.5104
B( 45-C , 84-H ) :   0.9848 B( 46-C , 47-C ) :   1.1593 B( 46-C , 50-S ) :   1.0353
B( 47-C , 48-C ) :   1.5803 B( 47-C , 85-H ) :   0.9994 B( 48-C , 49-C ) :   1.1889
B( 48-C , 86-H ) :   0.9928 B( 49-C , 50-S ) :   1.0414 B( 49-C , 51-C ) :   1.5313
B( 51-C , 52-C ) :   1.1620 B( 51-C , 55-S ) :   1.0471 B( 52-C , 53-C ) :   1.6516
B( 52-C , 87-H ) :   0.9921 B( 53-C , 54-C ) :   1.0836 B( 53-C , 88-H ) :   0.9934
B( 54-C , 55-S ) :   1.0084 B( 54-C , 56-C ) :   1.8578 B( 56-C , 89-H ) :   0.9508
B( 56-C , 90-H ) :   0.9420

-----------------------------------------------------------------------------
         ABSORPTION SPECTRUM VIA TRANSITION ELECTRIC DIPOLE MOMENTS
-----------------------------------------------------------------------------
State   Energy  Wavelength   fosc         T2         TX        TY        TZ
        (cm-1)    (nm)                  (au**2)     (au)      (au)      (au)
-----------------------------------------------------------------------------
   0    9953.7   1004.6   1.222812007  40.44354  -5.37557  -2.74570   2.00199
   1   17071.9    585.8   0.086669601   1.67133   1.19648  -0.01378   0.48945
   2   19199.6    520.8   1.359855370  23.31716  -3.77852  -2.43879   1.75849
   3   20265.4    493.5   0.769720540  12.50410  -3.34343  -0.13145  -1.14382
   4   22573.3    443.0   0.042808659   0.62433   0.52412  -0.32254   0.49557
   5   25236.6    396.3   0.133540784   1.74205   1.26994   0.04465   0.35681
   6   26560.3    376.5   0.000257863   0.00320   0.00522   0.05405  -0.01572
   7   27242.0    367.1   0.036937787   0.44638  -0.23346   0.46862  -0.41507
   8   28053.4    356.5   0.095710723   1.12318   0.95685   0.40908  -0.20067
   9   28819.2    347.0   0.149810522   1.71134   1.04965  -0.43328   0.64950
  10   29941.7    334.0   0.158753181   1.74551   0.43772   1.01662  -0.72138
  11   30976.4    322.8   0.006769850   0.07195   0.21799  -0.07445   0.13743
  12   31319.8    319.3   0.002407215   0.02530   0.15089   0.04505   0.02247
  13   32017.6    312.3   0.112351588   1.15522   0.70579  -0.55010   0.59538
  14   32814.5    304.7   0.336314887   3.37408   1.30003  -0.94265   0.89185
  15   33551.9    298.0   0.118872028   1.16638  -0.90379   0.40820  -0.42769
  16   33754.7    296.3   0.000207902   0.00203   0.03037  -0.00853   0.03214
  17   34177.3    292.6   0.005169824   0.04980   0.12042   0.17567  -0.06662
  18   34675.1    288.4   0.008933654   0.08482  -0.05340   0.24384  -0.15003
  19   35018.3    285.6   0.151770043   1.42681  -1.01982   0.47637  -0.39981
  20   35322.1    283.1   0.179776431   1.67557  -1.18465   0.30063  -0.42637
  21   35505.7    281.6   0.063329567   0.58720   0.58168  -0.37824   0.32524
  22   35684.1    280.2   0.007233671   0.06674   0.18291  -0.17800   0.03996
  23   36529.5    273.8   0.317039883   2.85723   0.58152  -1.31340   0.89109
  24   36615.3    273.1   0.027099197   0.24365  -0.05887   0.40920  -0.26970
  25   37235.0    268.6   0.075839780   0.67054  -0.22334   0.47985  -0.62481
  26   37922.7    263.7   0.025641590   0.22260   0.46991   0.04091  -0.01051
  27   38372.6    260.6   0.064197529   0.55077   0.62115  -0.31364   0.25803
  28   38430.1    260.2   0.089482673   0.76655   0.86046   0.15928  -0.02807
  29   39015.2    256.3   0.083269477   0.70263  -0.83071  -0.09822  -0.05396
  30   39503.8    253.1   0.004092645   0.03411  -0.09693  -0.07233   0.13957
  31   39883.3    250.7   0.023080532   0.19052   0.33823  -0.24242   0.13172
  32   40198.4    248.8   0.081275609   0.66562  -0.43571   0.57856  -0.37556

FINAL SINGLE POINT ENERGY     -4174.996312129696

DIPOLE MOMENT
-------------
                                X             Y             Z
Electronic contribution:    -30.62731      18.59762      -8.55055
Nuclear contribution   :     31.14249     -19.64790       9.77670
                        -----------------------------------------
Total Dipole Moment    :      0.51518      -1.05028       1.22615
                        -----------------------------------------
Magnitude (a.u.)       :      1.69468
Magnitude (Debye)      :      4.30754

Rotational constants in cm-1:     0.002266     0.000235     0.000217
Rotational constants in MHz :    67.922880     7.031433     6.500698

                             ****ORCA TERMINATED NORMALLY****
TOTAL RUN TIME: 0 days 0 hours 6 minutes 44 seconds 710 msec
