                         Program Version 4.2.0 -  RELEASE  -
|  1> # ORCA input file
|  2> # SCF done       -145.938393085867          0.000836056226
|  3> ! CAM-B3LYP def2-SVP def2/J RIJCOSX Grid4 TightSCF
|  4> %maxcore 5000
|  5> %tddft
|  6>     Mode sTDDFT
|  7>     Ethresh 5.0
|  8>     maxcore 5000
|  9> end
| 10>
| 11> %pal
| 12>   nprocs 6
| 13>   end
| 14> * xyz 0 1
| 15>    C       12.75054         6.17868        -3.61851
| 16>    O       13.69984         5.80286        -4.48016
| 17>    C       13.26961         4.67872        -5.08681
| 18>    C       12.04650         4.32162        -4.62616
| 19>    C       11.68516         5.30585        -3.65181
| 20>    C       10.46040         5.31665        -2.91054
| 21>    C       10.11759         6.21346        -1.95826
| 22>    C        8.89258         6.21098        -1.22475
| 23>    C        7.85404         5.37065        -1.46520
| 24>    C        6.63662         5.34306        -0.72898
| 25>    C        5.62538         4.42984        -0.96610
| 26>    O        4.43641         4.43568        -0.25729
| 27>    C        4.37736         5.31795         0.77430
| 28>    C        5.43299         6.23719         1.03965
| 29>    C        5.19243         7.01710         2.12233
| 30>    S        3.66759         6.64225         2.83439
| 31>    C        3.35607         5.41884         1.65956
| 32>    O        6.55137         6.29204         0.26391
| 33>    C        5.73316         3.37548        -1.90690
| 34>    C        4.79241         2.40944        -2.07363
| 35>    C        4.91484         1.25766        -2.88417
| 36>    S        3.63493         0.09386        -2.77286
| 37>    C        4.47530        -1.06699        -3.75998
| 38>    C        5.66829        -0.51334        -4.22059
| 39>    C        5.92138         0.77533        -3.72383
| 40>    S        7.33090         1.74743        -4.12092
| 41>    C        8.54035         0.77850        -4.95870
| 42>    O        9.57989         1.32638        -5.21593
| 43>    C        8.31164        -0.65097        -5.37887
| 44>    O        9.19636        -1.27531        -5.89419
| 45>    S        6.73780        -1.45769        -5.25235
| 46>    C        3.91257        -2.34670        -4.01057
| 47>    S        4.25537        -3.20285        -5.48184
| 48>    C        3.14716        -4.44814        -5.01625
| 49>    N        2.96926        -5.53701        -5.88286
| 50>    O        2.18271        -6.40271        -5.54588
| 51>    O        3.61587        -5.53202        -6.91488
| 52>    C        2.55657        -4.22886        -3.80107
| 53>    C        2.98882        -3.03338        -3.19599
| 54>    C        2.61931        -2.59877        -1.88249
| 55>    C        1.51462        -2.98957        -1.19877
| 56>    C        1.10935        -2.51417         0.07202
| 57>    C        1.66935        -1.54926         0.86861
| 58>    C        1.09386        -1.07369         2.08233
| 59>    C        1.76724        -0.05675         2.67775
| 60>    C        2.94322         0.33547         1.98954
| 61>    S        3.15303        -0.66016         0.56131
| 62>    C        3.83771         1.32638         2.30903
| 63>    C        3.77959         2.23338         3.40534
| 64>    C        4.81286         3.10064         3.46685
| 65>    C        5.78499         2.94077         2.42209
| 66>    S        5.27361         1.62973         1.34797
| 67>    C        6.91525         3.63720         2.24238
| 68>    H       12.93218         7.06698        -3.04627
| 69>    H       13.91918         4.23727        -5.81600
| 70>    H       11.46181         3.47483        -4.92211
| 71>    H        9.78764         4.50930        -3.16348
| 72>    H       10.82116         6.99496        -1.70650
| 73>    H        8.79915         6.93483        -0.42735
| 74>    H        7.93676         4.67033        -2.27657
| 75>    H        5.81204         7.78538         2.53468
| 76>    H        2.44866         4.85334         1.68712
| 77>    H        6.64169         3.32470        -2.47471
| 78>    H        3.88038         2.46636        -1.49687
| 79>    H        1.86669        -4.92525        -3.36127
| 80>    H        3.29746        -1.90370        -1.41619
| 81>    H        0.83636        -3.69268        -1.66353
| 82>    H        0.19008        -2.93830         0.45714
| 83>    H        0.18134        -1.49817         2.46302
| 84>    H        1.45797         0.42139         3.58991
| 85>    H        2.96518         2.20950         4.10753
| 86>    H        4.93674         3.85926         4.21923
| 87>    H        7.18873         4.42437         2.92307
| 88>    H        7.58503         3.43273         1.42628
| 89> *
| 90>
| 91>                          ****END OF INPUT****

CARTESIAN COORDINATES (ANGSTROEM)
---------------------------------
  C     12.750540    6.178680   -3.618510
  O     13.699840    5.802860   -4.480160
  C     13.269610    4.678720   -5.086810
  C     12.046500    4.321620   -4.626160
  C     11.685160    5.305850   -3.651810
  C     10.460400    5.316650   -2.910540
  C     10.117590    6.213460   -1.958260
  C      8.892580    6.210980   -1.224750
  C      7.854040    5.370650   -1.465200
  C      6.636620    5.343060   -0.728980
  C      5.625380    4.429840   -0.966100
  O      4.436410    4.435680   -0.257290
  C      4.377360    5.317950    0.774300
  C      5.432990    6.237190    1.039650
  C      5.192430    7.017100    2.122330
  S      3.667590    6.642250    2.834390
  C      3.356070    5.418840    1.659560
  O      6.551370    6.292040    0.263910
  C      5.733160    3.375480   -1.906900
  C      4.792410    2.409440   -2.073630
  C      4.914840    1.257660   -2.884170
  S      3.634930    0.093860   -2.772860
  C      4.475300   -1.066990   -3.759980
  C      5.668290   -0.513340   -4.220590
  C      5.921380    0.775330   -3.723830
  S      7.330900    1.747430   -4.120920
  C      8.540350    0.778500   -4.958700
  O      9.579890    1.326380   -5.215930
  C      8.311640   -0.650970   -5.378870
  O      9.196360   -1.275310   -5.894190
  S      6.737800   -1.457690   -5.252350
  C      3.912570   -2.346700   -4.010570
  S      4.255370   -3.202850   -5.481840
  C      3.147160   -4.448140   -5.016250
  N      2.969260   -5.537010   -5.882860
  O      2.182710   -6.402710   -5.545880
  O      3.615870   -5.532020   -6.914880
  C      2.556570   -4.228860   -3.801070
  C      2.988820   -3.033380   -3.195990
  C      2.619310   -2.598770   -1.882490
  C      1.514620   -2.989570   -1.198770
  C      1.109350   -2.514170    0.072020
  C      1.669350   -1.549260    0.868610
  C      1.093860   -1.073690    2.082330
  C      1.767240   -0.056750    2.677750
  C      2.943220    0.335470    1.989540
  S      3.153030   -0.660160    0.561310
  C      3.837710    1.326380    2.309030
  C      3.779590    2.233380    3.405340
  C      4.812860    3.100640    3.466850
  C      5.784990    2.940770    2.422090
  S      5.273610    1.629730    1.347970
  C      6.915250    3.637200    2.242380
  H     12.932180    7.066980   -3.046270
  H     13.919180    4.237270   -5.816000
  H     11.461810    3.474830   -4.922110
  H      9.787640    4.509300   -3.163480
  H     10.821160    6.994960   -1.706500
  H      8.799150    6.934830   -0.427350
  H      7.936760    4.670330   -2.276570
  H      5.812040    7.785380    2.534680
  H      2.448660    4.853340    1.687120
  H      6.641690    3.324700   -2.474710
  H      3.880380    2.466360   -1.496870
  H      1.866690   -4.925250   -3.361270
  H      3.297460   -1.903700   -1.416190
  H      0.836360   -3.692680   -1.663530
  H      0.190080   -2.938300    0.457140
  H      0.181340   -1.498170    2.463020
  H      1.457970    0.421390    3.589910
  H      2.965180    2.209500    4.107530
  H      4.936740    3.859260    4.219230
  H      7.188730    4.424370    2.923070
  H      7.585030    3.432730    1.426280

 Total Charge           Charge          ....    0
 Multiplicity           Mult            ....    1
 Number of Electrons    NEL             ....  424
 Basis Dimension        Dim             ....  875

ORBITAL ENERGIES
----------------

  NO   OCC          E(Eh)            E(eV)
   0   2.0000     -88.980730     -2421.2888
   1   2.0000     -88.978113     -2421.2175
   2   2.0000     -88.977225     -2421.1934
   3   2.0000     -88.973686     -2421.0971
   4   2.0000     -88.962634     -2420.7963
   5   2.0000     -88.951059     -2420.4814
   6   2.0000     -88.945135     -2420.3202
   7   2.0000     -19.283797      -524.7388
   8   2.0000     -19.282040      -524.6910
   9   2.0000     -19.276216      -524.5325
  10   2.0000     -19.249900      -523.8164
  11   2.0000     -19.246796      -523.7319
  12   2.0000     -19.236542      -523.4529
  13   2.0000     -19.235788      -523.4324
  14   2.0000     -14.647364      -398.5750
  15   2.0000     -10.413284      -283.3599
  16   2.0000     -10.410499      -283.2841
  17   2.0000     -10.354278      -281.7542
  18   2.0000     -10.346899      -281.5534
  19   2.0000     -10.345177      -281.5066
  20   2.0000     -10.343426      -281.4589
  21   2.0000     -10.342854      -281.4434
  22   2.0000     -10.337163      -281.2885
  23   2.0000     -10.332160      -281.1524
  24   2.0000     -10.331911      -281.1456
  25   2.0000     -10.331484      -281.1340
  26   2.0000     -10.328945      -281.0649
  27   2.0000     -10.318172      -280.7717
  28   2.0000     -10.315745      -280.7057
  29   2.0000     -10.313337      -280.6402
  30   2.0000     -10.312826      -280.6263
  31   2.0000     -10.312648      -280.6214
  32   2.0000     -10.310202      -280.5549
  33   2.0000     -10.303136      -280.3626
  34   2.0000     -10.302507      -280.3455
  35   2.0000     -10.298576      -280.2385
  36   2.0000     -10.296937      -280.1939
  37   2.0000     -10.294486      -280.1272
  38   2.0000     -10.292589      -280.0756
  39   2.0000     -10.291967      -280.0587
  40   2.0000     -10.291551      -280.0473
  41   2.0000     -10.290501      -280.0188
  42   2.0000     -10.288560      -279.9660
  43   2.0000     -10.284424      -279.8534
  44   2.0000     -10.281231      -279.7665
  45   2.0000     -10.281004      -279.7603
  46   2.0000     -10.280941      -279.7586
  47   2.0000     -10.279345      -279.7152
  48   2.0000     -10.279079      -279.7080
  49   2.0000     -10.276712      -279.6435
  50   2.0000     -10.270692      -279.4797
  51   2.0000     -10.267779      -279.4005
  52   2.0000     -10.257175      -279.1119
  53   2.0000      -8.075715      -219.7514
  54   2.0000      -8.073933      -219.7029
  55   2.0000      -8.072185      -219.6553
  56   2.0000      -8.070072      -219.5978
  57   2.0000      -8.058162      -219.2737
  58   2.0000      -8.046612      -218.9594
  59   2.0000      -8.041283      -218.8144
  60   2.0000      -6.045190      -164.4980
  61   2.0000      -6.043791      -164.4599
  62   2.0000      -6.041533      -164.3985
  63   2.0000      -6.040768      -164.3777
  64   2.0000      -6.040001      -164.3568
  65   2.0000      -6.039156      -164.3338
  66   2.0000      -6.037605      -164.2916
  67   2.0000      -6.037331      -164.2841
  68   2.0000      -6.035282      -164.2284
  69   2.0000      -6.035027      -164.2214
  70   2.0000      -6.034129      -164.1970
  71   2.0000      -6.030891      -164.1089
  72   2.0000      -6.027699      -164.0220
  73   2.0000      -6.023542      -163.9089
  74   2.0000      -6.019836      -163.8081
  75   2.0000      -6.016400      -163.7146
  76   2.0000      -6.012315      -163.6034
  77   2.0000      -6.011152      -163.5717
  78   2.0000      -6.007572      -163.4743
  79   2.0000      -6.007189      -163.4639
  80   2.0000      -6.001825      -163.3180
  81   2.0000      -1.317208       -35.8431
  82   2.0000      -1.205485       -32.8029
  83   2.0000      -1.202039       -32.7091
  84   2.0000      -1.184936       -32.2438
  85   2.0000      -1.168306       -31.7912
  86   2.0000      -1.153268       -31.3820
  87   2.0000      -1.136155       -30.9163
  88   2.0000      -1.028352       -27.9829
  89   2.0000      -1.006232       -27.3810
  90   2.0000      -0.997949       -27.1556
  91   2.0000      -0.990629       -26.9564
  92   2.0000      -0.974687       -26.5226
  93   2.0000      -0.941095       -25.6085
  94   2.0000      -0.936259       -25.4769
  95   2.0000      -0.925491       -25.1839
  96   2.0000      -0.918471       -24.9929
  97   2.0000      -0.911520       -24.8037
  98   2.0000      -0.896269       -24.3887
  99   2.0000      -0.891742       -24.2655
 100   2.0000      -0.880986       -23.9728
 101   2.0000      -0.866944       -23.5907
 102   2.0000      -0.861832       -23.4516
 103   2.0000      -0.850927       -23.1549
 104   2.0000      -0.847486       -23.0613
 105   2.0000      -0.840569       -22.8731
 106   2.0000      -0.832989       -22.6668
 107   2.0000      -0.829734       -22.5782
 108   2.0000      -0.824140       -22.4260
 109   2.0000      -0.819888       -22.3103
 110   2.0000      -0.816199       -22.2099
 111   2.0000      -0.800618       -21.7859
 112   2.0000      -0.787236       -21.4218
 113   2.0000      -0.768756       -20.9189
 114   2.0000      -0.757645       -20.6166
 115   2.0000      -0.750551       -20.4235
 116   2.0000      -0.734200       -19.9786
 117   2.0000      -0.724698       -19.7200
 118   2.0000      -0.702369       -19.1124
 119   2.0000      -0.699785       -19.0421
 120   2.0000      -0.690433       -18.7876
 121   2.0000      -0.682526       -18.5725
 122   2.0000      -0.681726       -18.5507
 123   2.0000      -0.670369       -18.2417
 124   2.0000      -0.668759       -18.1979
 125   2.0000      -0.655302       -17.8317
 126   2.0000      -0.651479       -17.7276
 127   2.0000      -0.641645       -17.4600
 128   2.0000      -0.636713       -17.3258
 129   2.0000      -0.634302       -17.2602
 130   2.0000      -0.629399       -17.1268
 131   2.0000      -0.628468       -17.1015
 132   2.0000      -0.627787       -17.0830
 133   2.0000      -0.621710       -16.9176
 134   2.0000      -0.617504       -16.8031
 135   2.0000      -0.608012       -16.5449
 136   2.0000      -0.605029       -16.4637
 137   2.0000      -0.597360       -16.2550
 138   2.0000      -0.590388       -16.0653
 139   2.0000      -0.582811       -15.8591
 140   2.0000      -0.574649       -15.6370
 141   2.0000      -0.574000       -15.6193
 142   2.0000      -0.572130       -15.5684
 143   2.0000      -0.566098       -15.4043
 144   2.0000      -0.562095       -15.2954
 145   2.0000      -0.557713       -15.1762
 146   2.0000      -0.556404       -15.1405
 147   2.0000      -0.554017       -15.0756
 148   2.0000      -0.547627       -14.9017
 149   2.0000      -0.540554       -14.7092
 150   2.0000      -0.537763       -14.6333
 151   2.0000      -0.534424       -14.5424
 152   2.0000      -0.531671       -14.4675
 153   2.0000      -0.529229       -14.4010
 154   2.0000      -0.521434       -14.1889
 155   2.0000      -0.519118       -14.1259
 156   2.0000      -0.515403       -14.0248
 157   2.0000      -0.511643       -13.9225
 158   2.0000      -0.509758       -13.8712
 159   2.0000      -0.506466       -13.7816
 160   2.0000      -0.500293       -13.6137
 161   2.0000      -0.498181       -13.5562
 162   2.0000      -0.496314       -13.5054
 163   2.0000      -0.494576       -13.4581
 164   2.0000      -0.491305       -13.3691
 165   2.0000      -0.488397       -13.2900
 166   2.0000      -0.486074       -13.2268
 167   2.0000      -0.484159       -13.1746
 168   2.0000      -0.481921       -13.1137
 169   2.0000      -0.480951       -13.0873
 170   2.0000      -0.473966       -12.8973
 171   2.0000      -0.473266       -12.8782
 172   2.0000      -0.467448       -12.7199
 173   2.0000      -0.463881       -12.6229
 174   2.0000      -0.458934       -12.4882
 175   2.0000      -0.452390       -12.3102
 176   2.0000      -0.450976       -12.2717
 177   2.0000      -0.445894       -12.1334
 178   2.0000      -0.442850       -12.0506
 179   2.0000      -0.437857       -11.9147
 180   2.0000      -0.433740       -11.8027
 181   2.0000      -0.431497       -11.7416
 182   2.0000      -0.429289       -11.6815
 183   2.0000      -0.425266       -11.5721
 184   2.0000      -0.424730       -11.5575
 185   2.0000      -0.422614       -11.4999
 186   2.0000      -0.416975       -11.3465
 187   2.0000      -0.415630       -11.3099
 188   2.0000      -0.413394       -11.2490
 189   2.0000      -0.402145       -10.9429
 190   2.0000      -0.398914       -10.8550
 191   2.0000      -0.396393       -10.7864
 192   2.0000      -0.387870       -10.5545
 193   2.0000      -0.383025       -10.4226
 194   2.0000      -0.380968       -10.3667
 195   2.0000      -0.374868       -10.2007
 196   2.0000      -0.369902       -10.0655
 197   2.0000      -0.363667        -9.8959
 198   2.0000      -0.351374        -9.5614
 199   2.0000      -0.349758        -9.5174
 200   2.0000      -0.343782        -9.3548
 201   2.0000      -0.342114        -9.3094
 202   2.0000      -0.332147        -9.0382
 203   2.0000      -0.328298        -8.9334
 204   2.0000      -0.312174        -8.4947
 205   2.0000      -0.305742        -8.3197
 206   2.0000      -0.305103        -8.3023
 207   2.0000      -0.299344        -8.1456
 208   2.0000      -0.279319        -7.6006
 209   2.0000      -0.273427        -7.4403
 210   2.0000      -0.236399        -6.4328
 211   2.0000      -0.218526        -5.9464
 212   0.0000      -0.085444        -2.3250
 213   0.0000      -0.071259        -1.9390
 214   0.0000      -0.061201        -1.6654
 215   0.0000      -0.050607        -1.3771
 216   0.0000      -0.019574        -0.5326

MULLIKEN ATOMIC CHARGES
-----------------------
   0 C :    0.068561
   1 O :   -0.177678
   2 C :    0.130570
   3 C :   -0.041153
   4 C :    0.033840
   5 C :    0.056930
   6 C :   -0.000998
   7 C :    0.033423
   8 C :   -0.063830
   9 C :    0.185719
  10 C :    0.160368
  11 O :   -0.259435
  12 C :    0.239928
  13 C :    0.221948
  14 C :   -0.183332
  15 S :    0.097218
  16 C :   -0.170959
  17 O :   -0.251779
  18 C :   -0.070567
  19 C :    0.077121
  20 C :   -0.117104
  21 S :    0.178157
  22 C :   -0.143079
  23 C :   -0.022697
  24 C :   -0.033340
  25 S :    0.049823
  26 C :    0.103161
  27 O :   -0.135528
  28 C :    0.080095
  29 O :   -0.121267
  30 S :    0.082513
  31 C :   -0.123938
  32 S :    0.198773
  33 C :    0.010677
  34 N :    0.274005
  35 O :   -0.246936
  36 O :   -0.255611
  37 C :   -0.010596
  38 C :    0.123105
  39 C :   -0.070402
  40 C :    0.020379
  41 C :   -0.018708
  42 C :   -0.010475
  43 C :    0.035958
  44 C :    0.032567
  45 C :   -0.040250
  46 S :    0.039924
  47 C :   -0.059910
  48 C :    0.010147
  49 C :    0.087232
  50 C :   -0.096844
  51 S :    0.090875
  52 C :   -0.003366
  53 H :    0.003184
  54 H :    0.011492
  55 H :   -0.004223
  56 H :   -0.022762
  57 H :   -0.020814
  58 H :   -0.005219
  59 H :   -0.007037
  60 H :    0.023725
  61 H :    0.022688
  62 H :   -0.001694
  63 H :   -0.000932
  64 H :    0.009578
  65 H :    0.025410
  66 H :   -0.014917
  67 H :   -0.015802
  68 H :   -0.012281
  69 H :   -0.013734
  70 H :   -0.011346
  71 H :   -0.010141
  72 H :    0.022934
  73 H :    0.028653
Sum of atomic charges:   -0.0000000

LOEWDIN ATOMIC CHARGES
----------------------
   0 C :    0.036904
   1 O :    0.027500
   2 C :    0.030293
   3 C :   -0.063545
   4 C :   -0.083549
   5 C :    0.008925
   6 C :   -0.044040
   7 C :   -0.005491
   8 C :   -0.050522
   9 C :    0.041522
  10 C :    0.010898
  11 O :   -0.050662
  12 C :   -0.005865
  13 C :   -0.005403
  14 C :   -0.215540
  15 S :    0.429495
  16 C :   -0.207728
  17 O :   -0.044058
  18 C :   -0.033135
  19 C :   -0.057751
  20 C :   -0.170877
  21 S :    0.511516
  22 C :   -0.215966
  23 C :   -0.212305
  24 C :   -0.230866
  25 S :    0.401948
  26 C :   -0.108513
  27 O :   -0.113505
  28 C :   -0.110692
  29 O :   -0.095394
  30 S :    0.381822
  31 C :   -0.179607
  32 S :    0.485139
  33 C :   -0.197402
  34 N :    0.273301
  35 O :   -0.213344
  36 O :   -0.221585
  37 C :   -0.006654
  38 C :   -0.056328
  39 C :   -0.056268
  40 C :   -0.023471
  41 C :   -0.071175
  42 C :   -0.134111
  43 C :   -0.032566
  44 C :   -0.033494
  45 C :   -0.188003
  46 S :    0.379193
  47 C :   -0.170040
  48 C :   -0.032743
  49 C :   -0.018598
  50 C :   -0.141966
  51 S :    0.368634
  52 C :   -0.065522
  53 H :    0.019280
  54 H :    0.022823
  55 H :    0.033008
  56 H :    0.026807
  57 H :    0.025956
  58 H :    0.030706
  59 H :    0.029238
  60 H :    0.028390
  61 H :    0.027895
  62 H :    0.012240
  63 H :    0.029534
  64 H :    0.043647
  65 H :   -0.001018
  66 H :    0.029648
  67 H :    0.034253
  68 H :    0.033523
  69 H :    0.031718
  70 H :    0.032066
  71 H :    0.032370
  72 H :    0.031042
  73 H :    0.028065

  Mayer bond orders larger than 0.100000
B(  0-C ,  1-O ) :   1.1831 B(  0-C ,  4-C ) :   1.4918 B(  0-C , 53-H ) :   1.0038
B(  1-O ,  2-C ) :   1.1374 B(  2-C ,  3-C ) :   1.5784 B(  2-C , 54-H ) :   1.0017
B(  3-C ,  4-C ) :   1.2048 B(  3-C , 55-H ) :   1.0038 B(  4-C ,  5-C ) :   1.1010
B(  5-C ,  6-C ) :   1.7134 B(  5-C , 56-H ) :   0.9600 B(  6-C ,  7-C ) :   1.1088
B(  6-C , 57-H ) :   0.9769 B(  7-C ,  8-C ) :   1.6710 B(  7-C , 58-H ) :   0.9830
B(  8-C ,  9-C ) :   1.1866 B(  8-C , 59-H ) :   0.9471 B(  9-C , 10-C ) :   1.4200
B(  9-C , 17-O ) :   1.0778 B( 10-C , 11-O ) :   1.0499 B( 10-C , 18-C ) :   1.2304
B( 11-O , 12-C ) :   1.0547 B( 12-C , 13-C ) :   1.2032 B( 12-C , 16-C ) :   1.5797
B( 13-C , 14-C ) :   1.5685 B( 13-C , 17-O ) :   1.0445 B( 14-C , 15-S ) :   1.1349
B( 14-C , 60-H ) :   0.9725 B( 15-S , 16-C ) :   1.1294 B( 16-C , 61-H ) :   0.9671
B( 18-C , 19-C ) :   1.6338 B( 18-C , 62-H ) :   0.9409 B( 19-C , 20-C ) :   1.1310
B( 19-C , 63-H ) :   0.9557 B( 20-C , 21-S ) :   1.1445 B( 20-C , 22-C ) :   0.1099
B( 20-C , 24-C ) :   1.5037 B( 21-S , 22-C ) :   1.1350 B( 22-C , 23-C ) :   1.5332
B( 22-C , 31-C ) :   1.1308 B( 23-C , 24-C ) :   1.3104 B( 23-C , 30-S ) :   0.9738
B( 24-C , 25-S ) :   0.9579 B( 25-S , 26-C ) :   1.0660 B( 25-S , 27-O ) :   0.1383
B( 26-C , 27-O ) :   2.1223 B( 26-C , 28-C ) :   0.7727 B( 28-C , 29-O ) :   2.1677
B( 28-C , 30-S ) :   1.0567 B( 29-O , 30-S ) :   0.1379 B( 31-C , 32-S ) :   1.1387
B( 31-C , 38-C ) :   1.4041 B( 32-S , 33-C ) :   1.1166 B( 33-C , 34-N ) :   0.9559
B( 33-C , 37-C ) :   1.4859 B( 34-N , 35-O ) :   1.5352 B( 34-N , 36-O ) :   1.5200
B( 35-O , 36-O ) :   0.2655 B( 37-C , 38-C ) :   1.2267 B( 37-C , 64-H ) :   0.9998
B( 38-C , 39-C ) :   1.1145 B( 39-C , 40-C ) :   1.6706 B( 39-C , 65-H ) :   0.9283
B( 40-C , 41-C ) :   1.1828 B( 40-C , 66-H ) :   0.9704 B( 41-C , 42-C ) :   1.5939
B( 41-C , 67-H ) :   0.9611 B( 42-C , 43-C ) :   1.1352 B( 42-C , 46-S ) :   1.0384
B( 43-C , 44-C ) :   1.6141 B( 43-C , 68-H ) :   0.9980 B( 44-C , 45-C ) :   1.1653
B( 44-C , 69-H ) :   0.9917 B( 45-C , 46-S ) :   1.0262 B( 45-C , 47-C ) :   1.5587
B( 47-C , 48-C ) :   1.1433 B( 47-C , 51-S ) :   1.0530 B( 48-C , 49-C ) :   1.6571
B( 48-C , 70-H ) :   0.9943 B( 49-C , 50-C ) :   1.0817 B( 49-C , 71-H ) :   0.9896
B( 50-C , 51-S ) :   1.0129 B( 50-C , 52-C ) :   1.8784 B( 52-C , 72-H ) :   0.9400
B( 52-C , 73-H ) :   0.9331

-----------------------------------------------------------------------------
         ABSORPTION SPECTRUM VIA TRANSITION ELECTRIC DIPOLE MOMENTS
-----------------------------------------------------------------------------
State   Energy  Wavelength   fosc         T2         TX        TY        TZ
        (cm-1)    (nm)                  (au**2)     (au)      (au)      (au)
-----------------------------------------------------------------------------
   0   12989.8    769.8   0.071712361   1.81747  -0.63995  -0.63206   1.00421
   1   16935.4    590.5   0.043392777   0.84352   0.27336   0.67065   0.56482
   2   18287.4    546.8   0.555349398   9.99746   1.48564   2.42160   1.38787
   3   20166.0    495.9   1.059931456  17.30348   2.31510   3.15438   1.41196
   4   21411.6    467.0   0.099572036   1.53096   0.08746   0.52478   1.11710
   5   22016.2    454.2   0.014667330   0.21932   0.11235  -0.35218  -0.28752
   6   23900.2    418.4   0.097522349   1.34331  -0.84260  -0.79581   0.00419
   7   25498.2    392.2   0.265871592   3.43271  -0.90181  -1.58046  -0.34872
   8   26431.5    378.3   0.073187656   0.91157  -0.67229   0.40988   0.54000
   9   27367.4    365.4   0.114255964   1.37442  -0.52076   0.51980   0.91271
  10   27796.1    359.8   0.373216695   4.42030  -1.62955  -1.26933   0.39200
  11   28336.8    352.9   0.005056898   0.05875  -0.17945  -0.12764  -0.10128
  12   29236.4    342.0   0.040867221   0.46018   0.48853  -0.26709  -0.38753
  13   29835.0    335.2   0.032361099   0.35709  -0.54409   0.07290   0.23610
  14   30082.7    332.4   0.091561509   1.00201  -0.50248  -0.82860  -0.25089
  15   30637.3    326.4   0.055214714   0.59331   0.52323  -0.43088  -0.36589
  16   30938.7    323.2   0.082999872   0.88318   0.28621  -0.27979  -0.85028
  17   31835.3    314.1   0.379079508   3.92010   1.10831  -0.70376  -1.48204
  18   32499.2    307.7   0.049545840   0.50189   0.50365  -0.40031  -0.29662
  19   32789.9    305.0   0.356893295   3.58322   1.44743  -0.20928  -1.20182
  20   32899.9    304.0   0.050748054   0.50781   0.57731   0.29753  -0.29325
  21   33200.9    301.2   0.141651684   1.40458   0.85509   0.00366  -0.82061
  22   33561.5    298.0   0.108233846   1.06169   0.42325   0.80786   0.47949
  23   33910.2    294.9   0.012531052   0.12166  -0.27240  -0.13031  -0.17456
  24   34115.5    293.1   0.172015339   1.65993  -0.63425   0.74028   0.84240
  25   34381.8    290.9   0.267545512   2.56179   1.23626  -0.37051  -0.94666
  26   34761.6    287.7   0.023068163   0.21847   0.20838   0.32801  -0.25972
  27   35112.8    284.8   0.004630263   0.04341   0.13391  -0.11027   0.11542
  28   35399.3    282.5   0.104699854   0.97370   0.66730  -0.31328  -0.65595
  29   35946.7    278.2   0.172259339   1.57761   0.94911   0.17578  -0.80368
  30   36221.5    276.1   0.042516162   0.38642  -0.23511  -0.51631  -0.25411
  31   36307.7    275.4   0.003649454   0.03309  -0.01538  -0.09506  -0.15433
  32   37032.1    270.0   0.021303460   0.18939   0.21115  -0.26150  -0.27645
  33   37310.5    268.0   0.005370036   0.04738   0.01089  -0.12477  -0.17803
  34   37471.8    266.9   0.011217964   0.09856   0.17168   0.05546  -0.25692
  35   37962.0    263.4   0.031631337   0.27431   0.06431  -0.45797  -0.24584
  36   38466.9    260.0   0.079154775   0.67743   0.54201   0.60988  -0.10817
  37   38660.9    258.7   0.031647471   0.26949  -0.22021   0.07911   0.46340
  38   38804.4    257.7   0.007222226   0.06127   0.12221  -0.19392  -0.09344
  39   39137.4    255.5   0.034410021   0.28945   0.48992  -0.16539  -0.14858
  40   39239.1    254.8   0.043811685   0.36758   0.55231   0.24294  -0.05922
  41   39419.8    253.7   0.004236834   0.03538  -0.12790  -0.06007   0.12416
  42   39649.3    252.2   0.053714809   0.44600  -0.09987   0.34212   0.56478
  43   39831.9    251.1   0.032903083   0.27194  -0.42917  -0.07953   0.28536
  44   40250.0    248.4   0.032358476   0.26467   0.15162   0.39573   0.29168

FINAL SINGLE POINT ENERGY     -4825.686882504414

DIPOLE MOMENT
-------------
                                X             Y             Z
Electronic contribution:     -8.11395     -24.13584     -24.71336
Nuclear contribution   :      6.91333      26.66043      28.03994
                        -----------------------------------------
Total Dipole Moment    :     -1.20062       2.52459       3.32658
                        -----------------------------------------
Magnitude (a.u.)       :      4.34525
Magnitude (Debye)      :     11.04474

Rotational constants in cm-1:     0.001501     0.001059     0.000656
Rotational constants in MHz :    45.003115    31.755105    19.678775

                             ****ORCA TERMINATED NORMALLY****
TOTAL RUN TIME: 0 days 0 hours 11 minutes 50 seconds 115 msec
