                         Program Version 4.2.0 -  RELEASE  -
|  1> # ORCA input file
|  2> # SCF done       -140.361588485277          0.000740499347
|  3> ! CAM-B3LYP def2-SVP def2/J RIJCOSX Grid4 TightSCF
|  4> %maxcore 5000
|  5> %tddft
|  6>     Mode sTDDFT
|  7>     Ethresh 5.0
|  8>     maxcore 5000
|  9> end
| 10>
| 11> %pal
| 12>   nprocs 6
| 13>   end
| 14> * xyz 0 1
| 15>    C        1.02580         2.49014        -6.31346
| 16>    O       -0.21370         2.01157        -6.47358
| 17>    C       -1.00301         2.66223        -5.59936
| 18>    C       -0.28804         3.55711        -4.87377
| 19>    C        1.06227         3.45637        -5.33459
| 20>    C        2.22577         4.17683        -4.90485
| 21>    C        2.23245         5.10377        -3.92367
| 22>    C        3.36413         5.84080        -3.45964
| 23>    C        4.62036         5.77926        -3.96696
| 24>    C        5.73084         6.51397        -3.48050
| 25>    S        7.28349         6.32828        -4.28538
| 26>    C        8.01428         7.42692        -3.19755
| 27>    C        7.09898         7.91065        -2.25885
| 28>    C        5.81710         7.40274        -2.41414
| 29>    C        7.82602         8.83873        -1.36757
| 30>    O        7.38861         9.46134        -0.43011
| 31>    C        9.24418         8.83067        -1.89782
| 32>    C        9.30098         7.98142        -2.98148
| 33>    C       10.32486         9.56405        -1.36921
| 34>    C       10.24943        10.38492        -0.28127
| 35>    C       11.35962        11.09301         0.21648
| 36>    S       11.24171        12.12628         1.63218
| 37>    C       12.92627        12.59770         1.60308
| 38>    C       13.55252        11.96800         0.52093
| 39>    C       12.67158        11.14323        -0.22930
| 40>    O       13.32237        10.56163        -1.25733
| 41>    C       14.60617        11.00692        -1.17011
| 42>    N       15.52569        10.55227        -2.13725
| 43>    O       16.66799        10.96528        -2.03945
| 44>    O       15.12253         9.78844        -2.99100
| 45>    C       14.81075        11.86101        -0.11493
| 46>    C       13.46610        13.46911         2.55829
| 47>    S       15.16650        13.92562         2.50855
| 48>    C       14.96488        14.90070         3.89991
| 49>    C       13.64840        14.87184         4.37412
| 50>    C       12.80296        14.07216         3.62778
| 51>    C       13.59218        15.74261         5.57105
| 52>    O       12.63286        15.98076         6.26321
| 53>    C       15.00576        16.25889         5.72421
| 54>    C       15.77563        15.73420         4.71164
| 55>    C       15.45419        17.13086         6.74458
| 56>    C       14.67385        17.62529         7.73692
| 57>    C       15.18617        18.49349         8.74542
| 58>    C       14.47781        19.04983         9.81794
| 59>    N       15.37919        19.79208        10.50294
| 60>    C       15.29839        20.55195        11.61520
| 61>    C       16.42851        21.18142        12.05064
| 62>    C       17.62414        21.00894        11.31917
| 63>    N       17.71520        20.27694        10.24301
| 64>    C       16.62735        19.66126         9.81196
| 65>    N       16.48967        18.88667         8.77282
| 66>    C       13.05635        18.92986        10.22434
| 67>    H        1.79949         2.08293        -6.93508
| 68>    H       -2.04269         2.40196        -5.59081
| 69>    H       -0.66520         4.20662        -4.11238
| 70>    H        3.13772         3.92317        -5.42626
| 71>    H        1.30104         5.32115        -3.41909
| 72>    H        3.17837         6.50584        -2.62759
| 73>    H        4.82679         5.13262        -4.80829
| 74>    H        4.98333         7.65790        -1.78687
| 75>    H       10.17666         7.76971        -3.56778
| 76>    H       11.27507         9.44882        -1.87574
| 77>    H        9.31125        10.50965         0.23793
| 78>    H       15.73877        12.32836         0.14185
| 79>    H       11.75754        13.91248         3.82089
| 80>    H       16.82261        15.92101         4.55804
| 81>    H       16.49744        17.41853         6.72982
| 82>    H       13.62783        17.36547         7.78992
| 83>    H       14.34059        20.62652        12.11081
| 84>    H       16.40853        21.79665        12.93395
| 85>    H       18.53557        21.49450        11.63801
| 86>    H       12.52308        18.28535         9.53277
| 87>    H       12.57382        19.90867        10.23049
| 88>    H       12.97704        18.50603        11.22683
| 89> *
| 90>
| 91>                          ****END OF INPUT****

CARTESIAN COORDINATES (ANGSTROEM)
---------------------------------
  C      1.025800    2.490140   -6.313460
  O     -0.213700    2.011570   -6.473580
  C     -1.003010    2.662230   -5.599360
  C     -0.288040    3.557110   -4.873770
  C      1.062270    3.456370   -5.334590
  C      2.225770    4.176830   -4.904850
  C      2.232450    5.103770   -3.923670
  C      3.364130    5.840800   -3.459640
  C      4.620360    5.779260   -3.966960
  C      5.730840    6.513970   -3.480500
  S      7.283490    6.328280   -4.285380
  C      8.014280    7.426920   -3.197550
  C      7.098980    7.910650   -2.258850
  C      5.817100    7.402740   -2.414140
  C      7.826020    8.838730   -1.367570
  O      7.388610    9.461340   -0.430110
  C      9.244180    8.830670   -1.897820
  C      9.300980    7.981420   -2.981480
  C     10.324860    9.564050   -1.369210
  C     10.249430   10.384920   -0.281270
  C     11.359620   11.093010    0.216480
  S     11.241710   12.126280    1.632180
  C     12.926270   12.597700    1.603080
  C     13.552520   11.968000    0.520930
  C     12.671580   11.143230   -0.229300
  O     13.322370   10.561630   -1.257330
  C     14.606170   11.006920   -1.170110
  N     15.525690   10.552270   -2.137250
  O     16.667990   10.965280   -2.039450
  O     15.122530    9.788440   -2.991000
  C     14.810750   11.861010   -0.114930
  C     13.466100   13.469110    2.558290
  S     15.166500   13.925620    2.508550
  C     14.964880   14.900700    3.899910
  C     13.648400   14.871840    4.374120
  C     12.802960   14.072160    3.627780
  C     13.592180   15.742610    5.571050
  O     12.632860   15.980760    6.263210
  C     15.005760   16.258890    5.724210
  C     15.775630   15.734200    4.711640
  C     15.454190   17.130860    6.744580
  C     14.673850   17.625290    7.736920
  C     15.186170   18.493490    8.745420
  C     14.477810   19.049830    9.817940
  N     15.379190   19.792080   10.502940
  C     15.298390   20.551950   11.615200
  C     16.428510   21.181420   12.050640
  C     17.624140   21.008940   11.319170
  N     17.715200   20.276940   10.243010
  C     16.627350   19.661260    9.811960
  N     16.489670   18.886670    8.772820
  C     13.056350   18.929860   10.224340
  H      1.799490    2.082930   -6.935080
  H     -2.042690    2.401960   -5.590810
  H     -0.665200    4.206620   -4.112380
  H      3.137720    3.923170   -5.426260
  H      1.301040    5.321150   -3.419090
  H      3.178370    6.505840   -2.627590
  H      4.826790    5.132620   -4.808290
  H      4.983330    7.657900   -1.786870
  H     10.176660    7.769710   -3.567780
  H     11.275070    9.448820   -1.875740
  H      9.311250   10.509650    0.237930
  H     15.738770   12.328360    0.141850
  H     11.757540   13.912480    3.820890
  H     16.822610   15.921010    4.558040
  H     16.497440   17.418530    6.729820
  H     13.627830   17.365470    7.789920
  H     14.340590   20.626520   12.110810
  H     16.408530   21.796650   12.933950
  H     18.535570   21.494500   11.638010
  H     12.523080   18.285350    9.532770
  H     12.573820   19.908670   10.230490
  H     12.977040   18.506030   11.226830

 Total Charge           Charge          ....    0
 Multiplicity           Mult            ....    1
 Number of Electrons    NEL             ....  380
 Basis Dimension        Dim             ....  850

ORBITAL ENERGIES
----------------

  NO   OCC          E(Eh)            E(eV)
   0   2.0000     -88.981524     -2421.3104
   1   2.0000     -88.973004     -2421.0785
   2   2.0000     -88.967222     -2420.9212
   3   2.0000     -19.310957      -525.4779
   4   2.0000     -19.283600      -524.7334
   5   2.0000     -19.241580      -523.5900
   6   2.0000     -19.239583      -523.5357
   7   2.0000     -19.229244      -523.2543
   8   2.0000     -19.222429      -523.0689
   9   2.0000     -14.653512      -398.7423
  10   2.0000     -14.494403      -394.4128
  11   2.0000     -14.408609      -392.0782
  12   2.0000     -14.378665      -391.2634
  13   2.0000     -10.386229      -282.6237
  14   2.0000     -10.372346      -282.2459
  15   2.0000     -10.365598      -282.0623
  16   2.0000     -10.352132      -281.6958
  17   2.0000     -10.346692      -281.5478
  18   2.0000     -10.341956      -281.4189
  19   2.0000     -10.328783      -281.0605
  20   2.0000     -10.320606      -280.8380
  21   2.0000     -10.316446      -280.7248
  22   2.0000     -10.315672      -280.7037
  23   2.0000     -10.314836      -280.6809
  24   2.0000     -10.314822      -280.6806
  25   2.0000     -10.314553      -280.6733
  26   2.0000     -10.312760      -280.6245
  27   2.0000     -10.307414      -280.4790
  28   2.0000     -10.303169      -280.3635
  29   2.0000     -10.302500      -280.3453
  30   2.0000     -10.298821      -280.2452
  31   2.0000     -10.296903      -280.1930
  32   2.0000     -10.295366      -280.1511
  33   2.0000     -10.293401      -280.0977
  34   2.0000     -10.292672      -280.0778
  35   2.0000     -10.289139      -279.9817
  36   2.0000     -10.287019      -279.9240
  37   2.0000     -10.284744      -279.8621
  38   2.0000     -10.280757      -279.7536
  39   2.0000     -10.280269      -279.7403
  40   2.0000     -10.279812      -279.7279
  41   2.0000     -10.277929      -279.6767
  42   2.0000     -10.277614      -279.6681
  43   2.0000     -10.275110      -279.6000
  44   2.0000     -10.273240      -279.5491
  45   2.0000     -10.271762      -279.5088
  46   2.0000     -10.269642      -279.4512
  47   2.0000     -10.268963      -279.4327
  48   2.0000     -10.268959      -279.4326
  49   2.0000     -10.268552      -279.4215
  50   2.0000     -10.267119      -279.3825
  51   2.0000     -10.261863      -279.2395
  52   2.0000      -8.076042      -219.7603
  53   2.0000      -8.067535      -219.5288
  54   2.0000      -8.062267      -219.3854
  55   2.0000      -6.045269      -164.5001
  56   2.0000      -6.041235      -164.3904
  57   2.0000      -6.038370      -164.3124
  58   2.0000      -6.036981      -164.2746
  59   2.0000      -6.032872      -164.1628
  60   2.0000      -6.031323      -164.1206
  61   2.0000      -6.029433      -164.0692
  62   2.0000      -6.027367      -164.0130
  63   2.0000      -6.024811      -163.9434
  64   2.0000      -1.323779       -36.0218
  65   2.0000      -1.230318       -33.4786
  66   2.0000      -1.202941       -32.7337
  67   2.0000      -1.140032       -31.0218
  68   2.0000      -1.139922       -31.0189
  69   2.0000      -1.139869       -31.0174
  70   2.0000      -1.133069       -30.8324
  71   2.0000      -1.026365       -27.9288
  72   2.0000      -1.013871       -27.5888
  73   2.0000      -1.005621       -27.3643
  74   2.0000      -0.998615       -27.1737
  75   2.0000      -0.993311       -27.0294
  76   2.0000      -0.944536       -25.7021
  77   2.0000      -0.937772       -25.5181
  78   2.0000      -0.934099       -25.4181
  79   2.0000      -0.915022       -24.8990
  80   2.0000      -0.899456       -24.4755
  81   2.0000      -0.890966       -24.2444
  82   2.0000      -0.886624       -24.1263
  83   2.0000      -0.884763       -24.0756
  84   2.0000      -0.877994       -23.8914
  85   2.0000      -0.857268       -23.3274
  86   2.0000      -0.853645       -23.2289
  87   2.0000      -0.843215       -22.9450
  88   2.0000      -0.841598       -22.9010
  89   2.0000      -0.834493       -22.7077
  90   2.0000      -0.820930       -22.3387
  91   2.0000      -0.800448       -21.7813
  92   2.0000      -0.794556       -21.6210
  93   2.0000      -0.789010       -21.4701
  94   2.0000      -0.771900       -21.0045
  95   2.0000      -0.756633       -20.5890
  96   2.0000      -0.747469       -20.3397
  97   2.0000      -0.743904       -20.2427
  98   2.0000      -0.732613       -19.9354
  99   2.0000      -0.726479       -19.7685
 100   2.0000      -0.710328       -19.3290
 101   2.0000      -0.702831       -19.1250
 102   2.0000      -0.692392       -18.8409
 103   2.0000      -0.677665       -18.4402
 104   2.0000      -0.670233       -18.2380
 105   2.0000      -0.665641       -18.1130
 106   2.0000      -0.650162       -17.6918
 107   2.0000      -0.647706       -17.6250
 108   2.0000      -0.640941       -17.4409
 109   2.0000      -0.639737       -17.4081
 110   2.0000      -0.638753       -17.3814
 111   2.0000      -0.638675       -17.3792
 112   2.0000      -0.632402       -17.2085
 113   2.0000      -0.625798       -17.0288
 114   2.0000      -0.623621       -16.9696
 115   2.0000      -0.614439       -16.7197
 116   2.0000      -0.611571       -16.6417
 117   2.0000      -0.607621       -16.5342
 118   2.0000      -0.591511       -16.0958
 119   2.0000      -0.589127       -16.0309
 120   2.0000      -0.580017       -15.7831
 121   2.0000      -0.574311       -15.6278
 122   2.0000      -0.572370       -15.5750
 123   2.0000      -0.569727       -15.5030
 124   2.0000      -0.568427       -15.4677
 125   2.0000      -0.566974       -15.4281
 126   2.0000      -0.561479       -15.2786
 127   2.0000      -0.558178       -15.1888
 128   2.0000      -0.544902       -14.8275
 129   2.0000      -0.541612       -14.7380
 130   2.0000      -0.541139       -14.7251
 131   2.0000      -0.532740       -14.4966
 132   2.0000      -0.529322       -14.4036
 133   2.0000      -0.527615       -14.3571
 134   2.0000      -0.525899       -14.3104
 135   2.0000      -0.519130       -14.1263
 136   2.0000      -0.518733       -14.1154
 137   2.0000      -0.514785       -14.0080
 138   2.0000      -0.513440       -13.9714
 139   2.0000      -0.506815       -13.7911
 140   2.0000      -0.504791       -13.7361
 141   2.0000      -0.497200       -13.5295
 142   2.0000      -0.495554       -13.4847
 143   2.0000      -0.494612       -13.4591
 144   2.0000      -0.490556       -13.3487
 145   2.0000      -0.488485       -13.2923
 146   2.0000      -0.487121       -13.2552
 147   2.0000      -0.481898       -13.1131
 148   2.0000      -0.480188       -13.0666
 149   2.0000      -0.478801       -13.0288
 150   2.0000      -0.476792       -12.9742
 151   2.0000      -0.469753       -12.7826
 152   2.0000      -0.466388       -12.6911
 153   2.0000      -0.463985       -12.6257
 154   2.0000      -0.459820       -12.5123
 155   2.0000      -0.457878       -12.4595
 156   2.0000      -0.449153       -12.2221
 157   2.0000      -0.448421       -12.2021
 158   2.0000      -0.445241       -12.1156
 159   2.0000      -0.442298       -12.0355
 160   2.0000      -0.439010       -11.9461
 161   2.0000      -0.437173       -11.8961
 162   2.0000      -0.434533       -11.8242
 163   2.0000      -0.428383       -11.6569
 164   2.0000      -0.426930       -11.6173
 165   2.0000      -0.426578       -11.6078
 166   2.0000      -0.422062       -11.4849
 167   2.0000      -0.417339       -11.3564
 168   2.0000      -0.407672       -11.0933
 169   2.0000      -0.398790       -10.8516
 170   2.0000      -0.388283       -10.5657
 171   2.0000      -0.379975       -10.3397
 172   2.0000      -0.375118       -10.2075
 173   2.0000      -0.370087       -10.0706
 174   2.0000      -0.369468       -10.0537
 175   2.0000      -0.351663        -9.5692
 176   2.0000      -0.349189        -9.5019
 177   2.0000      -0.342286        -9.3141
 178   2.0000      -0.337510        -9.1841
 179   2.0000      -0.334046        -9.0899
 180   2.0000      -0.330976        -9.0063
 181   2.0000      -0.330326        -8.9886
 182   2.0000      -0.328503        -8.9390
 183   2.0000      -0.320925        -8.7328
 184   2.0000      -0.312299        -8.4981
 185   2.0000      -0.297410        -8.0929
 186   2.0000      -0.285268        -7.7625
 187   2.0000      -0.265470        -7.2238
 188   2.0000      -0.239577        -6.5192
 189   2.0000      -0.212340        -5.7781
 190   0.0000      -0.094310        -2.5663
 191   0.0000      -0.073831        -2.0090
 192   0.0000      -0.061477        -1.6729
 193   0.0000      -0.029218        -0.7951
 194   0.0000      -0.021575        -0.5871

MULLIKEN ATOMIC CHARGES
-----------------------
   0 C :    0.071935
   1 O :   -0.180432
   2 C :    0.136304
   3 C :   -0.049036
   4 C :    0.042609
   5 C :    0.042684
   6 C :    0.004659
   7 C :    0.003226
   8 C :    0.064520
   9 C :   -0.095458
  10 S :    0.160409
  11 C :   -0.039241
  12 C :   -0.016805
  13 C :   -0.003828
  14 C :    0.171731
  15 O :   -0.124128
  16 C :   -0.000926
  17 C :   -0.045570
  18 C :   -0.053492
  19 C :    0.051132
  20 C :   -0.175766
  21 S :    0.167998
  22 C :   -0.093477
  23 C :    0.086451
  24 C :    0.189266
  25 O :   -0.188470
  26 C :    0.240302
  27 N :    0.276364
  28 O :   -0.252109
  29 O :   -0.237171
  30 C :   -0.102850
  31 C :   -0.083532
  32 S :    0.156704
  33 C :   -0.024483
  34 C :    0.010613
  35 C :   -0.042528
  36 C :    0.172006
  37 O :   -0.121071
  38 C :    0.013124
  39 C :   -0.042571
  40 C :   -0.029449
  41 C :   -0.032445
  42 C :    0.014467
  43 C :   -0.114644
  44 N :   -0.126911
  45 C :    0.113686
  46 C :   -0.046080
  47 C :    0.041808
  48 N :   -0.007710
  49 C :   -0.005486
  50 N :   -0.058986
  51 C :    0.130021
  52 H :    0.003147
  53 H :    0.009524
  54 H :   -0.011807
  55 H :   -0.025840
  56 H :   -0.024558
  57 H :   -0.017431
  58 H :   -0.023942
  59 H :   -0.009675
  60 H :   -0.004562
  61 H :   -0.003608
  62 H :   -0.001602
  63 H :    0.016067
  64 H :    0.003090
  65 H :   -0.003704
  66 H :   -0.001622
  67 H :   -0.001106
  68 H :    0.022114
  69 H :    0.012330
  70 H :    0.011046
  71 H :    0.027256
  72 H :    0.029334
  73 H :    0.028181
Sum of atomic charges:   -0.0000000

LOEWDIN ATOMIC CHARGES
----------------------
   0 C :    0.029363
   1 O :    0.022760
   2 C :    0.033928
   3 C :   -0.069551
   4 C :   -0.075912
   5 C :   -0.006598
   6 C :   -0.040110
   7 C :   -0.025937
   8 C :   -0.043523
   9 C :   -0.166100
  10 S :    0.459941
  11 C :   -0.179733
  12 C :   -0.103296
  13 C :   -0.022841
  14 C :    0.106198
  15 O :   -0.108932
  16 C :   -0.060484
  17 C :   -0.003143
  18 C :   -0.022476
  19 C :   -0.036544
  20 C :   -0.197231
  21 S :    0.467112
  22 C :   -0.178560
  23 C :   -0.089196
  24 C :    0.025767
  25 O :    0.006637
  26 C :    0.023699
  27 N :    0.272540
  28 O :   -0.213594
  29 O :   -0.198352
  30 C :   -0.012854
  31 C :   -0.190467
  32 S :    0.466656
  33 C :   -0.164499
  34 C :   -0.104672
  35 C :   -0.019768
  36 C :    0.107159
  37 O :   -0.104718
  38 C :   -0.047018
  39 C :   -0.010762
  40 C :   -0.011876
  41 C :   -0.013989
  42 C :   -0.031151
  43 C :   -0.043299
  44 N :    0.088781
  45 C :    0.048025
  46 C :   -0.082347
  47 C :    0.027048
  48 N :   -0.058455
  49 C :    0.021348
  50 N :   -0.118296
  51 C :   -0.052376
  52 H :    0.020877
  53 H :    0.022118
  54 H :    0.028122
  55 H :    0.025398
  56 H :    0.026183
  57 H :    0.027075
  58 H :    0.023658
  59 H :    0.035811
  60 H :    0.033419
  61 H :    0.032877
  62 H :    0.032787
  63 H :    0.040408
  64 H :    0.036059
  65 H :    0.034239
  66 H :    0.037464
  67 H :    0.027624
  68 H :    0.034678
  69 H :    0.038707
  70 H :    0.024980
  71 H :    0.046831
  72 H :    0.036289
  73 H :    0.036094

  Mayer bond orders larger than 0.100000
B(  0-C ,  1-O ) :   1.1649 B(  0-C ,  4-C ) :   1.4946 B(  0-C , 52-H ) :   1.0054
B(  1-O ,  2-C ) :   1.1429 B(  2-C ,  3-C ) :   1.5920 B(  2-C , 53-H ) :   0.9996
B(  3-C ,  4-C ) :   1.2102 B(  3-C , 54-H ) :   1.0041 B(  4-C ,  5-C ) :   1.0996
B(  5-C ,  6-C ) :   1.7201 B(  5-C , 55-H ) :   0.9658 B(  6-C ,  7-C ) :   1.1334
B(  6-C , 56-H ) :   0.9737 B(  7-C ,  8-C ) :   1.7083 B(  7-C , 57-H ) :   0.9745
B(  8-C ,  9-C ) :   1.1317 B(  8-C , 58-H ) :   0.9519 B(  9-C , 10-S ) :   1.1136
B(  9-C , 13-C ) :   1.4422 B( 10-S , 11-C ) :   1.1269 B( 11-C , 12-C ) :   1.4485
B( 11-C , 17-C ) :   1.0592 B( 12-C , 13-C ) :   1.3256 B( 12-C , 14-C ) :   0.9348
B( 13-C , 59-H ) :   1.0001 B( 14-C , 15-O ) :   2.2259 B( 14-C , 16-C ) :   0.9121
B( 16-C , 17-C ) :   1.5744 B( 16-C , 18-C ) :   1.1747 B( 17-C , 60-H ) :   1.0256
B( 18-C , 19-C ) :   1.6038 B( 18-C , 61-H ) :   0.9779 B( 19-C , 20-C ) :   1.1329
B( 19-C , 62-H ) :   0.9561 B( 20-C , 21-S ) :   1.0909 B( 20-C , 22-C ) :   0.1061
B( 20-C , 24-C ) :   1.4348 B( 21-S , 22-C ) :   1.1490 B( 22-C , 23-C ) :   1.3424
B( 22-C , 31-C ) :   1.2352 B( 23-C , 24-C ) :   1.2383 B( 23-C , 30-C ) :   1.0947
B( 24-C , 25-O ) :   1.1035 B( 25-O , 26-C ) :   1.1194 B( 26-C , 27-N ) :   0.9260
B( 26-C , 30-C ) :   1.5557 B( 27-N , 28-O ) :   1.5248 B( 27-N , 29-O ) :   1.5039
B( 28-O , 29-O ) :   0.2770 B( 30-C , 63-H ) :   1.0151 B( 31-C , 32-S ) :   1.1013
B( 31-C , 35-C ) :   1.4045 B( 32-S , 33-C ) :   1.1335 B( 33-C , 34-C ) :   1.4407
B( 33-C , 39-C ) :   1.0544 B( 34-C , 35-C ) :   1.3353 B( 34-C , 36-C ) :   0.9280
B( 35-C , 64-H ) :   0.9990 B( 36-C , 37-O ) :   2.2245 B( 36-C , 38-C ) :   0.9108
B( 38-C , 39-C ) :   1.5854 B( 38-C , 40-C ) :   1.1203 B( 39-C , 65-H ) :   1.0266
B( 40-C , 41-C ) :   1.6659 B( 40-C , 66-H ) :   0.9904 B( 41-C , 42-C ) :   1.0986
B( 41-C , 67-H ) :   0.9553 B( 42-C , 43-C ) :   1.3593 B( 42-C , 50-N ) :   1.4142
B( 43-C , 44-N ) :   1.1778 B( 43-C , 51-C ) :   1.1294 B( 44-N , 45-C ) :   1.1757
B( 44-N , 49-C ) :   1.0033 B( 45-C , 46-C ) :   1.5678 B( 45-C , 68-H ) :   0.9735
B( 46-C , 47-C ) :   1.2377 B( 46-C , 69-H ) :   0.9726 B( 47-C , 48-N ) :   1.6590
B( 47-C , 70-H ) :   0.9819 B( 48-N , 49-C ) :   1.4208 B( 49-C , 50-N ) :   1.5932
B( 51-C , 71-H ) :   0.9337 B( 51-C , 72-H ) :   0.9386 B( 51-C , 73-H ) :   0.9381

-----------------------------------------------------------------------------
         ABSORPTION SPECTRUM VIA TRANSITION ELECTRIC DIPOLE MOMENTS
-----------------------------------------------------------------------------
State   Energy  Wavelength   fosc         T2         TX        TY        TZ
        (cm-1)    (nm)                  (au**2)     (au)      (au)      (au)
-----------------------------------------------------------------------------
   0   11413.6    876.1   1.331688057  38.41099  -3.07689  -3.79551  -3.81285
   1   14140.5    707.2   0.096675744   2.25076   1.36535   0.01260  -0.62162
   2   17052.2    586.4   0.022130573   0.42725  -0.09969   0.37680   0.52472
   3   19042.6    525.1   0.203522490   3.51854  -0.19326   1.05331   1.54004
   4   22202.5    450.4   0.097727310   1.44907  -0.99527  -0.58432  -0.34217
   5   24232.3    412.7   1.028746227  13.97623   2.49184   2.14096   1.78416
   6   25722.1    388.8   0.157484212   2.01561  -0.22870  -0.88321  -1.08777
   7   25974.6    385.0   0.384943833   4.87893  -1.93509  -0.98845  -0.39663
   8   26308.2    380.1   0.000014167   0.00018  -0.00303  -0.01261   0.00301
   9   26476.5    377.7   0.000100086   0.00124  -0.01602   0.00083  -0.03142
  10   27727.8    360.6   0.032120381   0.38137  -0.04856   0.36166   0.49821
  11   28381.9    352.3   0.143890836   1.66904  -0.09487   0.69463   1.08514
  12   29409.0    340.0   0.025928807   0.29025  -0.22376  -0.35118  -0.34185
  13   30300.5    330.0   0.169606896   1.84276  -0.20536  -0.81565  -1.06550
  14   31553.1    316.9   0.090074334   0.93980  -0.07288  -0.61024  -0.74973
  15   32171.8    310.8   0.026982752   0.27611   0.44055   0.23424   0.16479
  16   33280.5    300.5   0.195157204   1.93051   1.34181   0.26867  -0.24057
  17   33930.7    294.7   0.270567669   2.62518  -0.20926  -1.03223  -1.23122
  18   34496.8    289.9   0.004695613   0.04481   0.10254   0.16076   0.09195
  19   35307.7    283.2   0.065210615   0.60803   0.31909  -0.32943  -0.63063
  20   35850.7    278.9   0.056431445   0.51820   0.64354  -0.04601  -0.31928
  21   35862.8    278.8   0.000485162   0.00445   0.05545  -0.00083  -0.03712
  22   36021.9    277.6   0.060194469   0.55013  -0.02319   0.43578   0.59974
  23   36368.8    275.0   0.061153113   0.55356   0.01488   0.45487   0.58859
  24   36746.6    272.1   0.164296925   1.47193   0.55033   0.77207   0.75695
  25   37240.6    268.5   0.000061056   0.00054  -0.00614  -0.00560   0.02170
  26   37563.4    266.2   0.016217112   0.14213   0.04352  -0.22194  -0.30163
  27   38374.5    260.6   0.092829632   0.79638  -0.18364   0.52284   0.69949
  28   38440.1    260.1   0.103012737   0.88223   0.60270  -0.28722  -0.66067
  29   38634.6    258.8   0.239874627   2.04401  -1.10798   0.33082   0.84080
  30   39090.8    255.8   0.016037558   0.13506   0.16599  -0.14328  -0.29492
  31   39401.6    253.8   0.095876543   0.80108  -0.04695   0.52545   0.72303
  32   39589.1    252.6   0.000040383   0.00034  -0.00034   0.00414   0.01785
  33   39789.5    251.3   0.003816124   0.03157  -0.03843   0.14462  -0.09582
  34   39966.0    250.2   0.003753782   0.03092   0.16444   0.06210   0.00490
  35   40076.9    249.5   0.008878861   0.07294   0.01168   0.18028   0.20074

FINAL SINGLE POINT ENERGY     -3361.030799553974

DIPOLE MOMENT
-------------
                                X             Y             Z
Electronic contribution:     28.57623      -2.35396     -15.92514
Nuclear contribution   :    -30.16859       3.36434      18.04486
                        -----------------------------------------
Total Dipole Moment    :     -1.59236       1.01038       2.11972
                        -----------------------------------------
Magnitude (a.u.)       :      2.83720
Magnitude (Debye)      :      7.21158

Rotational constants in cm-1:     0.003190     0.000293     0.000269
Rotational constants in MHz :    95.629550     8.787081     8.049503

                             ****ORCA TERMINATED NORMALLY****
TOTAL RUN TIME: 0 days 0 hours 4 minutes 46 seconds 907 msec
