                         Program Version 4.2.0 -  RELEASE  -
|  1> # ORCA input file
|  2> # SCF done       -139.814931734670          0.000493671916
|  3> ! CAM-B3LYP def2-SVP def2/J RIJCOSX Grid4 TightSCF
|  4> %maxcore 5000
|  5> %tddft
|  6>     Mode sTDDFT
|  7>     Ethresh 5.0
|  8>     maxcore 5000
|  9> end
| 10>
| 11> %pal
| 12>   nprocs 6
| 13>   end
| 14> * xyz 0 1
| 15>    C        3.15614         3.90698        10.64479
| 16>    O        2.10535         3.58143        11.40635
| 17>    C        1.02975         4.20640        10.89220
| 18>    C        1.37341         4.93469         9.80212
| 19>    C        2.78097         4.75017         9.62116
| 20>    C        3.57195         5.34265         8.58652
| 21>    C        4.91101         5.17583         8.44276
| 22>    C        5.72147         5.76038         7.43873
| 23>    C        5.29890         6.58595         6.42974
| 24>    C        6.15687         7.15469         5.48709
| 25>    C        5.75177         8.00616         4.47777
| 26>    C        6.56304         8.64862         3.52372
| 27>    C        5.87773         9.46335         2.66123
| 28>    C        4.49381         9.49356         2.88952
| 29>    S        4.07363         8.46044         4.22981
| 30>    C        3.52857        10.22786         2.19826
| 31>    C        3.72404        11.15095         1.16586
| 32>    C        2.55945        11.72804         0.71435
| 33>    C        1.40781        11.27366         1.36339
| 34>    S        1.82910        10.09154         2.57889
| 35>    C        0.09238        11.67752         1.11880
| 36>    C       -1.01397        11.15895         1.73937
| 37>    C       -2.32654        11.57978         1.50739
| 38>    C       -3.49292        11.05121         2.06523
| 39>    C       -4.64788        11.67722         1.65239
| 40>    C       -4.42437        12.73081         0.76162
| 41>    S       -2.71926        12.90574         0.43788
| 42>    C       -5.36818        13.58597         0.18536
| 43>    C       -6.76064        13.55381         0.31089
| 44>    C       -7.40267        14.56132        -0.36637
| 45>    C       -6.54449        15.44004        -1.04906
| 46>    S       -4.88509        14.92737        -0.82297
| 47>    C       -6.94718        16.55460        -1.77123
| 48>    C       -6.16622        17.49748        -2.42296
| 49>    C       -6.62345        18.63865        -3.09908
| 50>    C       -5.50976        19.36527        -3.59253
| 51>    C       -4.30236        18.65404        -3.18957
| 52>    O       -3.12597        18.90108        -3.34071
| 53>    N       -4.78611        17.53433        -2.51988
| 54>    C       -6.00413        20.51051        -4.19241
| 55>    O       -7.36533        20.52549        -4.07804
| 56>    C       -7.81207        19.37905        -3.41458
| 57>    O       -8.98368        19.17692        -3.21702
| 58>    C       -5.38657        21.63671        -4.79014
| 59>    O       -6.10050        22.79295        -4.81783
| 60>    C       -5.30222        23.74788        -5.30247
| 61>    C       -4.07407        23.25369        -5.61032
| 62>    C       -4.10536        21.86306        -5.31122
| 63>    C       -3.04880        20.95033        -5.62595
| 64>    C       -3.20187        19.64058        -5.89326
| 65>    C       -2.11562        18.77707        -6.26287
| 66>    C       -2.27556        17.49498        -6.58657
| 67>    H        4.10412         3.48844        10.91760
| 68>    H        0.09173         4.05315        11.38784
| 69>    H        0.72803         5.53303         9.19258
| 70>    H        3.02683         5.96618         7.89258
| 71>    H        5.42345         4.54665         9.15819
| 72>    H        6.77927         5.53265         7.48465
| 73>    H        4.24964         6.83333         6.34207
| 74>    H        7.21491         6.93412         5.54819
| 75>    H        7.62824         8.50042         3.49941
| 76>    H        6.33948        10.03123         1.87375
| 77>    H        4.69965        11.38435         0.77958
| 78>    H        2.51453        12.46387        -0.06898
| 79>    H       -0.04285        12.45422         0.37638
| 80>    H       -0.88217        10.36136         2.46015
| 81>    H       -3.46809        10.22550         2.75441
| 82>    H       -5.63308        11.40163         1.98237
| 83>    H       -7.26611        12.80038         0.88758
| 84>    H       -8.46932        14.69586        -0.38217
| 85>    H       -8.01223        16.73549        -1.82257
| 86>    H       -4.16561        16.85525        -2.10761
| 87>    H       -5.71496        24.73499        -5.38103
| 88>    H       -3.24637        23.79248        -6.02386
| 89>    H       -2.06661        21.39638        -5.71539
| 90>    H       -4.18999        19.20286        -5.88190
| 91>    H       -1.12749        19.21752        -6.25820
| 92>    H       -3.24984        17.03418        -6.59199
| 93>    H       -1.44455        16.86424        -6.85086
| 94> *
| 95>
| 96>                          ****END OF INPUT****

CARTESIAN COORDINATES (ANGSTROEM)
---------------------------------
  C      3.156140    3.906980   10.644790
  O      2.105350    3.581430   11.406350
  C      1.029750    4.206400   10.892200
  C      1.373410    4.934690    9.802120
  C      2.780970    4.750170    9.621160
  C      3.571950    5.342650    8.586520
  C      4.911010    5.175830    8.442760
  C      5.721470    5.760380    7.438730
  C      5.298900    6.585950    6.429740
  C      6.156870    7.154690    5.487090
  C      5.751770    8.006160    4.477770
  C      6.563040    8.648620    3.523720
  C      5.877730    9.463350    2.661230
  C      4.493810    9.493560    2.889520
  S      4.073630    8.460440    4.229810
  C      3.528570   10.227860    2.198260
  C      3.724040   11.150950    1.165860
  C      2.559450   11.728040    0.714350
  C      1.407810   11.273660    1.363390
  S      1.829100   10.091540    2.578890
  C      0.092380   11.677520    1.118800
  C     -1.013970   11.158950    1.739370
  C     -2.326540   11.579780    1.507390
  C     -3.492920   11.051210    2.065230
  C     -4.647880   11.677220    1.652390
  C     -4.424370   12.730810    0.761620
  S     -2.719260   12.905740    0.437880
  C     -5.368180   13.585970    0.185360
  C     -6.760640   13.553810    0.310890
  C     -7.402670   14.561320   -0.366370
  C     -6.544490   15.440040   -1.049060
  S     -4.885090   14.927370   -0.822970
  C     -6.947180   16.554600   -1.771230
  C     -6.166220   17.497480   -2.422960
  C     -6.623450   18.638650   -3.099080
  C     -5.509760   19.365270   -3.592530
  C     -4.302360   18.654040   -3.189570
  O     -3.125970   18.901080   -3.340710
  N     -4.786110   17.534330   -2.519880
  C     -6.004130   20.510510   -4.192410
  O     -7.365330   20.525490   -4.078040
  C     -7.812070   19.379050   -3.414580
  O     -8.983680   19.176920   -3.217020
  C     -5.386570   21.636710   -4.790140
  O     -6.100500   22.792950   -4.817830
  C     -5.302220   23.747880   -5.302470
  C     -4.074070   23.253690   -5.610320
  C     -4.105360   21.863060   -5.311220
  C     -3.048800   20.950330   -5.625950
  C     -3.201870   19.640580   -5.893260
  C     -2.115620   18.777070   -6.262870
  C     -2.275560   17.494980   -6.586570
  H      4.104120    3.488440   10.917600
  H      0.091730    4.053150   11.387840
  H      0.728030    5.533030    9.192580
  H      3.026830    5.966180    7.892580
  H      5.423450    4.546650    9.158190
  H      6.779270    5.532650    7.484650
  H      4.249640    6.833330    6.342070
  H      7.214910    6.934120    5.548190
  H      7.628240    8.500420    3.499410
  H      6.339480   10.031230    1.873750
  H      4.699650   11.384350    0.779580
  H      2.514530   12.463870   -0.068980
  H     -0.042850   12.454220    0.376380
  H     -0.882170   10.361360    2.460150
  H     -3.468090   10.225500    2.754410
  H     -5.633080   11.401630    1.982370
  H     -7.266110   12.800380    0.887580
  H     -8.469320   14.695860   -0.382170
  H     -8.012230   16.735490   -1.822570
  H     -4.165610   16.855250   -2.107610
  H     -5.714960   24.734990   -5.381030
  H     -3.246370   23.792480   -6.023860
  H     -2.066610   21.396380   -5.715390
  H     -4.189990   19.202860   -5.881900
  H     -1.127490   19.217520   -6.258200
  H     -3.249840   17.034180   -6.591990
  H     -1.444550   16.864240   -6.850860

 Total Charge           Charge          ....    0
 Multiplicity           Mult            ....    1
 Number of Electrons    NEL             ....  390
 Basis Dimension        Dim             ....  879

ORBITAL ENERGIES
----------------

  NO   OCC          E(Eh)            E(eV)
   0   2.0000     -88.956099     -2420.6185
   1   2.0000     -88.954645     -2420.5789
   2   2.0000     -88.951236     -2420.4862
   3   2.0000     -88.950908     -2420.4773
   4   2.0000     -19.294904      -525.0410
   5   2.0000     -19.277709      -524.5731
   6   2.0000     -19.250684      -523.8377
   7   2.0000     -19.172786      -521.7180
   8   2.0000     -19.171773      -521.6905
   9   2.0000     -14.435879      -392.8203
  10   2.0000     -10.372795      -282.2581
  11   2.0000     -10.361427      -281.9488
  12   2.0000     -10.342813      -281.4423
  13   2.0000     -10.326103      -280.9875
  14   2.0000     -10.323039      -280.9042
  15   2.0000     -10.322748      -280.8963
  16   2.0000     -10.321222      -280.8547
  17   2.0000     -10.320960      -280.8476
  18   2.0000     -10.318241      -280.7736
  19   2.0000     -10.316359      -280.7224
  20   2.0000     -10.315334      -280.6945
  21   2.0000     -10.314515      -280.6722
  22   2.0000     -10.313389      -280.6416
  23   2.0000     -10.311139      -280.5804
  24   2.0000     -10.307843      -280.4907
  25   2.0000     -10.305840      -280.4362
  26   2.0000     -10.294329      -280.1229
  27   2.0000     -10.293441      -280.0988
  28   2.0000     -10.293110      -280.0898
  29   2.0000     -10.292731      -280.0795
  30   2.0000     -10.289527      -279.9923
  31   2.0000     -10.288105      -279.9536
  32   2.0000     -10.287571      -279.9390
  33   2.0000     -10.286842      -279.9192
  34   2.0000     -10.286005      -279.8964
  35   2.0000     -10.285965      -279.8953
  36   2.0000     -10.283885      -279.8387
  37   2.0000     -10.282745      -279.8077
  38   2.0000     -10.282714      -279.8069
  39   2.0000     -10.279233      -279.7122
  40   2.0000     -10.279155      -279.7100
  41   2.0000     -10.276709      -279.6435
  42   2.0000     -10.275114      -279.6001
  43   2.0000     -10.271401      -279.4990
  44   2.0000     -10.271120      -279.4914
  45   2.0000     -10.258871      -279.1581
  46   2.0000     -10.256000      -279.0800
  47   2.0000     -10.255153      -279.0569
  48   2.0000     -10.254473      -279.0384
  49   2.0000     -10.252243      -278.9777
  50   2.0000     -10.247807      -278.8570
  51   2.0000     -10.245231      -278.7869
  52   2.0000      -8.052285      -219.1138
  53   2.0000      -8.050894      -219.0760
  54   2.0000      -8.047452      -218.9823
  55   2.0000      -8.047173      -218.9747
  56   2.0000      -6.021905      -163.8644
  57   2.0000      -6.020425      -163.8241
  58   2.0000      -6.017911      -163.7557
  59   2.0000      -6.017076      -163.7330
  60   2.0000      -6.016695      -163.7226
  61   2.0000      -6.016472      -163.7165
  62   2.0000      -6.013428      -163.6337
  63   2.0000      -6.013099      -163.6247
  64   2.0000      -6.012730      -163.6147
  65   2.0000      -6.012178      -163.5997
  66   2.0000      -6.008611      -163.5026
  67   2.0000      -6.008479      -163.4990
  68   2.0000      -1.213096       -33.0100
  69   2.0000      -1.200602       -32.6700
  70   2.0000      -1.176797       -32.0223
  71   2.0000      -1.111081       -30.2341
  72   2.0000      -1.080729       -29.4081
  73   2.0000      -1.037079       -28.2203
  74   2.0000      -1.004039       -27.3213
  75   2.0000      -0.997259       -27.1368
  76   2.0000      -0.982368       -26.7316
  77   2.0000      -0.974419       -26.5153
  78   2.0000      -0.930609       -25.3232
  79   2.0000      -0.913882       -24.8680
  80   2.0000      -0.910409       -24.7735
  81   2.0000      -0.905564       -24.6417
  82   2.0000      -0.886393       -24.1200
  83   2.0000      -0.885091       -24.0845
  84   2.0000      -0.876259       -23.8442
  85   2.0000      -0.869020       -23.6472
  86   2.0000      -0.864623       -23.5276
  87   2.0000      -0.859174       -23.3793
  88   2.0000      -0.850123       -23.1330
  89   2.0000      -0.846168       -23.0254
  90   2.0000      -0.841477       -22.8978
  91   2.0000      -0.829026       -22.5590
  92   2.0000      -0.824607       -22.4387
  93   2.0000      -0.822545       -22.3826
  94   2.0000      -0.808171       -21.9915
  95   2.0000      -0.803210       -21.8564
  96   2.0000      -0.786390       -21.3988
  97   2.0000      -0.770575       -20.9684
  98   2.0000      -0.759977       -20.6800
  99   2.0000      -0.738291       -20.0899
 100   2.0000      -0.733968       -19.9723
 101   2.0000      -0.718986       -19.5646
 102   2.0000      -0.702367       -19.1124
 103   2.0000      -0.696770       -18.9601
 104   2.0000      -0.687621       -18.7111
 105   2.0000      -0.682732       -18.5781
 106   2.0000      -0.680062       -18.5054
 107   2.0000      -0.674548       -18.3554
 108   2.0000      -0.662953       -18.0399
 109   2.0000      -0.660209       -17.9652
 110   2.0000      -0.647820       -17.6281
 111   2.0000      -0.643182       -17.5019
 112   2.0000      -0.640632       -17.4325
 113   2.0000      -0.638352       -17.3705
 114   2.0000      -0.629008       -17.1162
 115   2.0000      -0.627009       -17.0618
 116   2.0000      -0.621220       -16.9043
 117   2.0000      -0.616585       -16.7781
 118   2.0000      -0.614719       -16.7274
 119   2.0000      -0.608260       -16.5516
 120   2.0000      -0.601634       -16.3713
 121   2.0000      -0.596110       -16.2210
 122   2.0000      -0.594319       -16.1722
 123   2.0000      -0.572760       -15.5856
 124   2.0000      -0.568085       -15.4584
 125   2.0000      -0.564548       -15.3621
 126   2.0000      -0.556990       -15.1565
 127   2.0000      -0.554005       -15.0752
 128   2.0000      -0.551430       -15.0052
 129   2.0000      -0.549660       -14.9570
 130   2.0000      -0.548064       -14.9136
 131   2.0000      -0.543997       -14.8029
 132   2.0000      -0.533862       -14.5271
 133   2.0000      -0.528792       -14.3892
 134   2.0000      -0.528485       -14.3808
 135   2.0000      -0.525973       -14.3124
 136   2.0000      -0.515540       -14.0285
 137   2.0000      -0.512260       -13.9393
 138   2.0000      -0.508073       -13.8254
 139   2.0000      -0.505654       -13.7595
 140   2.0000      -0.504539       -13.7292
 141   2.0000      -0.503609       -13.7039
 142   2.0000      -0.500558       -13.6209
 143   2.0000      -0.499254       -13.5854
 144   2.0000      -0.496870       -13.5205
 145   2.0000      -0.493746       -13.4355
 146   2.0000      -0.491003       -13.3609
 147   2.0000      -0.489969       -13.3327
 148   2.0000      -0.485125       -13.2009
 149   2.0000      -0.483507       -13.1569
 150   2.0000      -0.477453       -12.9922
 151   2.0000      -0.476774       -12.9737
 152   2.0000      -0.470977       -12.8159
 153   2.0000      -0.467490       -12.7210
 154   2.0000      -0.465494       -12.6667
 155   2.0000      -0.460465       -12.5299
 156   2.0000      -0.460274       -12.5247
 157   2.0000      -0.458633       -12.4800
 158   2.0000      -0.453836       -12.3495
 159   2.0000      -0.451239       -12.2788
 160   2.0000      -0.448467       -12.2034
 161   2.0000      -0.444048       -12.0832
 162   2.0000      -0.441675       -12.0186
 163   2.0000      -0.438037       -11.9196
 164   2.0000      -0.436198       -11.8695
 165   2.0000      -0.433877       -11.8064
 166   2.0000      -0.432775       -11.7764
 167   2.0000      -0.430013       -11.7012
 168   2.0000      -0.425357       -11.5745
 169   2.0000      -0.424294       -11.5456
 170   2.0000      -0.414828       -11.2880
 171   2.0000      -0.409472       -11.1423
 172   2.0000      -0.408544       -11.1170
 173   2.0000      -0.404742       -11.0136
 174   2.0000      -0.401141       -10.9156
 175   2.0000      -0.396246       -10.7824
 176   2.0000      -0.389234       -10.5916
 177   2.0000      -0.370244       -10.0749
 178   2.0000      -0.352179        -9.5833
 179   2.0000      -0.347970        -9.4688
 180   2.0000      -0.343611        -9.3501
 181   2.0000      -0.340136        -9.2556
 182   2.0000      -0.335438        -9.1277
 183   2.0000      -0.333826        -9.0839
 184   2.0000      -0.330310        -8.9882
 185   2.0000      -0.326551        -8.8859
 186   2.0000      -0.322755        -8.7826
 187   2.0000      -0.316350        -8.6083
 188   2.0000      -0.309200        -8.4138
 189   2.0000      -0.305435        -8.3113
 190   2.0000      -0.282046        -7.6749
 191   2.0000      -0.265348        -7.2205
 192   2.0000      -0.251773        -6.8511
 193   2.0000      -0.223641        -6.0856
 194   2.0000      -0.181812        -4.9473
 195   0.0000      -0.114930        -3.1274
 196   0.0000      -0.067319        -1.8319
 197   0.0000      -0.038221        -1.0400
 198   0.0000      -0.015211        -0.4139
 199   0.0000       0.005898         0.1605

MULLIKEN ATOMIC CHARGES
-----------------------
   0 C :    0.075407
   1 O :   -0.175311
   2 C :    0.133300
   3 C :   -0.040049
   4 C :    0.033035
   5 C :    0.049721
   6 C :    0.008590
   7 C :    0.022319
   8 C :    0.007195
   9 C :    0.009580
  10 C :   -0.035664
  11 C :    0.040507
  12 C :    0.016333
  13 C :   -0.032040
  14 S :    0.080286
  15 C :   -0.050347
  16 C :    0.023175
  17 C :    0.018478
  18 C :   -0.018887
  19 S :    0.087836
  20 C :   -0.016631
  21 C :    0.006380
  22 C :   -0.036901
  23 C :    0.031420
  24 C :    0.007432
  25 C :   -0.030558
  26 S :    0.090290
  27 C :   -0.045973
  28 C :    0.032881
  29 C :    0.012338
  30 C :    0.003425
  31 S :    0.051453
  32 C :   -0.063537
  33 C :    0.079560
  34 C :   -0.107708
  35 C :   -0.035443
  36 C :    0.118942
  37 O :   -0.171014
  38 N :   -0.125471
  39 C :    0.087809
  40 O :   -0.246422
  41 C :    0.199688
  42 O :   -0.162937
  43 C :    0.071223
  44 O :   -0.176442
  45 C :    0.161084
  46 C :   -0.040279
  47 C :    0.061334
  48 C :   -0.015804
  49 C :    0.054492
  50 C :    0.013898
  51 C :   -0.020066
  52 H :    0.006836
  53 H :    0.011927
  54 H :   -0.010925
  55 H :   -0.018976
  56 H :   -0.020163
  57 H :   -0.013323
  58 H :    0.001454
  59 H :   -0.011984
  60 H :   -0.008555
  61 H :   -0.011115
  62 H :   -0.012279
  63 H :   -0.008268
  64 H :   -0.002169
  65 H :   -0.004077
  66 H :   -0.012161
  67 H :   -0.015196
  68 H :   -0.012305
  69 H :   -0.005311
  70 H :    0.000414
  71 H :    0.127357
  72 H :    0.012010
  73 H :   -0.015033
  74 H :   -0.024477
  75 H :   -0.005934
  76 H :   -0.014535
  77 H :    0.010538
  78 H :    0.014323
Sum of atomic charges:   -0.0000000

LOEWDIN ATOMIC CHARGES
----------------------
   0 C :    0.040404
   1 O :    0.029789
   2 C :    0.032269
   3 C :   -0.067959
   4 C :   -0.081226
   5 C :    0.007565
   6 C :   -0.041162
   7 C :   -0.010070
   8 C :   -0.034499
   9 C :   -0.031822
  10 C :   -0.157005
  11 C :   -0.026495
  12 C :   -0.040417
  13 C :   -0.164714
  14 S :    0.384443
  15 C :   -0.188880
  16 C :   -0.028703
  17 C :   -0.045030
  18 C :   -0.137289
  19 S :    0.389790
  20 C :   -0.071285
  21 C :   -0.040286
  22 C :   -0.163354
  23 C :   -0.029458
  24 C :   -0.049966
  25 C :   -0.162529
  26 S :    0.393507
  27 C :   -0.194913
  28 C :   -0.026881
  29 C :   -0.047469
  30 C :   -0.130862
  31 S :    0.382887
  32 C :   -0.084966
  33 C :    0.057107
  34 C :   -0.133180
  35 C :   -0.120979
  36 C :    0.071494
  37 O :   -0.178888
  38 N :    0.020131
  39 C :    0.077510
  40 O :   -0.050900
  41 C :    0.089719
  42 O :   -0.171099
  43 C :    0.001809
  44 O :    0.028646
  45 C :    0.055912
  46 C :   -0.070551
  47 C :   -0.029109
  48 C :   -0.033060
  49 C :    0.011821
  50 C :   -0.016861
  51 C :   -0.046970
  52 H :    0.020507
  53 H :    0.023172
  54 H :    0.030093
  55 H :    0.028767
  56 H :    0.027166
  57 H :    0.029731
  58 H :    0.019914
  59 H :    0.034972
  60 H :    0.035005
  61 H :    0.032842
  62 H :    0.032398
  63 H :    0.035023
  64 H :    0.029590
  65 H :    0.029471
  66 H :    0.033706
  67 H :    0.031049
  68 H :    0.033171
  69 H :    0.035894
  70 H :    0.049363
  71 H :    0.063957
  72 H :    0.025415
  73 H :    0.030723
  74 H :    0.027182
  75 H :    0.026430
  76 H :    0.026865
  77 H :    0.020253
  78 H :    0.021375

  Mayer bond orders larger than 0.100000
B(  0-C ,  1-O ) :   1.1802 B(  0-C ,  4-C ) :   1.4875 B(  0-C , 52-H ) :   1.0032
B(  1-O ,  2-C ) :   1.1432 B(  2-C ,  3-C ) :   1.5787 B(  2-C , 53-H ) :   1.0019
B(  3-C ,  4-C ) :   1.2031 B(  3-C , 54-H ) :   1.0083 B(  4-C ,  5-C ) :   1.1103
B(  5-C ,  6-C ) :   1.6781 B(  5-C , 55-H ) :   0.9668 B(  6-C ,  7-C ) :   1.1615
B(  6-C , 56-H ) :   0.9732 B(  7-C ,  8-C ) :   1.6025 B(  7-C , 57-H ) :   0.9784
B(  8-C ,  9-C ) :   1.2101 B(  8-C , 58-H ) :   0.9614 B(  9-C , 10-C ) :   1.4959
B(  9-C , 59-H ) :   0.9838 B( 10-C , 11-C ) :   1.1867 B( 10-C , 14-S ) :   1.0335
B( 11-C , 12-C ) :   1.5263 B( 11-C , 60-H ) :   0.9993 B( 12-C , 13-C ) :   1.2482
B( 12-C , 61-H ) :   0.9955 B( 13-C , 14-S ) :   1.0753 B( 13-C , 15-C ) :   1.3933
B( 15-C , 16-C ) :   1.2757 B( 15-C , 19-S ) :   1.0571 B( 16-C , 17-C ) :   1.4769
B( 16-C , 62-H ) :   0.9956 B( 17-C , 18-C ) :   1.2459 B( 17-C , 63-H ) :   1.0022
B( 18-C , 19-S ) :   1.0699 B( 18-C , 20-C ) :   1.4093 B( 20-C , 21-C ) :   1.3184
B( 20-C , 64-H ) :   0.9729 B( 21-C , 22-C ) :   1.4150 B( 21-C , 65-H ) :   0.9723
B( 22-C , 23-C ) :   1.2531 B( 22-C , 26-S ) :   1.0519 B( 23-C , 24-C ) :   1.4675
B( 23-C , 66-H ) :   1.0011 B( 24-C , 25-C ) :   1.2842 B( 24-C , 67-H ) :   0.9963
B( 25-C , 26-S ) :   1.0816 B( 25-C , 27-C ) :   1.3715 B( 27-C , 28-C ) :   1.2764
B( 27-C , 31-S ) :   1.0560 B( 28-C , 29-C ) :   1.4905 B( 28-C , 68-H ) :   0.9940
B( 29-C , 30-C ) :   1.2199 B( 29-C , 69-H ) :   1.0030 B( 30-C , 31-S ) :   1.0512
B( 30-C , 32-C ) :   1.4190 B( 32-C , 33-C ) :   1.2922 B( 32-C , 70-H ) :   0.9531
B( 33-C , 34-C ) :   1.2742 B( 33-C , 38-N ) :   1.1714 B( 34-C , 35-C ) :   1.1941
B( 34-C , 41-C ) :   1.0195 B( 35-C , 36-C ) :   0.9340 B( 35-C , 39-C ) :   1.4236
B( 36-C , 37-O ) :   2.1664 B( 36-C , 38-N ) :   1.0865 B( 38-N , 71-H ) :   0.9080
B( 39-C , 40-O ) :   1.1765 B( 39-C , 43-C ) :   1.1109 B( 40-O , 41-C ) :   0.9969
B( 41-C , 42-O ) :   2.2123 B( 43-C , 44-O ) :   1.1614 B( 43-C , 47-C ) :   1.4165
B( 44-O , 45-C ) :   1.1630 B( 45-C , 46-C ) :   1.5265 B( 45-C , 72-H ) :   1.0050
B( 46-C , 47-C ) :   1.2138 B( 46-C , 73-H ) :   1.0033 B( 47-C , 48-C ) :   1.1070
B( 48-C , 49-C ) :   1.7187 B( 48-C , 74-H ) :   0.9621 B( 49-C , 50-C ) :   1.1115
B( 49-C , 75-H ) :   0.9686 B( 50-C , 51-C ) :   1.9068 B( 50-C , 76-H ) :   0.9743
B( 51-C , 77-H ) :   0.9567 B( 51-C , 78-H ) :   0.9513

-----------------------------------------------------------------------------
         ABSORPTION SPECTRUM VIA TRANSITION ELECTRIC DIPOLE MOMENTS
-----------------------------------------------------------------------------
State   Energy  Wavelength   fosc         T2         TX        TY        TZ
        (cm-1)    (nm)                  (au**2)     (au)      (au)      (au)
-----------------------------------------------------------------------------
   0    4196.0   2383.2   0.717998727  56.33255   4.46763  -4.70622   3.77152
   1   11199.6    892.9   0.026720470   0.78545  -0.71765   0.35632  -0.37876
   2   14511.2    689.1   0.092054350   2.08842   1.11186   0.91890   0.08834
   3   17205.8    581.2   0.008678455   0.16605   0.20605  -0.20988  -0.28204
   4   20293.0    492.8   0.593012545   9.62041  -1.84408  -1.27820   2.14149
   5   21786.2    459.0   0.415282400   6.27535  -1.02039  -1.58945   1.64554
   6   22618.3    442.1   0.055445180   0.80701   0.81894  -0.23102  -0.28805
   7   22966.7    435.4   0.146755771   2.10364  -1.16354  -0.44628   0.74205
   8   25671.9    389.5   0.195458574   2.50653  -0.58572  -1.03716   1.04296
   9   27527.5    363.3   0.098266569   1.17521   0.48669   0.85739  -0.45081
  10   27933.3    358.0   0.218702638   2.57755   1.09027   0.69736  -0.95003
  11   29110.9    343.5   0.071249481   0.80575  -0.39930  -0.60998   0.52368
  12   29131.4    343.3   0.017345912   0.19603  -0.12685  -0.38268   0.18300
  13   29371.5    340.5   0.013068333   0.14648  -0.11925   0.32645  -0.16028
  14   29928.9    334.1   0.007913547   0.08705   0.26291   0.03327  -0.12969
  15   30120.6    332.0   0.129942251   1.42024   0.99418   0.18638  -0.63016
  16   30287.8    330.2   0.000543532   0.00591  -0.02789  -0.06768   0.02344
  17   31025.2    322.3   0.096650982   1.02557  -0.33636   0.94958  -0.10358
  18   31497.2    317.5   0.053523067   0.55943  -0.54095  -0.39751   0.32984
  19   31933.4    313.2   0.003086145   0.03182   0.16542  -0.01217  -0.06560
  20   32374.8    308.9   0.084644553   0.86073  -0.76883   0.19490   0.48130
  21   32730.8    305.5   0.027839848   0.28002   0.46549  -0.13207  -0.21424
  22   32982.0    303.2   0.020549423   0.20512  -0.19608   0.16209  -0.37469
  23   33262.9    300.6   0.010207922   0.10103   0.27918   0.11228   0.10239
  24   33486.7    298.6   0.023620122   0.23221   0.30296  -0.18836  -0.32396
  25   33912.7    294.9   0.026244032   0.25477   0.33335  -0.32574  -0.19375
  26   34266.2    291.8   0.016461397   0.15815  -0.17019   0.29126  -0.21061
  27   35101.8    284.9   0.050333162   0.47206   0.64327  -0.12787  -0.20474
  28   35706.0    280.1   0.014317179   0.13201   0.00354  -0.36300   0.01487
  29   36260.2    275.8   0.003664926   0.03327  -0.13387  -0.07096  -0.10158
  30   37102.8    269.5   0.009412936   0.08352  -0.18185   0.17850   0.13634
  31   37526.7    266.5   0.007499223   0.06579  -0.12341  -0.08901   0.20648
  32   37750.2    264.9   0.031711450   0.27655   0.43038   0.12238  -0.27631
  33   38067.7    262.7   0.006361024   0.05501  -0.04484   0.22277   0.05807
  34   39243.5    254.8   0.010616883   0.08906  -0.06278  -0.18784   0.22325
  35   39877.7    250.8   0.021959379   0.18129  -0.34758   0.24252   0.04072
  36   39931.8    250.4   0.091049985   0.75065   0.50945   0.65862  -0.23944

FINAL SINGLE POINT ENERGY     -3637.134114789238

DIPOLE MOMENT
-------------
                                X             Y             Z
Electronic contribution:    -25.63725      21.43734     -10.52048
Nuclear contribution   :     29.64767     -25.31082      13.25896
                        -----------------------------------------
Total Dipole Moment    :      4.01041      -3.87349       2.73848
                        -----------------------------------------
Magnitude (a.u.)       :      6.21181
Magnitude (Debye)      :     15.78917

Rotational constants in cm-1:     0.002900     0.000323     0.000297
Rotational constants in MHz :    86.951576     9.693523     8.909967

                             ****ORCA TERMINATED NORMALLY****
TOTAL RUN TIME: 0 days 0 hours 6 minutes 21 seconds 485 msec
