                         Program Version 4.2.0 -  RELEASE  -
|  1> # ORCA input file
|  2> # SCF done       -135.531990886630          0.000896136978
|  3> ! CAM-B3LYP def2-SVP def2/J RIJCOSX Grid4 TightSCF
|  4> %maxcore 5000
|  5> %tddft
|  6>     Mode sTDDFT
|  7>     Ethresh 5.0
|  8>     maxcore 5000
|  9> end
| 10>
| 11> %pal
| 12>   nprocs 6
| 13>   end
| 14> * xyz 0 1
| 15>    C       -4.47204         8.09361         9.52849
| 16>    O       -4.73402         9.17027        10.28487
| 17>    C       -4.59010        10.25288         9.49844
| 18>    C       -4.23506         9.88971         8.24156
| 19>    C       -4.15341         8.46103         8.24116
| 20>    C       -3.80076         7.64898         7.11526
| 21>    C       -3.66602         6.30206         7.12089
| 22>    C       -3.27214         5.57750         5.97111
| 23>    C       -3.09334         4.22412         5.94272
| 24>    C       -2.65578         3.44468         4.85671
| 25>    C       -2.22788         3.85053         3.61223
| 26>    C       -1.75329         2.99357         2.58749
| 27>    C       -1.30920         3.63162         1.46677
| 28>    C       -1.40587         5.03558         1.54063
| 29>    S       -2.13224         5.50798         3.05738
| 30>    C       -1.01377         5.99759         0.62819
| 31>    C       -0.47753         5.83973        -0.66305
| 32>    C       -0.21067         7.02057        -1.29327
| 33>    C       -0.52131         8.18405        -0.54425
| 34>    S       -1.15299         7.69924         1.01785
| 35>    C       -0.41053         9.45892        -1.05436
| 36>    C       -0.69550        10.74266        -0.56194
| 37>    O       -0.72960        11.70521        -1.53539
| 38>    C       -1.05919        12.87029        -0.95390
| 39>    C       -1.23212        12.72542         0.37945
| 40>    C       -0.98237        11.35043         0.68377
| 41>    C       -0.92965        10.76346         1.96408
| 42>    C       -1.29795        11.36975         3.13488
| 43>    C       -1.23404        10.77223         4.40890
| 44>    C       -0.72764         9.52028         4.66147
| 45>    C       -0.72571         8.85773         5.88629
| 46>    C       -0.24492         7.56692         6.00683
| 47>    C       -0.33020         6.68436         7.10126
| 48>    C        0.11324         5.41720         6.83470
| 49>    C        0.58749         5.24650         5.52153
| 50>    S        0.51872         6.75539         4.65266
| 51>    C        0.98638         4.09404         4.86301
| 52>    C        0.97269         2.76255         5.31826
| 53>    C        1.29925         1.85101         4.35594
| 54>    C        1.59033         2.42130         3.09456
| 55>    S        1.48606         4.16628         3.18723
| 56>    C        1.87115         1.75772         1.92437
| 57>    C        2.10746         2.40303         0.69957
| 58>    O        2.13063         3.76019         0.65525
| 59>    C        2.36240         4.12039        -0.61967
| 60>    C        2.48826         3.03263        -1.42212
| 61>    C        2.32881         1.88753        -0.58969
| 62>    C        2.37420         0.50929        -0.95174
| 63>    C        2.58087         0.04711        -2.20230
| 64>    C        2.63412        -1.33910        -2.59267
| 65>    C        2.47933        -2.39967        -1.79878
| 66>    H       -4.54677         7.13489        10.00207
| 67>    H       -4.76468        11.21055         9.94768
| 68>    H       -4.05295        10.53458         7.40614
| 69>    H       -3.61032         8.18498         6.19445
| 70>    H       -3.84461         5.74632         8.03202
| 71>    H       -3.10384         6.16486         5.08158
| 72>    H       -3.30563         3.67538         6.85314
| 73>    H       -2.61647         2.37434         5.02059
| 74>    H       -1.73378         1.92570         2.72091
| 75>    H       -0.89710         3.13135         0.60840
| 76>    H       -0.31574         4.86948        -1.09805
| 77>    H        0.19405         7.09306        -2.28806
| 78>    H       -0.10427         9.48989        -2.09535
| 79>    H       -1.13542        13.72675        -1.59546
| 80>    H       -1.48343        13.49752         1.07643
| 81>    H       -0.54883         9.75815         2.00058
| 82>    H       -1.69541        12.37510         3.09368
| 83>    H       -1.62257        11.34382         5.24280
| 84>    H       -0.31179         8.96169         3.83403
| 85>    H       -1.15484         9.32634         6.76194
| 86>    H       -0.75208         6.99406         8.04137
| 87>    H        0.08984         4.60667         7.54112
| 88>    H        0.70123         2.50875         6.32765
| 89>    H        1.32225         0.78577         4.50692
| 90>    H        1.89791         0.67927         1.93631
| 91>    H        2.41909         5.17166        -0.82263
| 92>    H        2.67513         3.04137        -2.47616
| 93>    H        2.23050        -0.19228        -0.14259
| 94>    H        2.72421         0.76012        -3.00253
| 95>    H        2.82007        -1.50844        -3.64638
| 96>    H        2.29029        -2.31061        -0.74297
| 97>    H        2.53730        -3.40206        -2.18585
| 98> *
| 99>
|100>                          ****END OF INPUT****

CARTESIAN COORDINATES (ANGSTROEM)
---------------------------------
  C     -4.472040    8.093610    9.528490
  O     -4.734020    9.170270   10.284870
  C     -4.590100   10.252880    9.498440
  C     -4.235060    9.889710    8.241560
  C     -4.153410    8.461030    8.241160
  C     -3.800760    7.648980    7.115260
  C     -3.666020    6.302060    7.120890
  C     -3.272140    5.577500    5.971110
  C     -3.093340    4.224120    5.942720
  C     -2.655780    3.444680    4.856710
  C     -2.227880    3.850530    3.612230
  C     -1.753290    2.993570    2.587490
  C     -1.309200    3.631620    1.466770
  C     -1.405870    5.035580    1.540630
  S     -2.132240    5.507980    3.057380
  C     -1.013770    5.997590    0.628190
  C     -0.477530    5.839730   -0.663050
  C     -0.210670    7.020570   -1.293270
  C     -0.521310    8.184050   -0.544250
  S     -1.152990    7.699240    1.017850
  C     -0.410530    9.458920   -1.054360
  C     -0.695500   10.742660   -0.561940
  O     -0.729600   11.705210   -1.535390
  C     -1.059190   12.870290   -0.953900
  C     -1.232120   12.725420    0.379450
  C     -0.982370   11.350430    0.683770
  C     -0.929650   10.763460    1.964080
  C     -1.297950   11.369750    3.134880
  C     -1.234040   10.772230    4.408900
  C     -0.727640    9.520280    4.661470
  C     -0.725710    8.857730    5.886290
  C     -0.244920    7.566920    6.006830
  C     -0.330200    6.684360    7.101260
  C      0.113240    5.417200    6.834700
  C      0.587490    5.246500    5.521530
  S      0.518720    6.755390    4.652660
  C      0.986380    4.094040    4.863010
  C      0.972690    2.762550    5.318260
  C      1.299250    1.851010    4.355940
  C      1.590330    2.421300    3.094560
  S      1.486060    4.166280    3.187230
  C      1.871150    1.757720    1.924370
  C      2.107460    2.403030    0.699570
  O      2.130630    3.760190    0.655250
  C      2.362400    4.120390   -0.619670
  C      2.488260    3.032630   -1.422120
  C      2.328810    1.887530   -0.589690
  C      2.374200    0.509290   -0.951740
  C      2.580870    0.047110   -2.202300
  C      2.634120   -1.339100   -2.592670
  C      2.479330   -2.399670   -1.798780
  H     -4.546770    7.134890   10.002070
  H     -4.764680   11.210550    9.947680
  H     -4.052950   10.534580    7.406140
  H     -3.610320    8.184980    6.194450
  H     -3.844610    5.746320    8.032020
  H     -3.103840    6.164860    5.081580
  H     -3.305630    3.675380    6.853140
  H     -2.616470    2.374340    5.020590
  H     -1.733780    1.925700    2.720910
  H     -0.897100    3.131350    0.608400
  H     -0.315740    4.869480   -1.098050
  H      0.194050    7.093060   -2.288060
  H     -0.104270    9.489890   -2.095350
  H     -1.135420   13.726750   -1.595460
  H     -1.483430   13.497520    1.076430
  H     -0.548830    9.758150    2.000580
  H     -1.695410   12.375100    3.093680
  H     -1.622570   11.343820    5.242800
  H     -0.311790    8.961690    3.834030
  H     -1.154840    9.326340    6.761940
  H     -0.752080    6.994060    8.041370
  H      0.089840    4.606670    7.541120
  H      0.701230    2.508750    6.327650
  H      1.322250    0.785770    4.506920
  H      1.897910    0.679270    1.936310
  H      2.419090    5.171660   -0.822630
  H      2.675130    3.041370   -2.476160
  H      2.230500   -0.192280   -0.142590
  H      2.724210    0.760120   -3.002530
  H      2.820070   -1.508440   -3.646380
  H      2.290290   -2.310610   -0.742970
  H      2.537300   -3.402060   -2.185850

 Total Charge           Charge          ....    0
 Multiplicity           Mult            ....    1
 Number of Electrons    NEL             ....  384
 Basis Dimension        Dim             ....  890

ORBITAL ENERGIES
----------------

  NO   OCC          E(Eh)            E(eV)
   0   2.0000     -88.939792     -2420.1748
   1   2.0000     -88.933214     -2419.9958
   2   2.0000     -88.928685     -2419.8725
   3   2.0000     -88.928203     -2419.8594
   4   2.0000     -19.282501      -524.7035
   5   2.0000     -19.281429      -524.6744
   6   2.0000     -19.274784      -524.4935
   7   2.0000     -10.324845      -280.9533
   8   2.0000     -10.323083      -280.9054
   9   2.0000     -10.317885      -280.7639
  10   2.0000     -10.317569      -280.7553
  11   2.0000     -10.311405      -280.5876
  12   2.0000     -10.310467      -280.5621
  13   2.0000     -10.304010      -280.3864
  14   2.0000     -10.299562      -280.2653
  15   2.0000     -10.298629      -280.2400
  16   2.0000     -10.297436      -280.2075
  17   2.0000     -10.295926      -280.1664
  18   2.0000     -10.292001      -280.0596
  19   2.0000     -10.291690      -280.0511
  20   2.0000     -10.289217      -279.9838
  21   2.0000     -10.277781      -279.6726
  22   2.0000     -10.277545      -279.6662
  23   2.0000     -10.276308      -279.6326
  24   2.0000     -10.275451      -279.6092
  25   2.0000     -10.273437      -279.5544
  26   2.0000     -10.272857      -279.5386
  27   2.0000     -10.272414      -279.5266
  28   2.0000     -10.271224      -279.4942
  29   2.0000     -10.271122      -279.4914
  30   2.0000     -10.270418      -279.4723
  31   2.0000     -10.270388      -279.4715
  32   2.0000     -10.269796      -279.4554
  33   2.0000     -10.269511      -279.4476
  34   2.0000     -10.268463      -279.4191
  35   2.0000     -10.264971      -279.3241
  36   2.0000     -10.264947      -279.3234
  37   2.0000     -10.264412      -279.3088
  38   2.0000     -10.264098      -279.3003
  39   2.0000     -10.263740      -279.2906
  40   2.0000     -10.263733      -279.2904
  41   2.0000     -10.263672      -279.2887
  42   2.0000     -10.262827      -279.2657
  43   2.0000     -10.262014      -279.2436
  44   2.0000     -10.261745      -279.2363
  45   2.0000     -10.260729      -279.2086
  46   2.0000     -10.260280      -279.1964
  47   2.0000     -10.260157      -279.1931
  48   2.0000     -10.258876      -279.1582
  49   2.0000     -10.257361      -279.1170
  50   2.0000     -10.254243      -279.0321
  51   2.0000      -8.035467      -218.6562
  52   2.0000      -8.028577      -218.4687
  53   2.0000      -8.024105      -218.3470
  54   2.0000      -8.023745      -218.3372
  55   2.0000      -6.005227      -163.4105
  56   2.0000      -6.001057      -163.2971
  57   2.0000      -5.998308      -163.2223
  58   2.0000      -5.996524      -163.1737
  59   2.0000      -5.994100      -163.1078
  60   2.0000      -5.993767      -163.0987
  61   2.0000      -5.993592      -163.0939
  62   2.0000      -5.989807      -162.9909
  63   2.0000      -5.989748      -162.9893
  64   2.0000      -5.989280      -162.9766
  65   2.0000      -5.985104      -162.8630
  66   2.0000      -5.984767      -162.8538
  67   2.0000      -1.201445       -32.6930
  68   2.0000      -1.198869       -32.6229
  69   2.0000      -1.193213       -32.4690
  70   2.0000      -0.985813       -26.8253
  71   2.0000      -0.981067       -26.6962
  72   2.0000      -0.962270       -26.1847
  73   2.0000      -0.959909       -26.1205
  74   2.0000      -0.915840       -24.9213
  75   2.0000      -0.914733       -24.8911
  76   2.0000      -0.910469       -24.7751
  77   2.0000      -0.897089       -24.4110
  78   2.0000      -0.891955       -24.2713
  79   2.0000      -0.885280       -24.0897
  80   2.0000      -0.882005       -24.0006
  81   2.0000      -0.874048       -23.7841
  82   2.0000      -0.859241       -23.3811
  83   2.0000      -0.858071       -23.3493
  84   2.0000      -0.841373       -22.8949
  85   2.0000      -0.838283       -22.8108
  86   2.0000      -0.829409       -22.5694
  87   2.0000      -0.824298       -22.4303
  88   2.0000      -0.820713       -22.3327
  89   2.0000      -0.810962       -22.0674
  90   2.0000      -0.807849       -21.9827
  91   2.0000      -0.806326       -21.9413
  92   2.0000      -0.798230       -21.7210
  93   2.0000      -0.790087       -21.4994
  94   2.0000      -0.767444       -20.8832
  95   2.0000      -0.758670       -20.6444
  96   2.0000      -0.735679       -20.0188
  97   2.0000      -0.725360       -19.7381
  98   2.0000      -0.720697       -19.6112
  99   2.0000      -0.701313       -19.0837
 100   2.0000      -0.694498       -18.8983
 101   2.0000      -0.678964       -18.4756
 102   2.0000      -0.675152       -18.3718
 103   2.0000      -0.669470       -18.2172
 104   2.0000      -0.666552       -18.1378
 105   2.0000      -0.659492       -17.9457
 106   2.0000      -0.652696       -17.7608
 107   2.0000      -0.643325       -17.5058
 108   2.0000      -0.640967       -17.4416
 109   2.0000      -0.631213       -17.1762
 110   2.0000      -0.629018       -17.1164
 111   2.0000      -0.625085       -17.0094
 112   2.0000      -0.617409       -16.8006
 113   2.0000      -0.614057       -16.7093
 114   2.0000      -0.608218       -16.5505
 115   2.0000      -0.601953       -16.3800
 116   2.0000      -0.597131       -16.2488
 117   2.0000      -0.595764       -16.2116
 118   2.0000      -0.593675       -16.1547
 119   2.0000      -0.588695       -16.0192
 120   2.0000      -0.581346       -15.8192
 121   2.0000      -0.579734       -15.7754
 122   2.0000      -0.568972       -15.4825
 123   2.0000      -0.550514       -14.9802
 124   2.0000      -0.548431       -14.9236
 125   2.0000      -0.544578       -14.8187
 126   2.0000      -0.540619       -14.7110
 127   2.0000      -0.540510       -14.7080
 128   2.0000      -0.538773       -14.6607
 129   2.0000      -0.538115       -14.6429
 130   2.0000      -0.529958       -14.4209
 131   2.0000      -0.529031       -14.3957
 132   2.0000      -0.525797       -14.3077
 133   2.0000      -0.520405       -14.1609
 134   2.0000      -0.515567       -14.0293
 135   2.0000      -0.506926       -13.7942
 136   2.0000      -0.505541       -13.7565
 137   2.0000      -0.499016       -13.5789
 138   2.0000      -0.497575       -13.5397
 139   2.0000      -0.494755       -13.4630
 140   2.0000      -0.488872       -13.3029
 141   2.0000      -0.488659       -13.2971
 142   2.0000      -0.484308       -13.1787
 143   2.0000      -0.479404       -13.0453
 144   2.0000      -0.478894       -13.0314
 145   2.0000      -0.476976       -12.9792
 146   2.0000      -0.476161       -12.9570
 147   2.0000      -0.474387       -12.9087
 148   2.0000      -0.471212       -12.8223
 149   2.0000      -0.467235       -12.7141
 150   2.0000      -0.462754       -12.5922
 151   2.0000      -0.458465       -12.4755
 152   2.0000      -0.453545       -12.3416
 153   2.0000      -0.451538       -12.2870
 154   2.0000      -0.447314       -12.1720
 155   2.0000      -0.447049       -12.1648
 156   2.0000      -0.442837       -12.0502
 157   2.0000      -0.438995       -11.9457
 158   2.0000      -0.437598       -11.9077
 159   2.0000      -0.433662       -11.8006
 160   2.0000      -0.425728       -11.5847
 161   2.0000      -0.425676       -11.5832
 162   2.0000      -0.420824       -11.4512
 163   2.0000      -0.419047       -11.4029
 164   2.0000      -0.417928       -11.3724
 165   2.0000      -0.416641       -11.3374
 166   2.0000      -0.415787       -11.3141
 167   2.0000      -0.414070       -11.2674
 168   2.0000      -0.410580       -11.1724
 169   2.0000      -0.405547       -11.0355
 170   2.0000      -0.399902       -10.8819
 171   2.0000      -0.393607       -10.7106
 172   2.0000      -0.390458       -10.6249
 173   2.0000      -0.378719       -10.3055
 174   2.0000      -0.374824       -10.1995
 175   2.0000      -0.370463       -10.0808
 176   2.0000      -0.363883        -9.9018
 177   2.0000      -0.359505        -9.7826
 178   2.0000      -0.337412        -9.1815
 179   2.0000      -0.335495        -9.1293
 180   2.0000      -0.331215        -9.0128
 181   2.0000      -0.320635        -8.7249
 182   2.0000      -0.312552        -8.5050
 183   2.0000      -0.310891        -8.4598
 184   2.0000      -0.304222        -8.2783
 185   2.0000      -0.292411        -7.9569
 186   2.0000      -0.288955        -7.8629
 187   2.0000      -0.274601        -7.4723
 188   2.0000      -0.254300        -6.9199
 189   2.0000      -0.239986        -6.5303
 190   2.0000      -0.203404        -5.5349
 191   2.0000      -0.180108        -4.9010
 192   0.0000      -0.081245        -2.2108
 193   0.0000      -0.065784        -1.7901
 194   0.0000      -0.026231        -0.7138
 195   0.0000      -0.005324        -0.1449
 196   0.0000       0.009376         0.2551

MULLIKEN ATOMIC CHARGES
-----------------------
   0 C :    0.061133
   1 O :   -0.181455
   2 C :    0.132319
   3 C :   -0.045863
   4 C :    0.050178
   5 C :    0.005818
   6 C :    0.009720
   7 C :    0.011479
   8 C :    0.000484
   9 C :    0.003223
  10 C :   -0.018483
  11 C :    0.045535
  12 C :    0.026410
  13 C :   -0.019779
  14 S :    0.053941
  15 C :   -0.045188
  16 C :    0.031066
  17 C :    0.016311
  18 C :   -0.015477
  19 S :    0.067127
  20 C :   -0.070883
  21 C :    0.138811
  22 O :   -0.209104
  23 C :    0.158042
  24 C :   -0.049027
  25 C :    0.053524
  26 C :   -0.007107
  27 C :    0.007906
  28 C :    0.010983
  29 C :   -0.002057
  30 C :    0.016133
  31 C :   -0.059661
  32 C :    0.064541
  33 C :    0.031765
  34 C :   -0.041839
  35 S :    0.063366
  36 C :   -0.044370
  37 C :    0.041542
  38 C :    0.009353
  39 C :   -0.010059
  40 S :    0.103715
  41 C :   -0.067531
  42 C :    0.114404
  43 O :   -0.220412
  44 C :    0.155448
  45 C :   -0.051270
  46 C :    0.049687
  47 C :    0.015067
  48 C :   -0.004614
  49 C :    0.003260
  50 C :   -0.021674
  51 H :    0.000353
  52 H :    0.006906
  53 H :   -0.015442
  54 H :   -0.008529
  55 H :   -0.028232
  56 H :    0.012286
  57 H :   -0.029094
  58 H :   -0.025772
  59 H :   -0.019896
  60 H :   -0.010778
  61 H :   -0.005107
  62 H :   -0.017274
  63 H :   -0.001720
  64 H :    0.008574
  65 H :   -0.013565
  66 H :   -0.019542
  67 H :   -0.029688
  68 H :   -0.026546
  69 H :    0.016239
  70 H :   -0.017605
  71 H :   -0.014253
  72 H :   -0.022700
  73 H :   -0.023398
  74 H :   -0.021582
  75 H :   -0.018415
  76 H :    0.012599
  77 H :   -0.013254
  78 H :   -0.031411
  79 H :   -0.027010
  80 H :   -0.010871
  81 H :    0.008538
  82 H :    0.019744
Sum of atomic charges:   -0.0000000

LOEWDIN ATOMIC CHARGES
----------------------
   0 C :    0.027843
   1 O :    0.023026
   2 C :    0.028976
   3 C :   -0.073784
   4 C :   -0.080134
   5 C :   -0.022163
   6 C :   -0.023279
   7 C :   -0.028646
   8 C :   -0.046557
   9 C :   -0.064994
  10 C :   -0.145506
  11 C :   -0.027534
  12 C :   -0.042137
  13 C :   -0.174271
  14 S :    0.404878
  15 C :   -0.180155
  16 C :   -0.034441
  17 C :   -0.042343
  18 C :   -0.150162
  19 S :    0.398287
  20 C :   -0.076815
  21 C :    0.032272
  22 O :    0.000234
  23 C :    0.048538
  24 C :   -0.069785
  25 C :   -0.056958
  26 C :   -0.020844
  27 C :   -0.036775
  28 C :   -0.031590
  29 C :   -0.030227
  30 C :   -0.048698
  31 C :   -0.148305
  32 C :   -0.028823
  33 C :   -0.035378
  34 C :   -0.171112
  35 S :    0.387993
  36 C :   -0.193399
  37 C :   -0.028746
  38 C :   -0.051296
  39 C :   -0.137427
  40 S :    0.409459
  41 C :   -0.091960
  42 C :    0.027706
  43 O :    0.004706
  44 C :    0.042676
  45 C :   -0.069030
  46 C :   -0.070326
  47 C :   -0.008794
  48 C :   -0.042229
  49 C :   -0.032163
  50 C :   -0.047285
  51 H :    0.018168
  52 H :    0.020975
  53 H :    0.028171
  54 H :    0.030452
  55 H :    0.021169
  56 H :    0.010120
  57 H :    0.023996
  58 H :    0.030207
  59 H :    0.030816
  60 H :    0.031349
  61 H :    0.032415
  62 H :    0.030332
  63 H :    0.043854
  64 H :    0.023276
  65 H :    0.028837
  66 H :    0.006893
  67 H :    0.023640
  68 H :    0.024555
  69 H :    0.015596
  70 H :    0.031702
  71 H :    0.032410
  72 H :    0.028147
  73 H :    0.028514
  74 H :    0.028512
  75 H :    0.035781
  76 H :    0.023453
  77 H :    0.028841
  78 H :    0.024505
  79 H :    0.022846
  80 H :    0.027731
  81 H :    0.016607
  82 H :    0.023605

  Mayer bond orders larger than 0.100000
B(  0-C ,  1-O ) :   1.1659 B(  0-C ,  4-C ) :   1.4998 B(  0-C , 51-H ) :   1.0045
B(  1-O ,  2-C ) :   1.1472 B(  2-C ,  3-C ) :   1.5707 B(  2-C , 52-H ) :   1.0022
B(  3-C ,  4-C ) :   1.2033 B(  3-C , 53-H ) :   1.0095 B(  4-C ,  5-C ) :   1.0741
B(  5-C ,  6-C ) :   1.6604 B(  5-C , 54-H ) :   0.9766 B(  6-C ,  7-C ) :   1.1690
B(  6-C , 55-H ) :   0.9883 B(  7-C ,  8-C ) :   1.5728 B(  7-C , 56-H ) :   0.9634
B(  8-C ,  9-C ) :   1.2090 B(  8-C , 57-H ) :   0.9705 B(  9-C , 10-C ) :   1.5438
B(  9-C , 58-H ) :   0.9606 B( 10-C , 11-C ) :   1.1600 B( 10-C , 14-S ) :   1.0503
B( 11-C , 12-C ) :   1.5694 B( 11-C , 59-H ) :   0.9975 B( 12-C , 13-C ) :   1.1959
B( 12-C , 60-H ) :   0.9925 B( 13-C , 14-S ) :   1.0483 B( 13-C , 15-C ) :   1.4806
B( 15-C , 16-C ) :   1.2103 B( 15-C , 19-S ) :   1.0449 B( 16-C , 17-C ) :   1.5514
B( 16-C , 61-H ) :   0.9836 B( 17-C , 18-C ) :   1.1690 B( 17-C , 62-H ) :   0.9988
B( 18-C , 19-S ) :   1.0362 B( 18-C , 20-C ) :   1.5464 B( 20-C , 21-C ) :   1.2020
B( 20-C , 63-H ) :   0.9435 B( 21-C , 22-O ) :   1.1116 B( 21-C , 25-C ) :   1.3379
B( 22-O , 23-C ) :   1.1360 B( 23-C , 24-C ) :   1.5760 B( 23-C , 64-H ) :   1.0014
B( 24-C , 25-C ) :   1.1845 B( 24-C , 65-H ) :   0.9977 B( 25-C , 26-C ) :   1.1927
B( 26-C , 27-C ) :   1.6043 B( 26-C , 66-H ) :   0.9413 B( 27-C , 28-C ) :   1.1951
B( 27-C , 67-H ) :   0.9759 B( 28-C , 29-C ) :   1.5647 B( 28-C , 68-H ) :   0.9803
B( 29-C , 30-C ) :   1.2219 B( 29-C , 69-H ) :   0.9555 B( 30-C , 31-C ) :   1.4887
B( 30-C , 70-H ) :   0.9862 B( 31-C , 32-C ) :   1.1804 B( 31-C , 35-S ) :   1.0463
B( 32-C , 33-C ) :   1.5450 B( 32-C , 71-H ) :   0.9927 B( 33-C , 34-C ) :   1.2215
B( 33-C , 72-H ) :   0.9941 B( 34-C , 35-S ) :   1.0720 B( 34-C , 36-C ) :   1.4508
B( 36-C , 37-C ) :   1.2146 B( 36-C , 40-S ) :   1.0325 B( 37-C , 38-C ) :   1.5583
B( 37-C , 73-H ) :   0.9944 B( 38-C , 39-C ) :   1.1526 B( 38-C , 74-H ) :   1.0010
B( 39-C , 40-S ) :   1.0633 B( 39-C , 41-C ) :   1.5363 B( 41-C , 42-C ) :   1.2127
B( 41-C , 75-H ) :   0.9601 B( 42-C , 43-O ) :   1.1177 B( 42-C , 46-C ) :   1.3496
B( 43-O , 44-C ) :   1.1107 B( 44-C , 45-C ) :   1.5553 B( 44-C , 76-H ) :   1.0003
B( 45-C , 46-C ) :   1.2063 B( 45-C , 77-H ) :   1.0004 B( 46-C , 47-C ) :   1.1422
B( 47-C , 48-C ) :   1.7383 B( 47-C , 78-H ) :   0.9566 B( 48-C , 49-C ) :   1.1064
B( 48-C , 79-H ) :   0.9748 B( 49-C , 50-C ) :   1.9373 B( 49-C , 80-H ) :   0.9631
B( 50-C , 81-H ) :   0.9504 B( 50-C , 82-H ) :   0.9531

-----------------------------------------------------------------------------
         ABSORPTION SPECTRUM VIA TRANSITION ELECTRIC DIPOLE MOMENTS
-----------------------------------------------------------------------------
State   Energy  Wavelength   fosc         T2         TX        TY        TZ
        (cm-1)    (nm)                  (au**2)     (au)      (au)      (au)
-----------------------------------------------------------------------------
   0    5771.9   1732.5   0.079113166   4.51236  -1.74350   0.97141   0.72728
   1    8297.7   1205.2   0.016872447   0.66942  -0.12773  -0.68721   0.42526
   2   13474.6    742.1   0.762411063  18.62728  -0.27169   4.29432  -0.33504
   3   15017.1    665.9   0.152913816   3.35225   0.82834  -0.16516  -1.62444
   4   17150.9    583.1   0.073567247   1.41212  -0.37548   0.63584   0.93104
   5   20601.8    485.4   0.037744599   0.60315   0.08639  -0.26539   0.72474
   6   21640.5    462.1   1.368343990  20.81632  -0.89140   1.49766   4.21648
   7   21963.7    455.3   0.737552075  11.05509  -0.82860   0.54240   3.17400
   8   22405.6    446.3   0.020306666   0.29837   0.25822   0.42262  -0.23041
   9   25263.1    395.8   0.055180671   0.71908   0.06964  -0.47291  -0.70041
  10   25806.8    387.5   0.004821102   0.06150   0.05613  -0.11745   0.21108
  11   26484.5    377.6   0.129391893   1.60839  -0.37768   1.20662   0.09910
  12   27318.4    366.1   0.494699512   5.96158   0.24447  -1.85663   1.56675
  13   28201.6    354.6   0.017983126   0.20993   0.23579   0.23808  -0.31249
  14   28518.4    350.7   0.610871846   7.05181   0.46278  -2.60148  -0.26453
  15   29258.4    341.8   0.146839299   1.65222  -0.07869   1.26578  -0.20937
  16   29594.9    337.9   0.053222427   0.59204   0.16416  -0.72515  -0.19814
  17   30824.2    324.4   0.049379581   0.52739   0.04601  -0.38435   0.61445
  18   30991.6    322.7   0.021070181   0.22382   0.14065  -0.45163  -0.00847
  19   31221.0    320.3   0.000684726   0.00722   0.04646  -0.01985  -0.06832
  20   31578.2    316.7   0.016843553   0.17560  -0.08974   0.30734  -0.27035
  21   32038.5    312.1   0.235082216   2.41559   0.10725   1.36266  -0.73976
  22   32544.9    307.3   0.073995388   0.74851   0.18705  -0.81467  -0.22321
  23   32787.7    305.0   0.005647988   0.05671   0.16965  -0.15039  -0.07288
  24   32996.3    303.1   0.003582261   0.03574   0.12091   0.12145  -0.07983
  25   33324.0    300.1   0.025766767   0.25455  -0.11663   0.49081  -0.00737
  26   33971.6    294.4   0.035002661   0.33920  -0.02882  -0.07499  -0.57684
  27   34133.0    293.0   0.009816188   0.09468  -0.10169   0.02518   0.28931
  28   34563.2    289.3   0.029173229   0.27787   0.02246   0.13635  -0.50870
  29   35336.8    283.0   0.011956026   0.11139   0.06962   0.07499  -0.31767
  30   35466.5    282.0   0.013647905   0.12668  -0.13769  -0.25203   0.21025
  31   36127.8    276.8   0.049226660   0.44857  -0.01563   0.66870  -0.03418
  32   36253.7    275.8   0.025540561   0.23193  -0.14373   0.19584   0.41583
  33   36665.5    272.7   0.001795266   0.01612  -0.00509  -0.10217  -0.07519
  34   37005.0    270.2   0.009207811   0.08192   0.01468  -0.28505  -0.02121
  35   37128.2    269.3   0.051903056   0.46022  -0.16547   0.62714  -0.19882
  36   37482.4    266.8   0.005026618   0.04415   0.01314  -0.18897  -0.09093
  37   37832.7    264.3   0.013613473   0.11846   0.16893   0.25108  -0.16397
  38   37961.7    263.4   0.020030574   0.17371   0.13266  -0.30310   0.25345
  39   38442.4    260.1   0.016531062   0.14157   0.00129   0.32439   0.19063
  40   39159.3    255.4   0.033293735   0.27990  -0.04988   0.40211  -0.34018
  41   39412.0    253.7   0.096980804   0.81009  -0.03927  -0.30840   0.84465
  42   39621.7    252.4   0.017264042   0.14344  -0.04460   0.11587   0.35781
  43   40063.6    249.6   0.090420061   0.74300   0.26079  -0.56959  -0.59207
  44   40198.7    248.8   0.021410710   0.17535  -0.02786   0.29912   0.29171

FINAL SINGLE POINT ENERGY     -3511.200510695482

DIPOLE MOMENT
-------------
                                X             Y             Z
Electronic contribution:      1.07494      15.53341       1.63471
Nuclear contribution   :     -1.18308     -15.76208      -1.63253
                        -----------------------------------------
Total Dipole Moment    :     -0.10815      -0.22866       0.00218
                        -----------------------------------------
Magnitude (a.u.)       :      0.25296
Magnitude (Debye)      :      0.64297

Rotational constants in cm-1:     0.002175     0.001196     0.000854
Rotational constants in MHz :    65.214826    35.861179    25.602580

                             ****ORCA TERMINATED NORMALLY****
TOTAL RUN TIME: 0 days 0 hours 8 minutes 9 seconds 779 msec
