                         Program Version 4.2.0 -  RELEASE  -
|  1> # ORCA input file
|  2> # SCF done       -158.054355657440          0.000724001893
|  3> ! CAM-B3LYP def2-SVP def2/J RIJCOSX Grid4 TightSCF
|  4> %maxcore 5000
|  5> %tddft
|  6>     Mode sTDDFT
|  7>     Ethresh 5.0
|  8>     maxcore 5000
|  9> end
| 10>
| 11> %pal
| 12>   nprocs 6
| 13>   end
| 14> * xyz 0 1
| 15>    C       14.82743        12.65206         2.54380
| 16>    O       15.47866        13.26673         3.53811
| 17>    C       15.05027        12.72349         4.69222
| 18>    C       14.12731        11.75920         4.45455
| 19>    C       13.96629        11.69763         3.03516
| 20>    C       13.08233        10.81567         2.32836
| 21>    C       12.91244        10.78891         0.99007
| 22>    C       12.01714         9.89824         0.33688
| 23>    C       11.83161         9.87351        -1.00481
| 24>    C       10.93959         8.98383        -1.64938
| 25>    S       10.78132         9.03408        -3.43068
| 26>    C        9.63978         7.76379        -3.29480
| 27>    C        9.46672         7.40644        -1.95227
| 28>    N       10.18796         8.08799        -1.07037
| 29>    C        8.47589         6.29318        -1.82110
| 30>    C        8.11263         6.05969        -3.25803
| 31>    C        8.81284         6.93998        -4.08883
| 32>    S        8.44463         6.70779        -5.74444
| 33>    C        7.33647         5.40955        -5.33122
| 34>    C        7.28191         5.19856        -3.96224
| 35>    C        6.67051         4.72816        -6.38640
| 36>    C        5.82418         3.68939        -6.22168
| 37>    C        5.15971         2.98767        -7.29398
| 38>    C        4.83029         3.66833        -8.47839
| 39>    C        4.10629         3.02145        -9.44800
| 40>    C        3.67548         1.69970        -9.26916
| 41>    C        2.90393         1.30091       -10.46679
| 42>    O        2.35593         0.25723       -10.71799
| 43>    N        2.91461         2.41458       -11.29663
| 44>    C        3.61477         3.48816       -10.76573
| 45>    O        3.75478         4.55770       -11.30350
| 46>    C        2.29504         2.43557       -12.60416
| 47>    C        3.25560         1.93624       -13.67775
| 48>    C        3.99554         1.00456        -8.12940
| 49>    C        4.76607         1.63317        -7.13951
| 50>    C        5.17438         0.85350        -5.99329
| 51>    S        4.14236        -0.44799        -5.42198
| 52>    C        5.26847        -0.84235        -4.20131
| 53>    C        6.38926        -0.01826        -4.24082
| 54>    C        6.34016         0.93738        -5.25500
| 55>    C        7.28464        -0.44246        -3.14760
| 56>    O        8.34616         0.01897        -2.81025
| 57>    C        6.56074        -1.60714        -2.49878
| 58>    C        5.37464        -1.80629        -3.15137
| 59>    C        7.13969        -2.28880        -1.39978
| 60>    C        6.59642        -3.35499        -0.76305
| 61>    C        7.21809        -4.01121         0.33358
| 62>    O        8.39802        -3.59707         0.82818
| 63>    C        8.74420        -4.40427         1.85645
| 64>    C        7.77287        -5.36637         2.04006
| 65>    C        6.79193        -5.11716         1.06499
| 66>    C        5.53811        -5.87850         0.84464
| 67>    F        5.46156        -6.40690        -0.39462
| 68>    F        5.39772        -6.89650         1.70102
| 69>    F        4.43493        -5.11276         0.97547
| 70>    C        9.98200        -4.13990         2.53883
| 71>    C       10.45315        -4.85259         3.55900
| 72>    H       15.05435        12.96565         1.54454
| 73>    H       15.47378        13.10547         5.59977
| 74>    H       13.61525        11.16016         5.17928
| 75>    H       12.51508        10.13087         2.94495
| 76>    H       13.47134        11.47175         0.36495
| 77>    H       11.45425         9.20427         0.94535
| 78>    H       12.37700        10.55172        -1.64643
| 79>    H        7.61537         6.58777        -1.21762
| 80>    H        8.91951         5.40967        -1.35865
| 81>    H        6.66619         4.44373        -3.50841
| 82>    H        6.92118         5.06411        -7.38351
| 83>    H        5.61586         3.33602        -5.22195
| 84>    H        5.11055         4.70131        -8.60972
| 85>    H        1.99826         3.46726       -12.80758
| 86>    H        1.41086         1.79507       -12.55809
| 87>    H        4.13797         2.57086       -13.71704
| 88>    H        2.76653         1.95585       -14.64745
| 89>    H        3.56215         0.91558       -13.46055
| 90>    H        3.67879        -0.02037        -8.00610
| 91>    H        7.13300         1.62858        -5.47538
| 92>    H        4.63395        -2.55302        -2.93289
| 93>    H        8.09694        -1.90643        -1.06927
| 94>    H        5.64657        -3.76126        -1.07546
| 95>    H        7.75766        -6.14737         2.77095
| 96>    H       10.52951        -3.29017         2.15507
| 97>    H        9.92387        -5.70147         3.95473
| 98>    H       11.38768        -4.60315         4.02841
| 99> *
|100>
|101>                          ****END OF INPUT****

CARTESIAN COORDINATES (ANGSTROEM)
---------------------------------
  C     14.827430   12.652060    2.543800
  O     15.478660   13.266730    3.538110
  C     15.050270   12.723490    4.692220
  C     14.127310   11.759200    4.454550
  C     13.966290   11.697630    3.035160
  C     13.082330   10.815670    2.328360
  C     12.912440   10.788910    0.990070
  C     12.017140    9.898240    0.336880
  C     11.831610    9.873510   -1.004810
  C     10.939590    8.983830   -1.649380
  S     10.781320    9.034080   -3.430680
  C      9.639780    7.763790   -3.294800
  C      9.466720    7.406440   -1.952270
  N     10.187960    8.087990   -1.070370
  C      8.475890    6.293180   -1.821100
  C      8.112630    6.059690   -3.258030
  C      8.812840    6.939980   -4.088830
  S      8.444630    6.707790   -5.744440
  C      7.336470    5.409550   -5.331220
  C      7.281910    5.198560   -3.962240
  C      6.670510    4.728160   -6.386400
  C      5.824180    3.689390   -6.221680
  C      5.159710    2.987670   -7.293980
  C      4.830290    3.668330   -8.478390
  C      4.106290    3.021450   -9.448000
  C      3.675480    1.699700   -9.269160
  C      2.903930    1.300910  -10.466790
  O      2.355930    0.257230  -10.717990
  N      2.914610    2.414580  -11.296630
  C      3.614770    3.488160  -10.765730
  O      3.754780    4.557700  -11.303500
  C      2.295040    2.435570  -12.604160
  C      3.255600    1.936240  -13.677750
  C      3.995540    1.004560   -8.129400
  C      4.766070    1.633170   -7.139510
  C      5.174380    0.853500   -5.993290
  S      4.142360   -0.447990   -5.421980
  C      5.268470   -0.842350   -4.201310
  C      6.389260   -0.018260   -4.240820
  C      6.340160    0.937380   -5.255000
  C      7.284640   -0.442460   -3.147600
  O      8.346160    0.018970   -2.810250
  C      6.560740   -1.607140   -2.498780
  C      5.374640   -1.806290   -3.151370
  C      7.139690   -2.288800   -1.399780
  C      6.596420   -3.354990   -0.763050
  C      7.218090   -4.011210    0.333580
  O      8.398020   -3.597070    0.828180
  C      8.744200   -4.404270    1.856450
  C      7.772870   -5.366370    2.040060
  C      6.791930   -5.117160    1.064990
  C      5.538110   -5.878500    0.844640
  F      5.461560   -6.406900   -0.394620
  F      5.397720   -6.896500    1.701020
  F      4.434930   -5.112760    0.975470
  C      9.982000   -4.139900    2.538830
  C     10.453150   -4.852590    3.559000
  H     15.054350   12.965650    1.544540
  H     15.473780   13.105470    5.599770
  H     13.615250   11.160160    5.179280
  H     12.515080   10.130870    2.944950
  H     13.471340   11.471750    0.364950
  H     11.454250    9.204270    0.945350
  H     12.377000   10.551720   -1.646430
  H      7.615370    6.587770   -1.217620
  H      8.919510    5.409670   -1.358650
  H      6.666190    4.443730   -3.508410
  H      6.921180    5.064110   -7.383510
  H      5.615860    3.336020   -5.221950
  H      5.110550    4.701310   -8.609720
  H      1.998260    3.467260  -12.807580
  H      1.410860    1.795070  -12.558090
  H      4.137970    2.570860  -13.717040
  H      2.766530    1.955850  -14.647450
  H      3.562150    0.915580  -13.460550
  H      3.678790   -0.020370   -8.006100
  H      7.133000    1.628580   -5.475380
  H      4.633950   -2.553020   -2.932890
  H      8.096940   -1.906430   -1.069270
  H      5.646570   -3.761260   -1.075460
  H      7.757660   -6.147370    2.770950
  H     10.529510   -3.290170    2.155070
  H      9.923870   -5.701470    3.954730
  H     11.387680   -4.603150    4.028410

 Total Charge           Charge          ....    0
 Multiplicity           Mult            ....    1
 Number of Electrons    NEL             ....  420
 Basis Dimension        Dim             ....  945

ORBITAL ENERGIES
----------------

  NO   OCC          E(Eh)            E(eV)
   0   2.0000     -88.978585     -2421.2304
   1   2.0000     -88.960347     -2420.7341
   2   2.0000     -88.960180     -2420.7296
   3   2.0000     -24.799760      -674.8358
   4   2.0000     -24.792965      -674.6509
   5   2.0000     -24.792829      -674.6472
   6   2.0000     -19.303172      -525.2660
   7   2.0000     -19.287035      -524.8269
   8   2.0000     -19.229057      -523.2493
   9   2.0000     -19.204484      -522.5806
  10   2.0000     -19.204367      -522.5774
  11   2.0000     -14.445955      -393.0944
  12   2.0000     -14.403058      -391.9271
  13   2.0000     -10.517742      -286.2023
  14   2.0000     -10.384462      -282.5756
  15   2.0000     -10.384346      -282.5724
  16   2.0000     -10.370441      -282.1941
  17   2.0000     -10.347018      -281.5567
  18   2.0000     -10.340003      -281.3658
  19   2.0000     -10.328711      -281.0585
  20   2.0000     -10.317219      -280.7458
  21   2.0000     -10.315456      -280.6978
  22   2.0000     -10.315105      -280.6883
  23   2.0000     -10.314165      -280.6627
  24   2.0000     -10.304574      -280.4017
  25   2.0000     -10.304402      -280.3970
  26   2.0000     -10.302481      -280.3448
  27   2.0000     -10.300289      -280.2851
  28   2.0000     -10.300161      -280.2816
  29   2.0000     -10.299961      -280.2762
  30   2.0000     -10.299532      -280.2645
  31   2.0000     -10.298217      -280.2287
  32   2.0000     -10.293429      -280.0984
  33   2.0000     -10.293378      -280.0970
  34   2.0000     -10.291788      -280.0538
  35   2.0000     -10.291682      -280.0509
  36   2.0000     -10.290576      -280.0208
  37   2.0000     -10.289801      -279.9997
  38   2.0000     -10.287998      -279.9507
  39   2.0000     -10.287908      -279.9482
  40   2.0000     -10.287810      -279.9455
  41   2.0000     -10.287151      -279.9276
  42   2.0000     -10.285446      -279.8812
  43   2.0000     -10.285301      -279.8773
  44   2.0000     -10.283395      -279.8254
  45   2.0000     -10.277653      -279.6691
  46   2.0000     -10.276923      -279.6493
  47   2.0000     -10.276917      -279.6491
  48   2.0000     -10.276714      -279.6436
  49   2.0000     -10.276618      -279.6410
  50   2.0000     -10.276161      -279.6286
  51   2.0000     -10.274572      -279.5853
  52   2.0000     -10.273873      -279.5663
  53   2.0000     -10.270584      -279.4768
  54   2.0000     -10.269757      -279.4543
  55   2.0000     -10.263703      -279.2896
  56   2.0000     -10.254021      -279.0261
  57   2.0000      -8.073421      -219.6889
  58   2.0000      -8.055461      -219.2002
  59   2.0000      -8.055260      -219.1948
  60   2.0000      -6.042495      -164.4246
  61   2.0000      -6.038442      -164.3143
  62   2.0000      -6.035998      -164.2478
  63   2.0000      -6.024642      -163.9388
  64   2.0000      -6.024570      -163.9369
  65   2.0000      -6.020755      -163.8331
  66   2.0000      -6.020533      -163.8270
  67   2.0000      -6.017649      -163.7485
  68   2.0000      -6.017387      -163.7414
  69   2.0000      -1.384751       -37.6810
  70   2.0000      -1.289978       -35.1021
  71   2.0000      -1.282610       -34.9016
  72   2.0000      -1.223354       -33.2892
  73   2.0000      -1.205395       -32.8005
  74   2.0000      -1.150343       -31.3024
  75   2.0000      -1.139415       -31.0050
  76   2.0000      -1.126671       -30.6583
  77   2.0000      -1.059962       -28.8430
  78   2.0000      -1.041395       -28.3378
  79   2.0000      -1.011609       -27.5273
  80   2.0000      -0.993184       -27.0259
  81   2.0000      -0.977372       -26.5956
  82   2.0000      -0.944863       -25.7110
  83   2.0000      -0.929799       -25.3011
  84   2.0000      -0.926519       -25.2119
  85   2.0000      -0.918754       -25.0006
  86   2.0000      -0.917692       -24.9717
  87   2.0000      -0.907265       -24.6879
  88   2.0000      -0.893806       -24.3217
  89   2.0000      -0.887807       -24.1585
  90   2.0000      -0.884054       -24.0563
  91   2.0000      -0.875367       -23.8199
  92   2.0000      -0.854810       -23.2606
  93   2.0000      -0.852323       -23.1929
  94   2.0000      -0.849018       -23.1030
  95   2.0000      -0.839268       -22.8376
  96   2.0000      -0.832347       -22.6493
  97   2.0000      -0.826612       -22.4933
  98   2.0000      -0.817830       -22.2543
  99   2.0000      -0.801273       -21.8037
 100   2.0000      -0.786569       -21.4036
 101   2.0000      -0.780765       -21.2457
 102   2.0000      -0.770689       -20.9715
 103   2.0000      -0.761240       -20.7144
 104   2.0000      -0.753819       -20.5125
 105   2.0000      -0.750018       -20.4090
 106   2.0000      -0.730503       -19.8780
 107   2.0000      -0.726067       -19.7573
 108   2.0000      -0.715916       -19.4811
 109   2.0000      -0.704748       -19.1772
 110   2.0000      -0.697658       -18.9842
 111   2.0000      -0.688726       -18.7412
 112   2.0000      -0.678967       -18.4756
 113   2.0000      -0.673698       -18.3322
 114   2.0000      -0.669664       -18.2225
 115   2.0000      -0.667038       -18.1510
 116   2.0000      -0.666371       -18.1329
 117   2.0000      -0.663476       -18.0541
 118   2.0000      -0.656962       -17.8768
 119   2.0000      -0.652019       -17.7423
 120   2.0000      -0.641592       -17.4586
 121   2.0000      -0.639322       -17.3968
 122   2.0000      -0.631583       -17.1862
 123   2.0000      -0.626926       -17.0595
 124   2.0000      -0.621839       -16.9211
 125   2.0000      -0.617254       -16.7963
 126   2.0000      -0.610936       -16.6244
 127   2.0000      -0.608397       -16.5553
 128   2.0000      -0.589716       -16.0470
 129   2.0000      -0.588490       -16.0136
 130   2.0000      -0.579528       -15.7698
 131   2.0000      -0.575196       -15.6519
 132   2.0000      -0.572479       -15.5779
 133   2.0000      -0.570241       -15.5171
 134   2.0000      -0.569170       -15.4879
 135   2.0000      -0.560181       -15.2433
 136   2.0000      -0.555657       -15.1202
 137   2.0000      -0.554359       -15.0849
 138   2.0000      -0.550418       -14.9776
 139   2.0000      -0.546218       -14.8633
 140   2.0000      -0.544990       -14.8299
 141   2.0000      -0.543900       -14.8003
 142   2.0000      -0.543349       -14.7853
 143   2.0000      -0.537661       -14.6305
 144   2.0000      -0.535743       -14.5783
 145   2.0000      -0.532310       -14.4849
 146   2.0000      -0.530227       -14.4282
 147   2.0000      -0.527646       -14.3580
 148   2.0000      -0.524579       -14.2745
 149   2.0000      -0.521355       -14.1868
 150   2.0000      -0.519142       -14.1266
 151   2.0000      -0.515312       -14.0224
 152   2.0000      -0.510403       -13.8888
 153   2.0000      -0.508517       -13.8375
 154   2.0000      -0.506543       -13.7837
 155   2.0000      -0.503622       -13.7043
 156   2.0000      -0.501732       -13.6528
 157   2.0000      -0.501388       -13.6435
 158   2.0000      -0.498445       -13.5634
 159   2.0000      -0.492880       -13.4120
 160   2.0000      -0.490227       -13.3397
 161   2.0000      -0.485296       -13.2056
 162   2.0000      -0.485178       -13.2024
 163   2.0000      -0.480930       -13.0868
 164   2.0000      -0.479594       -13.0504
 165   2.0000      -0.476650       -12.9703
 166   2.0000      -0.475172       -12.9301
 167   2.0000      -0.474359       -12.9080
 168   2.0000      -0.473242       -12.8776
 169   2.0000      -0.468295       -12.7429
 170   2.0000      -0.467915       -12.7326
 171   2.0000      -0.464485       -12.6393
 172   2.0000      -0.462629       -12.5888
 173   2.0000      -0.458949       -12.4886
 174   2.0000      -0.456776       -12.4295
 175   2.0000      -0.452588       -12.3156
 176   2.0000      -0.449929       -12.2432
 177   2.0000      -0.448985       -12.2175
 178   2.0000      -0.444847       -12.1049
 179   2.0000      -0.441416       -12.0115
 180   2.0000      -0.440377       -11.9833
 181   2.0000      -0.436149       -11.8682
 182   2.0000      -0.430831       -11.7235
 183   2.0000      -0.427386       -11.6298
 184   2.0000      -0.427233       -11.6256
 185   2.0000      -0.423599       -11.5267
 186   2.0000      -0.420851       -11.4519
 187   2.0000      -0.419420       -11.4130
 188   2.0000      -0.416519       -11.3340
 189   2.0000      -0.403270       -10.9735
 190   2.0000      -0.398940       -10.8557
 191   2.0000      -0.382087       -10.3971
 192   2.0000      -0.377028       -10.2595
 193   2.0000      -0.365981        -9.9589
 194   2.0000      -0.358877        -9.7655
 195   2.0000      -0.357758        -9.7351
 196   2.0000      -0.343633        -9.3507
 197   2.0000      -0.342238        -9.3128
 198   2.0000      -0.341301        -9.2873
 199   2.0000      -0.339754        -9.2452
 200   2.0000      -0.339133        -9.2283
 201   2.0000      -0.336582        -9.1588
 202   2.0000      -0.333097        -9.0640
 203   2.0000      -0.322362        -8.7719
 204   2.0000      -0.320412        -8.7189
 205   2.0000      -0.304261        -8.2794
 206   2.0000      -0.290909        -7.9160
 207   2.0000      -0.269035        -7.3208
 208   2.0000      -0.244577        -6.6553
 209   2.0000      -0.224043        -6.0965
 210   0.0000      -0.088639        -2.4120
 211   0.0000      -0.060398        -1.6435
 212   0.0000      -0.041157        -1.1199
 213   0.0000      -0.021387        -0.5820
 214   0.0000      -0.018969        -0.5162

MULLIKEN ATOMIC CHARGES
-----------------------
   0 C :    0.069878
   1 O :   -0.175324
   2 C :    0.132908
   3 C :   -0.041349
   4 C :    0.039984
   5 C :    0.032772
   6 C :    0.017700
   7 C :    0.032258
   8 C :    0.036720
   9 C :   -0.099186
  10 S :    0.119027
  11 C :   -0.064400
  12 C :   -0.224254
  13 N :   -0.017295
  14 C :    0.384438
  15 C :   -0.165619
  16 C :   -0.098956
  17 S :    0.148184
  18 C :   -0.091009
  19 C :   -0.009082
  20 C :    0.059664
  21 C :   -0.077106
  22 C :    0.094049
  23 C :   -0.099859
  24 C :    0.018502
  25 C :    0.013973
  26 C :    0.181736
  27 O :   -0.159686
  28 N :   -0.301082
  29 C :    0.183598
  30 O :   -0.159785
  31 C :    0.136563
  32 C :   -0.009345
  33 C :   -0.104288
  34 C :    0.113605
  35 C :   -0.151080
  36 S :    0.173845
  37 C :   -0.050527
  38 C :   -0.009137
  39 C :   -0.018757
  40 C :    0.158248
  41 O :   -0.109531
  42 C :   -0.044843
  43 C :   -0.022594
  44 C :    0.017853
  45 C :   -0.009588
  46 C :    0.125308
  47 O :   -0.186182
  48 C :    0.173693
  49 C :   -0.075323
  50 C :   -0.108609
  51 C :    0.523587
  52 F :   -0.171862
  53 F :   -0.153323
  54 F :   -0.172087
  55 C :    0.000459
  56 C :   -0.015397
  57 H :    0.004295
  58 H :    0.008914
  59 H :   -0.013461
  60 H :   -0.017512
  61 H :   -0.018959
  62 H :    0.006531
  63 H :   -0.019226
  64 H :    0.034678
  65 H :    0.038693
  66 H :   -0.023623
  67 H :   -0.012235
  68 H :    0.019045
  69 H :   -0.009439
  70 H :    0.029930
  71 H :    0.029635
  72 H :    0.026012
  73 H :    0.020692
  74 H :    0.026279
  75 H :   -0.003825
  76 H :    0.015604
  77 H :   -0.001942
  78 H :    0.007377
  79 H :    0.002564
  80 H :   -0.005509
  81 H :    0.008194
  82 H :    0.021440
  83 H :    0.033757
Sum of atomic charges:    0.0000000

LOEWDIN ATOMIC CHARGES
----------------------
   0 C :    0.035877
   1 O :    0.028065
   2 C :    0.029760
   3 C :   -0.068658
   4 C :   -0.081773
   5 C :   -0.005998
   6 C :   -0.029788
   7 C :    0.012327
   8 C :   -0.072740
   9 C :   -0.118066
  10 S :    0.401892
  11 C :   -0.222693
  12 C :   -0.034566
  13 N :   -0.093399
  14 C :   -0.012494
  15 C :   -0.050811
  16 C :   -0.196015
  17 S :    0.437763
  18 C :   -0.177018
  19 C :   -0.046232
  20 C :   -0.029907
  21 C :   -0.036921
  22 C :   -0.001523
  23 C :    0.017537
  24 C :   -0.052512
  25 C :   -0.056623
  26 C :    0.087704
  27 O :   -0.162297
  28 N :   -0.036819
  29 C :    0.087680
  30 O :   -0.161845
  31 C :    0.044339
  32 C :   -0.059905
  33 C :    0.005666
  34 C :   -0.029061
  35 C :   -0.167348
  36 S :    0.476386
  37 C :   -0.169783
  38 C :   -0.112249
  39 C :   -0.020653
  40 C :    0.099048
  41 O :   -0.103136
  42 C :   -0.059392
  43 C :    0.002818
  44 C :   -0.007710
  45 C :   -0.027840
  46 C :    0.046260
  47 O :    0.031426
  48 C :    0.034393
  49 C :   -0.042935
  50 C :   -0.123228
  51 C :    0.169761
  52 F :   -0.070845
  53 F :   -0.053163
  54 F :   -0.071031
  55 C :   -0.035353
  56 C :   -0.026860
  57 H :    0.019605
  58 H :    0.021807
  59 H :    0.029514
  60 H :    0.030349
  61 H :    0.024478
  62 H :    0.034750
  63 H :    0.026132
  64 H :    0.055291
  65 H :    0.056760
  66 H :    0.030696
  67 H :    0.027509
  68 H :    0.030579
  69 H :    0.037712
  70 H :    0.031624
  71 H :    0.031518
  72 H :    0.027778
  73 H :    0.029472
  74 H :    0.027950
  75 H :    0.030210
  76 H :    0.043232
  77 H :    0.032356
  78 H :    0.037218
  79 H :    0.033817
  80 H :    0.035511
  81 H :    0.039783
  82 H :    0.024312
  83 H :    0.030526

  Mayer bond orders larger than 0.100000
B(  0-C ,  1-O ) :   1.1781 B(  0-C ,  4-C ) :   1.5042 B(  0-C , 57-H ) :   1.0026
B(  1-O ,  2-C ) :   1.1453 B(  2-C ,  3-C ) :   1.5761 B(  2-C , 58-H ) :   1.0019
B(  3-C ,  4-C ) :   1.2093 B(  3-C , 59-H ) :   1.0090 B(  4-C ,  5-C ) :   1.0714
B(  5-C ,  6-C ) :   1.6928 B(  5-C , 60-H ) :   0.9803 B(  6-C ,  7-C ) :   1.1264
B(  6-C , 61-H ) :   0.9801 B(  7-C ,  8-C ) :   1.6753 B(  7-C , 62-H ) :   0.9863
B(  8-C ,  9-C ) :   1.1010 B(  8-C , 63-H ) :   0.9534 B(  9-C , 10-S ) :   1.0682
B(  9-C , 13-N ) :   1.6558 B( 10-S , 11-C ) :   1.0809 B( 11-C , 12-C ) :   1.4867
B( 11-C , 16-C ) :   1.1913 B( 12-C , 13-N ) :   1.4396 B( 12-C , 14-C ) :   1.0455
B( 14-C , 15-C ) :   0.9810 B( 14-C , 64-H ) :   0.8616 B( 14-C , 65-H ) :   0.8624
B( 15-C , 16-C ) :   1.5197 B( 15-C , 19-C ) :   1.3204 B( 16-C , 17-S ) :   1.0929
B( 17-S , 18-C ) :   1.0981 B( 18-C , 19-C ) :   1.4656 B( 18-C , 20-C ) :   1.1170
B( 19-C , 66-H ) :   0.9949 B( 20-C , 21-C ) :   1.7306 B( 20-C , 67-H ) :   0.9587
B( 21-C , 22-C ) :   1.0612 B( 21-C , 68-H ) :   0.9565 B( 22-C , 23-C ) :   1.3029
B( 22-C , 34-C ) :   1.3491 B( 23-C , 24-C ) :   1.4040 B( 23-C , 69-H ) :   1.0067
B( 24-C , 25-C ) :   1.3383 B( 24-C , 29-C ) :   0.8769 B( 25-C , 26-C ) :   0.8778
B( 25-C , 33-C ) :   1.4223 B( 26-C , 27-O ) :   2.2270 B( 26-C , 28-N ) :   1.0618
B( 28-N , 29-C ) :   1.0642 B( 28-N , 31-C ) :   0.9192 B( 29-C , 30-O ) :   2.2263
B( 31-C , 32-C ) :   1.1245 B( 31-C , 70-H ) :   0.9423 B( 31-C , 71-H ) :   0.9424
B( 32-C , 72-H ) :   0.9694 B( 32-C , 73-H ) :   0.9704 B( 32-C , 74-H ) :   0.9698
B( 33-C , 34-C ) :   1.2907 B( 33-C , 75-H ) :   0.9963 B( 34-C , 35-C ) :   1.0494
B( 35-C , 36-S ) :   1.1230 B( 35-C , 39-C ) :   1.4774 B( 36-S , 37-C ) :   1.1380
B( 37-C , 38-C ) :   1.4685 B( 37-C , 43-C ) :   1.0548 B( 38-C , 39-C ) :   1.2702
B( 38-C , 40-C ) :   0.9236 B( 39-C , 76-H ) :   1.0061 B( 40-C , 41-O ) :   2.2812
B( 40-C , 42-C ) :   0.9097 B( 42-C , 43-C ) :   1.6350 B( 42-C , 44-C ) :   1.1153
B( 43-C , 77-H ) :   1.0127 B( 44-C , 45-C ) :   1.6104 B( 44-C , 78-H ) :   0.9862
B( 45-C , 46-C ) :   1.1815 B( 45-C , 79-H ) :   0.9460 B( 46-C , 47-O ) :   1.1788
B( 46-C , 50-C ) :   1.4246 B( 47-O , 48-C ) :   1.1209 B( 48-C , 49-C ) :   1.4742
B( 48-C , 55-C ) :   1.1013 B( 49-C , 50-C ) :   1.2590 B( 49-C , 80-H ) :   1.0147
B( 50-C , 51-C ) :   0.9517 B( 51-C , 52-F ) :   1.1567 B( 51-C , 53-F ) :   1.1829
B( 51-C , 54-F ) :   1.1561 B( 55-C , 56-C ) :   1.9344 B( 55-C , 81-H ) :   0.9551
B( 56-C , 82-H ) :   0.9561 B( 56-C , 83-H ) :   0.9501

-----------------------------------------------------------------------------
         ABSORPTION SPECTRUM VIA TRANSITION ELECTRIC DIPOLE MOMENTS
-----------------------------------------------------------------------------
State   Energy  Wavelength   fosc         T2         TX        TY        TZ
        (cm-1)    (nm)                  (au**2)     (au)      (au)      (au)
-----------------------------------------------------------------------------
   0   15328.7    652.4   0.436548844   9.37571   0.04294  -2.63536   1.55844
   1   18634.2    536.6   0.314732179   5.56039  -1.21471   0.02155  -2.02099
   2   21210.2    471.5   1.615469080  25.07435   2.65944   3.13009   2.86431
   3   25848.6    386.9   0.733562272   9.34276   1.64860   0.29834   2.55653
   4   26326.2    379.9   0.008246004   0.10312  -0.10484  -0.14000  -0.26931
   5   26641.9    375.3   0.030373081   0.37532  -0.28983   0.34324  -0.41653
   6   27094.0    369.1   0.123357592   1.49888   0.30396  -0.46105   1.09267
   7   29075.9    343.9   0.049245638   0.55758  -0.23100   0.45931  -0.54153
   8   30167.9    331.5   0.171050023   1.86661  -0.49963   0.59449  -1.12408
   9   31092.4    321.6   0.585355189   6.19786   1.08060  -1.19877   1.89555
  10   32229.3    310.3   0.066487827   0.67915   0.35425  -0.23561   0.70579
  11   32927.8    303.7   0.006657009   0.06656  -0.21730  -0.13526  -0.03229
  12   34583.7    289.2   0.025268462   0.24054   0.13079   0.25812  -0.39599
  13   34992.8    285.8   0.117692014   1.10725  -0.64173   0.26813  -0.78964
  14   35499.4    281.7   0.019946493   0.18498  -0.11657   0.35952  -0.20527
  15   36257.8    275.8   0.022663913   0.20578   0.11869  -0.32135   0.29737
  16   36645.8    272.9   0.110200030   0.98999   0.58908   0.04585   0.80055
  17   36782.0    271.9   0.034707727   0.31065  -0.25106  -0.12779  -0.48092
  18   37207.6    268.8   0.052630669   0.46567  -0.40973   0.11141  -0.53422
  19   37425.1    267.2   0.035281002   0.31035  -0.45371  -0.15044  -0.28612
  20   37747.9    264.9   0.065714103   0.57311   0.12646  -0.09906   0.73980
  21   38641.6    258.8   0.147725252   1.25856   0.88914   0.32209   0.60353
  22   38868.0    257.3   0.074509602   0.63110  -0.19548   0.66341  -0.39086
  23   39405.1    253.8   0.085712312   0.71609  -0.52025  -0.66606   0.04240

FINAL SINGLE POINT ENERGY     -3669.224302462654

DIPOLE MOMENT
-------------
                                X             Y             Z
Electronic contribution:    -18.89595     -42.17009      10.52850
Nuclear contribution   :     19.81193      42.47311      -8.90757
                        -----------------------------------------
Total Dipole Moment    :      0.91598       0.30302       1.62093
                        -----------------------------------------
Magnitude (a.u.)       :      1.88634
Magnitude (Debye)      :      4.79468

Rotational constants in cm-1:     0.000810     0.000508     0.000317
Rotational constants in MHz :    24.285085    15.242590     9.508922

                             ****ORCA TERMINATED NORMALLY****
TOTAL RUN TIME: 0 days 0 hours 5 minutes 29 seconds 856 msec
