                         Program Version 4.2.0 -  RELEASE  -
|  1> # ORCA input file
|  2> # SCF done       -146.276927924710          0.000616211960
|  3> ! CAM-B3LYP def2-SVP def2/J RIJCOSX Grid4 TightSCF
|  4> %maxcore 5000
|  5> %tddft
|  6>     Mode sTDDFT
|  7>     Ethresh 5.0
|  8>     maxcore 5000
|  9> end
| 10>
| 11> %pal
| 12>   nprocs 6
| 13>   end
| 14> * xyz 0 1
| 15>    C       -4.07759         7.38483        -1.86601
| 16>    O       -4.81494         7.29404        -2.97568
| 17>    C       -4.04156         6.72599        -3.92114
| 18>    C       -2.80750         6.44844        -3.43412
| 19>    C       -2.81278         6.87875        -2.06949
| 20>    C       -1.76158         6.80728        -1.09974
| 21>    C       -0.52620         6.31729        -1.34369
| 22>    C        0.49568         6.23690        -0.36217
| 23>    C        1.72390         5.72807        -0.63772
| 24>    C        2.78087         5.60389         0.29412
| 25>    S        2.61645         6.14903         1.93329
| 26>    C        4.24176         5.65473         2.27476
| 27>    N        4.75033         5.84792         3.56241
| 28>    O        5.89843         5.49417         3.77439
| 29>    O        4.00942         6.36043         4.38469
| 30>    C        4.87706         5.10143         1.19276
| 31>    C        4.05978         5.05962         0.05085
| 32>    C        4.43476         4.53117        -1.22569
| 33>    C        5.64347         4.06990        -1.60226
| 34>    C        5.82317         3.59748        -2.94060
| 35>    N        7.01773         3.17657        -3.47546
| 36>    C        6.86926         2.82085        -4.77915
| 37>    C        5.54275         3.00923        -5.11461
| 38>    C        4.89400         3.49504        -3.95224
| 39>    S        3.17737         3.70374        -4.33025
| 40>    O        2.75641         5.07917        -4.23837
| 41>    O        2.36213         2.74751        -3.62995
| 42>    C        3.41454         3.20213        -6.06048
| 43>    C        4.70703         2.86269        -6.26908
| 44>    C        2.27609         3.23549        -6.89681
| 45>    C        2.25970         3.00427        -8.23346
| 46>    C        1.09425         3.06848        -9.03739
| 47>    S       -0.45477         3.39350        -8.32212
| 48>    C       -1.19856         3.29332        -9.87924
| 49>    N       -2.58453         3.49248        -9.97698
| 50>    O       -3.09013         3.40363       -11.08026
| 51>    O       -3.18154         3.74004        -8.94469
| 52>    C       -0.31516         3.02816       -10.89174
| 53>    C        1.00981         2.89764       -10.43256
| 54>    C        2.14450         2.64683       -11.27330
| 55>    C        2.11157         2.49719       -12.61240
| 56>    C        3.27059         2.27753       -13.41363
| 57>    C        3.31254         2.13740       -14.77160
| 58>    C        4.61856         1.95023       -15.29042
| 59>    C        5.59984         1.94833       -14.26469
| 60>    S        4.87466         2.17511       -12.69755
| 61>    C        6.94329         1.78925       -14.52392
| 62>    C        7.33517         1.62749       -15.85025
| 63>    C        6.35563         1.62839       -16.87658
| 64>    C        5.01150         1.78530       -16.61768
| 65>    S        7.09005         1.41404       -18.44372
| 66>    C        8.66141         1.32919       -17.72025
| 67>    C        8.64850         1.45281       -16.37735
| 68>    H       -4.53469         7.81806        -0.99808
| 69>    H       -4.48071         6.57148        -4.88656
| 70>    H       -1.99700         5.99557        -3.96495
| 71>    H       -2.00595         7.17553        -0.11130
| 72>    H       -0.27480         5.95378        -2.33021
| 73>    H        0.26949         6.59102         0.63660
| 74>    H        1.91539         5.39084        -1.64710
| 75>    H        5.88754         4.74056         1.24695
| 76>    H        3.65678         4.50824        -1.97283
| 77>    H        6.49630         4.05415        -0.94011
| 78>    H        7.88583         3.14275        -2.96423
| 79>    H        7.69498         2.46759        -5.36364
| 80>    H        5.10124         2.50847        -7.20864
| 81>    H        1.35588         3.49377        -6.38723
| 82>    H        3.18653         2.76329        -8.73294
| 83>    H       -0.63086         2.93966       -11.91469
| 84>    H        3.10744         2.58601       -10.78628
| 85>    H        1.18035         2.54669       -13.15858
| 86>    H        2.43432         2.17049       -15.39189
| 87>    H        7.67270         1.79146       -13.72938
| 88>    H        4.28195         1.78373       -17.41181
| 89>    H        9.51008         1.19007       -18.36146
| 90>    H        9.53048         1.42475       -15.76297
| 91> *
| 92>
| 93>                          ****END OF INPUT****

CARTESIAN COORDINATES (ANGSTROEM)
---------------------------------
  C     -4.077590    7.384830   -1.866010
  O     -4.814940    7.294040   -2.975680
  C     -4.041560    6.725990   -3.921140
  C     -2.807500    6.448440   -3.434120
  C     -2.812780    6.878750   -2.069490
  C     -1.761580    6.807280   -1.099740
  C     -0.526200    6.317290   -1.343690
  C      0.495680    6.236900   -0.362170
  C      1.723900    5.728070   -0.637720
  C      2.780870    5.603890    0.294120
  S      2.616450    6.149030    1.933290
  C      4.241760    5.654730    2.274760
  N      4.750330    5.847920    3.562410
  O      5.898430    5.494170    3.774390
  O      4.009420    6.360430    4.384690
  C      4.877060    5.101430    1.192760
  C      4.059780    5.059620    0.050850
  C      4.434760    4.531170   -1.225690
  C      5.643470    4.069900   -1.602260
  C      5.823170    3.597480   -2.940600
  N      7.017730    3.176570   -3.475460
  C      6.869260    2.820850   -4.779150
  C      5.542750    3.009230   -5.114610
  C      4.894000    3.495040   -3.952240
  S      3.177370    3.703740   -4.330250
  O      2.756410    5.079170   -4.238370
  O      2.362130    2.747510   -3.629950
  C      3.414540    3.202130   -6.060480
  C      4.707030    2.862690   -6.269080
  C      2.276090    3.235490   -6.896810
  C      2.259700    3.004270   -8.233460
  C      1.094250    3.068480   -9.037390
  S     -0.454770    3.393500   -8.322120
  C     -1.198560    3.293320   -9.879240
  N     -2.584530    3.492480   -9.976980
  O     -3.090130    3.403630  -11.080260
  O     -3.181540    3.740040   -8.944690
  C     -0.315160    3.028160  -10.891740
  C      1.009810    2.897640  -10.432560
  C      2.144500    2.646830  -11.273300
  C      2.111570    2.497190  -12.612400
  C      3.270590    2.277530  -13.413630
  C      3.312540    2.137400  -14.771600
  C      4.618560    1.950230  -15.290420
  C      5.599840    1.948330  -14.264690
  S      4.874660    2.175110  -12.697550
  C      6.943290    1.789250  -14.523920
  C      7.335170    1.627490  -15.850250
  C      6.355630    1.628390  -16.876580
  C      5.011500    1.785300  -16.617680
  S      7.090050    1.414040  -18.443720
  C      8.661410    1.329190  -17.720250
  C      8.648500    1.452810  -16.377350
  H     -4.534690    7.818060   -0.998080
  H     -4.480710    6.571480   -4.886560
  H     -1.997000    5.995570   -3.964950
  H     -2.005950    7.175530   -0.111300
  H     -0.274800    5.953780   -2.330210
  H      0.269490    6.591020    0.636600
  H      1.915390    5.390840   -1.647100
  H      5.887540    4.740560    1.246950
  H      3.656780    4.508240   -1.972830
  H      6.496300    4.054150   -0.940110
  H      7.885830    3.142750   -2.964230
  H      7.694980    2.467590   -5.363640
  H      5.101240    2.508470   -7.208640
  H      1.355880    3.493770   -6.387230
  H      3.186530    2.763290   -8.732940
  H     -0.630860    2.939660  -11.914690
  H      3.107440    2.586010  -10.786280
  H      1.180350    2.546690  -13.158580
  H      2.434320    2.170490  -15.391890
  H      7.672700    1.791460  -13.729380
  H      4.281950    1.783730  -17.411810
  H      9.510080    1.190070  -18.361460
  H      9.530480    1.424750  -15.762970

 Total Charge           Charge          ....    0
 Multiplicity           Mult            ....    1
 Number of Electrons    NEL             ....  408
 Basis Dimension        Dim             ....  877

ORBITAL ENERGIES
----------------

  NO   OCC          E(Eh)            E(eV)
   0   2.0000     -89.148041     -2425.8415
   1   2.0000     -88.980233     -2421.2752
   2   2.0000     -88.970673     -2421.0151
   3   2.0000     -88.951132     -2420.4834
   4   2.0000     -88.948697     -2420.4171
   5   2.0000     -19.284161      -524.7487
   6   2.0000     -19.240962      -523.5732
   7   2.0000     -19.240166      -523.5515
   8   2.0000     -19.230882      -523.2989
   9   2.0000     -19.229651      -523.2654
  10   2.0000     -19.200686      -522.4772
  11   2.0000     -19.196173      -522.3544
  12   2.0000     -14.651610      -398.6906
  13   2.0000     -14.641483      -398.4150
  14   2.0000     -14.492968      -394.3737
  15   2.0000     -10.347868      -281.5798
  16   2.0000     -10.337678      -281.3025
  17   2.0000     -10.336529      -281.2713
  18   2.0000     -10.329489      -281.0797
  19   2.0000     -10.328275      -281.0467
  20   2.0000     -10.321355      -280.8583
  21   2.0000     -10.317587      -280.7558
  22   2.0000     -10.316327      -280.7215
  23   2.0000     -10.313204      -280.6365
  24   2.0000     -10.312755      -280.6243
  25   2.0000     -10.310158      -280.5536
  26   2.0000     -10.307517      -280.4818
  27   2.0000     -10.306765      -280.4613
  28   2.0000     -10.306560      -280.4558
  29   2.0000     -10.306111      -280.4435
  30   2.0000     -10.303975      -280.3854
  31   2.0000     -10.300920      -280.3023
  32   2.0000     -10.300174      -280.2820
  33   2.0000     -10.299410      -280.2612
  34   2.0000     -10.296003      -280.1685
  35   2.0000     -10.294097      -280.1166
  36   2.0000     -10.293616      -280.1035
  37   2.0000     -10.293380      -280.0971
  38   2.0000     -10.293266      -280.0940
  39   2.0000     -10.292340      -280.0688
  40   2.0000     -10.285642      -279.8865
  41   2.0000     -10.285240      -279.8756
  42   2.0000     -10.284703      -279.8610
  43   2.0000     -10.284643      -279.8594
  44   2.0000     -10.284235      -279.8483
  45   2.0000     -10.283804      -279.8365
  46   2.0000     -10.281665      -279.7783
  47   2.0000     -10.280775      -279.7541
  48   2.0000     -10.277413      -279.6626
  49   2.0000     -10.275683      -279.6156
  50   2.0000     -10.269498      -279.4472
  51   2.0000     -10.268864      -279.4300
  52   2.0000     -10.260643      -279.2063
  53   2.0000      -8.212294      -223.4679
  54   2.0000      -8.075567      -219.7473
  55   2.0000      -8.066051      -219.4884
  56   2.0000      -8.046973      -218.9693
  57   2.0000      -8.045073      -218.9176
  58   2.0000      -6.181352      -168.2031
  59   2.0000      -6.181082      -168.1958
  60   2.0000      -6.180523      -168.1806
  61   2.0000      -6.044972      -164.4920
  62   2.0000      -6.040702      -164.3759
  63   2.0000      -6.037441      -164.2871
  64   2.0000      -6.035415      -164.2320
  65   2.0000      -6.031175      -164.1166
  66   2.0000      -6.027987      -164.0299
  67   2.0000      -6.016566      -163.7191
  68   2.0000      -6.014728      -163.6691
  69   2.0000      -6.012726      -163.6146
  70   2.0000      -6.010496      -163.5539
  71   2.0000      -6.008139      -163.4898
  72   2.0000      -6.006414      -163.4428
  73   2.0000      -1.321655       -35.9641
  74   2.0000      -1.310215       -35.6528
  75   2.0000      -1.203708       -32.7546
  76   2.0000      -1.203466       -32.7480
  77   2.0000      -1.140464       -31.0336
  78   2.0000      -1.128730       -30.7143
  79   2.0000      -1.106088       -30.0982
  80   2.0000      -1.079139       -29.3649
  81   2.0000      -1.015813       -27.6417
  82   2.0000      -1.005337       -27.3566
  83   2.0000      -1.000846       -27.2344
  84   2.0000      -0.976088       -26.5607
  85   2.0000      -0.972114       -26.4526
  86   2.0000      -0.931394       -25.3445
  87   2.0000      -0.926251       -25.2046
  88   2.0000      -0.923238       -25.1226
  89   2.0000      -0.921061       -25.0633
  90   2.0000      -0.905021       -24.6269
  91   2.0000      -0.901614       -24.5342
  92   2.0000      -0.884499       -24.0684
  93   2.0000      -0.879817       -23.9410
  94   2.0000      -0.876028       -23.8379
  95   2.0000      -0.860786       -23.4232
  96   2.0000      -0.855609       -23.2823
  97   2.0000      -0.843141       -22.9430
  98   2.0000      -0.839681       -22.8489
  99   2.0000      -0.831792       -22.6342
 100   2.0000      -0.825923       -22.4745
 101   2.0000      -0.816725       -22.2242
 102   2.0000      -0.805742       -21.9253
 103   2.0000      -0.792412       -21.5626
 104   2.0000      -0.788306       -21.4509
 105   2.0000      -0.782134       -21.2829
 106   2.0000      -0.771671       -20.9982
 107   2.0000      -0.752557       -20.4781
 108   2.0000      -0.728859       -19.8333
 109   2.0000      -0.721423       -19.6309
 110   2.0000      -0.697787       -18.9878
 111   2.0000      -0.691519       -18.8172
 112   2.0000      -0.687825       -18.7167
 113   2.0000      -0.677669       -18.4403
 114   2.0000      -0.669684       -18.2230
 115   2.0000      -0.663768       -18.0620
 116   2.0000      -0.659075       -17.9344
 117   2.0000      -0.652401       -17.7527
 118   2.0000      -0.648690       -17.6518
 119   2.0000      -0.647998       -17.6329
 120   2.0000      -0.636605       -17.3229
 121   2.0000      -0.633122       -17.2281
 122   2.0000      -0.632726       -17.2174
 123   2.0000      -0.629969       -17.1423
 124   2.0000      -0.628577       -17.1044
 125   2.0000      -0.624622       -16.9968
 126   2.0000      -0.622471       -16.9383
 127   2.0000      -0.621780       -16.9195
 128   2.0000      -0.619591       -16.8599
 129   2.0000      -0.609394       -16.5825
 130   2.0000      -0.600781       -16.3481
 131   2.0000      -0.594869       -16.1872
 132   2.0000      -0.588420       -16.0117
 133   2.0000      -0.585870       -15.9423
 134   2.0000      -0.579739       -15.7755
 135   2.0000      -0.572272       -15.5723
 136   2.0000      -0.569637       -15.5006
 137   2.0000      -0.566598       -15.4179
 138   2.0000      -0.553601       -15.0643
 139   2.0000      -0.550864       -14.9898
 140   2.0000      -0.549597       -14.9553
 141   2.0000      -0.547969       -14.9110
 142   2.0000      -0.541893       -14.7457
 143   2.0000      -0.539090       -14.6694
 144   2.0000      -0.536086       -14.5877
 145   2.0000      -0.531867       -14.4728
 146   2.0000      -0.528100       -14.3703
 147   2.0000      -0.526538       -14.3278
 148   2.0000      -0.519514       -14.1367
 149   2.0000      -0.517465       -14.0809
 150   2.0000      -0.515155       -14.0181
 151   2.0000      -0.513073       -13.9614
 152   2.0000      -0.507604       -13.8126
 153   2.0000      -0.502788       -13.6815
 154   2.0000      -0.501738       -13.6530
 155   2.0000      -0.494502       -13.4561
 156   2.0000      -0.492952       -13.4139
 157   2.0000      -0.486778       -13.2459
 158   2.0000      -0.484073       -13.1723
 159   2.0000      -0.481393       -13.0994
 160   2.0000      -0.480011       -13.0618
 161   2.0000      -0.473729       -12.8908
 162   2.0000      -0.471316       -12.8252
 163   2.0000      -0.468670       -12.7532
 164   2.0000      -0.465586       -12.6692
 165   2.0000      -0.458089       -12.4652
 166   2.0000      -0.457596       -12.4518
 167   2.0000      -0.456960       -12.4345
 168   2.0000      -0.453496       -12.3403
 169   2.0000      -0.442412       -12.0386
 170   2.0000      -0.438373       -11.9287
 171   2.0000      -0.434605       -11.8262
 172   2.0000      -0.431438       -11.7400
 173   2.0000      -0.426560       -11.6073
 174   2.0000      -0.421936       -11.4815
 175   2.0000      -0.419561       -11.4168
 176   2.0000      -0.418857       -11.3977
 177   2.0000      -0.411634       -11.2011
 178   2.0000      -0.408513       -11.1162
 179   2.0000      -0.405996       -11.0477
 180   2.0000      -0.404198       -10.9988
 181   2.0000      -0.394828       -10.7438
 182   2.0000      -0.387471       -10.5436
 183   2.0000      -0.382695       -10.4136
 184   2.0000      -0.381416       -10.3789
 185   2.0000      -0.378846       -10.3089
 186   2.0000      -0.378218       -10.2918
 187   2.0000      -0.375270       -10.2116
 188   2.0000      -0.371178       -10.1003
 189   2.0000      -0.368724       -10.0335
 190   2.0000      -0.367752       -10.0071
 191   2.0000      -0.366151        -9.9635
 192   2.0000      -0.357665        -9.7326
 193   2.0000      -0.341996        -9.3062
 194   2.0000      -0.339966        -9.2509
 195   2.0000      -0.333529        -9.0758
 196   2.0000      -0.332917        -9.0591
 197   2.0000      -0.318870        -8.6769
 198   2.0000      -0.305994        -8.3265
 199   2.0000      -0.291516        -7.9325
 200   2.0000      -0.280069        -7.6211
 201   2.0000      -0.269525        -7.3341
 202   2.0000      -0.252095        -6.8599
 203   2.0000      -0.242825        -6.6076
 204   0.0000      -0.086636        -2.3575
 205   0.0000      -0.067916        -1.8481
 206   0.0000      -0.049346        -1.3428
 207   0.0000      -0.039483        -1.0744
 208   0.0000      -0.023853        -0.6491

MULLIKEN ATOMIC CHARGES
-----------------------
   0 C :    0.078634
   1 O :   -0.176140
   2 C :    0.138014
   3 C :   -0.043289
   4 C :    0.038494
   5 C :    0.033661
   6 C :    0.005977
   7 C :    0.018070
   8 C :   -0.025640
   9 C :   -0.062384
  10 S :    0.173768
  11 C :   -0.006940
  12 N :    0.273689
  13 O :   -0.256716
  14 O :   -0.261469
  15 C :    0.002125
  16 C :    0.127370
  17 C :   -0.003396
  18 C :    0.018396
  19 C :    0.009654
  20 N :   -0.035419
  21 C :   -0.000039
  22 C :    0.061315
  23 C :   -0.075514
  24 S :    0.788158
  25 O :   -0.460269
  26 O :   -0.457667
  27 C :   -0.070897
  28 C :    0.032703
  29 C :    0.071796
  30 C :   -0.003251
  31 C :   -0.086630
  32 S :    0.180762
  33 C :    0.004445
  34 N :    0.272578
  35 O :   -0.246023
  36 O :   -0.255388
  37 C :   -0.000188
  38 C :    0.128586
  39 C :   -0.036893
  40 C :    0.037118
  41 C :   -0.025062
  42 C :   -0.037108
  43 C :    0.120943
  44 C :   -0.038921
  45 S :    0.069620
  46 C :   -0.048980
  47 C :    0.089161
  48 C :   -0.069902
  49 C :   -0.051049
  50 S :    0.098102
  51 C :   -0.056573
  52 C :    0.026102
  53 H :    0.005332
  54 H :    0.016418
  55 H :   -0.003017
  56 H :   -0.018997
  57 H :    0.004025
  58 H :   -0.001881
  59 H :    0.005759
  60 H :    0.001397
  61 H :   -0.018082
  62 H :   -0.041232
  63 H :    0.133523
  64 H :    0.002079
  65 H :   -0.007908
  66 H :    0.012162
  67 H :   -0.006831
  68 H :    0.008008
  69 H :   -0.012092
  70 H :   -0.012301
  71 H :   -0.021892
  72 H :   -0.034821
  73 H :   -0.029810
  74 H :    0.030274
  75 H :   -0.017603
Sum of atomic charges:   -0.0000000

LOEWDIN ATOMIC CHARGES
----------------------
   0 C :    0.037682
   1 O :    0.026486
   2 C :    0.038400
   3 C :   -0.064529
   4 C :   -0.080636
   5 C :    0.003147
   6 C :   -0.031764
   7 C :    0.007102
   8 C :   -0.057314
   9 C :   -0.125075
  10 S :    0.476263
  11 C :   -0.201288
  12 N :    0.273689
  13 O :   -0.223257
  14 O :   -0.227470
  15 C :   -0.004590
  16 C :   -0.073579
  17 C :    0.016409
  18 C :   -0.051404
  19 C :    0.010264
  20 N :    0.102824
  21 C :    0.004278
  22 C :   -0.085181
  23 C :   -0.232382
  24 S :    1.175201
  25 O :   -0.506202
  26 O :   -0.501319
  27 C :   -0.165407
  28 C :    0.010532
  29 C :   -0.026479
  30 C :   -0.029165
  31 C :   -0.145692
  32 S :    0.483690
  33 C :   -0.191796
  34 N :    0.273290
  35 O :   -0.212076
  36 O :   -0.221858
  37 C :   -0.006422
  38 C :   -0.055368
  39 C :   -0.030647
  40 C :   -0.024167
  41 C :   -0.150258
  42 C :   -0.046322
  43 C :   -0.048084
  44 C :   -0.150271
  45 S :    0.375471
  46 C :   -0.038848
  47 C :   -0.044017
  48 C :   -0.157002
  49 C :   -0.031981
  50 S :    0.391306
  51 C :   -0.158271
  52 C :   -0.063515
  53 H :    0.022132
  54 H :    0.025309
  55 H :    0.031852
  56 H :    0.029922
  57 H :    0.034204
  58 H :    0.023147
  59 H :    0.036737
  60 H :    0.039460
  61 H :    0.024627
  62 H :    0.025086
  63 H :    0.097320
  64 H :    0.026336
  65 H :    0.036029
  66 H :    0.028482
  67 H :    0.033491
  68 H :    0.041936
  69 H :    0.020136
  70 H :    0.034095
  71 H :    0.030878
  72 H :    0.029418
  73 H :    0.031099
  74 H :    0.025412
  75 H :    0.030496

  Mayer bond orders larger than 0.100000
B(  0-C ,  1-O ) :   1.1783 B(  0-C ,  4-C ) :   1.4879 B(  0-C , 53-H ) :   1.0069
B(  1-O ,  2-C ) :   1.1367 B(  2-C ,  3-C ) :   1.5970 B(  2-C , 54-H ) :   0.9996
B(  3-C ,  4-C ) :   1.2131 B(  3-C , 55-H ) :   1.0030 B(  4-C ,  5-C ) :   1.0822
B(  5-C ,  6-C ) :   1.6651 B(  5-C , 56-H ) :   0.9797 B(  6-C ,  7-C ) :   1.1456
B(  6-C , 57-H ) :   0.9871 B(  7-C ,  8-C ) :   1.6219 B(  7-C , 58-H ) :   0.9863
B(  8-C ,  9-C ) :   1.1704 B(  8-C , 59-H ) :   0.9680 B(  9-C , 10-S ) :   1.1279
B(  9-C , 16-C ) :   1.3743 B( 10-S , 11-C ) :   1.1059 B( 11-C , 12-N ) :   0.9673
B( 11-C , 15-C ) :   1.4911 B( 12-N , 13-O ) :   1.5272 B( 12-N , 14-O ) :   1.5146
B( 13-O , 14-O ) :   0.2605 B( 15-C , 16-C ) :   1.2204 B( 15-C , 60-H ) :   0.9968
B( 16-C , 17-C ) :   1.1106 B( 17-C , 18-C ) :   1.6972 B( 17-C , 61-H ) :   0.9665
B( 18-C , 19-C ) :   1.0960 B( 18-C , 62-H ) :   0.9689 B( 19-C , 20-N ) :   1.2272
B( 19-C , 23-C ) :   1.4969 B( 20-N , 21-C ) :   1.2178 B( 20-N , 63-H ) :   0.9310
B( 21-C , 22-C ) :   1.4325 B( 21-C , 64-H ) :   0.9865 B( 22-C , 23-C ) :   1.3387
B( 22-C , 28-C ) :   1.0593 B( 23-C , 24-S ) :   0.8362 B( 24-S , 25-O ) :   1.6681
B( 24-S , 26-O ) :   1.7068 B( 24-S , 27-C ) :   0.8117 B( 27-C , 28-C ) :   1.6763
B( 27-C , 29-C ) :   1.1373 B( 28-C , 65-H ) :   0.9894 B( 29-C , 30-C ) :   1.6744
B( 29-C , 66-H ) :   0.9474 B( 30-C , 31-C ) :   1.1885 B( 30-C , 67-H ) :   0.9710
B( 31-C , 32-S ) :   1.1189 B( 31-C , 38-C ) :   1.3917 B( 32-S , 33-C ) :   1.1186
B( 33-C , 34-N ) :   0.9549 B( 33-C , 37-C ) :   1.5015 B( 34-N , 35-O ) :   1.5352
B( 34-N , 36-O ) :   1.5210 B( 35-O , 36-O ) :   0.2665 B( 37-C , 38-C ) :   1.2142
B( 37-C , 68-H ) :   0.9968 B( 38-C , 39-C ) :   1.1063 B( 39-C , 40-C ) :   1.6862
B( 39-C , 69-H ) :   0.9686 B( 40-C , 41-C ) :   1.1368 B( 40-C , 70-H ) :   0.9795
B( 41-C , 42-C ) :   1.5515 B( 41-C , 45-S ) :   1.0594 B( 42-C , 43-C ) :   1.1336
B( 42-C , 71-H ) :   1.0071 B( 43-C , 44-C ) :   1.2828 B( 43-C , 49-C ) :   1.3296
B( 44-C , 45-S ) :   1.0359 B( 44-C , 46-C ) :   1.3932 B( 46-C , 47-C ) :   1.3312
B( 46-C , 49-C ) :   0.1029 B( 46-C , 72-H ) :   1.0010 B( 47-C , 48-C ) :   1.2858
B( 47-C , 52-C ) :   1.1611 B( 48-C , 49-C ) :   1.3879 B( 48-C , 50-S ) :   1.0544
B( 49-C , 73-H ) :   1.0030 B( 50-S , 51-C ) :   1.1151 B( 51-C , 52-C ) :   1.6450
B( 51-C , 74-H ) :   0.9686 B( 52-C , 75-H ) :   0.9983

-----------------------------------------------------------------------------
         ABSORPTION SPECTRUM VIA TRANSITION ELECTRIC DIPOLE MOMENTS
-----------------------------------------------------------------------------
State   Energy  Wavelength   fosc         T2         TX        TY        TZ
        (cm-1)    (nm)                  (au**2)     (au)      (au)      (au)
-----------------------------------------------------------------------------
   0   20153.1    496.2   0.541767279   8.85007   0.14552   0.68351   2.89166
   1   22239.9    449.6   0.332278580   4.91863  -0.91165   0.04289  -2.02131
   2   22948.9    435.8   0.908892977  13.03846  -3.15225   0.69179  -1.61963
   3   26006.1    384.5   0.430994019   5.45597  -1.76650  -0.07308  -1.52647
   4   27458.9    364.2   0.734050595   8.80074  -1.68335   0.70752   2.33805
   5   27848.3    359.1   0.140357596   1.65925   1.15143  -0.57264   0.07451
   6   28594.4    349.7   0.466031247   5.36549  -1.80712   0.27737   1.42227
   7   29207.5    342.4   0.094984261   1.07061   0.67407  -0.43079  -0.65625
   8   29572.7    338.1   0.259260930   2.88617   1.61862  -0.07423   0.51062
   9   31758.4    314.9   0.193714748   2.00807  -0.60146   0.43877   1.20574
  10   32245.4    310.1   0.088838046   0.90700  -0.36705   0.17627   0.86093
  11   32557.9    307.1   0.000860453   0.00870  -0.09100   0.00194   0.02040
  12   32631.0    306.5   0.000074368   0.00075  -0.01765  -0.01588  -0.01366
  13   32920.2    303.8   0.036335009   0.36336  -0.56103   0.21693   0.03929
  14   33318.1    300.1   0.329929139   3.25999  -1.72336   0.28168   0.45898
  15   34805.8    287.3   0.141192226   1.33547   0.84834  -0.33089  -0.71155
  16   35501.5    281.7   0.028973068   0.26867  -0.50140   0.10911   0.07325
  17   35912.9    278.5   0.005478451   0.05022   0.06964   0.12805  -0.17022
  18   36111.4    276.9   0.242523572   2.21098  -1.42858   0.29811   0.28509
  19   36281.0    275.6   0.008044943   0.07300  -0.06095   0.08011  -0.25073
  20   36637.0    272.9   0.123082471   1.10599  -0.35372   0.26672   0.95380
  21   36931.2    270.8   0.123553594   1.10138   0.56829  -0.18864  -0.86188
  22   37572.0    266.2   0.133709033   1.17158   0.51332   0.20729   0.93012
  23   37903.4    263.8   0.038676331   0.33592  -0.05026   0.21297   0.53670
  24   39228.0    254.9   0.051841333   0.43507   0.25009  -0.08692  -0.60412
  25   39282.1    254.6   0.009698590   0.08128   0.16213  -0.10914  -0.20757
  26   39736.8    251.7   0.087317776   0.72341  -0.50740   0.00621  -0.68258
  27   39769.3    251.5   0.107451827   0.88949   0.80869  -0.02165   0.48481
  28   40076.9    249.5   0.010813866   0.08883  -0.03878  -0.02898  -0.29409

FINAL SINGLE POINT ENERGY     -4140.050008514414

DIPOLE MOMENT
-------------
                                X             Y             Z
Electronic contribution:     -0.64340      -1.78410       3.41689
Nuclear contribution   :      3.86701       0.79760      -6.20642
                        -----------------------------------------
Total Dipole Moment    :      3.22361      -0.98650      -2.78953
                        -----------------------------------------
Magnitude (a.u.)       :      4.37565
Magnitude (Debye)      :     11.12203

Rotational constants in cm-1:     0.001830     0.000472     0.000381
Rotational constants in MHz :    54.848413    14.150704    11.410431

                             ****ORCA TERMINATED NORMALLY****
TOTAL RUN TIME: 0 days 0 hours 5 minutes 4 seconds 854 msec
