                         Program Version 4.2.0 -  RELEASE  -
|  1> # ORCA input file
|  2> # SCF done       -161.705624075807          0.000532126049
|  3> ! CAM-B3LYP def2-SVP def2/J RIJCOSX Grid4 TightSCF
|  4> %maxcore 5000
|  5> %tddft
|  6>     Mode sTDDFT
|  7>     Ethresh 5.0
|  8>     maxcore 5000
|  9> end
| 10>
| 11> %pal
| 12>   nprocs 6
| 13>   end
| 14> * xyz 0 1
| 15>    C      -12.24679        20.72064         3.26050
| 16>    O      -13.28195        19.90088         3.48465
| 17>    C      -12.83563        18.64449         3.29949
| 18>    C      -11.52375        18.64075         2.95793
| 19>    C      -11.11489        20.01166         2.92714
| 20>    C       -9.82850        20.56382         2.62720
| 21>    C       -8.72795        19.84187         2.30797
| 22>    C       -7.46728        20.41902         2.03125
| 23>    C       -6.35173        19.69043         1.72737
| 24>    C       -5.09400        20.25227         1.47868
| 25>    C       -3.95526        19.53090         1.19820
| 26>    C       -2.65788        20.04119         0.97566
| 27>    C       -1.70995        19.08499         0.74590
| 28>    C       -2.20996        17.76923         0.76672
| 29>    S       -3.92766        17.77685         1.08670
| 30>    C       -1.50382        16.58874         0.57787
| 31>    C       -0.12149        16.43546         0.36831
| 32>    C        0.27409        15.13382         0.23416
| 33>    C       -0.77639        14.19868         0.32217
| 34>    S       -2.29529        15.02757         0.58980
| 35>    C       -0.65123        12.82770         0.21472
| 36>    C       -1.66675        11.88229         0.26110
| 37>    S       -3.38387        12.21262         0.44791
| 38>    C       -3.87665        10.51124         0.35250
| 39>    C       -2.71056         9.71908         0.19627
| 40>    C       -1.52864        10.49899         0.14858
| 41>    O       -0.43750         9.73280        -0.00939
| 42>    C       -0.90361         8.45381        -0.06438
| 43>    N        0.03068         7.42978        -0.22427
| 44>    O       -0.40499         6.28183        -0.26679
| 45>    O        1.21007         7.72286        -0.30650
| 46>    C       -2.27758         8.38663         0.05536
| 47>    C       -5.23301        10.27626         0.41849
| 48>    C       -5.98839         9.10884         0.36883
| 49>    C       -7.39399         9.09624         0.39692
| 50>    C       -7.95312         7.84681         0.32316
| 51>    C       -7.01241         6.81128         0.24097
| 52>    S       -5.39133         7.47323         0.25876
| 53>    C       -7.23842         5.44251         0.14161
| 54>    C       -8.48178         4.78585         0.07622
| 55>    C       -8.36188         3.43296        -0.03229
| 56>    C       -7.02409         2.95395        -0.05272
| 57>    S       -5.91651         4.29413         0.10843
| 58>    C       -6.72073         1.62796        -0.23658
| 59>    C       -5.49176         0.93041        -0.35116
| 60>    C       -5.53829        -0.42072        -0.71771
| 61>    C       -4.40488        -1.19436        -0.87809
| 62>    C       -3.13169        -0.67898        -0.67483
| 63>    C       -3.03622         0.68451        -0.27506
| 64>    C       -4.19755         1.48291        -0.10745
| 65>    N       -4.06607         2.74710         0.32317
| 66>    C       -2.87795         3.24457         0.56957
| 67>    C       -2.80793         4.62871         1.13192
| 68>    C       -2.97116         4.58867         2.65306
| 69>    C       -1.71165         2.45460         0.34742
| 70>    C       -0.33616         3.00207         0.56772
| 71>    C        0.75596         2.00031         0.21843
| 72>    N       -1.81901         1.21545        -0.05540
| 73>    C       -1.90902        -1.43624        -0.83961
| 74>    C       -1.81191        -2.71642        -1.19155
| 75>    H      -12.41684        21.77425         3.36318
| 76>    H      -13.54106        17.84943         3.43968
| 77>    H      -10.91904        17.78217         2.75367
| 78>    H       -9.76029        21.64324         2.67106
| 79>    H       -8.79239        18.76327         2.26320
| 80>    H       -7.39189        21.49835         2.07463
| 81>    H       -6.42716        18.61069         1.68299
| 82>    H       -4.99550        21.32957         1.52026
| 83>    H       -2.46058        21.09863         0.99661
| 84>    H       -0.67221        19.29680         0.56072
| 85>    H        0.54759        17.27587         0.32723
| 86>    H        1.29047        14.82123         0.07202
| 87>    H        0.34594        12.43207         0.07023
| 88>    H       -2.84988         7.48401         0.03732
| 89>    H       -5.83094        11.17578         0.51637
| 90>    H       -7.96164        10.00766         0.46358
| 91>    H       -9.01173         7.65988         0.32783
| 92>    H       -9.42140         5.30938         0.09881
| 93>    H       -9.19569         2.75643        -0.10853
| 94>    H       -7.59449         0.99356        -0.35178
| 95>    H       -6.50540        -0.87087        -0.89421
| 96>    H       -4.52042        -2.22616        -1.17251
| 97>    H       -3.62205         5.21573         0.70956
| 98>    H       -1.86103         5.09346         0.86554
| 99>    H       -3.93183         4.15004         2.91303
|100>    H       -2.92642         5.59609         3.05870
|101>    H       -2.18425         3.99464         3.11305
|102>    H       -0.24299         3.30120         1.61549
|103>    H       -0.21916         3.90821        -0.03253
|104>    H        0.66691         1.10935         0.83492
|105>    H        1.73418         2.44575         0.37981
|106>    H        0.67319         1.70295        -0.82331
|107>    H       -1.01407        -0.86121        -0.64589
|108>    H       -2.66859        -3.33651        -1.39577
|109>    H       -0.85254        -3.19494        -1.28717
|110> *
|111>
|112>                          ****END OF INPUT****

CARTESIAN COORDINATES (ANGSTROEM)
---------------------------------
  C    -12.246790   20.720640    3.260500
  O    -13.281950   19.900880    3.484650
  C    -12.835630   18.644490    3.299490
  C    -11.523750   18.640750    2.957930
  C    -11.114890   20.011660    2.927140
  C     -9.828500   20.563820    2.627200
  C     -8.727950   19.841870    2.307970
  C     -7.467280   20.419020    2.031250
  C     -6.351730   19.690430    1.727370
  C     -5.094000   20.252270    1.478680
  C     -3.955260   19.530900    1.198200
  C     -2.657880   20.041190    0.975660
  C     -1.709950   19.084990    0.745900
  C     -2.209960   17.769230    0.766720
  S     -3.927660   17.776850    1.086700
  C     -1.503820   16.588740    0.577870
  C     -0.121490   16.435460    0.368310
  C      0.274090   15.133820    0.234160
  C     -0.776390   14.198680    0.322170
  S     -2.295290   15.027570    0.589800
  C     -0.651230   12.827700    0.214720
  C     -1.666750   11.882290    0.261100
  S     -3.383870   12.212620    0.447910
  C     -3.876650   10.511240    0.352500
  C     -2.710560    9.719080    0.196270
  C     -1.528640   10.498990    0.148580
  O     -0.437500    9.732800   -0.009390
  C     -0.903610    8.453810   -0.064380
  N      0.030680    7.429780   -0.224270
  O     -0.404990    6.281830   -0.266790
  O      1.210070    7.722860   -0.306500
  C     -2.277580    8.386630    0.055360
  C     -5.233010   10.276260    0.418490
  C     -5.988390    9.108840    0.368830
  C     -7.393990    9.096240    0.396920
  C     -7.953120    7.846810    0.323160
  C     -7.012410    6.811280    0.240970
  S     -5.391330    7.473230    0.258760
  C     -7.238420    5.442510    0.141610
  C     -8.481780    4.785850    0.076220
  C     -8.361880    3.432960   -0.032290
  C     -7.024090    2.953950   -0.052720
  S     -5.916510    4.294130    0.108430
  C     -6.720730    1.627960   -0.236580
  C     -5.491760    0.930410   -0.351160
  C     -5.538290   -0.420720   -0.717710
  C     -4.404880   -1.194360   -0.878090
  C     -3.131690   -0.678980   -0.674830
  C     -3.036220    0.684510   -0.275060
  C     -4.197550    1.482910   -0.107450
  N     -4.066070    2.747100    0.323170
  C     -2.877950    3.244570    0.569570
  C     -2.807930    4.628710    1.131920
  C     -2.971160    4.588670    2.653060
  C     -1.711650    2.454600    0.347420
  C     -0.336160    3.002070    0.567720
  C      0.755960    2.000310    0.218430
  N     -1.819010    1.215450   -0.055400
  C     -1.909020   -1.436240   -0.839610
  C     -1.811910   -2.716420   -1.191550
  H    -12.416840   21.774250    3.363180
  H    -13.541060   17.849430    3.439680
  H    -10.919040   17.782170    2.753670
  H     -9.760290   21.643240    2.671060
  H     -8.792390   18.763270    2.263200
  H     -7.391890   21.498350    2.074630
  H     -6.427160   18.610690    1.682990
  H     -4.995500   21.329570    1.520260
  H     -2.460580   21.098630    0.996610
  H     -0.672210   19.296800    0.560720
  H      0.547590   17.275870    0.327230
  H      1.290470   14.821230    0.072020
  H      0.345940   12.432070    0.070230
  H     -2.849880    7.484010    0.037320
  H     -5.830940   11.175780    0.516370
  H     -7.961640   10.007660    0.463580
  H     -9.011730    7.659880    0.327830
  H     -9.421400    5.309380    0.098810
  H     -9.195690    2.756430   -0.108530
  H     -7.594490    0.993560   -0.351780
  H     -6.505400   -0.870870   -0.894210
  H     -4.520420   -2.226160   -1.172510
  H     -3.622050    5.215730    0.709560
  H     -1.861030    5.093460    0.865540
  H     -3.931830    4.150040    2.913030
  H     -2.926420    5.596090    3.058700
  H     -2.184250    3.994640    3.113050
  H     -0.242990    3.301200    1.615490
  H     -0.219160    3.908210   -0.032530
  H      0.666910    1.109350    0.834920
  H      1.734180    2.445750    0.379810
  H      0.673190    1.702950   -0.823310
  H     -1.014070   -0.861210   -0.645890
  H     -2.668590   -3.336510   -1.395770
  H     -0.852540   -3.194940   -1.287170

 Total Charge           Charge          ....    0
 Multiplicity           Mult            ....    1
 Number of Electrons    NEL             ....  456
 Basis Dimension        Dim             .... 1035

ORBITAL ENERGIES
----------------

  NO   OCC          E(Eh)            E(eV)
   0   2.0000     -88.957883     -2420.6671
   1   2.0000     -88.950326     -2420.4614
   2   2.0000     -88.942128     -2420.2383
   3   2.0000     -88.940360     -2420.1902
   4   2.0000     -88.938383     -2420.1364
   5   2.0000     -19.302483      -525.2473
   6   2.0000     -19.283660      -524.7351
   7   2.0000     -19.236951      -523.4641
   8   2.0000     -19.234217      -523.3897
   9   2.0000     -14.647864      -398.5886
  10   2.0000     -14.413638      -392.2150
  11   2.0000     -14.405029      -391.9808
  12   2.0000     -10.374687      -282.3096
  13   2.0000     -10.341566      -281.4083
  14   2.0000     -10.317393      -280.7505
  15   2.0000     -10.314980      -280.6849
  16   2.0000     -10.314924      -280.6833
  17   2.0000     -10.311165      -280.5811
  18   2.0000     -10.310405      -280.5604
  19   2.0000     -10.308036      -280.4959
  20   2.0000     -10.307968      -280.4941
  21   2.0000     -10.307079      -280.4699
  22   2.0000     -10.306103      -280.4433
  23   2.0000     -10.304482      -280.3992
  24   2.0000     -10.304392      -280.3968
  25   2.0000     -10.304200      -280.3915
  26   2.0000     -10.302988      -280.3586
  27   2.0000     -10.302715      -280.3511
  28   2.0000     -10.300481      -280.2904
  29   2.0000     -10.299055      -280.2515
  30   2.0000     -10.298969      -280.2492
  31   2.0000     -10.292254      -280.0665
  32   2.0000     -10.284774      -279.8629
  33   2.0000     -10.284204      -279.8474
  34   2.0000     -10.283681      -279.8332
  35   2.0000     -10.283355      -279.8243
  36   2.0000     -10.283340      -279.8239
  37   2.0000     -10.282832      -279.8101
  38   2.0000     -10.281190      -279.7654
  39   2.0000     -10.280595      -279.7492
  40   2.0000     -10.279448      -279.7180
  41   2.0000     -10.278343      -279.6879
  42   2.0000     -10.278045      -279.6798
  43   2.0000     -10.276854      -279.6474
  44   2.0000     -10.276421      -279.6356
  45   2.0000     -10.276003      -279.6243
  46   2.0000     -10.272940      -279.5409
  47   2.0000     -10.272719      -279.5349
  48   2.0000     -10.271447      -279.5003
  49   2.0000     -10.269520      -279.4478
  50   2.0000     -10.268773      -279.4275
  51   2.0000     -10.268082      -279.4087
  52   2.0000     -10.266068      -279.3539
  53   2.0000     -10.261975      -279.2425
  54   2.0000     -10.259093      -279.1641
  55   2.0000     -10.256733      -279.0999
  56   2.0000     -10.253562      -279.0136
  57   2.0000     -10.253417      -279.0097
  58   2.0000     -10.251336      -278.9530
  59   2.0000     -10.237278      -278.5705
  60   2.0000      -8.052510      -219.1199
  61   2.0000      -8.045756      -218.9362
  62   2.0000      -8.038211      -218.7308
  63   2.0000      -8.034670      -218.6345
  64   2.0000      -8.033319      -218.5977
  65   2.0000      -6.022076      -163.8690
  66   2.0000      -6.018015      -163.7585
  67   2.0000      -6.015417      -163.6878
  68   2.0000      -6.014024      -163.6499
  69   2.0000      -6.011293      -163.5756
  70   2.0000      -6.007922      -163.4839
  71   2.0000      -6.007098      -163.4614
  72   2.0000      -6.004349      -163.3866
  73   2.0000      -6.003824      -163.3724
  74   2.0000      -6.003434      -163.3617
  75   2.0000      -6.000406      -163.2793
  76   2.0000      -5.999254      -163.2480
  77   2.0000      -5.998768      -163.2348
  78   2.0000      -5.995634      -163.1495
  79   2.0000      -5.994389      -163.1156
  80   2.0000      -1.315333       -35.7920
  81   2.0000      -1.223260       -33.2866
  82   2.0000      -1.202457       -32.7205
  83   2.0000      -1.130245       -30.7555
  84   2.0000      -1.070960       -29.1423
  85   2.0000      -0.997102       -27.1325
  86   2.0000      -0.992804       -27.0156
  87   2.0000      -0.989849       -26.9352
  88   2.0000      -0.983247       -26.7555
  89   2.0000      -0.969776       -26.3889
  90   2.0000      -0.965798       -26.2807
  91   2.0000      -0.950861       -25.8742
  92   2.0000      -0.930890       -25.3308
  93   2.0000      -0.916868       -24.9492
  94   2.0000      -0.901257       -24.5245
  95   2.0000      -0.897518       -24.4227
  96   2.0000      -0.892500       -24.2862
  97   2.0000      -0.887493       -24.1499
  98   2.0000      -0.884761       -24.0756
  99   2.0000      -0.871314       -23.7097
 100   2.0000      -0.862069       -23.4581
 101   2.0000      -0.850794       -23.1513
 102   2.0000      -0.843646       -22.9568
 103   2.0000      -0.842188       -22.9171
 104   2.0000      -0.839937       -22.8558
 105   2.0000      -0.835117       -22.7247
 106   2.0000      -0.826966       -22.5029
 107   2.0000      -0.819659       -22.3040
 108   2.0000      -0.816551       -22.2195
 109   2.0000      -0.813876       -22.1467
 110   2.0000      -0.811665       -22.0865
 111   2.0000      -0.800179       -21.7740
 112   2.0000      -0.781673       -21.2704
 113   2.0000      -0.777763       -21.1640
 114   2.0000      -0.759670       -20.6717
 115   2.0000      -0.751258       -20.4428
 116   2.0000      -0.743108       -20.2210
 117   2.0000      -0.732609       -19.9353
 118   2.0000      -0.723382       -19.6842
 119   2.0000      -0.707080       -19.2406
 120   2.0000      -0.703508       -19.1434
 121   2.0000      -0.686296       -18.6751
 122   2.0000      -0.685335       -18.6489
 123   2.0000      -0.679954       -18.5025
 124   2.0000      -0.674396       -18.3513
 125   2.0000      -0.669491       -18.2178
 126   2.0000      -0.663675       -18.0595
 127   2.0000      -0.658237       -17.9115
 128   2.0000      -0.649805       -17.6821
 129   2.0000      -0.647906       -17.6304
 130   2.0000      -0.641830       -17.4651
 131   2.0000      -0.637486       -17.3469
 132   2.0000      -0.632955       -17.2236
 133   2.0000      -0.632236       -17.2040
 134   2.0000      -0.627704       -17.0807
 135   2.0000      -0.622505       -16.9392
 136   2.0000      -0.617785       -16.8108
 137   2.0000      -0.616576       -16.7779
 138   2.0000      -0.612396       -16.6641
 139   2.0000      -0.604165       -16.4402
 140   2.0000      -0.600976       -16.3534
 141   2.0000      -0.598842       -16.2953
 142   2.0000      -0.596303       -16.2262
 143   2.0000      -0.592572       -16.1247
 144   2.0000      -0.586351       -15.9554
 145   2.0000      -0.581873       -15.8336
 146   2.0000      -0.576417       -15.6851
 147   2.0000      -0.567176       -15.4337
 148   2.0000      -0.559072       -15.2131
 149   2.0000      -0.551949       -15.0193
 150   2.0000      -0.548902       -14.9364
 151   2.0000      -0.546643       -14.8749
 152   2.0000      -0.541446       -14.7335
 153   2.0000      -0.541290       -14.7293
 154   2.0000      -0.538915       -14.6646
 155   2.0000      -0.529454       -14.4072
 156   2.0000      -0.527169       -14.3450
 157   2.0000      -0.522084       -14.2066
 158   2.0000      -0.519040       -14.1238
 159   2.0000      -0.517950       -14.0941
 160   2.0000      -0.509505       -13.8643
 161   2.0000      -0.507050       -13.7975
 162   2.0000      -0.505861       -13.7652
 163   2.0000      -0.502739       -13.6802
 164   2.0000      -0.498257       -13.5583
 165   2.0000      -0.497258       -13.5311
 166   2.0000      -0.494331       -13.4514
 167   2.0000      -0.493225       -13.4213
 168   2.0000      -0.491707       -13.3800
 169   2.0000      -0.490423       -13.3451
 170   2.0000      -0.488755       -13.2997
 171   2.0000      -0.484304       -13.1786
 172   2.0000      -0.482485       -13.1291
 173   2.0000      -0.479815       -13.0564
 174   2.0000      -0.472792       -12.8653
 175   2.0000      -0.472531       -12.8582
 176   2.0000      -0.469820       -12.7844
 177   2.0000      -0.465255       -12.6602
 178   2.0000      -0.464093       -12.6286
 179   2.0000      -0.461458       -12.5569
 180   2.0000      -0.456287       -12.4162
 181   2.0000      -0.453269       -12.3341
 182   2.0000      -0.451566       -12.2877
 183   2.0000      -0.450540       -12.2598
 184   2.0000      -0.450432       -12.2569
 185   2.0000      -0.441133       -12.0038
 186   2.0000      -0.437813       -11.9135
 187   2.0000      -0.435932       -11.8623
 188   2.0000      -0.434344       -11.8191
 189   2.0000      -0.433209       -11.7882
 190   2.0000      -0.430447       -11.7131
 191   2.0000      -0.427471       -11.6321
 192   2.0000      -0.426300       -11.6002
 193   2.0000      -0.424840       -11.5605
 194   2.0000      -0.422900       -11.5077
 195   2.0000      -0.422406       -11.4943
 196   2.0000      -0.419709       -11.4209
 197   2.0000      -0.418010       -11.3746
 198   2.0000      -0.411606       -11.2004
 199   2.0000      -0.408096       -11.1049
 200   2.0000      -0.407724       -11.0947
 201   2.0000      -0.407043       -11.0762
 202   2.0000      -0.403827       -10.9887
 203   2.0000      -0.401176       -10.9166
 204   2.0000      -0.388744       -10.5783
 205   2.0000      -0.387305       -10.5391
 206   2.0000      -0.383271       -10.4293
 207   2.0000      -0.380695       -10.3592
 208   2.0000      -0.373359       -10.1596
 209   2.0000      -0.364722        -9.9246
 210   2.0000      -0.362407        -9.8616
 211   2.0000      -0.359740        -9.7890
 212   2.0000      -0.347966        -9.4686
 213   2.0000      -0.342554        -9.3214
 214   2.0000      -0.333273        -9.0688
 215   2.0000      -0.331926        -9.0322
 216   2.0000      -0.327509        -8.9120
 217   2.0000      -0.322223        -8.7681
 218   2.0000      -0.317751        -8.6465
 219   2.0000      -0.311920        -8.4878
 220   2.0000      -0.307850        -8.3770
 221   2.0000      -0.305367        -8.3095
 222   2.0000      -0.296769        -8.0755
 223   2.0000      -0.292849        -7.9688
 224   2.0000      -0.272889        -7.4257
 225   2.0000      -0.252173        -6.8620
 226   2.0000      -0.218290        -5.9400
 227   2.0000      -0.179670        -4.8891
 228   0.0000      -0.100521        -2.7353
 229   0.0000      -0.066651        -1.8137
 230   0.0000      -0.052158        -1.4193
 231   0.0000      -0.028460        -0.7744
 232   0.0000      -0.012144        -0.3305

MULLIKEN ATOMIC CHARGES
-----------------------
   0 C :    0.073123
   1 O :   -0.181404
   2 C :    0.136669
   3 C :   -0.046427
   4 C :    0.047135
   5 C :    0.017755
   6 C :    0.015254
   7 C :    0.018621
   8 C :    0.005286
   9 C :   -0.012584
  10 C :   -0.019635
  11 C :    0.032865
  12 C :    0.022806
  13 C :   -0.047966
  14 S :    0.071525
  15 C :   -0.035567
  16 C :    0.018106
  17 C :    0.031489
  18 C :   -0.031320
  19 S :    0.066098
  20 C :   -0.018813
  21 C :   -0.147222
  22 S :    0.108528
  23 C :   -0.117345
  24 C :    0.130883
  25 C :    0.160619
  26 O :   -0.177672
  27 C :    0.203798
  28 N :    0.301431
  29 O :   -0.266098
  30 O :   -0.237673
  31 C :   -0.081896
  32 C :    0.017737
  33 C :   -0.011450
  34 C :    0.016924
  35 C :    0.025731
  36 C :   -0.044707
  37 S :    0.038112
  38 C :   -0.008108
  39 C :    0.024026
  40 C :    0.028597
  41 C :    0.026603
  42 S :    0.086992
  43 C :   -0.074421
  44 C :    0.100173
  45 C :   -0.032473
  46 C :   -0.044370
  47 C :    0.070375
  48 C :   -0.039597
  49 C :    0.031255
  50 N :   -0.068694
  51 C :   -0.101337
  52 C :    0.059699
  53 C :    0.018749
  54 C :   -0.135163
  55 C :    0.014791
  56 C :    0.071059
  57 N :   -0.004828
  58 C :   -0.007426
  59 C :   -0.008568
  60 H :    0.003571
  61 H :    0.008984
  62 H :   -0.012288
  63 H :   -0.023612
  64 H :   -0.017856
  65 H :   -0.017510
  66 H :   -0.006555
  67 H :   -0.018202
  68 H :   -0.014765
  69 H :   -0.016045
  70 H :   -0.015947
  71 H :   -0.013323
  72 H :    0.002050
  73 H :   -0.005762
  74 H :   -0.019659
  75 H :   -0.014950
  76 H :   -0.013598
  77 H :   -0.020508
  78 H :   -0.013123
  79 H :   -0.024072
  80 H :   -0.026822
  81 H :   -0.030253
  82 H :    0.033646
  83 H :    0.020388
  84 H :    0.018035
  85 H :    0.017964
  86 H :    0.006842
  87 H :    0.014997
  88 H :    0.050943
  89 H :    0.009501
  90 H :    0.003404
  91 H :    0.011521
  92 H :    0.002844
  93 H :    0.007892
  94 H :    0.022219
Sum of atomic charges:   -0.0000000

LOEWDIN ATOMIC CHARGES
----------------------
   0 C :    0.030897
   1 O :    0.021957
   2 C :    0.033456
   3 C :   -0.069306
   4 C :   -0.076956
   5 C :   -0.015704
   6 C :   -0.032311
   7 C :   -0.016438
   8 C :   -0.038803
   9 C :   -0.053534
  10 C :   -0.149215
  11 C :   -0.035993
  12 C :   -0.036591
  13 C :   -0.178138
  14 S :    0.369484
  15 C :   -0.182156
  16 C :   -0.041549
  17 C :   -0.035977
  18 C :   -0.159788
  19 S :    0.372044
  20 C :   -0.069909
  21 C :   -0.205256
  22 S :    0.429120
  23 C :   -0.150327
  24 C :   -0.088752
  25 C :    0.027725
  26 O :    0.009107
  27 C :    0.003916
  28 N :    0.280154
  29 O :   -0.229535
  30 O :   -0.199616
  31 C :   -0.004887
  32 C :   -0.093621
  33 C :   -0.147667
  34 C :   -0.045745
  35 C :   -0.032551
  36 C :   -0.190013
  37 S :    0.401635
  38 C :   -0.177783
  39 C :   -0.040980
  40 C :   -0.022738
  41 C :   -0.146946
  42 S :    0.446902
  43 C :   -0.034888
  44 C :   -0.036443
  45 C :   -0.009204
  46 C :   -0.013930
  47 C :   -0.020140
  48 C :   -0.006195
  49 C :   -0.004270
  50 N :   -0.063214
  51 C :    0.021329
  52 C :   -0.049485
  53 C :   -0.042845
  54 C :    0.010423
  55 C :   -0.047067
  56 C :   -0.048659
  57 N :   -0.040729
  58 C :   -0.019044
  59 C :   -0.037093
  60 H :    0.020938
  61 H :    0.021894
  62 H :    0.028190
  63 H :    0.027595
  64 H :    0.025980
  65 H :    0.026371
  66 H :    0.021635
  67 H :    0.031788
  68 H :    0.032397
  69 H :    0.030815
  70 H :    0.030696
  71 H :    0.033273
  72 H :    0.045392
  73 H :    0.028742
  74 H :    0.034594
  75 H :    0.032026
  76 H :    0.032094
  77 H :    0.027938
  78 H :    0.031756
  79 H :    0.035021
  80 H :    0.028144
  81 H :    0.028974
  82 H :    0.011034
  83 H :    0.024586
  84 H :    0.024350
  85 H :    0.026175
  86 H :    0.020242
  87 H :    0.034807
  88 H :    0.040593
  89 H :    0.022612
  90 H :    0.023155
  91 H :    0.025002
  92 H :    0.032939
  93 H :    0.016352
  94 H :    0.025742

  Mayer bond orders larger than 0.100000
B(  0-C ,  1-O ) :   1.1638 B(  0-C ,  4-C ) :   1.4937 B(  0-C , 60-H ) :   1.0063
B(  1-O ,  2-C ) :   1.1425 B(  2-C ,  3-C ) :   1.5925 B(  2-C , 61-H ) :   0.9996
B(  3-C ,  4-C ) :   1.2113 B(  3-C , 62-H ) :   1.0024 B(  4-C ,  5-C ) :   1.0838
B(  5-C ,  6-C ) :   1.6629 B(  5-C , 63-H ) :   0.9794 B(  6-C ,  7-C ) :   1.1484
B(  6-C , 64-H ) :   0.9800 B(  7-C ,  8-C ) :   1.5967 B(  7-C , 65-H ) :   0.9913
B(  8-C ,  9-C ) :   1.1657 B(  8-C , 66-H ) :   0.9762 B(  9-C , 10-C ) :   1.5392
B(  9-C , 67-H ) :   0.9809 B( 10-C , 11-C ) :   1.1644 B( 10-C , 14-S ) :   1.0304
B( 11-C , 12-C ) :   1.5571 B( 11-C , 68-H ) :   0.9997 B( 12-C , 13-C ) :   1.2183
B( 12-C , 69-H ) :   0.9938 B( 13-C , 14-S ) :   1.0523 B( 13-C , 15-C ) :   1.4604
B( 15-C , 16-C ) :   1.2194 B( 15-C , 19-S ) :   1.0486 B( 16-C , 17-C ) :   1.5456
B( 16-C , 70-H ) :   0.9938 B( 17-C , 18-C ) :   1.1831 B( 17-C , 71-H ) :   1.0013
B( 18-C , 19-S ) :   1.0430 B( 18-C , 20-C ) :   1.4810 B( 20-C , 21-C ) :   1.2537
B( 20-C , 72-H ) :   0.9745 B( 21-C , 22-S ) :   1.0465 B( 21-C , 25-C ) :   1.3863
B( 22-S , 23-C ) :   1.1145 B( 23-C , 24-C ) :   1.2102 B( 23-C , 32-C ) :   1.3269
B( 24-C , 25-C ) :   1.2570 B( 24-C , 31-C ) :   1.1495 B( 25-C , 26-O ) :   1.1472
B( 26-O , 27-C ) :   1.1153 B( 27-C , 28-N ) :   0.9605 B( 27-C , 31-C ) :   1.4943
B( 28-N , 29-O ) :   1.4473 B( 28-N , 30-O ) :   1.4992 B( 29-O , 30-O ) :   0.2518
B( 31-C , 73-H ) :   1.0153 B( 32-C , 33-C ) :   1.4663 B( 32-C , 74-H ) :   0.9332
B( 33-C , 34-C ) :   1.2093 B( 33-C , 37-S ) :   1.0595 B( 34-C , 35-C ) :   1.5137
B( 34-C , 75-H ) :   1.0007 B( 35-C , 36-C ) :   1.2397 B( 35-C , 76-H ) :   0.9934
B( 36-C , 37-S ) :   1.0427 B( 36-C , 38-C ) :   1.4383 B( 38-C , 39-C ) :   1.2023
B( 38-C , 42-S ) :   1.0130 B( 39-C , 40-C ) :   1.5693 B( 39-C , 77-H ) :   0.9943
B( 40-C , 41-C ) :   1.1438 B( 40-C , 78-H ) :   1.0002 B( 41-C , 42-S ) :   1.0442
B( 41-C , 43-C ) :   1.5498 B( 43-C , 44-C ) :   1.1409 B( 43-C , 79-H ) :   0.9600
B( 44-C , 45-C ) :   1.3424 B( 44-C , 47-C ) :   0.1094 B( 44-C , 49-C ) :   1.1804
B( 45-C , 46-C ) :   1.3105 B( 45-C , 80-H ) :   0.9993 B( 46-C , 47-C ) :   1.3849
B( 46-C , 81-H ) :   0.9951 B( 47-C , 48-C ) :   1.2044 B( 47-C , 58-C ) :   1.1145
B( 48-C , 49-C ) :   1.2600 B( 48-C , 57-N ) :   1.4479 B( 49-C , 50-N ) :   1.4020
B( 50-N , 51-C ) :   1.6030 B( 51-C , 52-C ) :   1.0705 B( 51-C , 54-C ) :   1.2074
B( 52-C , 53-C ) :   1.0978 B( 52-C , 82-H ) :   0.9041 B( 52-C , 83-H ) :   0.8961
B( 53-C , 84-H ) :   0.9660 B( 53-C , 85-H ) :   0.9688 B( 53-C , 86-H ) :   0.9685
B( 54-C , 55-C ) :   1.0409 B( 54-C , 57-N ) :   1.6925 B( 55-C , 56-C ) :   1.1346
B( 55-C , 87-H ) :   0.9066 B( 55-C , 88-H ) :   0.9099 B( 56-C , 89-H ) :   0.9608
B( 56-C , 90-H ) :   0.9570 B( 56-C , 91-H ) :   0.9635 B( 58-C , 59-C ) :   1.9116
B( 58-C , 92-H ) :   0.9604 B( 59-C , 93-H ) :   0.9479 B( 59-C , 94-H ) :   0.9506

-----------------------------------------------------------------------------
         ABSORPTION SPECTRUM VIA TRANSITION ELECTRIC DIPOLE MOMENTS
-----------------------------------------------------------------------------
State   Energy  Wavelength   fosc         T2         TX        TY        TZ
        (cm-1)    (nm)                  (au**2)     (au)      (au)      (au)
-----------------------------------------------------------------------------
   0    5974.7   1673.7   0.881963235  48.59678   0.53153   6.91968   0.65751
   1   12317.1    811.9   0.393762623  10.52450  -1.42837   2.86896   0.50331
   2   13248.0    754.8   0.328891439   8.17293  -2.11555   1.84387   0.54546
   3   15284.1    654.3   0.109079409   2.34952  -0.96379  -1.16965   0.22924
   4   19381.6    516.0   0.077109215   1.30976   0.04345  -1.14068  -0.08197
   5   21321.0    469.0   0.717983135  11.08616  -3.29245  -0.03640   0.49459
   6   21924.2    456.1   0.208310586   3.12798  -1.63841   0.64625   0.16109
   7   23502.9    425.5   0.178506754   2.50040  -1.49282   0.43403   0.28895
   8   24278.3    411.9   0.824527553  11.18053   3.15980  -1.00922  -0.42150
   9   25051.0    399.2   0.045373524   0.59628   0.64535  -0.42399  -0.00638
  10   25619.6    390.3   0.253005317   3.25112  -1.76086  -0.13830   0.36244
  11   27788.6    359.9   0.057974250   0.68682  -0.56916   0.60223   0.01417
  12   27906.2    358.3   0.068124288   0.80367   0.67744  -0.57905  -0.09716
  13   28603.5    349.6   0.167436126   1.92710  -0.82402  -1.10332   0.17543
  14   29075.9    343.9   0.014782360   0.16737   0.27870   0.28183  -0.10134
  15   29202.4    342.4   0.024435284   0.27547   0.24619  -0.45202   0.10265
  16   29525.2    338.7   0.011799960   0.13157  -0.33503   0.04038   0.13304
  17   30452.5    328.4   0.024176239   0.26136   0.09349  -0.48871  -0.11739
  18   30745.2    325.3   0.126794103   1.35768   0.60733  -0.98423  -0.14186
  19   31005.6    322.5   0.023636494   0.25097   0.31813   0.37800   0.08293
  20   31836.1    314.1   0.154331644   1.59592   0.21370   1.21107   0.28906
  21   32055.9    312.0   0.017004727   0.17464  -0.28128   0.18243  -0.24948
  22   32235.4    310.2   0.013343440   0.13627   0.34614  -0.03874   0.12232
  23   32762.3    305.2   0.022866608   0.22978   0.15024  -0.45117   0.06044
  24   33189.0    301.3   0.100337021   0.99527  -0.47847   0.86638   0.12539
  25   33577.0    297.8   0.061004428   0.59813  -0.73266  -0.16567   0.18411
  26   33763.9    296.2   0.003141479   0.03063  -0.13868   0.09447   0.04974
  27   33962.8    294.4   0.011835880   0.11473  -0.23177  -0.24685  -0.00859
  28   34329.5    291.3   0.127646024   1.22410   0.93742  -0.49300  -0.31983
  29   34933.5    286.3   0.000185627   0.00175   0.02026   0.02426  -0.02739
  30   35104.0    284.9   0.034596834   0.32446   0.07212  -0.56487   0.01347
  31   35173.9    284.3   0.003220077   0.03014  -0.16320   0.04609   0.03714
  32   35734.5    279.8   0.058472517   0.53869   0.23629   0.69458  -0.02044
  33   36168.7    276.5   0.020898345   0.19022   0.43326   0.01332   0.04822
  34   36222.5    276.1   0.027968526   0.25419  -0.00337   0.50240   0.04217
  35   36607.2    273.2   0.013191094   0.11863  -0.33530   0.00072   0.07877
  36   36918.1    270.9   0.045566452   0.40633  -0.09962   0.62755   0.05087
  37   37108.5    269.5   0.139082662   1.23389  -0.91326   0.56147   0.29085
  38   37299.9    268.1   0.004996932   0.04410   0.12995   0.16230   0.02960
  39   38002.8    263.1   0.006607081   0.05724   0.10898   0.21057  -0.03191
  40   38154.3    262.1   0.043462523   0.37501  -0.48315  -0.36532  -0.09008
  41   38403.6    260.4   0.013142994   0.11267   0.17514   0.27057   0.09372
  42   38892.2    257.1   0.083794297   0.70930  -0.02424  -0.83657  -0.09416
  43   38989.1    256.5   0.085080967   0.71840  -0.58084   0.60510   0.12197
  44   39166.6    255.3   0.000982741   0.00826   0.00033   0.06929  -0.05881
  45   39733.1    251.7   0.002645479   0.02192  -0.13788  -0.01717   0.05112
  46   39902.9    250.6   0.036177188   0.29847  -0.54071  -0.07601  -0.01801
  47   40286.3    248.2   0.017792862   0.14540  -0.23846   0.24080   0.17479

FINAL SINGLE POINT ENERGY     -4302.509022013622

DIPOLE MOMENT
-------------
                                X             Y             Z
Electronic contribution:      1.40359      27.02592      -8.05687
Nuclear contribution   :     -3.34218     -26.32844       8.34369
                        -----------------------------------------
Total Dipole Moment    :     -1.93860       0.69748       0.28682
                        -----------------------------------------
Magnitude (a.u.)       :      2.08012
Magnitude (Debye)      :      5.28725

Rotational constants in cm-1:     0.001726     0.000372     0.000309
Rotational constants in MHz :    51.734103    11.161612     9.273821

                             ****ORCA TERMINATED NORMALLY****
TOTAL RUN TIME: 0 days 0 hours 9 minutes 34 seconds 442 msec
