                         Program Version 4.2.0 -  RELEASE  -
|  1> # ORCA input file
|  2> # SCF done       -155.767475742945          0.000762265646
|  3> ! CAM-B3LYP def2-SVP def2/J RIJCOSX Grid4 TightSCF
|  4> %maxcore 5000
|  5> %tddft
|  6>     Mode sTDDFT
|  7>     Ethresh 5.0
|  8>     maxcore 5000
|  9> end
| 10>
| 11> %pal
| 12>   nprocs 6
| 13>   end
| 14> * xyz 0 1
| 15>    C        6.87089        25.16765       -13.34532
| 16>    O        6.27461        25.48337       -14.50029
| 17>    C        6.57489        24.50874       -15.37843
| 18>    C        7.36024        23.56414       -14.80449
| 19>    C        7.56717        23.98525       -13.45322
| 20>    C        8.31469        23.35047       -12.40723
| 21>    C        8.98044        22.18339       -12.54228
| 22>    C        9.71697        21.50464       -11.52552
| 23>    C        9.89831        21.93021       -10.24986
| 24>    C       10.60102        21.21507        -9.24884
| 25>    S       10.73544        21.91927        -7.64213
| 26>    C       11.59067        20.54865        -7.07724
| 27>    C       11.76625        19.59763        -8.09000
| 28>    C       11.21613        19.96884        -9.30789
| 29>    C       12.48355        18.45919        -7.49435
| 30>    O       12.86124        17.43582        -8.01510
| 31>    C       12.67805        18.84626        -6.04587
| 32>    C       12.14355        20.10334        -5.85196
| 33>    C       13.29420        17.94776        -5.15963
| 34>    C       13.57969        18.18557        -3.84364
| 35>    C       14.17038        17.24315        -2.98552
| 36>    S       14.66517        17.72149        -1.36612
| 37>    C       15.26346        16.14901        -1.04769
| 38>    C       15.06046        15.29149        -2.14229
| 39>    C       14.46255        15.89537        -3.22716
| 40>    C       15.64501        13.98566        -1.78313
| 41>    O       15.71271        12.97928        -2.44720
| 42>    C       16.21644        14.19581        -0.40396
| 43>    C       15.95956        15.49698        -0.01027
| 44>    C       17.02835        13.19184         0.14007
| 45>    C       17.84634        13.28285         1.22734
| 46>    C       18.84369        12.32702         1.56912
| 47>    C       19.51958        11.48937         0.69379
| 48>    O       20.29522        10.43722         1.15062
| 49>    C       20.48347        10.36879         2.49577
| 50>    C       19.91214        11.32830         3.37993
| 51>    C       20.24346        11.11426         4.67729
| 52>    S       21.25882         9.73088         4.83949
| 53>    C       21.23520         9.44178         3.14027
| 54>    O       19.09086        12.31620         2.92600
| 55>    C       19.55574        11.56281        -0.72846
| 56>    C       19.31411        12.66082        -1.49999
| 57>    C       19.20363        12.60146        -2.89976
| 58>    C       18.73837        13.63828        -3.66998
| 59>    C       18.47395        13.60079        -5.09268
| 60>    C       18.82071        12.60826        -5.97285
| 61>    C       19.53040        11.43356        -5.64820
| 62>    N       20.11593        10.46020        -5.47656
| 63>    C       18.54388        12.64089        -7.35557
| 64>    N       18.36133        12.59912        -8.48866
| 65>    C       17.79701        14.84698        -5.45190
| 66>    C       17.72566        15.66484        -4.31132
| 67>    C       18.29497        14.95558        -3.15489
| 68>    O       18.35440        15.37951        -2.01311
| 69>    C       17.17048        16.92929        -4.37295
| 70>    C       16.66762        17.37212        -5.58541
| 71>    C       16.70439        16.56605        -6.72233
| 72>    C       17.27572        15.29483        -6.65277
| 73>    C       16.13225        17.05858        -8.01079
| 74>    H        6.74033        25.83841       -12.51898
| 75>    H        6.17378        24.60087       -16.36827
| 76>    H        7.74399        22.68270       -15.27386
| 77>    H        8.31113        23.87408       -11.46162
| 78>    H        8.95771        21.69000       -13.50431
| 79>    H       10.15670        20.56139       -11.81931
| 80>    H        9.47984        22.87639        -9.93605
| 81>    H       11.24831        19.36635       -10.19642
| 82>    H       12.12410        20.65736        -4.93177
| 83>    H       13.55616        16.99222        -5.59392
| 84>    H       13.36298        19.15749        -3.42226
| 85>    H       14.23685        15.40068        -4.15350
| 86>    H       16.25821        15.95102         0.91623
| 87>    H       17.06555        12.29152        -0.46088
| 88>    H       17.72270        14.08599         1.94036
| 89>    H       19.95084        11.68262         5.53499
| 90>    H       21.77018         8.61706         2.71858
| 91>    H       19.88421        10.64590        -1.20440
| 92>    H       19.11674        13.61255        -1.03238
| 93>    H       19.41218        11.65101        -3.37344
| 94>    H       17.15030        17.55439        -3.49286
| 95>    H       16.23442        18.35944        -5.65647
| 96>    H       17.30365        14.68196        -7.53930
| 97>    H       16.33448        18.11973        -8.14310
| 98>    H       15.04883        16.92702        -8.01663
| 99>    H       16.54094        16.50824        -8.85419
|100> *
|101>
|102>                          ****END OF INPUT****

CARTESIAN COORDINATES (ANGSTROEM)
---------------------------------
  C      6.870890   25.167650  -13.345320
  O      6.274610   25.483370  -14.500290
  C      6.574890   24.508740  -15.378430
  C      7.360240   23.564140  -14.804490
  C      7.567170   23.985250  -13.453220
  C      8.314690   23.350470  -12.407230
  C      8.980440   22.183390  -12.542280
  C      9.716970   21.504640  -11.525520
  C      9.898310   21.930210  -10.249860
  C     10.601020   21.215070   -9.248840
  S     10.735440   21.919270   -7.642130
  C     11.590670   20.548650   -7.077240
  C     11.766250   19.597630   -8.090000
  C     11.216130   19.968840   -9.307890
  C     12.483550   18.459190   -7.494350
  O     12.861240   17.435820   -8.015100
  C     12.678050   18.846260   -6.045870
  C     12.143550   20.103340   -5.851960
  C     13.294200   17.947760   -5.159630
  C     13.579690   18.185570   -3.843640
  C     14.170380   17.243150   -2.985520
  S     14.665170   17.721490   -1.366120
  C     15.263460   16.149010   -1.047690
  C     15.060460   15.291490   -2.142290
  C     14.462550   15.895370   -3.227160
  C     15.645010   13.985660   -1.783130
  O     15.712710   12.979280   -2.447200
  C     16.216440   14.195810   -0.403960
  C     15.959560   15.496980   -0.010270
  C     17.028350   13.191840    0.140070
  C     17.846340   13.282850    1.227340
  C     18.843690   12.327020    1.569120
  C     19.519580   11.489370    0.693790
  O     20.295220   10.437220    1.150620
  C     20.483470   10.368790    2.495770
  C     19.912140   11.328300    3.379930
  C     20.243460   11.114260    4.677290
  S     21.258820    9.730880    4.839490
  C     21.235200    9.441780    3.140270
  O     19.090860   12.316200    2.926000
  C     19.555740   11.562810   -0.728460
  C     19.314110   12.660820   -1.499990
  C     19.203630   12.601460   -2.899760
  C     18.738370   13.638280   -3.669980
  C     18.473950   13.600790   -5.092680
  C     18.820710   12.608260   -5.972850
  C     19.530400   11.433560   -5.648200
  N     20.115930   10.460200   -5.476560
  C     18.543880   12.640890   -7.355570
  N     18.361330   12.599120   -8.488660
  C     17.797010   14.846980   -5.451900
  C     17.725660   15.664840   -4.311320
  C     18.294970   14.955580   -3.154890
  O     18.354400   15.379510   -2.013110
  C     17.170480   16.929290   -4.372950
  C     16.667620   17.372120   -5.585410
  C     16.704390   16.566050   -6.722330
  C     17.275720   15.294830   -6.652770
  C     16.132250   17.058580   -8.010790
  H      6.740330   25.838410  -12.518980
  H      6.173780   24.600870  -16.368270
  H      7.743990   22.682700  -15.273860
  H      8.311130   23.874080  -11.461620
  H      8.957710   21.690000  -13.504310
  H     10.156700   20.561390  -11.819310
  H      9.479840   22.876390   -9.936050
  H     11.248310   19.366350  -10.196420
  H     12.124100   20.657360   -4.931770
  H     13.556160   16.992220   -5.593920
  H     13.362980   19.157490   -3.422260
  H     14.236850   15.400680   -4.153500
  H     16.258210   15.951020    0.916230
  H     17.065550   12.291520   -0.460880
  H     17.722700   14.085990    1.940360
  H     19.950840   11.682620    5.534990
  H     21.770180    8.617060    2.718580
  H     19.884210   10.645900   -1.204400
  H     19.116740   13.612550   -1.032380
  H     19.412180   11.651010   -3.373440
  H     17.150300   17.554390   -3.492860
  H     16.234420   18.359440   -5.656470
  H     17.303650   14.681960   -7.539300
  H     16.334480   18.119730   -8.143100
  H     15.048830   16.927020   -8.016630
  H     16.540940   16.508240   -8.854190

 Total Charge           Charge          ....    0
 Multiplicity           Mult            ....    1
 Number of Electrons    NEL             ....  424
 Basis Dimension        Dim             ....  968

ORBITAL ENERGIES
----------------

  NO   OCC          E(Eh)            E(eV)
   0   2.0000     -88.981693     -2421.3150
   1   2.0000     -88.977266     -2421.1945
   2   2.0000     -88.956500     -2420.6294
   3   2.0000     -19.288955      -524.8792
   4   2.0000     -19.278008      -524.5813
   5   2.0000     -19.270345      -524.3728
   6   2.0000     -19.234564      -523.3991
   7   2.0000     -19.230866      -523.2985
   8   2.0000     -19.206354      -522.6315
   9   2.0000     -14.403150      -391.9296
  10   2.0000     -14.400841      -391.8668
  11   2.0000     -10.374381      -282.3013
  12   2.0000     -10.370702      -282.2012
  13   2.0000     -10.356981      -281.8278
  14   2.0000     -10.355158      -281.7782
  15   2.0000     -10.346509      -281.5428
  16   2.0000     -10.339858      -281.3618
  17   2.0000     -10.338931      -281.3366
  18   2.0000     -10.327766      -281.0328
  19   2.0000     -10.325835      -280.9803
  20   2.0000     -10.320913      -280.8463
  21   2.0000     -10.319842      -280.8172
  22   2.0000     -10.318570      -280.7826
  23   2.0000     -10.315746      -280.7057
  24   2.0000     -10.313548      -280.6459
  25   2.0000     -10.313343      -280.6403
  26   2.0000     -10.309959      -280.5482
  27   2.0000     -10.306624      -280.4575
  28   2.0000     -10.306191      -280.4457
  29   2.0000     -10.304351      -280.3956
  30   2.0000     -10.298772      -280.2438
  31   2.0000     -10.298654      -280.2406
  32   2.0000     -10.295776      -280.1623
  33   2.0000     -10.294404      -280.1250
  34   2.0000     -10.294381      -280.1243
  35   2.0000     -10.292369      -280.0696
  36   2.0000     -10.291011      -280.0326
  37   2.0000     -10.290384      -280.0156
  38   2.0000     -10.290261      -280.0122
  39   2.0000     -10.287306      -279.9318
  40   2.0000     -10.287249      -279.9303
  41   2.0000     -10.286741      -279.9165
  42   2.0000     -10.286275      -279.9038
  43   2.0000     -10.285536      -279.8837
  44   2.0000     -10.284982      -279.8686
  45   2.0000     -10.282193      -279.7927
  46   2.0000     -10.282052      -279.7889
  47   2.0000     -10.281309      -279.7686
  48   2.0000     -10.280877      -279.7569
  49   2.0000     -10.280310      -279.7415
  50   2.0000     -10.279591      -279.7219
  51   2.0000     -10.276511      -279.6381
  52   2.0000     -10.276058      -279.6257
  53   2.0000     -10.274752      -279.5902
  54   2.0000     -10.274637      -279.5871
  55   2.0000     -10.273549      -279.5575
  56   2.0000     -10.271835      -279.5108
  57   2.0000     -10.267064      -279.3810
  58   2.0000     -10.255358      -279.0625
  59   2.0000      -8.076325      -219.7680
  60   2.0000      -8.072291      -219.6582
  61   2.0000      -8.052317      -219.1147
  62   2.0000      -6.045394      -164.5035
  63   2.0000      -6.041440      -164.3959
  64   2.0000      -6.041341      -164.3932
  65   2.0000      -6.038922      -164.3274
  66   2.0000      -6.037386      -164.2856
  67   2.0000      -6.034837      -164.2163
  68   2.0000      -6.021824      -163.8622
  69   2.0000      -6.017656      -163.7487
  70   2.0000      -6.013984      -163.6488
  71   2.0000      -1.208429       -32.8830
  72   2.0000      -1.201639       -32.6983
  73   2.0000      -1.163878       -31.6707
  74   2.0000      -1.143928       -31.1279
  75   2.0000      -1.140526       -31.0353
  76   2.0000      -1.118739       -30.4424
  77   2.0000      -1.011389       -27.5213
  78   2.0000      -1.008983       -27.4558
  79   2.0000      -1.004296       -27.3283
  80   2.0000      -0.986168       -26.8350
  81   2.0000      -0.982994       -26.7486
  82   2.0000      -0.980006       -26.6673
  83   2.0000      -0.953399       -25.9433
  84   2.0000      -0.945984       -25.7415
  85   2.0000      -0.939647       -25.5691
  86   2.0000      -0.928467       -25.2649
  87   2.0000      -0.921614       -25.0784
  88   2.0000      -0.902569       -24.5602
  89   2.0000      -0.895916       -24.3791
  90   2.0000      -0.888375       -24.1739
  91   2.0000      -0.884459       -24.0673
  92   2.0000      -0.868798       -23.6412
  93   2.0000      -0.854792       -23.2601
  94   2.0000      -0.852041       -23.1852
  95   2.0000      -0.851385       -23.1674
  96   2.0000      -0.848059       -23.0769
  97   2.0000      -0.842191       -22.9172
  98   2.0000      -0.831449       -22.6249
  99   2.0000      -0.828479       -22.5440
 100   2.0000      -0.811296       -22.0765
 101   2.0000      -0.802663       -21.8416
 102   2.0000      -0.791338       -21.5334
 103   2.0000      -0.774487       -21.0749
 104   2.0000      -0.765870       -20.8404
 105   2.0000      -0.760050       -20.6820
 106   2.0000      -0.758619       -20.6431
 107   2.0000      -0.750273       -20.4160
 108   2.0000      -0.736633       -20.0448
 109   2.0000      -0.724519       -19.7152
 110   2.0000      -0.714658       -19.4468
 111   2.0000      -0.701970       -19.1016
 112   2.0000      -0.687580       -18.7100
 113   2.0000      -0.683982       -18.6121
 114   2.0000      -0.675339       -18.3769
 115   2.0000      -0.671985       -18.2856
 116   2.0000      -0.666847       -18.1458
 117   2.0000      -0.657235       -17.8843
 118   2.0000      -0.654601       -17.8126
 119   2.0000      -0.653253       -17.7759
 120   2.0000      -0.647363       -17.6156
 121   2.0000      -0.640588       -17.4313
 122   2.0000      -0.640294       -17.4233
 123   2.0000      -0.636951       -17.3323
 124   2.0000      -0.626197       -17.0397
 125   2.0000      -0.625202       -17.0126
 126   2.0000      -0.620660       -16.8890
 127   2.0000      -0.607022       -16.5179
 128   2.0000      -0.599347       -16.3091
 129   2.0000      -0.592799       -16.1309
 130   2.0000      -0.585973       -15.9451
 131   2.0000      -0.581399       -15.8207
 132   2.0000      -0.576282       -15.6814
 133   2.0000      -0.574278       -15.6269
 134   2.0000      -0.569772       -15.5043
 135   2.0000      -0.566154       -15.4058
 136   2.0000      -0.560572       -15.2539
 137   2.0000      -0.553157       -15.0522
 138   2.0000      -0.550279       -14.9739
 139   2.0000      -0.547916       -14.9095
 140   2.0000      -0.546926       -14.8826
 141   2.0000      -0.543963       -14.8020
 142   2.0000      -0.541339       -14.7306
 143   2.0000      -0.537353       -14.6221
 144   2.0000      -0.532413       -14.4877
 145   2.0000      -0.531353       -14.4588
 146   2.0000      -0.527951       -14.3663
 147   2.0000      -0.524122       -14.2621
 148   2.0000      -0.519765       -14.1435
 149   2.0000      -0.517983       -14.0950
 150   2.0000      -0.511748       -13.9254
 151   2.0000      -0.511019       -13.9055
 152   2.0000      -0.506860       -13.7924
 153   2.0000      -0.505005       -13.7419
 154   2.0000      -0.502902       -13.6847
 155   2.0000      -0.500707       -13.6249
 156   2.0000      -0.498383       -13.5617
 157   2.0000      -0.498212       -13.5570
 158   2.0000      -0.493281       -13.4229
 159   2.0000      -0.490473       -13.3464
 160   2.0000      -0.486983       -13.2515
 161   2.0000      -0.485190       -13.2027
 162   2.0000      -0.481881       -13.1126
 163   2.0000      -0.480237       -13.0679
 164   2.0000      -0.476301       -12.9608
 165   2.0000      -0.475789       -12.9469
 166   2.0000      -0.474848       -12.9213
 167   2.0000      -0.473297       -12.8791
 168   2.0000      -0.468689       -12.7537
 169   2.0000      -0.463315       -12.6074
 170   2.0000      -0.458426       -12.4744
 171   2.0000      -0.456948       -12.4342
 172   2.0000      -0.455985       -12.4080
 173   2.0000      -0.452429       -12.3112
 174   2.0000      -0.450335       -12.2542
 175   2.0000      -0.445132       -12.1127
 176   2.0000      -0.438471       -11.9314
 177   2.0000      -0.437401       -11.9023
 178   2.0000      -0.437178       -11.8962
 179   2.0000      -0.436556       -11.8793
 180   2.0000      -0.436387       -11.8747
 181   2.0000      -0.432288       -11.7632
 182   2.0000      -0.431420       -11.7395
 183   2.0000      -0.430511       -11.7148
 184   2.0000      -0.428662       -11.6645
 185   2.0000      -0.425109       -11.5678
 186   2.0000      -0.424155       -11.5419
 187   2.0000      -0.419987       -11.4284
 188   2.0000      -0.415339       -11.3020
 189   2.0000      -0.413673       -11.2566
 190   2.0000      -0.409830       -11.1520
 191   2.0000      -0.408638       -11.1196
 192   2.0000      -0.395377       -10.7588
 193   2.0000      -0.392568       -10.6823
 194   2.0000      -0.384023       -10.4498
 195   2.0000      -0.374107       -10.1800
 196   2.0000      -0.353417        -9.6170
 197   2.0000      -0.346552        -9.4302
 198   2.0000      -0.344597        -9.3769
 199   2.0000      -0.342755        -9.3268
 200   2.0000      -0.340941        -9.2775
 201   2.0000      -0.334474        -9.1015
 202   2.0000      -0.325147        -8.8477
 203   2.0000      -0.320794        -8.7292
 204   2.0000      -0.318785        -8.6746
 205   2.0000      -0.307575        -8.3695
 206   2.0000      -0.303095        -8.2476
 207   2.0000      -0.292820        -7.9680
 208   2.0000      -0.287254        -7.8166
 209   2.0000      -0.266031        -7.2391
 210   2.0000      -0.240702        -6.5498
 211   2.0000      -0.220663        -6.0045
 212   0.0000      -0.108210        -2.9445
 213   0.0000      -0.084390        -2.2964
 214   0.0000      -0.070101        -1.9076
 215   0.0000      -0.050139        -1.3643
 216   0.0000      -0.037764        -1.0276

MULLIKEN ATOMIC CHARGES
-----------------------
   0 C :    0.073347
   1 O :   -0.178852
   2 C :    0.138327
   3 C :   -0.048734
   4 C :    0.042895
   5 C :    0.043072
   6 C :    0.004504
   7 C :    0.006114
   8 C :    0.063556
   9 C :   -0.090581
  10 S :    0.163433
  11 C :   -0.054890
  12 C :   -0.001352
  13 C :   -0.010349
  14 C :    0.168285
  15 O :   -0.122914
  16 C :   -0.031397
  17 C :   -0.035712
  18 C :   -0.005559
  19 C :    0.049646
  20 C :   -0.115232
  21 S :    0.166667
  22 C :   -0.043618
  23 C :    0.001238
  24 C :    0.017250
  25 C :    0.153268
  26 O :   -0.115595
  27 C :   -0.044633
  28 C :    0.011581
  29 C :    0.027757
  30 C :   -0.020691
  31 C :    0.158927
  32 C :    0.135449
  33 O :   -0.252005
  34 C :    0.218271
  35 C :    0.208238
  36 C :   -0.168340
  37 S :    0.110308
  38 C :   -0.171354
  39 O :   -0.245161
  40 C :   -0.001598
  41 C :    0.002673
  42 C :   -0.033858
  43 C :   -0.071909
  44 C :    0.330039
  45 C :   -0.352137
  46 C :   -0.197449
  47 N :    0.147535
  48 C :   -0.183734
  49 N :    0.143382
  50 C :    0.052133
  51 C :   -0.022700
  52 C :    0.138457
  53 O :   -0.181704
  54 C :   -0.000169
  55 C :   -0.015880
  56 C :   -0.034679
  57 C :   -0.080895
  58 C :    0.079392
  59 H :    0.004407
  60 H :    0.010495
  61 H :   -0.010309
  62 H :   -0.024588
  63 H :   -0.021803
  64 H :   -0.015583
  65 H :   -0.023733
  66 H :   -0.005462
  67 H :   -0.009734
  68 H :    0.001051
  69 H :   -0.024464
  70 H :    0.003492
  71 H :   -0.005377
  72 H :    0.024041
  73 H :    0.000441
  74 H :    0.024975
  75 H :    0.027552
  76 H :    0.022230
  77 H :    0.049492
  78 H :    0.010695
  79 H :   -0.020615
  80 H :   -0.019805
  81 H :   -0.012588
  82 H :    0.016382
  83 H :    0.055415
  84 H :    0.021329
Sum of atomic charges:   -0.0000000

LOEWDIN ATOMIC CHARGES
----------------------
   0 C :    0.031846
   1 O :    0.024168
   2 C :    0.035673
   3 C :   -0.068723
   4 C :   -0.076733
   5 C :   -0.002070
   6 C :   -0.041650
   7 C :   -0.019682
   8 C :   -0.046483
   9 C :   -0.161524
  10 S :    0.460804
  11 C :   -0.179657
  12 C :   -0.104211
  13 C :   -0.021524
  14 C :    0.108049
  15 O :   -0.105294
  16 C :   -0.070095
  17 C :    0.000139
  18 C :   -0.017623
  19 C :   -0.037770
  20 C :   -0.163304
  21 S :    0.463786
  22 C :   -0.172043
  23 C :   -0.092802
  24 C :   -0.006255
  25 C :    0.099549
  26 O :   -0.103359
  27 C :   -0.068164
  28 C :    0.035364
  29 C :    0.014757
  30 C :   -0.035670
  31 C :    0.049562
  32 C :    0.005606
  33 O :   -0.058772
  34 C :   -0.007798
  35 C :   -0.010782
  36 C :   -0.208061
  37 S :    0.436954
  38 C :   -0.208941
  39 O :   -0.050091
  40 C :    0.021026
  41 C :   -0.028197
  42 C :    0.064093
  43 C :   -0.096677
  44 C :    0.079552
  45 C :   -0.140838
  46 C :   -0.019669
  47 N :   -0.057212
  48 C :   -0.017331
  49 N :   -0.059608
  50 C :   -0.008291
  51 C :   -0.054760
  52 C :    0.081236
  53 O :   -0.163042
  54 C :    0.013609
  55 C :   -0.013971
  56 C :    0.002045
  57 C :   -0.011036
  58 C :   -0.051292
  59 H :    0.021270
  60 H :    0.022871
  61 H :    0.028770
  62 H :    0.025824
  63 H :    0.027273
  64 H :    0.028075
  65 H :    0.023893
  66 H :    0.037327
  67 H :    0.029544
  68 H :    0.033180
  69 H :    0.025362
  70 H :    0.040955
  71 H :    0.033762
  72 H :    0.039154
  73 H :    0.033114
  74 H :    0.029328
  75 H :    0.030322
  76 H :    0.043678
  77 H :    0.034725
  78 H :    0.041406
  79 H :    0.031394
  80 H :    0.027823
  81 H :    0.036249
  82 H :    0.032095
  83 H :    0.041027
  84 H :    0.034765

  Mayer bond orders larger than 0.100000
B(  0-C ,  1-O ) :   1.1682 B(  0-C ,  4-C ) :   1.4915 B(  0-C , 59-H ) :   1.0056
B(  1-O ,  2-C ) :   1.1423 B(  2-C ,  3-C ) :   1.5936 B(  2-C , 60-H ) :   0.9994
B(  3-C ,  4-C ) :   1.2107 B(  3-C , 61-H ) :   1.0038 B(  4-C ,  5-C ) :   1.1014
B(  5-C ,  6-C ) :   1.7171 B(  5-C , 62-H ) :   0.9653 B(  6-C ,  7-C ) :   1.1368
B(  6-C , 63-H ) :   0.9735 B(  7-C ,  8-C ) :   1.7052 B(  7-C , 64-H ) :   0.9742
B(  8-C ,  9-C ) :   1.1331 B(  8-C , 65-H ) :   0.9511 B(  9-C , 10-S ) :   1.1156
B(  9-C , 13-C ) :   1.4395 B( 10-S , 11-C ) :   1.1263 B( 11-C , 12-C ) :   1.4359
B( 11-C , 17-C ) :   1.0823 B( 12-C , 13-C ) :   1.3212 B( 12-C , 14-C ) :   0.9308
B( 13-C , 66-H ) :   1.0015 B( 14-C , 15-O ) :   2.1921 B( 14-C , 16-C ) :   0.9191
B( 16-C , 17-C ) :   1.5783 B( 16-C , 18-C ) :   1.1750 B( 17-C , 67-H ) :   1.0147
B( 18-C , 19-C ) :   1.5902 B( 18-C , 68-H ) :   0.9653 B( 19-C , 20-C ) :   1.1692
B( 19-C , 69-H ) :   0.9644 B( 20-C , 21-S ) :   1.1124 B( 20-C , 24-C ) :   1.3783
B( 21-S , 22-C ) :   1.1189 B( 22-C , 23-C ) :   1.4072 B( 22-C , 28-C ) :   1.1139
B( 23-C , 24-C ) :   1.3629 B( 23-C , 25-C ) :   0.9177 B( 24-C , 70-H ) :   1.0052
B( 25-C , 26-O ) :   2.2499 B( 25-C , 27-C ) :   0.9316 B( 27-C , 28-C ) :   1.5520
B( 27-C , 29-C ) :   1.2113 B( 28-C , 71-H ) :   1.0096 B( 29-C , 30-C ) :   1.6258
B( 29-C , 72-H ) :   0.9349 B( 30-C , 31-C ) :   1.1579 B( 30-C , 73-H ) :   0.9498
B( 31-C , 32-C ) :   1.4661 B( 31-C , 39-O ) :   1.0608 B( 32-C , 33-O ) :   1.0365
B( 32-C , 40-C ) :   1.1390 B( 33-O , 34-C ) :   1.0634 B( 34-C , 35-C ) :   1.2014
B( 34-C , 38-C ) :   1.5746 B( 35-C , 36-C ) :   1.5752 B( 35-C , 39-O ) :   1.0487
B( 36-C , 37-S ) :   1.1436 B( 36-C , 74-H ) :   0.9716 B( 37-S , 38-C ) :   1.1395
B( 38-C , 75-H ) :   0.9718 B( 40-C , 41-C ) :   1.5791 B( 40-C , 76-H ) :   0.9578
B( 41-C , 42-C ) :   1.2131 B( 41-C , 77-H ) :   0.9446 B( 42-C , 43-C ) :   1.5053
B( 42-C , 78-H ) :   0.9654 B( 43-C , 44-C ) :   1.0692 B( 43-C , 52-C ) :   0.9646
B( 44-C , 45-C ) :   1.6234 B( 44-C , 50-C ) :   0.9777 B( 45-C , 46-C ) :   1.1489
B( 45-C , 48-C ) :   1.1431 B( 46-C , 47-N ) :   2.9710 B( 48-C , 49-N ) :   2.9673
B( 50-C , 51-C ) :   1.3335 B( 50-C , 57-C ) :   1.3604 B( 51-C , 52-C ) :   0.9655
B( 51-C , 54-C ) :   1.3747 B( 52-C , 53-O ) :   2.1150 B( 54-C , 55-C ) :   1.3436
B( 54-C , 79-H ) :   1.0025 B( 55-C , 56-C ) :   1.3798 B( 55-C , 80-H ) :   0.9889
B( 56-C , 57-C ) :   1.3507 B( 56-C , 58-C ) :   1.0531 B( 57-C , 81-H ) :   0.9842
B( 58-C , 82-H ) :   0.9543 B( 58-C , 83-H ) :   0.9358 B( 58-C , 84-H ) :   0.9504

-----------------------------------------------------------------------------
         ABSORPTION SPECTRUM VIA TRANSITION ELECTRIC DIPOLE MOMENTS
-----------------------------------------------------------------------------
State   Energy  Wavelength   fosc         T2         TX        TY        TZ
        (cm-1)    (nm)                  (au**2)     (au)      (au)      (au)
-----------------------------------------------------------------------------
   0    8900.8   1123.5   0.431901916  15.97466  -2.73261   2.44702  -1.58734
   1   12892.0    775.7   0.487270667  12.44302  -0.99080   1.38969  -3.08708
   2   14897.6    671.2   0.004911149   0.10853   0.27287  -0.14606  -0.11286
   3   16486.2    606.6   0.277769928   5.54677   0.00151   0.50075  -2.30131
   4   19766.4    505.9   0.139619942   2.32539   0.58524  -0.81360   1.14932
   5   20608.5    485.2   0.007903234   0.12625   0.30873   0.16952  -0.04691
   6   21831.1    458.1   0.234458335   3.53561  -0.88515   0.92129  -1.37962
   7   22854.1    437.6   0.068110151   0.98112   0.28763  -0.56800   0.75880
   8   24139.4    414.3   0.101910624   1.38985  -0.18847   0.31645  -1.11991
   9   24875.6    402.0   0.005536918   0.07328  -0.08931  -0.23016  -0.11103
  10   25347.9    394.5   0.018162205   0.23589  -0.26574   0.32155  -0.24874
  11   25513.3    392.0   0.840807525  10.84939  -1.57854   1.81513  -2.25009
  12   25566.3    391.1   0.170426193   2.19455  -0.72760   0.81012  -1.00442
  13   26374.2    379.2   0.320536033   4.00104  -0.93852   0.78183  -1.58397
  14   26485.4    377.6   0.002419776   0.03008  -0.01011   0.13402  -0.10961
  15   26885.8    371.9   0.193046570   2.36382   0.64881  -0.94847   1.02141
  16   28105.1    355.8   0.005351927   0.06269   0.01765  -0.22623  -0.10583
  17   28721.7    348.2   0.321801817   3.68853   0.70765  -0.88289   1.55186
  18   28805.0    347.2   0.021882537   0.25010   0.24853  -0.31730   0.29606
  19   29417.0    339.9   0.067048442   0.75035   0.46464  -0.69496   0.22692
  20   29852.9    335.0   0.002364952   0.02608   0.00420  -0.07250  -0.14424
  21   30175.3    331.4   0.046319921   0.50535  -0.20356   0.04601  -0.67955
  22   30532.2    327.5   0.012395099   0.13365  -0.25381   0.26310  -0.00325
  23   31091.2    321.6   0.045514993   0.48194   0.32222  -0.41261  -0.45592
  24   31226.9    320.2   0.033029562   0.34822   0.01395  -0.32627   0.49150
  25   32329.6    309.3   0.014981549   0.15256   0.10475  -0.07869  -0.36796
  26   32487.3    307.8   0.001608512   0.01630  -0.09839   0.00578  -0.08116
  27   32963.5    303.4   0.045482914   0.45424  -0.22097   0.55544   0.31129
  28   33435.9    299.1   0.175467137   1.72766  -0.69773   0.92698  -0.61769
  29   33600.7    297.6   0.024046599   0.23560   0.09242  -0.08123   0.46954
  30   33926.3    294.8   0.072545481   0.70396   0.36257  -0.66173   0.36691
  31   34259.3    291.9   0.017677816   0.16987   0.15480   0.36919   0.09803
  32   34461.5    290.2   0.008456324   0.08078  -0.13290   0.24575   0.05222
  33   34842.5    287.0   0.181927326   1.71895  -0.77647   1.03766  -0.19825
  34   35102.2    284.9   0.133181713   1.24907  -0.47914   0.71737  -0.71054
  35   35467.2    282.0   0.069940323   0.64920  -0.21407   0.74238   0.22858
  36   35554.9    281.3   0.003744414   0.03467   0.12585  -0.10596   0.08722
  37   35775.5    279.5   0.067232182   0.61868   0.23872  -0.74906  -0.02456
  38   36086.3    277.1   0.279011945   2.54540   0.71298  -1.42563  -0.06803
  39   36231.8    276.0   0.050606315   0.45982   0.38815  -0.55044  -0.07863
  40   36541.7    273.7   0.166784999   1.50260  -0.55187   1.04224  -0.33434
  41   37110.5    269.5   0.050760807   0.45031   0.02178  -0.11501   0.66076
  42   37278.3    268.3   0.218100998   1.92609   0.52246  -1.15165  -0.57169
  43   37874.3    264.0   0.000836542   0.00727   0.00870  -0.07151   0.04562
  44   38046.5    262.8   0.035041385   0.30321   0.11730  -0.52878  -0.09919
  45   38127.7    262.3   0.060035303   0.51837  -0.32885   0.63991   0.02720
  46   38731.4    258.2   0.073926069   0.62836   0.39718  -0.59246   0.34583
  47   38817.5    257.6   0.416373608   3.53127   0.70606  -0.39455   1.69619
  48   39175.5    255.3   0.014995330   0.12601   0.13818  -0.14020   0.29540
  49   39338.2    254.2   0.013118018   0.10978  -0.11328   0.17507  -0.25749
  50   39759.6    251.5   0.000863233   0.00715  -0.01398   0.04056  -0.07285
  51   39869.6    250.8   0.000450537   0.00372   0.02512   0.01351  -0.05391
  52   40237.0    248.5   0.024360212   0.19931   0.22822  -0.36028   0.13200
  53   40324.8    248.0   0.001828744   0.01493  -0.10368   0.06465  -0.00051

FINAL SINGLE POINT ENERGY     -3596.561648179576

DIPOLE MOMENT
-------------
                                X             Y             Z
Electronic contribution:     22.75382     -26.11649      38.20735
Nuclear contribution   :    -25.05096      29.79054     -36.71025
                        -----------------------------------------
Total Dipole Moment    :     -2.29714       3.67405       1.49710
                        -----------------------------------------
Magnitude (a.u.)       :      4.58441
Magnitude (Debye)      :     11.65263

Rotational constants in cm-1:     0.003777     0.000346     0.000322
Rotational constants in MHz :   113.229797    10.375973     9.664465

                             ****ORCA TERMINATED NORMALLY****
TOTAL RUN TIME: 0 days 0 hours 8 minutes 26 seconds 633 msec
