                         Program Version 4.2.0 -  RELEASE  -
|  1> # ORCA input file
|  2> # SCF done       -168.192718995670          0.000501991401
|  3> ! CAM-B3LYP def2-SVP def2/J RIJCOSX Grid4 TightSCF
|  4> %maxcore 5000
|  5> %tddft
|  6>     Mode sTDDFT
|  7>     Ethresh 5.0
|  8>     maxcore 5000
|  9> end
| 10>
| 11> %pal
| 12>   nprocs 6
| 13>   end
| 14> * xyz 0 1
| 15>    C       10.17040         0.06679        -5.53822
| 16>    O       10.37640        -0.11382        -6.84580
| 17>    C       10.75586         1.07293        -7.35475
| 18>    C       10.79883         2.02271        -6.38802
| 19>    C       10.41236         1.37219        -5.17413
| 20>    C       10.28500         1.91289        -3.85226
| 21>    C       10.52268         3.19996        -3.52467
| 22>    C       10.39168         3.77088        -2.22162
| 23>    C       10.03517         3.12020        -1.08924
| 24>    C        9.90426         3.76995         0.16915
| 25>    O       10.13279         5.08654         0.31005
| 26>    C        9.90957         5.42988         1.60481
| 27>    C        9.53193         4.30788         2.32128
| 28>    C        9.53008         3.24535         1.40579
| 29>    C        9.19111         1.82765         1.68396
| 30>    F        8.13759         1.39429         0.96121
| 31>    F       10.20086         0.98422         1.38509
| 32>    F        8.88514         1.61528         2.96817
| 33>    C       10.07733         6.79014         1.97808
| 34>    C        9.82641         7.28557         3.21198
| 35>    C        9.97852         8.65946         3.54227
| 36>    O       10.44974         9.55196         2.65368
| 37>    C       10.45260        10.77973         3.23179
| 38>    C        9.97454        10.68012         4.52887
| 39>    C        9.67724         9.32552         4.72946
| 40>    C        9.13859         8.69940         5.96404
| 41>    F        9.94237         7.72743         6.44043
| 42>    F        8.97408         9.58018         6.95529
| 43>    F        7.94157         8.11249         5.76483
| 44>    C       10.92435        11.88059         2.47001
| 45>    C       10.86764        13.17418         2.87521
| 46>    C       11.37746        14.24940         2.09069
| 47>    C       11.21797        15.58928         2.40171
| 48>    O       11.75488        16.59303         1.62619
| 49>    C       12.44022        16.19251         0.52082
| 50>    C       12.58429        14.81618         0.18809
| 51>    C       13.29419        14.61941        -0.95077
| 52>    S       13.79923        16.11846        -1.63430
| 53>    C       13.04364        17.01620        -0.37112
| 54>    O       12.05171        13.83109         0.96764
| 55>    C       10.46906        16.06880         3.50692
| 56>    C       10.26911        17.39495         3.75921
| 57>    C        9.47707        17.81588         4.84598
| 58>    C        9.18587        19.11654         5.15590
| 59>    C        8.35294        19.58017         6.24701
| 60>    C        7.71857        18.81195         7.19015
| 61>    C        7.76633        17.40513         7.27498
| 62>    N        7.75210        16.26482         7.41563
| 63>    C        6.91468        19.33031         8.22699
| 64>    N        6.24761        19.67996         9.09393
| 65>    C        8.29841        21.03946         6.17112
| 66>    C        9.07656        21.46849         5.08156
| 67>    C        9.66714        20.30285         4.40051
| 68>    O       10.39182        20.32260         3.42720
| 69>    C        9.20284        22.81007         4.77622
| 70>    C        8.54170        23.73235         5.57122
| 71>    C        7.76508        23.32787         6.65538
| 72>    C        7.64296        21.97206         6.95659
| 73>    C        7.04115        24.34078         7.48419
| 74>    H        9.85806        -0.78113        -4.96097
| 75>    H       10.96434         1.11097        -8.40556
| 76>    H       11.06801         3.05026        -6.51469
| 77>    H        9.96992         1.20650        -3.09749
| 78>    H       10.83413         3.88284        -4.30295
| 79>    H       10.59596         4.83072        -2.14353
| 80>    H        9.82285         2.06278        -1.08949
| 81>    H        9.29090         4.25138         3.36221
| 82>    H       10.41533         7.45308         1.19425
| 83>    H        9.47494         6.64427         4.00459
| 84>    H        9.85924        11.46727         5.24434
| 85>    H       11.33694        11.63728         1.50200
| 86>    H       10.42485        13.41246         3.82629
| 87>    H       13.54703        13.69193        -1.42005
| 88>    H       13.08588        18.08493        -0.35629
| 89>    H       10.01758        15.34137         4.16289
| 90>    H       10.70527        18.14179         3.11388
| 91>    H        9.06311        17.03196         5.46732
| 92>    H        9.80571        23.11886         3.93602
| 93>    H        8.62688        24.78650         5.35081
| 94>    H        7.03901        21.67256         7.79783
| 95>    H        7.59733        25.27387         7.53364
| 96>    H        6.87335        23.96987         8.49207
| 97>    H        6.06879        24.55278         7.03814
| 98> *
| 99>
|100>                          ****END OF INPUT****

CARTESIAN COORDINATES (ANGSTROEM)
---------------------------------
  C     10.170400    0.066790   -5.538220
  O     10.376400   -0.113820   -6.845800
  C     10.755860    1.072930   -7.354750
  C     10.798830    2.022710   -6.388020
  C     10.412360    1.372190   -5.174130
  C     10.285000    1.912890   -3.852260
  C     10.522680    3.199960   -3.524670
  C     10.391680    3.770880   -2.221620
  C     10.035170    3.120200   -1.089240
  C      9.904260    3.769950    0.169150
  O     10.132790    5.086540    0.310050
  C      9.909570    5.429880    1.604810
  C      9.531930    4.307880    2.321280
  C      9.530080    3.245350    1.405790
  C      9.191110    1.827650    1.683960
  F      8.137590    1.394290    0.961210
  F     10.200860    0.984220    1.385090
  F      8.885140    1.615280    2.968170
  C     10.077330    6.790140    1.978080
  C      9.826410    7.285570    3.211980
  C      9.978520    8.659460    3.542270
  O     10.449740    9.551960    2.653680
  C     10.452600   10.779730    3.231790
  C      9.974540   10.680120    4.528870
  C      9.677240    9.325520    4.729460
  C      9.138590    8.699400    5.964040
  F      9.942370    7.727430    6.440430
  F      8.974080    9.580180    6.955290
  F      7.941570    8.112490    5.764830
  C     10.924350   11.880590    2.470010
  C     10.867640   13.174180    2.875210
  C     11.377460   14.249400    2.090690
  C     11.217970   15.589280    2.401710
  O     11.754880   16.593030    1.626190
  C     12.440220   16.192510    0.520820
  C     12.584290   14.816180    0.188090
  C     13.294190   14.619410   -0.950770
  S     13.799230   16.118460   -1.634300
  C     13.043640   17.016200   -0.371120
  O     12.051710   13.831090    0.967640
  C     10.469060   16.068800    3.506920
  C     10.269110   17.394950    3.759210
  C      9.477070   17.815880    4.845980
  C      9.185870   19.116540    5.155900
  C      8.352940   19.580170    6.247010
  C      7.718570   18.811950    7.190150
  C      7.766330   17.405130    7.274980
  N      7.752100   16.264820    7.415630
  C      6.914680   19.330310    8.226990
  N      6.247610   19.679960    9.093930
  C      8.298410   21.039460    6.171120
  C      9.076560   21.468490    5.081560
  C      9.667140   20.302850    4.400510
  O     10.391820   20.322600    3.427200
  C      9.202840   22.810070    4.776220
  C      8.541700   23.732350    5.571220
  C      7.765080   23.327870    6.655380
  C      7.642960   21.972060    6.956590
  C      7.041150   24.340780    7.484190
  H      9.858060   -0.781130   -4.960970
  H     10.964340    1.110970   -8.405560
  H     11.068010    3.050260   -6.514690
  H      9.969920    1.206500   -3.097490
  H     10.834130    3.882840   -4.302950
  H     10.595960    4.830720   -2.143530
  H      9.822850    2.062780   -1.089490
  H      9.290900    4.251380    3.362210
  H     10.415330    7.453080    1.194250
  H      9.474940    6.644270    4.004590
  H      9.859240   11.467270    5.244340
  H     11.336940   11.637280    1.502000
  H     10.424850   13.412460    3.826290
  H     13.547030   13.691930   -1.420050
  H     13.085880   18.084930   -0.356290
  H     10.017580   15.341370    4.162890
  H     10.705270   18.141790    3.113880
  H      9.063110   17.031960    5.467320
  H      9.805710   23.118860    3.936020
  H      8.626880   24.786500    5.350810
  H      7.039010   21.672560    7.797830
  H      7.597330   25.273870    7.533640
  H      6.873350   23.969870    8.492070
  H      6.068790   24.552780    7.038140

 Total Charge           Charge          ....    0
 Multiplicity           Mult            ....    1
 Number of Electrons    NEL             ....  420
 Basis Dimension        Dim             ....  950

ORBITAL ENERGIES
----------------

  NO   OCC          E(Eh)            E(eV)
   0   2.0000     -88.964363     -2420.8434
   1   2.0000     -24.801274      -674.8770
   2   2.0000     -24.798908      -674.8126
   3   2.0000     -24.795100      -674.7090
   4   2.0000     -24.794299      -674.6872
   5   2.0000     -24.791652      -674.6152
   6   2.0000     -24.791440      -674.6094
   7   2.0000     -19.309223      -525.4307
   8   2.0000     -19.303726      -525.2811
   9   2.0000     -19.291015      -524.9352
  10   2.0000     -19.290955      -524.9336
  11   2.0000     -19.281127      -524.6661
  12   2.0000     -19.209285      -522.7112
  13   2.0000     -14.412750      -392.1909
  14   2.0000     -14.408940      -392.0872
  15   2.0000     -10.520015      -286.2642
  16   2.0000     -10.516749      -286.1753
  17   2.0000     -10.369619      -282.1717
  18   2.0000     -10.359730      -281.9026
  19   2.0000     -10.357833      -281.8510
  20   2.0000     -10.355873      -281.7976
  21   2.0000     -10.349867      -281.6342
  22   2.0000     -10.348920      -281.6084
  23   2.0000     -10.347149      -281.5602
  24   2.0000     -10.347025      -281.5569
  25   2.0000     -10.341408      -281.4040
  26   2.0000     -10.336285      -281.2646
  27   2.0000     -10.334769      -281.2234
  28   2.0000     -10.323221      -280.9091
  29   2.0000     -10.321326      -280.8576
  30   2.0000     -10.316052      -280.7140
  31   2.0000     -10.312406      -280.6148
  32   2.0000     -10.306707      -280.4598
  33   2.0000     -10.305908      -280.4380
  34   2.0000     -10.302570      -280.3472
  35   2.0000     -10.302361      -280.3415
  36   2.0000     -10.299946      -280.2758
  37   2.0000     -10.299582      -280.2659
  38   2.0000     -10.299082      -280.2523
  39   2.0000     -10.298827      -280.2453
  40   2.0000     -10.298272      -280.2302
  41   2.0000     -10.295613      -280.1579
  42   2.0000     -10.295170      -280.1458
  43   2.0000     -10.295056      -280.1427
  44   2.0000     -10.292277      -280.0671
  45   2.0000     -10.289896      -280.0023
  46   2.0000     -10.289111      -279.9810
  47   2.0000     -10.288552      -279.9657
  48   2.0000     -10.285347      -279.8785
  49   2.0000     -10.284966      -279.8682
  50   2.0000     -10.284666      -279.8600
  51   2.0000     -10.284497      -279.8554
  52   2.0000     -10.283392      -279.8253
  53   2.0000     -10.282123      -279.7908
  54   2.0000     -10.279447      -279.7180
  55   2.0000     -10.276159      -279.6285
  56   2.0000     -10.274558      -279.5849
  57   2.0000     -10.270932      -279.4863
  58   2.0000     -10.268839      -279.4293
  59   2.0000      -8.060103      -219.3266
  60   2.0000      -6.029635      -164.0747
  61   2.0000      -6.025395      -163.9593
  62   2.0000      -6.021806      -163.8617
  63   2.0000      -1.386908       -37.7397
  64   2.0000      -1.383729       -37.6532
  65   2.0000      -1.292053       -35.1585
  66   2.0000      -1.289132       -35.0791
  67   2.0000      -1.284815       -34.9616
  68   2.0000      -1.281333       -34.8668
  69   2.0000      -1.228763       -33.4363
  70   2.0000      -1.223290       -33.2874
  71   2.0000      -1.213861       -33.0308
  72   2.0000      -1.210809       -32.9478
  73   2.0000      -1.176079       -32.0027
  74   2.0000      -1.123135       -30.5621
  75   2.0000      -1.012903       -27.5625
  76   2.0000      -0.994888       -27.0723
  77   2.0000      -0.991396       -26.9772
  78   2.0000      -0.988241       -26.8914
  79   2.0000      -0.948011       -25.7967
  80   2.0000      -0.942831       -25.6557
  81   2.0000      -0.936620       -25.4867
  82   2.0000      -0.930963       -25.3328
  83   2.0000      -0.928024       -25.2528
  84   2.0000      -0.923415       -25.1274
  85   2.0000      -0.916654       -24.9434
  86   2.0000      -0.902806       -24.5666
  87   2.0000      -0.896940       -24.4070
  88   2.0000      -0.887450       -24.1487
  89   2.0000      -0.871774       -23.7222
  90   2.0000      -0.858904       -23.3720
  91   2.0000      -0.854679       -23.2570
  92   2.0000      -0.842522       -22.9262
  93   2.0000      -0.835702       -22.7406
  94   2.0000      -0.827998       -22.5310
  95   2.0000      -0.821339       -22.3498
  96   2.0000      -0.809389       -22.0246
  97   2.0000      -0.802375       -21.8337
  98   2.0000      -0.798743       -21.7349
  99   2.0000      -0.787407       -21.4264
 100   2.0000      -0.774602       -21.0780
 101   2.0000      -0.760608       -20.6972
 102   2.0000      -0.744450       -20.2575
 103   2.0000      -0.734325       -19.9820
 104   2.0000      -0.727933       -19.8081
 105   2.0000      -0.721984       -19.6462
 106   2.0000      -0.714895       -19.4533
 107   2.0000      -0.705832       -19.2067
 108   2.0000      -0.698799       -19.0153
 109   2.0000      -0.698053       -18.9950
 110   2.0000      -0.691737       -18.8231
 111   2.0000      -0.684235       -18.6190
 112   2.0000      -0.679947       -18.5023
 113   2.0000      -0.677916       -18.4470
 114   2.0000      -0.670111       -18.2346
 115   2.0000      -0.669045       -18.2056
 116   2.0000      -0.666342       -18.1321
 117   2.0000      -0.665871       -18.1193
 118   2.0000      -0.663082       -18.0434
 119   2.0000      -0.661598       -18.0030
 120   2.0000      -0.656384       -17.8611
 121   2.0000      -0.649331       -17.6692
 122   2.0000      -0.634189       -17.2572
 123   2.0000      -0.631068       -17.1722
 124   2.0000      -0.626939       -17.0599
 125   2.0000      -0.619722       -16.8635
 126   2.0000      -0.609915       -16.5966
 127   2.0000      -0.606725       -16.5098
 128   2.0000      -0.592753       -16.1296
 129   2.0000      -0.588047       -16.0016
 130   2.0000      -0.585376       -15.9289
 131   2.0000      -0.579542       -15.7701
 132   2.0000      -0.577115       -15.7041
 133   2.0000      -0.574559       -15.6345
 134   2.0000      -0.570500       -15.5241
 135   2.0000      -0.569284       -15.4910
 136   2.0000      -0.560202       -15.2439
 137   2.0000      -0.557085       -15.1591
 138   2.0000      -0.551309       -15.0019
 139   2.0000      -0.548987       -14.9387
 140   2.0000      -0.548914       -14.9367
 141   2.0000      -0.547011       -14.8849
 142   2.0000      -0.546103       -14.8602
 143   2.0000      -0.544944       -14.8287
 144   2.0000      -0.543943       -14.8014
 145   2.0000      -0.542207       -14.7542
 146   2.0000      -0.533913       -14.5285
 147   2.0000      -0.531438       -14.4612
 148   2.0000      -0.530785       -14.4434
 149   2.0000      -0.528256       -14.3746
 150   2.0000      -0.521647       -14.1947
 151   2.0000      -0.514770       -14.0076
 152   2.0000      -0.512120       -13.9355
 153   2.0000      -0.511575       -13.9207
 154   2.0000      -0.511007       -13.9052
 155   2.0000      -0.510518       -13.8919
 156   2.0000      -0.507116       -13.7993
 157   2.0000      -0.506880       -13.7929
 158   2.0000      -0.505617       -13.7586
 159   2.0000      -0.503800       -13.7091
 160   2.0000      -0.503341       -13.6966
 161   2.0000      -0.500618       -13.6225
 162   2.0000      -0.498271       -13.5586
 163   2.0000      -0.492530       -13.4024
 164   2.0000      -0.489246       -13.3131
 165   2.0000      -0.488549       -13.2941
 166   2.0000      -0.486928       -13.2500
 167   2.0000      -0.484545       -13.1852
 168   2.0000      -0.482760       -13.1366
 169   2.0000      -0.482493       -13.1293
 170   2.0000      -0.479674       -13.0526
 171   2.0000      -0.476891       -12.9769
 172   2.0000      -0.468944       -12.7606
 173   2.0000      -0.467293       -12.7157
 174   2.0000      -0.467250       -12.7145
 175   2.0000      -0.466371       -12.6906
 176   2.0000      -0.456541       -12.4231
 177   2.0000      -0.454931       -12.3793
 178   2.0000      -0.453873       -12.3505
 179   2.0000      -0.446548       -12.1512
 180   2.0000      -0.446070       -12.1382
 181   2.0000      -0.445052       -12.1105
 182   2.0000      -0.444452       -12.0941
 183   2.0000      -0.439800       -11.9676
 184   2.0000      -0.439145       -11.9497
 185   2.0000      -0.437370       -11.9014
 186   2.0000      -0.436680       -11.8827
 187   2.0000      -0.430533       -11.7154
 188   2.0000      -0.426216       -11.5979
 189   2.0000      -0.425657       -11.5827
 190   2.0000      -0.425205       -11.5704
 191   2.0000      -0.421934       -11.4814
 192   2.0000      -0.416533       -11.3344
 193   2.0000      -0.407251       -11.0819
 194   2.0000      -0.401446       -10.9239
 195   2.0000      -0.394438       -10.7332
 196   2.0000      -0.387003       -10.5309
 197   2.0000      -0.381230       -10.3738
 198   2.0000      -0.372315       -10.1312
 199   2.0000      -0.355397        -9.6708
 200   2.0000      -0.334862        -9.1121
 201   2.0000      -0.328874        -8.9491
 202   2.0000      -0.328058        -8.9269
 203   2.0000      -0.318830        -8.6758
 204   2.0000      -0.310978        -8.4622
 205   2.0000      -0.307533        -8.3684
 206   2.0000      -0.296997        -8.0817
 207   2.0000      -0.284775        -7.7491
 208   2.0000      -0.255400        -6.9498
 209   2.0000      -0.233239        -6.3468
 210   0.0000      -0.096616        -2.6291
 211   0.0000      -0.065164        -1.7732
 212   0.0000      -0.054471        -1.4822
 213   0.0000      -0.032053        -0.8722
 214   0.0000      -0.009912        -0.2697

MULLIKEN ATOMIC CHARGES
-----------------------
   0 C :    0.080696
   1 O :   -0.176122
   2 C :    0.135248
   3 C :   -0.043943
   4 C :    0.035299
   5 C :    0.057561
   6 C :   -0.009634
   7 C :    0.031826
   8 C :   -0.022952
   9 C :    0.134482
  10 O :   -0.192438
  11 C :    0.180283
  12 C :   -0.063322
  13 C :   -0.113564
  14 C :    0.525831
  15 F :   -0.171565
  16 F :   -0.171591
  17 F :   -0.152810
  18 C :    0.025346
  19 C :   -0.032907
  20 C :    0.132468
  21 O :   -0.194480
  22 C :    0.190098
  23 C :   -0.071539
  24 C :   -0.103776
  25 C :    0.523911
  26 F :   -0.170389
  27 F :   -0.149531
  28 F :   -0.168571
  29 C :    0.038550
  30 C :   -0.073520
  31 C :    0.194624
  32 C :    0.175093
  33 O :   -0.246928
  34 C :    0.221599
  35 C :    0.216583
  36 C :   -0.171229
  37 S :    0.116975
  38 C :   -0.169290
  39 O :   -0.251722
  40 C :   -0.037377
  41 C :    0.017795
  42 C :   -0.040280
  43 C :   -0.066311
  44 C :    0.328858
  45 C :   -0.357260
  46 C :   -0.184742
  47 N :    0.137363
  48 C :   -0.181717
  49 N :    0.144873
  50 C :    0.042009
  51 C :   -0.021703
  52 C :    0.142575
  53 O :   -0.152200
  54 C :   -0.020529
  55 C :    0.005546
  56 C :   -0.039472
  57 C :   -0.068185
  58 C :    0.086917
  59 H :    0.008220
  60 H :    0.012352
  61 H :   -0.010266
  62 H :   -0.017984
  63 H :   -0.019245
  64 H :   -0.003564
  65 H :    0.003607
  66 H :    0.000234
  67 H :    0.006661
  68 H :    0.009880
  69 H :    0.004669
  70 H :    0.014005
  71 H :   -0.000209
  72 H :    0.026059
  73 H :    0.034967
  74 H :    0.004794
  75 H :    0.035585
  76 H :    0.001550
  77 H :   -0.008166
  78 H :   -0.017198
  79 H :   -0.012098
  80 H :    0.021736
  81 H :    0.031037
  82 H :    0.042569
Sum of atomic charges:    0.0000000

LOEWDIN ATOMIC CHARGES
----------------------
   0 C :    0.037632
   1 O :    0.026845
   2 C :    0.035721
   3 C :   -0.067630
   4 C :   -0.078676
   5 C :    0.010568
   6 C :   -0.046485
   7 C :   -0.001008
   8 C :   -0.048595
   9 C :    0.059568
  10 O :    0.025253
  11 C :    0.023056
  12 C :   -0.030522
  13 C :   -0.130870
  14 C :    0.169709
  15 F :   -0.070651
  16 F :   -0.070588
  17 F :   -0.052427
  18 C :   -0.010716
  19 C :   -0.041988
  20 C :    0.056949
  21 O :    0.025119
  22 C :    0.026151
  23 C :   -0.030108
  24 C :   -0.125081
  25 C :    0.168667
  26 F :   -0.068847
  27 F :   -0.049622
  28 F :   -0.068210
  29 C :   -0.009301
  30 C :   -0.039528
  31 C :    0.053837
  32 C :    0.014718
  33 O :   -0.046099
  34 C :   -0.007050
  35 C :   -0.010531
  36 C :   -0.206669
  37 S :    0.443613
  38 C :   -0.204468
  39 O :   -0.044488
  40 C :    0.009081
  41 C :   -0.026732
  42 C :    0.062679
  43 C :   -0.096876
  44 C :    0.077163
  45 C :   -0.143052
  46 C :   -0.017770
  47 N :   -0.060093
  48 C :   -0.017805
  49 N :   -0.057740
  50 C :   -0.010542
  51 C :   -0.050702
  52 C :    0.083322
  53 O :   -0.145639
  54 C :    0.015129
  55 C :   -0.009617
  56 C :   -0.000368
  57 C :   -0.007575
  58 C :   -0.043273
  59 H :    0.023205
  60 H :    0.023399
  61 H :    0.028939
  62 H :    0.029877
  63 H :    0.026989
  64 H :    0.031673
  65 H :    0.032579
  66 H :    0.037409
  67 H :    0.041099
  68 H :    0.037353
  69 H :    0.038173
  70 H :    0.042266
  71 H :    0.034337
  72 H :    0.029953
  73 H :    0.033413
  74 H :    0.037200
  75 H :    0.036438
  76 H :    0.039108
  77 H :    0.038324
  78 H :    0.030475
  79 H :    0.036266
  80 H :    0.033651
  81 H :    0.037188
  82 H :    0.043851

  Mayer bond orders larger than 0.100000
B(  0-C ,  1-O ) :   1.1732 B(  0-C ,  4-C ) :   1.4908 B(  0-C , 59-H ) :   1.0051
B(  1-O ,  2-C ) :   1.1411 B(  2-C ,  3-C ) :   1.5939 B(  2-C , 60-H ) :   0.9999
B(  3-C ,  4-C ) :   1.2116 B(  3-C , 61-H ) :   1.0034 B(  4-C ,  5-C ) :   1.1004
B(  5-C ,  6-C ) :   1.7221 B(  5-C , 62-H ) :   0.9641 B(  6-C ,  7-C ) :   1.1125
B(  6-C , 63-H ) :   0.9758 B(  7-C ,  8-C ) :   1.6776 B(  7-C , 64-H ) :   0.9810
B(  8-C ,  9-C ) :   1.1853 B(  8-C , 65-H ) :   0.9374 B(  9-C , 10-O ) :   1.1833
B(  9-C , 13-C ) :   1.4109 B( 10-O , 11-C ) :   1.1035 B( 11-C , 12-C ) :   1.4548
B( 11-C , 18-C ) :   1.1092 B( 12-C , 13-C ) :   1.2681 B( 12-C , 66-H ) :   1.0120
B( 13-C , 14-C ) :   0.9502 B( 14-C , 15-F ) :   1.1564 B( 14-C , 16-F ) :   1.1558
B( 14-C , 17-F ) :   1.1835 B( 18-C , 19-C ) :   1.6359 B( 18-C , 67-H ) :   0.9748
B( 19-C , 20-C ) :   1.1944 B( 19-C , 68-H ) :   0.9436 B( 20-C , 21-O ) :   1.1805
B( 20-C , 24-C ) :   1.4125 B( 21-O , 22-C ) :   1.1055 B( 22-C , 23-C ) :   1.4444
B( 22-C , 29-C ) :   1.1065 B( 23-C , 24-C ) :   1.2702 B( 23-C , 69-H ) :   1.0132
B( 24-C , 25-C ) :   0.9471 B( 25-C , 26-F ) :   1.1552 B( 25-C , 27-F ) :   1.1866
B( 25-C , 28-F ) :   1.1622 B( 29-C , 30-C ) :   1.6404 B( 29-C , 70-H ) :   0.9704
B( 30-C , 31-C ) :   1.1969 B( 30-C , 71-H ) :   0.9544 B( 31-C , 32-C ) :   1.3991
B( 31-C , 39-O ) :   1.0903 B( 32-C , 33-O ) :   1.0750 B( 32-C , 40-C ) :   1.1772
B( 33-O , 34-C ) :   1.0493 B( 34-C , 35-C ) :   1.2055 B( 34-C , 38-C ) :   1.5755
B( 35-C , 36-C ) :   1.5691 B( 35-C , 39-O ) :   1.0335 B( 36-C , 37-S ) :   1.1488
B( 36-C , 72-H ) :   0.9739 B( 37-S , 38-C ) :   1.1428 B( 38-C , 73-H ) :   0.9711
B( 40-C , 41-C ) :   1.5382 B( 40-C , 74-H ) :   0.9690 B( 41-C , 42-C ) :   1.1515
B( 41-C , 75-H ) :   0.9908 B( 42-C , 43-C ) :   1.5246 B( 42-C , 76-H ) :   0.9617
B( 43-C , 44-C ) :   1.0769 B( 43-C , 52-C ) :   0.9409 B( 44-C , 45-C ) :   1.6194
B( 44-C , 50-C ) :   0.9811 B( 45-C , 46-C ) :   1.1480 B( 45-C , 48-C ) :   1.1445
B( 46-C , 47-N ) :   2.9580 B( 48-C , 49-N ) :   2.9634 B( 50-C , 51-C ) :   1.3318
B( 50-C , 57-C ) :   1.3660 B( 51-C , 52-C ) :   0.9495 B( 51-C , 54-C ) :   1.3789
B( 52-C , 53-O ) :   2.2053 B( 54-C , 55-C ) :   1.3476 B( 54-C , 77-H ) :   1.0064
B( 55-C , 56-C ) :   1.3836 B( 55-C , 78-H ) :   0.9928 B( 56-C , 57-C ) :   1.3591
B( 56-C , 58-C ) :   1.0524 B( 57-C , 79-H ) :   0.9832 B( 58-C , 80-H ) :   0.9585
B( 58-C , 81-H ) :   0.9586 B( 58-C , 82-H ) :   0.9509

-----------------------------------------------------------------------------
         ABSORPTION SPECTRUM VIA TRANSITION ELECTRIC DIPOLE MOMENTS
-----------------------------------------------------------------------------
State   Energy  Wavelength   fosc         T2         TX        TY        TZ
        (cm-1)    (nm)                  (au**2)     (au)      (au)      (au)
-----------------------------------------------------------------------------
   0   15817.1    632.2   1.693941460  35.25720   0.82615  -5.39392  -2.34101
   1   21778.2    459.2   0.262371959   3.96616   0.92621   1.59931   0.74195
   2   23484.9    425.8   0.463417921   6.49619   0.08831   2.12609   1.40290
   3   25414.4    393.5   0.280440251   3.63275  -0.39035   0.32531   1.83700
   4   27320.2    366.0   0.124923716   1.50534   0.54091  -1.04929  -0.33430
   5   28121.4    355.6   0.001635161   0.01914  -0.05682  -0.08918   0.08922
   6   28358.7    352.6   0.091913486   1.06701  -0.62972  -0.49940   0.64890
   7   29075.1    343.9   0.662804166   7.50481   0.92281  -0.08704  -2.57792
   8   30239.4    330.7   0.255903963   2.78599   0.11753   1.50994  -0.70161
   9   30537.5    327.5   0.212482617   2.29069   0.59138  -0.15376  -1.38467
  10   31442.4    318.0   0.000268449   0.00281   0.02012  -0.04819   0.00915
  11   32574.7    307.0   0.021748091   0.21979   0.30381  -0.05223  -0.35323
  12   33071.4    302.4   0.101689151   1.01227   0.09255   1.00184  -0.00462
  13   33742.9    296.4   0.010175331   0.09928  -0.19911   0.23598  -0.06277
  14   34429.4    290.4   0.059592676   0.56982   0.04522  -0.60527  -0.44881
  15   35343.8    282.9   0.171287210   1.59546   0.26022  -1.22647  -0.15337
  16   35909.4    278.5   0.232490776   2.13144  -0.30552  -1.29894   0.59232
  17   37288.6    268.2   0.026536606   0.23429   0.20213  -0.21128  -0.38573
  18   37659.1    265.5   0.090184234   0.78838   0.32534   0.82044  -0.09700
  19   37899.8    263.9   0.275402356   2.39225   0.63736   0.79869  -1.16108
  20   39004.7    256.4   0.062254253   0.52545   0.35188   0.11365  -0.62347
  21   39138.7    255.5   0.058235186   0.48984  -0.40247  -0.00640   0.57255
  22   39597.9    252.5   0.091407212   0.75995   0.08811   0.86627  -0.04190
  23   40274.9    248.3   0.055896120   0.45690   0.31408   0.18184  -0.57025

FINAL SINGLE POINT ENERGY     -3245.572274368359

DIPOLE MOMENT
-------------
                                X             Y             Z
Electronic contribution:     -2.07491     -55.57055      22.40560
Nuclear contribution   :      3.46759      56.49141     -25.38638
                        -----------------------------------------
Total Dipole Moment    :      1.39268       0.92086      -2.98078
                        -----------------------------------------
Magnitude (a.u.)       :      3.41652
Magnitude (Debye)      :      8.68409

Rotational constants in cm-1:     0.001887     0.000324     0.000285
Rotational constants in MHz :    56.581290     9.716072     8.555154

                             ****ORCA TERMINATED NORMALLY****
TOTAL RUN TIME: 0 days 0 hours 6 minutes 13 seconds 707 msec
