                         Program Version 4.2.0 -  RELEASE  -
|  1> # ORCA input file
|  2> # SCF done       -153.588893568847          0.000609100748
|  3> ! CAM-B3LYP def2-SVP def2/J RIJCOSX Grid4 TightSCF
|  4> %maxcore 5000
|  5> %tddft
|  6>     Mode sTDDFT
|  7>     Ethresh 5.0
|  8>     maxcore 5000
|  9> end
| 10>
| 11> %pal
| 12>   nprocs 6
| 13>   end
| 14> * xyz 0 1
| 15>    C       -4.34306         1.77029         2.55866
| 16>    C       -4.66411         0.40954         2.33057
| 17>    C       -4.36402        -0.53686         3.28378
| 18>    C       -3.68925        -0.16435         4.45805
| 19>    C       -3.34613         1.20117         4.66815
| 20>    C       -3.70415         2.15961         3.69804
| 21>    N       -2.69318         1.58208         5.78487
| 22>    C       -2.38432         0.64851         6.64342
| 23>    C       -2.72134        -0.70602         6.43367
| 24>    N       -3.36333        -1.10588         5.37066
| 25>    C       -5.34062         0.02594         1.10203
| 26>    S       -6.77496        -0.92742         1.17043
| 27>    C       -6.98320        -0.90648        -0.55272
| 28>    C       -5.95146        -0.17644        -1.16184
| 29>    C       -5.00818         0.34061        -0.20948
| 30>    C       -3.84615         1.01891        -0.67796
| 31>    C       -2.78816         1.39067         0.17903
| 32>    N       -1.86708         1.68111         0.79846
| 33>    C       -3.69551         1.26147        -2.02836
| 34>    C       -4.65542         0.83218        -2.94683
| 35>    C       -5.76028         0.10622        -2.53909
| 36>    C       -6.65459        -0.31025        -3.54960
| 37>    N       -7.33369        -0.60309        -4.42732
| 38>    C       -8.05670        -1.57381        -1.17866
| 39>    C       -9.13118        -2.10839        -0.53847
| 40>    C      -10.16018        -2.79420        -1.21983
| 41>    S       -9.96041        -3.23538        -2.88642
| 42>    C      -11.55484        -3.90392        -3.01011
| 43>    C      -12.20597        -3.85309        -1.77005
| 44>    C      -11.42005        -3.20638        -0.75646
| 45>    C      -11.96647        -3.04839         0.54365
| 46>    C      -11.28719        -2.38477         1.58809
| 47>    N      -10.79797        -1.85322         2.47978
| 48>    C      -13.21861        -3.56147         0.83293
| 49>    C      -13.93869        -4.27342        -0.12473
| 50>    C      -13.44862        -4.43671        -1.40840
| 51>    C      -14.18691        -5.27798        -2.27000
| 52>    N      -14.82336        -6.01328        -2.87809
| 53>    C      -11.96194        -4.32162        -4.30226
| 54>    C      -13.20113        -4.23783        -4.84760
| 55>    C      -13.41506        -4.61293        -6.19393
| 56>    S      -14.92860        -4.17890        -7.03476
| 57>    C      -14.25542        -4.85737        -8.45574
| 58>    C      -12.97788        -5.37418        -8.18687
| 59>    N      -12.53765        -5.22077        -6.94889
| 60>    C      -12.37133        -5.96890        -9.41636
| 61>    C      -13.43919        -5.68050       -10.42842
| 62>    C      -14.52656        -5.03542        -9.83062
| 63>    S      -15.75282        -4.63248       -10.96223
| 64>    C      -14.79893        -5.32779       -12.25975
| 65>    C      -13.60291        -5.85145       -11.79636
| 66>    C      -15.21871        -5.28318       -13.61577
| 67>    C      -16.32097        -4.66529       -14.08029
| 68>    C      -16.63765        -4.60932       -15.48921
| 69>    N      -15.83466        -5.25280       -16.34587
| 70>    C      -16.13569        -5.16641       -17.62633
| 71>    C      -17.22345        -4.44425       -18.09102
| 72>    C      -18.00871        -3.80298       -17.12602
| 73>    N      -17.70688        -3.89814       -15.83409
| 74>    C      -19.17198        -3.01009       -17.50714
| 75>    C      -19.93619        -2.37789       -16.62553
| 76>    H       -4.63369         2.50449         1.82145
| 77>    H       -4.61139        -1.57771         3.13940
| 78>    H       -3.45583         3.19228         3.88364
| 79>    H       -1.85565         0.96261         7.53352
| 80>    H       -2.45851        -1.46687         7.15669
| 81>    H       -2.81629         1.78052        -2.37918
| 82>    H       -4.52350         1.04846        -3.99626
| 83>    H       -8.01216        -1.64413        -2.25646
| 84>    H       -9.22588        -1.99287         0.53144
| 85>    H      -13.62703        -3.43330         1.82404
| 86>    H      -14.88563        -4.71896         0.14041
| 87>    H      -11.16311        -4.63059        -4.96443
| 88>    H      -14.04118        -3.82328        -4.31241
| 89>    H      -12.19032        -7.03881        -9.29650
| 90>    H      -11.42037        -5.49731        -9.66922
| 91>    H      -12.88731        -6.31823       -12.44891
| 92>    H      -14.56685        -5.76759       -14.33100
| 93>    H      -17.00800        -4.15409       -13.42164
| 94>    H      -15.47464        -5.69552       -18.30274
| 95>    H      -17.45386        -4.37741       -19.14204
| 96>    H      -19.37727        -2.96325       -18.56850
| 97>    H      -19.71242        -2.43783       -15.57428
| 98>    H      -20.79012        -1.79407       -16.92307
| 99> *
|100>
|101>                          ****END OF INPUT****

CARTESIAN COORDINATES (ANGSTROEM)
---------------------------------
  C     -4.343060    1.770290    2.558660
  C     -4.664110    0.409540    2.330570
  C     -4.364020   -0.536860    3.283780
  C     -3.689250   -0.164350    4.458050
  C     -3.346130    1.201170    4.668150
  C     -3.704150    2.159610    3.698040
  N     -2.693180    1.582080    5.784870
  C     -2.384320    0.648510    6.643420
  C     -2.721340   -0.706020    6.433670
  N     -3.363330   -1.105880    5.370660
  C     -5.340620    0.025940    1.102030
  S     -6.774960   -0.927420    1.170430
  C     -6.983200   -0.906480   -0.552720
  C     -5.951460   -0.176440   -1.161840
  C     -5.008180    0.340610   -0.209480
  C     -3.846150    1.018910   -0.677960
  C     -2.788160    1.390670    0.179030
  N     -1.867080    1.681110    0.798460
  C     -3.695510    1.261470   -2.028360
  C     -4.655420    0.832180   -2.946830
  C     -5.760280    0.106220   -2.539090
  C     -6.654590   -0.310250   -3.549600
  N     -7.333690   -0.603090   -4.427320
  C     -8.056700   -1.573810   -1.178660
  C     -9.131180   -2.108390   -0.538470
  C    -10.160180   -2.794200   -1.219830
  S     -9.960410   -3.235380   -2.886420
  C    -11.554840   -3.903920   -3.010110
  C    -12.205970   -3.853090   -1.770050
  C    -11.420050   -3.206380   -0.756460
  C    -11.966470   -3.048390    0.543650
  C    -11.287190   -2.384770    1.588090
  N    -10.797970   -1.853220    2.479780
  C    -13.218610   -3.561470    0.832930
  C    -13.938690   -4.273420   -0.124730
  C    -13.448620   -4.436710   -1.408400
  C    -14.186910   -5.277980   -2.270000
  N    -14.823360   -6.013280   -2.878090
  C    -11.961940   -4.321620   -4.302260
  C    -13.201130   -4.237830   -4.847600
  C    -13.415060   -4.612930   -6.193930
  S    -14.928600   -4.178900   -7.034760
  C    -14.255420   -4.857370   -8.455740
  C    -12.977880   -5.374180   -8.186870
  N    -12.537650   -5.220770   -6.948890
  C    -12.371330   -5.968900   -9.416360
  C    -13.439190   -5.680500  -10.428420
  C    -14.526560   -5.035420   -9.830620
  S    -15.752820   -4.632480  -10.962230
  C    -14.798930   -5.327790  -12.259750
  C    -13.602910   -5.851450  -11.796360
  C    -15.218710   -5.283180  -13.615770
  C    -16.320970   -4.665290  -14.080290
  C    -16.637650   -4.609320  -15.489210
  N    -15.834660   -5.252800  -16.345870
  C    -16.135690   -5.166410  -17.626330
  C    -17.223450   -4.444250  -18.091020
  C    -18.008710   -3.802980  -17.126020
  N    -17.706880   -3.898140  -15.834090
  C    -19.171980   -3.010090  -17.507140
  C    -19.936190   -2.377890  -16.625530
  H     -4.633690    2.504490    1.821450
  H     -4.611390   -1.577710    3.139400
  H     -3.455830    3.192280    3.883640
  H     -1.855650    0.962610    7.533520
  H     -2.458510   -1.466870    7.156690
  H     -2.816290    1.780520   -2.379180
  H     -4.523500    1.048460   -3.996260
  H     -8.012160   -1.644130   -2.256460
  H     -9.225880   -1.992870    0.531440
  H    -13.627030   -3.433300    1.824040
  H    -14.885630   -4.718960    0.140410
  H    -11.163110   -4.630590   -4.964430
  H    -14.041180   -3.823280   -4.312410
  H    -12.190320   -7.038810   -9.296500
  H    -11.420370   -5.497310   -9.669220
  H    -12.887310   -6.318230  -12.448910
  H    -14.566850   -5.767590  -14.331000
  H    -17.008000   -4.154090  -13.421640
  H    -15.474640   -5.695520  -18.302740
  H    -17.453860   -4.377410  -19.142040
  H    -19.377270   -2.963250  -18.568500
  H    -19.712420   -2.437830  -15.574280
  H    -20.790120   -1.794070  -16.923070

 Total Charge           Charge          ....    0
 Multiplicity           Mult            ....    1
 Number of Electrons    NEL             ....  438
 Basis Dimension        Dim             ....  985

ORBITAL ENERGIES
----------------

  NO   OCC          E(Eh)            E(eV)
   0   2.0000     -88.985221     -2421.4110
   1   2.0000     -88.979322     -2421.2504
   2   2.0000     -88.966461     -2420.9005
   3   2.0000     -88.957461     -2420.6556
   4   2.0000     -14.421361      -392.4252
   5   2.0000     -14.420622      -392.4051
   6   2.0000     -14.418229      -392.3399
   7   2.0000     -14.417376      -392.3167
   8   2.0000     -14.414340      -392.2341
   9   2.0000     -14.413922      -392.2227
  10   2.0000     -14.409118      -392.0920
  11   2.0000     -14.396828      -391.7576
  12   2.0000     -14.395457      -391.7203
  13   2.0000     -10.336666      -281.2750
  14   2.0000     -10.335290      -281.2375
  15   2.0000     -10.335064      -281.2314
  16   2.0000     -10.334951      -281.2283
  17   2.0000     -10.331940      -281.1464
  18   2.0000     -10.331326      -281.1297
  19   2.0000     -10.324069      -280.9322
  20   2.0000     -10.323922      -280.9282
  21   2.0000     -10.323460      -280.9156
  22   2.0000     -10.322270      -280.8832
  23   2.0000     -10.321051      -280.8501
  24   2.0000     -10.320222      -280.8275
  25   2.0000     -10.317198      -280.7452
  26   2.0000     -10.314544      -280.6730
  27   2.0000     -10.314367      -280.6682
  28   2.0000     -10.313887      -280.6551
  29   2.0000     -10.313098      -280.6337
  30   2.0000     -10.312957      -280.6298
  31   2.0000     -10.312833      -280.6265
  32   2.0000     -10.312639      -280.6212
  33   2.0000     -10.312589      -280.6198
  34   2.0000     -10.312270      -280.6111
  35   2.0000     -10.312135      -280.6075
  36   2.0000     -10.311905      -280.6012
  37   2.0000     -10.311888      -280.6007
  38   2.0000     -10.311184      -280.5816
  39   2.0000     -10.310675      -280.5677
  40   2.0000     -10.310475      -280.5623
  41   2.0000     -10.304582      -280.4019
  42   2.0000     -10.303701      -280.3780
  43   2.0000     -10.303590      -280.3749
  44   2.0000     -10.300784      -280.2986
  45   2.0000     -10.297262      -280.2027
  46   2.0000     -10.296127      -280.1719
  47   2.0000     -10.295034      -280.1421
  48   2.0000     -10.290448      -280.0173
  49   2.0000     -10.288769      -279.9717
  50   2.0000     -10.284875      -279.8657
  51   2.0000     -10.284714      -279.8613
  52   2.0000     -10.282217      -279.7933
  53   2.0000     -10.276746      -279.6445
  54   2.0000     -10.276404      -279.6352
  55   2.0000     -10.276152      -279.6283
  56   2.0000     -10.275808      -279.6189
  57   2.0000     -10.273285      -279.5503
  58   2.0000     -10.269316      -279.4423
  59   2.0000     -10.266508      -279.3659
  60   2.0000     -10.259633      -279.1788
  61   2.0000      -8.079938      -219.8663
  62   2.0000      -8.074452      -219.7170
  63   2.0000      -8.061506      -219.3647
  64   2.0000      -8.052464      -219.1187
  65   2.0000      -6.048761      -164.5952
  66   2.0000      -6.044641      -164.4830
  67   2.0000      -6.043319      -164.4471
  68   2.0000      -6.043048      -164.4397
  69   2.0000      -6.039212      -164.3353
  70   2.0000      -6.037366      -164.2851
  71   2.0000      -6.030629      -164.1018
  72   2.0000      -6.026746      -163.9961
  73   2.0000      -6.023784      -163.9155
  74   2.0000      -6.021798      -163.8614
  75   2.0000      -6.017752      -163.7514
  76   2.0000      -6.014499      -163.6628
  77   2.0000      -1.073248       -29.2046
  78   2.0000      -1.070601       -29.1325
  79   2.0000      -1.065729       -29.0000
  80   2.0000      -1.028892       -27.9976
  81   2.0000      -1.025944       -27.9174
  82   2.0000      -1.006325       -27.3835
  83   2.0000      -1.005266       -27.3547
  84   2.0000      -0.998559       -27.1722
  85   2.0000      -0.997516       -27.1438
  86   2.0000      -0.996035       -27.1035
  87   2.0000      -0.992848       -27.0168
  88   2.0000      -0.969744       -26.3881
  89   2.0000      -0.967261       -26.3205
  90   2.0000      -0.963456       -26.2170
  91   2.0000      -0.952720       -25.9248
  92   2.0000      -0.932226       -25.3672
  93   2.0000      -0.925284       -25.1783
  94   2.0000      -0.915628       -24.9155
  95   2.0000      -0.901843       -24.5404
  96   2.0000      -0.897651       -24.4263
  97   2.0000      -0.895663       -24.3722
  98   2.0000      -0.886085       -24.1116
  99   2.0000      -0.869145       -23.6506
 100   2.0000      -0.862636       -23.4735
 101   2.0000      -0.859521       -23.3888
 102   2.0000      -0.856178       -23.2978
 103   2.0000      -0.846366       -23.0308
 104   2.0000      -0.840283       -22.8652
 105   2.0000      -0.838383       -22.8136
 106   2.0000      -0.828637       -22.5484
 107   2.0000      -0.804998       -21.9051
 108   2.0000      -0.786613       -21.4048
 109   2.0000      -0.781522       -21.2663
 110   2.0000      -0.780101       -21.2276
 111   2.0000      -0.774455       -21.0740
 112   2.0000      -0.760333       -20.6897
 113   2.0000      -0.749916       -20.4063
 114   2.0000      -0.741225       -20.1698
 115   2.0000      -0.739217       -20.1151
 116   2.0000      -0.729743       -19.8573
 117   2.0000      -0.718923       -19.5629
 118   2.0000      -0.705960       -19.2102
 119   2.0000      -0.699082       -19.0230
 120   2.0000      -0.692983       -18.8570
 121   2.0000      -0.689254       -18.7556
 122   2.0000      -0.682930       -18.5835
 123   2.0000      -0.670389       -18.2422
 124   2.0000      -0.662347       -18.0234
 125   2.0000      -0.652353       -17.7514
 126   2.0000      -0.649281       -17.6678
 127   2.0000      -0.639587       -17.4040
 128   2.0000      -0.636743       -17.3266
 129   2.0000      -0.631506       -17.1842
 130   2.0000      -0.625537       -17.0217
 131   2.0000      -0.617479       -16.8025
 132   2.0000      -0.610614       -16.6156
 133   2.0000      -0.603451       -16.4207
 134   2.0000      -0.602215       -16.3871
 135   2.0000      -0.598515       -16.2864
 136   2.0000      -0.596702       -16.2371
 137   2.0000      -0.594831       -16.1862
 138   2.0000      -0.588469       -16.0130
 139   2.0000      -0.575500       -15.6601
 140   2.0000      -0.571659       -15.5556
 141   2.0000      -0.566309       -15.4100
 142   2.0000      -0.560696       -15.2573
 143   2.0000      -0.554716       -15.0946
 144   2.0000      -0.549074       -14.9411
 145   2.0000      -0.548576       -14.9275
 146   2.0000      -0.542680       -14.7671
 147   2.0000      -0.536402       -14.5962
 148   2.0000      -0.534910       -14.5556
 149   2.0000      -0.531418       -14.4606
 150   2.0000      -0.528968       -14.3940
 151   2.0000      -0.528427       -14.3792
 152   2.0000      -0.525024       -14.2866
 153   2.0000      -0.521886       -14.2012
 154   2.0000      -0.518892       -14.1198
 155   2.0000      -0.517795       -14.0899
 156   2.0000      -0.514919       -14.0117
 157   2.0000      -0.513443       -13.9715
 158   2.0000      -0.504918       -13.7395
 159   2.0000      -0.500597       -13.6220
 160   2.0000      -0.498295       -13.5593
 161   2.0000      -0.492809       -13.4100
 162   2.0000      -0.491282       -13.3685
 163   2.0000      -0.488207       -13.2848
 164   2.0000      -0.485269       -13.2048
 165   2.0000      -0.480730       -13.0813
 166   2.0000      -0.478959       -13.0331
 167   2.0000      -0.478560       -13.0223
 168   2.0000      -0.475363       -12.9353
 169   2.0000      -0.473219       -12.8769
 170   2.0000      -0.472303       -12.8520
 171   2.0000      -0.471146       -12.8205
 172   2.0000      -0.466815       -12.7027
 173   2.0000      -0.460463       -12.5298
 174   2.0000      -0.456160       -12.4127
 175   2.0000      -0.453665       -12.3449
 176   2.0000      -0.452965       -12.3258
 177   2.0000      -0.451953       -12.2983
 178   2.0000      -0.449043       -12.2191
 179   2.0000      -0.447148       -12.1675
 180   2.0000      -0.445563       -12.1244
 181   2.0000      -0.444275       -12.0893
 182   2.0000      -0.442201       -12.0329
 183   2.0000      -0.440987       -11.9999
 184   2.0000      -0.438955       -11.9446
 185   2.0000      -0.436848       -11.8872
 186   2.0000      -0.432282       -11.7630
 187   2.0000      -0.427131       -11.6228
 188   2.0000      -0.423949       -11.5362
 189   2.0000      -0.420920       -11.4538
 190   2.0000      -0.419356       -11.4113
 191   2.0000      -0.416986       -11.3468
 192   2.0000      -0.413670       -11.2565
 193   2.0000      -0.412269       -11.2184
 194   2.0000      -0.408830       -11.1248
 195   2.0000      -0.408297       -11.1103
 196   2.0000      -0.406823       -11.0702
 197   2.0000      -0.404665       -11.0115
 198   2.0000      -0.397940       -10.8285
 199   2.0000      -0.382896       -10.4191
 200   2.0000      -0.380617       -10.3571
 201   2.0000      -0.372848       -10.1457
 202   2.0000      -0.367739       -10.0067
 203   2.0000      -0.353159        -9.6099
 204   2.0000      -0.349449        -9.5090
 205   2.0000      -0.346429        -9.4268
 206   2.0000      -0.344476        -9.3737
 207   2.0000      -0.342549        -9.3212
 208   2.0000      -0.340122        -9.2552
 209   2.0000      -0.325963        -8.8699
 210   2.0000      -0.321649        -8.7525
 211   2.0000      -0.317340        -8.6353
 212   2.0000      -0.316212        -8.6046
 213   2.0000      -0.313949        -8.5430
 214   2.0000      -0.313433        -8.5289
 215   2.0000      -0.304626        -8.2893
 216   2.0000      -0.285352        -7.7648
 217   2.0000      -0.250240        -6.8094
 218   2.0000      -0.224206        -6.1010
 219   0.0000      -0.099475        -2.7068
 220   0.0000      -0.077005        -2.0954
 221   0.0000      -0.053076        -1.4443
 222   0.0000      -0.041003        -1.1157
 223   0.0000      -0.032700        -0.8898

MULLIKEN ATOMIC CHARGES
-----------------------
   0 C :    0.040672
   1 C :    0.058578
   2 C :   -0.046449
   3 C :    0.014964
   4 C :   -0.016679
   5 C :    0.020465
   6 N :   -0.018819
   7 C :    0.023716
   8 C :    0.021223
   9 N :   -0.021007
  10 C :   -0.184485
  11 S :    0.217689
  12 C :   -0.139144
  13 C :    0.158548
  14 C :    0.184267
  15 C :   -0.089437
  16 C :   -0.209425
  17 N :    0.141113
  18 C :    0.014725
  19 C :    0.017175
  20 C :   -0.092272
  21 C :   -0.175335
  22 N :    0.105195
  23 C :   -0.032488
  24 C :   -0.006351
  25 C :   -0.149982
  26 S :    0.189343
  27 C :   -0.157954
  28 C :    0.174369
  29 C :    0.161367
  30 C :   -0.100128
  31 C :   -0.170252
  32 N :    0.105063
  33 C :    0.020617
  34 C :    0.015363
  35 C :   -0.095899
  36 C :   -0.204571
  37 N :    0.130837
  38 C :    0.023739
  39 C :    0.074280
  40 C :   -0.118060
  41 S :    0.146252
  42 C :   -0.064305
  43 C :   -0.228033
  44 N :   -0.014552
  45 C :    0.392216
  46 C :   -0.155173
  47 C :   -0.095866
  48 S :    0.146883
  49 C :   -0.039954
  50 C :   -0.018339
  51 C :    0.040481
  52 C :    0.014305
  53 C :   -0.064223
  54 N :   -0.083281
  55 C :    0.077238
  56 C :   -0.052740
  57 C :    0.034426
  58 N :   -0.055890
  59 C :   -0.017137
  60 C :    0.033585
  61 H :   -0.006696
  62 H :   -0.026507
  63 H :   -0.020263
  64 H :    0.011275
  65 H :    0.011715
  66 H :    0.005241
  67 H :    0.006053
  68 H :    0.018132
  69 H :    0.012002
  70 H :    0.005058
  71 H :    0.005712
  72 H :    0.017733
  73 H :    0.001753
  74 H :    0.038888
  75 H :    0.034426
  76 H :   -0.020720
  77 H :    0.006351
  78 H :   -0.015586
  79 H :    0.002166
  80 H :   -0.010368
  81 H :   -0.018184
  82 H :    0.037834
  83 H :    0.023518
Sum of atomic charges:    0.0000000

LOEWDIN ATOMIC CHARGES
----------------------
   0 C :    0.000215
   1 C :   -0.048900
   2 C :   -0.005640
   3 C :   -0.012658
   4 C :   -0.007883
   5 C :    0.001159
   6 N :   -0.038476
   7 C :    0.003355
   8 C :    0.001725
   9 N :   -0.040337
  10 C :   -0.163634
  11 S :    0.529581
  12 C :   -0.172292
  13 C :   -0.032472
  14 C :   -0.037492
  15 C :   -0.044998
  16 C :   -0.029515
  17 N :   -0.041533
  18 C :    0.010757
  19 C :    0.011468
  20 C :   -0.047228
  21 C :   -0.024810
  22 N :   -0.051624
  23 C :   -0.049575
  24 C :   -0.044205
  25 C :   -0.172190
  26 S :    0.521264
  27 C :   -0.160946
  28 C :   -0.038574
  29 C :   -0.030414
  30 C :   -0.048663
  31 C :   -0.023083
  32 N :   -0.052427
  33 C :    0.012741
  34 C :    0.008608
  35 C :   -0.043832
  36 C :   -0.027906
  37 N :   -0.045640
  38 C :   -0.036998
  39 C :   -0.028561
  40 C :   -0.125108
  41 S :    0.422415
  42 C :   -0.213187
  43 C :   -0.034430
  44 N :   -0.083255
  45 C :   -0.012420
  46 C :   -0.052436
  47 C :   -0.193912
  48 S :    0.438764
  49 C :   -0.167945
  50 C :   -0.044102
  51 C :   -0.002191
  52 C :   -0.056039
  53 C :    0.031935
  54 N :   -0.097392
  55 C :    0.048555
  56 C :   -0.076861
  57 C :    0.035782
  58 N :   -0.091247
  59 C :   -0.045594
  60 C :    0.004663
  61 H :    0.032434
  62 H :    0.033025
  63 H :    0.038603
  64 H :    0.025825
  65 H :    0.025835
  66 H :    0.045566
  67 H :    0.045272
  68 H :    0.030036
  69 H :    0.032436
  70 H :    0.045227
  71 H :    0.045228
  72 H :    0.037693
  73 H :    0.031774
  74 H :    0.057560
  75 H :    0.055095
  76 H :    0.032791
  77 H :    0.038924
  78 H :    0.024232
  79 H :    0.024138
  80 H :    0.030699
  81 H :    0.026909
  82 H :    0.029959
  83 H :    0.026379

  Mayer bond orders larger than 0.100000
B(  0-C ,  1-C ) :   1.2309 B(  0-C ,  5-C ) :   1.4821 B(  0-C , 61-H ) :   0.9868
B(  1-C ,  2-C ) :   1.4109 B(  1-C , 10-C ) :   0.9856 B(  2-C ,  3-C ) :   1.2260
B(  2-C ,  5-C ) :   0.1027 B(  2-C , 62-H ) :   1.0148 B(  3-C ,  4-C ) :   1.2412
B(  3-C ,  9-N ) :   1.4152 B(  4-C ,  5-C ) :   1.2375 B(  4-C ,  6-N ) :   1.4285
B(  5-C , 63-H ) :   1.0070 B(  6-N ,  7-C ) :   1.6741 B(  7-C ,  8-C ) :   1.2245
B(  7-C , 64-H ) :   0.9738 B(  8-C ,  9-N ) :   1.6759 B(  8-C , 65-H ) :   0.9737
B( 10-C , 11-S ) :   1.1971 B( 10-C , 12-C ) :   0.1165 B( 10-C , 14-C ) :   1.4177
B( 11-S , 12-C ) :   1.1504 B( 12-C , 13-C ) :   1.3442 B( 12-C , 23-C ) :   1.1853
B( 13-C , 14-C ) :   1.1668 B( 13-C , 20-C ) :   1.2054 B( 14-C , 15-C ) :   1.1890
B( 15-C , 16-C ) :   1.0883 B( 15-C , 18-C ) :   1.5421 B( 16-C , 17-N ) :   3.0300
B( 18-C , 19-C ) :   1.1932 B( 18-C , 66-H ) :   0.9950 B( 19-C , 20-C ) :   1.5357
B( 19-C , 67-H ) :   0.9928 B( 20-C , 21-C ) :   1.0860 B( 21-C , 22-N ) :   2.9704
B( 23-C , 24-C ) :   1.6092 B( 23-C , 68-H ) :   0.9540 B( 24-C , 25-C ) :   1.1888
B( 24-C , 69-H ) :   0.9597 B( 25-C , 26-S ) :   1.1495 B( 25-C , 27-C ) :   0.1062
B( 25-C , 29-C ) :   1.3312 B( 26-S , 27-C ) :   1.1730 B( 27-C , 28-C ) :   1.3394
B( 27-C , 38-C ) :   1.1130 B( 28-C , 29-C ) :   1.1781 B( 28-C , 35-C ) :   1.2141
B( 29-C , 30-C ) :   1.2150 B( 30-C , 31-C ) :   1.0888 B( 30-C , 33-C ) :   1.5258
B( 31-C , 32-N ) :   2.9646 B( 33-C , 34-C ) :   1.2059 B( 33-C , 70-H ) :   0.9938
B( 34-C , 35-C ) :   1.5265 B( 34-C , 71-H ) :   0.9944 B( 35-C , 36-C ) :   1.0897
B( 36-C , 37-N ) :   3.0173 B( 38-C , 39-C ) :   1.6995 B( 38-C , 72-H ) :   0.9383
B( 39-C , 40-C ) :   1.1547 B( 39-C , 73-H ) :   0.9412 B( 40-C , 41-S ) :   1.0708
B( 40-C , 44-N ) :   1.6370 B( 41-S , 42-C ) :   1.0991 B( 42-C , 43-C ) :   1.4621
B( 42-C , 47-C ) :   1.1987 B( 43-C , 44-N ) :   1.4601 B( 43-C , 45-C ) :   1.0431
B( 45-C , 46-C ) :   0.9793 B( 45-C , 74-H ) :   0.8567 B( 45-C , 75-H ) :   0.8654
B( 46-C , 47-C ) :   1.5227 B( 46-C , 50-C ) :   1.2921 B( 47-C , 48-S ) :   1.0878
B( 48-S , 49-C ) :   1.0950 B( 49-C , 50-C ) :   1.4471 B( 49-C , 51-C ) :   1.1314
B( 50-C , 76-H ) :   1.0090 B( 51-C , 52-C ) :   1.6667 B( 51-C , 77-H ) :   0.9711
B( 52-C , 53-C ) :   1.0566 B( 52-C , 78-H ) :   0.9698 B( 53-C , 54-N ) :   1.5110
B( 53-C , 58-N ) :   1.5341 B( 54-N , 55-C ) :   1.5645 B( 55-C , 56-C ) :   1.3610
B( 55-C , 79-H ) :   0.9805 B( 56-C , 57-C ) :   1.3439 B( 56-C , 80-H ) :   0.9742
B( 57-C , 58-N ) :   1.5154 B( 57-C , 59-C ) :   1.0637 B( 59-C , 60-C ) :   1.9561
B( 59-C , 81-H ) :   0.9668 B( 60-C , 82-H ) :   0.9385 B( 60-C , 83-H ) :   0.9475

-----------------------------------------------------------------------------
         ABSORPTION SPECTRUM VIA TRANSITION ELECTRIC DIPOLE MOMENTS
-----------------------------------------------------------------------------
State   Energy  Wavelength   fosc         T2         TX        TY        TZ
        (cm-1)    (nm)                  (au**2)     (au)      (au)      (au)
-----------------------------------------------------------------------------
   0   13084.0    764.3   1.181949770  29.73950  -3.46972  -1.81473  -3.79569
   1   17412.2    574.3   0.054622566   1.03274   0.92377   0.38472  -0.17714
   2   19731.2    506.8   0.143261637   2.39029  -0.76659  -0.58480   1.20857
   3   22136.5    451.7   1.074160480  15.97482  -1.83903  -0.47186  -3.51712
   4   24882.0    401.9   0.162690784   2.15255  -0.13547  -0.35123   1.41804
   5   26452.2    378.0   0.091741454   1.14177   0.61042   0.47122  -0.73967
   6   26779.0    373.4   0.079800346   0.98104  -0.65406  -0.52816   0.52373
   7   28478.3    351.1   0.241922146   2.79664  -0.12530   0.54422  -1.57631
   8   29712.1    336.6   0.113957031   1.26265   0.88354   0.14744   0.67844
   9   30129.7    331.9   0.004278531   0.04675  -0.19642   0.05696   0.07018
  10   30329.2    329.7   0.043065278   0.46746  -0.30178   0.24455  -0.56266
  11   31007.6    322.5   0.058196409   0.61788   0.53585   0.26690  -0.50942
  12   31619.0    316.3   0.037256839   0.38791   0.10420   0.10301   0.60534
  13   32282.3    309.8   0.053763174   0.54827   0.65570  -0.29644   0.17452
  14   32681.9    306.0   0.045875612   0.46212   0.40649   0.25574   0.48112
  15   34012.8    294.0   0.054954629   0.53191   0.06291  -0.07113   0.72311
  16   34231.7    292.1   0.093698781   0.90112   0.76009   0.31431   0.47390
  17   34777.3    287.5   0.002457063   0.02326  -0.07043  -0.13071   0.03485
  18   34913.6    286.4   0.022874367   0.21569   0.40867   0.15156  -0.16034
  19   35122.7    284.7   0.113345451   1.06241  -0.91793  -0.36742   0.29122
  20   35530.8    281.4   0.027438155   0.25423  -0.35035   0.05323   0.35868
  21   36031.2    277.5   0.019803216   0.18094   0.38195  -0.12095  -0.14292
  22   36366.1    275.0   0.003220207   0.02915   0.12849   0.10470  -0.04098
  23   36664.4    272.7   0.052842462   0.47448   0.64407  -0.21994   0.10620
  24   36754.0    272.1   0.045203770   0.40490  -0.47499  -0.28699   0.31131
  25   37185.6    268.9   0.003712167   0.03286  -0.01255   0.09244   0.15544
  26   37361.7    267.7   0.185059275   1.63065   0.78421   0.10651  -1.00216
  27   37529.1    266.5   0.012525681   0.10988  -0.11010   0.27982  -0.13949
  28   38332.8    260.9   0.022376399   0.19217  -0.27180  -0.21152   0.27121
  29   38534.9    259.5   0.340423529   2.90831   0.65884   0.53869  -1.47786
  30   39071.1    255.9   0.021885472   0.18441  -0.11069  -0.05540   0.41120
  31   39202.4    255.1   0.063173144   0.53051  -0.45157  -0.30909   0.48069
  32   39461.1    253.4   0.004894384   0.04083   0.07973   0.08173  -0.16672
  33   39749.0    251.6   0.180184863   1.49234   0.28402   0.03812   1.18753
  34   40236.7    248.5   0.080096007   0.65534   0.51155   0.32485  -0.53678

FINAL SINGLE POINT ENERGY     -3924.910969169248

DIPOLE MOMENT
-------------
                                X             Y             Z
Electronic contribution:     14.36070       1.50860      37.21787
Nuclear contribution   :    -14.62063      -1.28475     -38.21184
                        -----------------------------------------
Total Dipole Moment    :     -0.25993       0.22384      -0.99397
                        -----------------------------------------
Magnitude (a.u.)       :      1.05150
Magnitude (Debye)      :      2.67269

Rotational constants in cm-1:     0.002616     0.000276     0.000256
Rotational constants in MHz :    78.417474     8.265032     7.679469

                             ****ORCA TERMINATED NORMALLY****
TOTAL RUN TIME: 0 days 0 hours 6 minutes 29 seconds 344 msec
