                         Program Version 4.2.0 -  RELEASE  -
|  1> # ORCA input file
|  2> # SCF done       -179.025601516463          0.000496440145
|  3> ! CAM-B3LYP def2-SVP def2/J RIJCOSX Grid4 TightSCF
|  4> %maxcore 5000
|  5> %tddft
|  6>     Mode sTDDFT
|  7>     Ethresh 5.0
|  8>     maxcore 5000
|  9> end
| 10>
| 11> %pal
| 12>   nprocs 6
| 13>   end
| 14> * xyz 0 1
| 15>    C       -4.04757        -2.16047         7.96727
| 16>    C       -4.90729        -2.47151         9.05278
| 17>    C       -4.81450        -1.75795        10.22821
| 18>    C       -3.85357        -0.73961        10.35470
| 19>    C       -2.98136        -0.44710         9.26840
| 20>    C       -3.10759        -1.17916         8.06933
| 21>    N       -2.04806         0.52011         9.37662
| 22>    C       -1.98849         1.17111        10.50593
| 23>    C       -2.86257         0.89081        11.57973
| 24>    N       -3.77169        -0.04067        11.50762
| 25>    C       -5.87676        -3.53543         8.86580
| 26>    O       -6.24459        -3.84466         7.61208
| 27>    C       -7.13593        -4.86049         7.65540
| 28>    C       -7.34511        -5.22885         8.96732
| 29>    C       -6.53590        -4.37900         9.74793
| 30>    C       -6.41646        -4.46800        11.22724
| 31>    F       -5.14391        -4.42776        11.65526
| 32>    F       -7.06368        -3.47713        11.87223
| 33>    F       -6.93818        -5.61208        11.69415
| 34>    C       -7.70298        -5.38817         6.45859
| 35>    C       -7.40231        -4.94143         5.22047
| 36>    C       -7.97422        -5.48104         4.03274
| 37>    O       -8.87537        -6.47954         4.08224
| 38>    C       -9.23929        -6.79107         2.81353
| 39>    C       -8.56271        -5.98005         1.92253
| 40>    C       -7.75216        -5.13925         2.70242
| 41>    C       -6.82583        -4.08213         2.22061
| 42>    F       -7.14164        -2.86295         2.70250
| 43>    F       -5.55195        -4.30079         2.60566
| 44>    F       -6.81189        -3.97726         0.88991
| 45>    C      -10.19036        -7.82259         2.56328
| 46>    C      -10.79815        -8.53186         3.53701
| 47>    C      -11.74545        -9.56150         3.25707
| 48>    N      -12.39026       -10.28460         4.23819
| 49>    C      -13.23332       -11.19588         3.69738
| 50>    C      -13.14789       -11.07598         2.32132
| 51>    C      -12.20990       -10.04655         2.05501
| 52>    S      -12.07494        -9.87092         0.29261
| 53>    O      -10.76979       -10.24659        -0.17287
| 54>    O      -12.58870        -8.60168        -0.14309
| 55>    C      -13.29124       -11.19450        -0.00733
| 56>    C      -13.73157       -11.69331         1.17356
| 57>    C      -13.62395       -11.52309        -1.33846
| 58>    C      -14.57103       -12.43256        -1.70231
| 59>    C      -14.85792       -12.72699        -3.05143
| 60>    C      -15.82077       -13.61138        -3.45759
| 61>    C      -16.15954       -13.93500        -4.83627
| 62>    C      -15.29797       -13.83708        -5.89309
| 63>    N      -15.64754       -14.02563        -7.26454
| 64>    O      -14.76102       -14.36601        -8.01675
| 65>    O      -16.80409       -13.83841        -7.58606
| 66>    N      -13.86735       -13.61758        -5.69862
| 67>    O      -13.30727       -14.36084        -4.92820
| 68>    O      -13.36198       -12.71695        -6.31944
| 69>    C      -17.49304       -14.50698        -4.81612
| 70>    C      -18.44440       -14.94317        -5.69142
| 71>    S      -19.78085       -15.63594        -4.86240
| 72>    C      -19.07504       -15.34308        -3.31668
| 73>    C      -17.87067       -14.73412        -3.44903
| 74>    C      -16.83031       -14.22611        -2.54691
| 75>    O      -16.81923       -14.26730        -1.33763
| 76>    H       -4.14823        -2.72747         7.05466
| 77>    H       -5.46951        -1.92502        11.06602
| 78>    H       -2.44554        -0.93932         7.25240
| 79>    H       -1.23455         1.94290        10.58358
| 80>    H       -2.80601         1.44491        12.50703
| 81>    H       -7.98352        -6.00760         9.32986
| 82>    H       -8.40963        -6.19344         6.59055
| 83>    H       -6.69559        -4.13628         5.08918
| 84>    H       -8.64225        -5.99199         0.85539
| 85>    H      -10.41555        -8.02135         1.52570
| 86>    H      -10.57543        -8.32924         4.57556
| 87>    H      -12.24529       -10.14778         5.22666
| 88>    H      -13.82477       -11.85204         4.30414
| 89>    H      -14.45187       -12.49139         1.26416
| 90>    H      -13.06290       -10.99189        -2.09763
| 91>    H      -15.12766       -12.96439        -0.94610
| 92>    H      -14.29599       -12.16950        -3.79139
| 93>    H      -18.46339       -14.87473        -6.76068
| 94>    H      -19.58592       -15.63622        -2.42155
| 95> *
| 96>
| 97>                          ****END OF INPUT****

CARTESIAN COORDINATES (ANGSTROEM)
---------------------------------
  C     -4.047570   -2.160470    7.967270
  C     -4.907290   -2.471510    9.052780
  C     -4.814500   -1.757950   10.228210
  C     -3.853570   -0.739610   10.354700
  C     -2.981360   -0.447100    9.268400
  C     -3.107590   -1.179160    8.069330
  N     -2.048060    0.520110    9.376620
  C     -1.988490    1.171110   10.505930
  C     -2.862570    0.890810   11.579730
  N     -3.771690   -0.040670   11.507620
  C     -5.876760   -3.535430    8.865800
  O     -6.244590   -3.844660    7.612080
  C     -7.135930   -4.860490    7.655400
  C     -7.345110   -5.228850    8.967320
  C     -6.535900   -4.379000    9.747930
  C     -6.416460   -4.468000   11.227240
  F     -5.143910   -4.427760   11.655260
  F     -7.063680   -3.477130   11.872230
  F     -6.938180   -5.612080   11.694150
  C     -7.702980   -5.388170    6.458590
  C     -7.402310   -4.941430    5.220470
  C     -7.974220   -5.481040    4.032740
  O     -8.875370   -6.479540    4.082240
  C     -9.239290   -6.791070    2.813530
  C     -8.562710   -5.980050    1.922530
  C     -7.752160   -5.139250    2.702420
  C     -6.825830   -4.082130    2.220610
  F     -7.141640   -2.862950    2.702500
  F     -5.551950   -4.300790    2.605660
  F     -6.811890   -3.977260    0.889910
  C    -10.190360   -7.822590    2.563280
  C    -10.798150   -8.531860    3.537010
  C    -11.745450   -9.561500    3.257070
  N    -12.390260  -10.284600    4.238190
  C    -13.233320  -11.195880    3.697380
  C    -13.147890  -11.075980    2.321320
  C    -12.209900  -10.046550    2.055010
  S    -12.074940   -9.870920    0.292610
  O    -10.769790  -10.246590   -0.172870
  O    -12.588700   -8.601680   -0.143090
  C    -13.291240  -11.194500   -0.007330
  C    -13.731570  -11.693310    1.173560
  C    -13.623950  -11.523090   -1.338460
  C    -14.571030  -12.432560   -1.702310
  C    -14.857920  -12.726990   -3.051430
  C    -15.820770  -13.611380   -3.457590
  C    -16.159540  -13.935000   -4.836270
  C    -15.297970  -13.837080   -5.893090
  N    -15.647540  -14.025630   -7.264540
  O    -14.761020  -14.366010   -8.016750
  O    -16.804090  -13.838410   -7.586060
  N    -13.867350  -13.617580   -5.698620
  O    -13.307270  -14.360840   -4.928200
  O    -13.361980  -12.716950   -6.319440
  C    -17.493040  -14.506980   -4.816120
  C    -18.444400  -14.943170   -5.691420
  S    -19.780850  -15.635940   -4.862400
  C    -19.075040  -15.343080   -3.316680
  C    -17.870670  -14.734120   -3.449030
  C    -16.830310  -14.226110   -2.546910
  O    -16.819230  -14.267300   -1.337630
  H     -4.148230   -2.727470    7.054660
  H     -5.469510   -1.925020   11.066020
  H     -2.445540   -0.939320    7.252400
  H     -1.234550    1.942900   10.583580
  H     -2.806010    1.444910   12.507030
  H     -7.983520   -6.007600    9.329860
  H     -8.409630   -6.193440    6.590550
  H     -6.695590   -4.136280    5.089180
  H     -8.642250   -5.991990    0.855390
  H    -10.415550   -8.021350    1.525700
  H    -10.575430   -8.329240    4.575560
  H    -12.245290  -10.147780    5.226660
  H    -13.824770  -11.852040    4.304140
  H    -14.451870  -12.491390    1.264160
  H    -13.062900  -10.991890   -2.097630
  H    -15.127660  -12.964390   -0.946100
  H    -14.295990  -12.169500   -3.791390
  H    -18.463390  -14.874730   -6.760680
  H    -19.585920  -15.636220   -2.421550

 Total Charge           Charge          ....    0
 Multiplicity           Mult            ....    1
 Number of Electrons    NEL             ....  446
 Basis Dimension        Dim             ....  957

ORBITAL ENERGIES
----------------

  NO   OCC          E(Eh)            E(eV)
   0   2.0000     -89.150212     -2425.9006
   1   2.0000     -88.984578     -2421.3935
   2   2.0000     -24.803651      -674.9417
   3   2.0000     -24.802530      -674.9111
   4   2.0000     -24.799937      -674.8406
   5   2.0000     -24.799720      -674.8347
   6   2.0000     -24.794987      -674.7059
   7   2.0000     -24.794816      -674.7012
   8   2.0000     -19.313965      -525.5597
   9   2.0000     -19.311761      -525.4997
  10   2.0000     -19.255993      -523.9822
  11   2.0000     -19.254352      -523.9376
  12   2.0000     -19.249888      -523.8161
  13   2.0000     -19.249267      -523.7992
  14   2.0000     -19.220450      -523.0150
  15   2.0000     -19.199361      -522.4412
  16   2.0000     -19.198788      -522.4256
  17   2.0000     -14.662010      -398.9736
  18   2.0000     -14.661577      -398.9618
  19   2.0000     -14.500440      -394.5770
  20   2.0000     -14.421482      -392.4285
  21   2.0000     -14.421342      -392.4247
  22   2.0000     -10.524510      -286.3865
  23   2.0000     -10.520753      -286.2842
  24   2.0000     -10.375651      -282.3358
  25   2.0000     -10.368683      -282.1462
  26   2.0000     -10.360526      -281.9242
  27   2.0000     -10.357385      -281.8388
  28   2.0000     -10.351968      -281.6914
  29   2.0000     -10.348656      -281.6013
  30   2.0000     -10.347758      -281.5768
  31   2.0000     -10.343226      -281.4535
  32   2.0000     -10.337405      -281.2951
  33   2.0000     -10.324828      -280.9529
  34   2.0000     -10.323455      -280.9155
  35   2.0000     -10.322424      -280.8874
  36   2.0000     -10.321355      -280.8583
  37   2.0000     -10.317022      -280.7405
  38   2.0000     -10.316573      -280.7282
  39   2.0000     -10.315923      -280.7105
  40   2.0000     -10.315152      -280.6895
  41   2.0000     -10.314810      -280.6802
  42   2.0000     -10.314809      -280.6802
  43   2.0000     -10.308230      -280.5012
  44   2.0000     -10.304308      -280.3945
  45   2.0000     -10.303950      -280.3847
  46   2.0000     -10.303604      -280.3753
  47   2.0000     -10.302082      -280.3339
  48   2.0000     -10.301980      -280.3311
  49   2.0000     -10.300991      -280.3042
  50   2.0000     -10.299493      -280.2634
  51   2.0000     -10.299377      -280.2603
  52   2.0000     -10.299138      -280.2538
  53   2.0000     -10.295761      -280.1619
  54   2.0000     -10.293975      -280.1133
  55   2.0000     -10.293835      -280.1095
  56   2.0000     -10.293045      -280.0880
  57   2.0000     -10.292198      -280.0650
  58   2.0000     -10.287743      -279.9437
  59   2.0000     -10.285639      -279.8865
  60   2.0000     -10.281172      -279.7649
  61   2.0000      -8.214314      -223.5229
  62   2.0000      -8.080581      -219.8838
  63   2.0000      -6.183536      -168.2626
  64   2.0000      -6.182947      -168.2465
  65   2.0000      -6.182628      -168.2379
  66   2.0000      -6.049737      -164.6217
  67   2.0000      -6.045040      -164.4939
  68   2.0000      -6.043417      -164.4497
  69   2.0000      -1.391233       -37.8574
  70   2.0000      -1.387649       -37.7599
  71   2.0000      -1.344405       -36.5831
  72   2.0000      -1.326875       -36.1061
  73   2.0000      -1.294471       -35.2244
  74   2.0000      -1.293105       -35.1872
  75   2.0000      -1.290998       -35.1298
  76   2.0000      -1.284916       -34.9644
  77   2.0000      -1.235362       -33.6159
  78   2.0000      -1.230878       -33.4939
  79   2.0000      -1.205128       -32.7932
  80   2.0000      -1.159395       -31.5487
  81   2.0000      -1.150713       -31.3125
  82   2.0000      -1.136987       -30.9390
  83   2.0000      -1.113529       -30.3007
  84   2.0000      -1.082131       -29.4463
  85   2.0000      -1.077273       -29.3141
  86   2.0000      -1.022246       -27.8167
  87   2.0000      -0.999999       -27.2114
  88   2.0000      -0.983050       -26.7502
  89   2.0000      -0.976807       -26.5803
  90   2.0000      -0.963460       -26.2171
  91   2.0000      -0.942986       -25.6599
  92   2.0000      -0.941880       -25.6298
  93   2.0000      -0.932455       -25.3734
  94   2.0000      -0.931298       -25.3419
  95   2.0000      -0.923169       -25.1207
  96   2.0000      -0.921116       -25.0648
  97   2.0000      -0.893405       -24.3108
  98   2.0000      -0.884788       -24.0763
  99   2.0000      -0.868175       -23.6242
 100   2.0000      -0.850397       -23.1405
 101   2.0000      -0.849713       -23.1219
 102   2.0000      -0.844040       -22.9675
 103   2.0000      -0.841236       -22.8912
 104   2.0000      -0.821174       -22.3453
 105   2.0000      -0.810390       -22.0518
 106   2.0000      -0.803044       -21.8519
 107   2.0000      -0.798136       -21.7184
 108   2.0000      -0.796374       -21.6704
 109   2.0000      -0.788075       -21.4446
 110   2.0000      -0.776045       -21.1173
 111   2.0000      -0.762087       -20.7374
 112   2.0000      -0.749011       -20.3816
 113   2.0000      -0.738988       -20.1089
 114   2.0000      -0.734083       -19.9754
 115   2.0000      -0.727280       -19.7903
 116   2.0000      -0.722893       -19.6709
 117   2.0000      -0.705706       -19.2032
 118   2.0000      -0.703770       -19.1505
 119   2.0000      -0.695441       -18.9239
 120   2.0000      -0.689730       -18.7685
 121   2.0000      -0.687188       -18.6993
 122   2.0000      -0.684957       -18.6386
 123   2.0000      -0.675940       -18.3933
 124   2.0000      -0.673992       -18.3402
 125   2.0000      -0.672243       -18.2927
 126   2.0000      -0.669819       -18.2267
 127   2.0000      -0.669592       -18.2205
 128   2.0000      -0.666892       -18.1470
 129   2.0000      -0.652392       -17.7525
 130   2.0000      -0.650635       -17.7047
 131   2.0000      -0.647428       -17.6174
 132   2.0000      -0.641545       -17.4573
 133   2.0000      -0.638912       -17.3857
 134   2.0000      -0.630497       -17.1567
 135   2.0000      -0.628236       -17.0952
 136   2.0000      -0.625697       -17.0261
 137   2.0000      -0.620137       -16.8748
 138   2.0000      -0.618208       -16.8223
 139   2.0000      -0.609952       -16.5976
 140   2.0000      -0.601402       -16.3650
 141   2.0000      -0.599664       -16.3177
 142   2.0000      -0.596123       -16.2213
 143   2.0000      -0.593390       -16.1470
 144   2.0000      -0.591486       -16.0952
 145   2.0000      -0.585428       -15.9303
 146   2.0000      -0.582436       -15.8489
 147   2.0000      -0.580534       -15.7971
 148   2.0000      -0.579066       -15.7572
 149   2.0000      -0.576169       -15.6783
 150   2.0000      -0.562495       -15.3063
 151   2.0000      -0.560031       -15.2392
 152   2.0000      -0.556878       -15.1534
 153   2.0000      -0.553366       -15.0578
 154   2.0000      -0.553272       -15.0553
 155   2.0000      -0.549818       -14.9613
 156   2.0000      -0.547568       -14.9001
 157   2.0000      -0.547228       -14.8908
 158   2.0000      -0.545574       -14.8458
 159   2.0000      -0.540676       -14.7125
 160   2.0000      -0.535445       -14.5702
 161   2.0000      -0.531926       -14.4744
 162   2.0000      -0.531030       -14.4501
 163   2.0000      -0.530256       -14.4290
 164   2.0000      -0.528498       -14.3812
 165   2.0000      -0.525675       -14.3043
 166   2.0000      -0.523847       -14.2546
 167   2.0000      -0.520709       -14.1692
 168   2.0000      -0.510605       -13.8943
 169   2.0000      -0.509752       -13.8711
 170   2.0000      -0.509415       -13.8619
 171   2.0000      -0.508428       -13.8350
 172   2.0000      -0.506939       -13.7945
 173   2.0000      -0.506008       -13.7692
 174   2.0000      -0.504195       -13.7199
 175   2.0000      -0.504173       -13.7193
 176   2.0000      -0.498523       -13.5655
 177   2.0000      -0.497761       -13.5448
 178   2.0000      -0.487431       -13.2637
 179   2.0000      -0.483335       -13.1522
 180   2.0000      -0.482960       -13.1420
 181   2.0000      -0.482839       -13.1387
 182   2.0000      -0.480246       -13.0682
 183   2.0000      -0.475989       -12.9523
 184   2.0000      -0.473232       -12.8773
 185   2.0000      -0.470829       -12.8119
 186   2.0000      -0.468504       -12.7487
 187   2.0000      -0.467774       -12.7288
 188   2.0000      -0.464989       -12.6530
 189   2.0000      -0.463259       -12.6059
 190   2.0000      -0.456312       -12.4169
 191   2.0000      -0.449307       -12.2263
 192   2.0000      -0.448569       -12.2062
 193   2.0000      -0.445997       -12.1362
 194   2.0000      -0.443127       -12.0581
 195   2.0000      -0.431807       -11.7501
 196   2.0000      -0.420744       -11.4490
 197   2.0000      -0.414594       -11.2817
 198   2.0000      -0.411214       -11.1897
 199   2.0000      -0.410549       -11.1716
 200   2.0000      -0.405190       -11.0258
 201   2.0000      -0.402064       -10.9407
 202   2.0000      -0.397248       -10.8097
 203   2.0000      -0.391636       -10.6570
 204   2.0000      -0.385784       -10.4977
 205   2.0000      -0.383922       -10.4470
 206   2.0000      -0.383680       -10.4405
 207   2.0000      -0.382336       -10.4039
 208   2.0000      -0.379489       -10.3264
 209   2.0000      -0.373725       -10.1696
 210   2.0000      -0.371561       -10.1107
 211   2.0000      -0.367220        -9.9926
 212   2.0000      -0.355194        -9.6653
 213   2.0000      -0.347062        -9.4440
 214   2.0000      -0.340455        -9.2643
 215   2.0000      -0.338338        -9.2066
 216   2.0000      -0.329783        -8.9738
 217   2.0000      -0.320975        -8.7342
 218   2.0000      -0.319776        -8.7015
 219   2.0000      -0.319160        -8.6848
 220   2.0000      -0.295177        -8.0322
 221   2.0000      -0.278758        -7.5854
 222   2.0000      -0.250635        -6.8201
 223   0.0000      -0.106581        -2.9002
 224   0.0000      -0.069867        -1.9012
 225   0.0000      -0.062100        -1.6898
 226   0.0000      -0.044509        -1.2112
 227   0.0000      -0.037104        -1.0096

MULLIKEN ATOMIC CHARGES
-----------------------
   0 C :    0.023892
   1 C :    0.052687
   2 C :   -0.053448
   3 C :    0.002470
   4 C :   -0.029027
   5 C :    0.016413
   6 N :   -0.014316
   7 C :    0.020140
   8 C :    0.022023
   9 N :   -0.012019
  10 C :    0.163261
  11 O :   -0.189301
  12 C :    0.188688
  13 C :   -0.061404
  14 C :   -0.140936
  15 C :    0.534267
  16 F :   -0.157450
  17 F :   -0.162654
  18 F :   -0.157272
  19 C :   -0.004970
  20 C :   -0.019632
  21 C :    0.135004
  22 O :   -0.203145
  23 C :    0.170291
  24 C :   -0.051592
  25 C :   -0.105273
  26 C :    0.524948
  27 F :   -0.169743
  28 F :   -0.170760
  29 F :   -0.148056
  30 C :    0.008404
  31 C :    0.002830
  32 C :    0.007548
  33 N :   -0.033773
  34 C :    0.012829
  35 C :    0.049114
  36 C :   -0.049599
  37 S :    0.796866
  38 O :   -0.450482
  39 O :   -0.454721
  40 C :   -0.082694
  41 C :    0.051364
  42 C :    0.107772
  43 C :   -0.012968
  44 C :   -0.010865
  45 C :   -0.082038
  46 C :    0.215163
  47 C :    0.055756
  48 N :    0.262192
  49 O :   -0.226630
  50 O :   -0.250648
  51 N :    0.195845
  52 O :   -0.205622
  53 O :   -0.202212
  54 C :    0.058431
  55 C :   -0.129974
  56 S :    0.156170
  57 C :   -0.130409
  58 C :    0.012163
  59 C :    0.171211
  60 O :   -0.154695
  61 H :   -0.003675
  62 H :   -0.020986
  63 H :   -0.019310
  64 H :    0.014013
  65 H :    0.012685
  66 H :   -0.005179
  67 H :    0.003202
  68 H :    0.022270
  69 H :    0.010879
  70 H :    0.005448
  71 H :   -0.025699
  72 H :    0.134378
  73 H :    0.010518
  74 H :    0.011083
  75 H :    0.017806
  76 H :    0.030342
  77 H :    0.014972
  78 H :    0.059732
  79 H :    0.038104
Sum of atomic charges:    0.0000000

LOEWDIN ATOMIC CHARGES
----------------------
   0 C :   -0.003115
   1 C :   -0.041235
   2 C :    0.003381
   3 C :   -0.013404
   4 C :   -0.011097
   5 C :   -0.006434
   6 N :   -0.039718
   7 C :    0.003870
   8 C :    0.002574
   9 N :   -0.037295
  10 C :    0.065662
  11 O :    0.033928
  12 C :    0.027291
  13 C :   -0.036411
  14 C :   -0.127277
  15 C :    0.170338
  16 F :   -0.056788
  17 F :   -0.063341
  18 F :   -0.056382
  19 C :   -0.020202
  20 C :   -0.036061
  21 C :    0.054771
  22 O :    0.020211
  23 C :    0.032507
  24 C :   -0.026839
  25 C :   -0.123567
  26 C :    0.168652
  27 F :   -0.068862
  28 F :   -0.069570
  29 F :   -0.048077
  30 C :   -0.005930
  31 C :   -0.043591
  32 C :    0.004460
  33 N :    0.107539
  34 C :    0.016903
  35 C :   -0.088976
  36 C :   -0.220013
  37 S :    1.170581
  38 O :   -0.494861
  39 O :   -0.498682
  40 C :   -0.175182
  41 C :    0.037410
  42 C :    0.024031
  43 C :   -0.020553
  44 C :    0.070309
  45 C :   -0.089961
  46 C :    0.055479
  47 C :   -0.062962
  48 N :    0.279665
  49 O :   -0.190936
  50 O :   -0.203510
  51 N :    0.267265
  52 O :   -0.180738
  53 O :   -0.175102
  54 C :   -0.062999
  55 C :   -0.146968
  56 S :    0.488900
  57 C :   -0.142694
  58 C :   -0.089364
  59 C :    0.085805
  60 O :   -0.145922
  61 H :    0.033536
  62 H :    0.031916
  63 H :    0.038205
  64 H :    0.026397
  65 H :    0.026326
  66 H :    0.036453
  67 H :    0.039334
  68 H :    0.040760
  69 H :    0.043715
  70 H :    0.038223
  71 H :    0.028553
  72 H :    0.098196
  73 H :    0.029730
  74 H :    0.044489
  75 H :    0.041466
  76 H :    0.032949
  77 H :    0.036392
  78 H :    0.031194
  79 H :    0.035250

  Mayer bond orders larger than 0.100000
B(  0-C ,  1-C ) :   1.2134 B(  0-C ,  5-C ) :   1.4665 B(  0-C , 61-H ) :   0.9962
B(  1-C ,  2-C ) :   1.4102 B(  1-C , 10-C ) :   1.0377 B(  2-C ,  3-C ) :   1.2341
B(  2-C ,  5-C ) :   0.1001 B(  2-C , 62-H ) :   0.9970 B(  3-C ,  4-C ) :   1.2418
B(  3-C ,  9-N ) :   1.4305 B(  4-C ,  5-C ) :   1.2319 B(  4-C ,  6-N ) :   1.4343
B(  5-C , 63-H ) :   1.0084 B(  6-N ,  7-C ) :   1.6722 B(  7-C ,  8-C ) :   1.2231
B(  7-C , 64-H ) :   0.9741 B(  8-C ,  9-N ) :   1.6795 B(  8-C , 65-H ) :   0.9738
B( 10-C , 11-O ) :   1.1880 B( 10-C , 12-C ) :   0.1060 B( 10-C , 14-C ) :   1.5055
B( 11-O , 12-C ) :   1.1296 B( 12-C , 13-C ) :   1.4393 B( 12-C , 19-C ) :   1.1215
B( 13-C , 14-C ) :   1.2356 B( 13-C , 66-H ) :   1.0221 B( 14-C , 15-C ) :   0.9463
B( 15-C , 16-F ) :   1.1768 B( 15-C , 17-F ) :   1.1399 B( 15-C , 18-F ) :   1.1754
B( 19-C , 20-C ) :   1.6397 B( 19-C , 67-H ) :   0.9746 B( 20-C , 21-C ) :   1.1593
B( 20-C , 68-H ) :   0.9544 B( 21-C , 22-O ) :   1.1699 B( 21-C , 23-C ) :   0.1001
B( 21-C , 25-C ) :   1.4411 B( 22-O , 23-C ) :   1.1259 B( 23-C , 24-C ) :   1.4339
B( 23-C , 30-C ) :   1.1549 B( 24-C , 25-C ) :   1.2453 B( 24-C , 69-H ) :   1.0220
B( 25-C , 26-C ) :   0.9458 B( 26-C , 27-F ) :   1.1597 B( 26-C , 28-F ) :   1.1582
B( 26-C , 29-F ) :   1.1912 B( 30-C , 31-C ) :   1.6598 B( 30-C , 70-H ) :   0.9517
B( 31-C , 32-C ) :   1.1029 B( 31-C , 71-H ) :   0.9686 B( 32-C , 33-N ) :   1.2155
B( 32-C , 36-C ) :   1.5070 B( 33-N , 34-C ) :   1.2393 B( 33-N , 72-H ) :   0.9311
B( 34-C , 35-C ) :   1.4114 B( 34-C , 73-H ) :   0.9858 B( 35-C , 36-C ) :   1.3356
B( 35-C , 41-C ) :   1.0731 B( 36-C , 37-S ) :   0.8142 B( 37-S , 38-O ) :   1.7155
B( 37-S , 39-O ) :   1.7101 B( 37-S , 40-C ) :   0.8116 B( 40-C , 41-C ) :   1.6572
B( 40-C , 42-C ) :   1.1330 B( 41-C , 74-H ) :   0.9897 B( 42-C , 43-C ) :   1.5974
B( 42-C , 75-H ) :   0.9644 B( 43-C , 44-C ) :   1.1928 B( 43-C , 76-H ) :   0.9666
B( 44-C , 45-C ) :   1.5478 B( 44-C , 77-H ) :   0.9760 B( 45-C , 46-C ) :   1.0689
B( 45-C , 59-C ) :   0.9539 B( 46-C , 47-C ) :   1.6109 B( 46-C , 54-C ) :   1.0161
B( 47-C , 48-N ) :   0.9507 B( 47-C , 51-N ) :   0.8727 B( 48-N , 49-O ) :   1.5316
B( 48-N , 50-O ) :   1.4918 B( 49-O , 50-O ) :   0.2613 B( 51-N , 52-O ) :   1.5438
B( 51-N , 53-O ) :   1.5248 B( 52-O , 53-O ) :   0.2889 B( 54-C , 55-C ) :   1.5492
B( 54-C , 58-C ) :   1.2195 B( 55-C , 56-S ) :   1.1868 B( 55-C , 78-H ) :   0.9474
B( 56-S , 57-C ) :   1.1837 B( 57-C , 58-C ) :   1.5507 B( 57-C , 79-H ) :   0.9721
B( 58-C , 59-C ) :   0.9617 B( 59-C , 60-O ) :   2.1826

-----------------------------------------------------------------------------
         ABSORPTION SPECTRUM VIA TRANSITION ELECTRIC DIPOLE MOMENTS
-----------------------------------------------------------------------------
State   Energy  Wavelength   fosc         T2         TX        TY        TZ
        (cm-1)    (nm)                  (au**2)     (au)      (au)      (au)
-----------------------------------------------------------------------------
   0   18974.7    527.0   1.194012861  20.71618   2.11154   2.16962   3.39857
   1   22843.2    437.8   0.672513700   9.69213  -1.29229  -1.42212  -2.44943
   2   24165.1    413.8   0.949074191  12.92967   2.18242   2.24976   1.76218
   3   27042.7    369.8   0.024172562   0.29427  -0.51339  -0.17514   0.00558
   4   28410.3    352.0   0.001828571   0.02119   0.11522   0.08350   0.03068
   5   28651.2    349.0   0.128897403   1.48107   1.12221   0.28763  -0.37280
   6   30089.3    332.3   0.087180528   0.95386   0.81408   0.48628   0.23379
   7   30798.9    324.7   0.078626836   0.84045   0.44158   0.40106   0.69614
   8   31242.0    320.1   0.007315617   0.07709   0.05508   0.04452  -0.26846
   9   31453.4    317.9   0.008223444   0.08607  -0.17856   0.22288  -0.06716
  10   31587.6    316.6   0.013623755   0.14199  -0.17213  -0.09450  -0.32161
  11   32055.5    312.0   0.070590653   0.72497   0.23386   0.25232   0.77886
  12   32311.2    309.5   0.037216831   0.37919   0.19912   0.11765   0.57071
  13   33187.1    301.3   0.009183128   0.09110   0.28222   0.07622  -0.07509
  14   33703.5    296.7   0.027174234   0.26543   0.37472   0.15728  -0.31667
  15   33899.2    295.0   0.034955794   0.33947  -0.09872  -0.33510   0.46630
  16   34801.5    287.3   0.012975921   0.12275  -0.26941  -0.13653   0.17755
  17   35300.6    283.3   0.075177866   0.70110  -0.40525  -0.16294  -0.71438
  18   35644.1    280.6   0.176892024   1.63379  -1.03954  -0.65058   0.36040
  19   35770.6    279.6   0.037037531   0.34087  -0.39083  -0.14547   0.40861
  20   36406.0    274.7   0.021744501   0.19663   0.24046   0.06831  -0.36625
  21   36536.6    273.7   0.008560246   0.07713  -0.16895  -0.00929   0.22023
  22   37037.2    270.0   0.067076908   0.59623   0.13421  -0.13424  -0.74846
  23   37479.1    266.8   0.014282545   0.12546  -0.28152  -0.14236   0.16104
  24   38076.2    262.6   0.016782412   0.14510   0.32207   0.05706  -0.19524
  25   38256.0    261.4   0.181023905   1.55780  -0.10169  -0.13444   1.23668
  26   38788.1    257.8   0.006103298   0.05180   0.11688  -0.00003  -0.19530
  27   39259.9    254.7   0.061316625   0.51417  -0.31066   0.03132   0.64550
  28   39644.9    252.2   0.013441796   0.11162   0.26890   0.08850  -0.17743
  29   39696.5    251.9   0.041784586   0.34653  -0.22776  -0.01031   0.54272
  30   40009.4    249.9   0.005867313   0.04828  -0.16906  -0.13706   0.03019
  31   40278.0    248.3   0.011427751   0.09340   0.01495  -0.23763   0.19161
  32   40294.9    248.2   0.029923491   0.24448   0.16264   0.35165   0.30719

FINAL SINGLE POINT ENERGY     -3839.645264959609

DIPOLE MOMENT
-------------
                                X             Y             Z
Electronic contribution:     12.15002      10.22286       5.42404
Nuclear contribution   :    -14.21116     -10.98671      -1.75514
                        -----------------------------------------
Total Dipole Moment    :     -2.06114      -0.76385       3.66890
                        -----------------------------------------
Magnitude (a.u.)       :      4.27698
Magnitude (Debye)      :     10.87122

Rotational constants in cm-1:     0.003535     0.000239     0.000226
Rotational constants in MHz :   105.975617     7.153847     6.782632

                             ****ORCA TERMINATED NORMALLY****
TOTAL RUN TIME: 0 days 0 hours 6 minutes 31 seconds 717 msec
