                         Program Version 4.2.0 -  RELEASE  -
|  1> # ORCA input file
|  2> # SCF done       -174.095644582873          0.000918813079
|  3> ! CAM-B3LYP def2-SVP def2/J RIJCOSX Grid4 TightSCF
|  4> %maxcore 5000
|  5> %tddft
|  6>     Mode sTDDFT
|  7>     Ethresh 5.0
|  8>     maxcore 5000
|  9> end
| 10>
| 11> %pal
| 12>   nprocs 6
| 13>   end
| 14> * xyz 0 1
| 15>    C       -5.49240         0.05623        -6.82547
| 16>    C       -5.94328         0.17728        -5.48866
| 17>    C       -6.67810         1.27314        -5.11114
| 18>    C       -6.92916         2.30698        -6.03468
| 19>    C       -6.41834         2.20542        -7.35925
| 20>    C       -5.71777         1.04250        -7.73946
| 21>    N       -6.59304         3.20594        -8.24618
| 22>    C       -7.26827         4.24807        -7.84528
| 23>    C       -7.80612         4.33501        -6.54500
| 24>    N       -7.63383         3.39546        -5.65459
| 25>    C       -5.57875        -0.87545        -4.51854
| 26>    C       -4.19909        -1.17549        -4.29291
| 27>    C       -3.83827        -2.19923        -3.44971
| 28>    C       -4.82658        -2.95376        -2.79194
| 29>    C       -6.19961        -2.63746        -2.99157
| 30>    C       -6.54780        -1.58815        -3.86382
| 31>    N       -7.16660        -3.33579        -2.36029
| 32>    C       -6.78431        -4.30088        -1.56901
| 33>    C       -5.42152        -4.61106        -1.36622
| 34>    N       -4.46427        -3.95402        -1.96114
| 35>    C       -3.20121        -0.33891        -4.94680
| 36>    O       -3.47934         0.96455        -5.09238
| 37>    C       -2.50178         1.54606        -5.82134
| 38>    C       -1.54601         0.60582        -6.13082
| 39>    C       -1.99404        -0.60942        -5.56220
| 40>    C       -1.31853        -1.92615        -5.68551
| 41>    F       -2.17553        -2.91718        -5.99474
| 42>    F       -0.37931        -1.92288        -6.64068
| 43>    F       -0.69959        -2.31084        -4.55195
| 44>    C       -2.67998         2.91085        -6.22315
| 45>    C       -3.72614         3.63109        -5.78285
| 46>    C       -4.14947         4.94188        -6.22254
| 47>    C       -5.13140         5.59897        -5.46828
| 48>    C       -5.61787         6.80469        -5.92342
| 49>    C       -5.15591         7.37059        -7.11847
| 50>    C       -4.18581         6.73156        -7.85932
| 51>    C       -3.68324         5.52268        -7.40476
| 52>    C       -5.90630         8.64218        -7.35907
| 53>    C       -6.84225         8.71076        -6.14772
| 54>    O       -7.64564         9.57860        -5.90200
| 55>    N       -6.60770         7.60804        -5.37496
| 56>    C       -7.29744         7.34353        -4.13268
| 57>    C       -6.44647         7.69507        -2.91612
| 58>    C       -5.01824         9.89826        -7.42806
| 59>    C       -4.13414         9.86754        -8.67643
| 60>    O       -4.48154         9.79026        -9.82559
| 61>    N       -2.83286         9.92401        -8.24683
| 62>    C       -2.73445         9.98954        -6.86824
| 63>    C       -1.60742        10.05858        -6.08115
| 64>    C       -1.77714        10.12147        -4.68763
| 65>    C       -3.06673        10.11398        -4.14021
| 66>    C       -4.18914        10.05686        -4.95035
| 67>    C       -4.02308         9.98858        -6.31585
| 68>    C       -0.64479        10.21586        -3.79759
| 69>    C       -0.60315        10.21379        -2.41866
| 70>    C        0.77251        10.35257        -2.00340
| 71>    C        1.59540        10.44393        -3.20587
| 72>    O        2.78004        10.56916        -3.37926
| 73>    N        0.65357        10.34668        -4.23733
| 74>    C        0.78184        10.34563        -0.65223
| 75>    O       -0.46488        10.21165        -0.15921
| 76>    C       -1.38649        10.12140        -1.21001
| 77>    O       -2.56456         9.99521        -1.00219
| 78>    H       -4.95398        -0.83730        -7.10887
| 79>    H       -7.04451         1.38215        -4.10180
| 80>    H       -5.36748         0.96727        -8.75673
| 81>    H       -7.39984         5.04855        -8.56052
| 82>    H       -8.38981         5.19413        -6.24131
| 83>    H       -2.80553        -2.43447        -3.24839
| 84>    H       -7.59440        -1.37746        -4.02108
| 85>    H       -7.56605        -4.85704        -1.06920
| 86>    H       -5.12184        -5.41149        -0.70322
| 87>    H       -0.64956         0.74708        -6.69780
| 88>    H       -1.95841         3.29573        -6.92601
| 89>    H       -4.36058         3.17730        -5.03188
| 90>    H       -5.50069         5.14834        -4.56027
| 91>    H       -3.84096         7.15049        -8.79237
| 92>    H       -2.94505         5.00364        -7.99424
| 93>    H       -6.49562         8.60355        -8.28147
| 94>    H       -7.57590         6.28607        -4.10770
| 95>    H       -8.20476         7.95307        -4.14343
| 96>    H       -5.48954         7.18003        -2.95068
| 97>    H       -6.96833         7.40250        -2.00965
| 98>    H       -6.26056         8.76436        -2.87314
| 99>    H       -5.68142        10.76930        -7.45882
|100>    H       -2.04680         9.91596        -8.87793
|101>    H       -0.62931        10.05730        -6.53670
|102>    H       -3.18545        10.16018        -3.07023
|103>    H       -5.17613        10.07862        -4.51796
|104>    H        0.92821        10.39601        -5.20536
|105>    H        1.57803        10.42569         0.06400
|106> *
|107>
|108>                          ****END OF INPUT****

CARTESIAN COORDINATES (ANGSTROEM)
---------------------------------
  C     -5.492400    0.056230   -6.825470
  C     -5.943280    0.177280   -5.488660
  C     -6.678100    1.273140   -5.111140
  C     -6.929160    2.306980   -6.034680
  C     -6.418340    2.205420   -7.359250
  C     -5.717770    1.042500   -7.739460
  N     -6.593040    3.205940   -8.246180
  C     -7.268270    4.248070   -7.845280
  C     -7.806120    4.335010   -6.545000
  N     -7.633830    3.395460   -5.654590
  C     -5.578750   -0.875450   -4.518540
  C     -4.199090   -1.175490   -4.292910
  C     -3.838270   -2.199230   -3.449710
  C     -4.826580   -2.953760   -2.791940
  C     -6.199610   -2.637460   -2.991570
  C     -6.547800   -1.588150   -3.863820
  N     -7.166600   -3.335790   -2.360290
  C     -6.784310   -4.300880   -1.569010
  C     -5.421520   -4.611060   -1.366220
  N     -4.464270   -3.954020   -1.961140
  C     -3.201210   -0.338910   -4.946800
  O     -3.479340    0.964550   -5.092380
  C     -2.501780    1.546060   -5.821340
  C     -1.546010    0.605820   -6.130820
  C     -1.994040   -0.609420   -5.562200
  C     -1.318530   -1.926150   -5.685510
  F     -2.175530   -2.917180   -5.994740
  F     -0.379310   -1.922880   -6.640680
  F     -0.699590   -2.310840   -4.551950
  C     -2.679980    2.910850   -6.223150
  C     -3.726140    3.631090   -5.782850
  C     -4.149470    4.941880   -6.222540
  C     -5.131400    5.598970   -5.468280
  C     -5.617870    6.804690   -5.923420
  C     -5.155910    7.370590   -7.118470
  C     -4.185810    6.731560   -7.859320
  C     -3.683240    5.522680   -7.404760
  C     -5.906300    8.642180   -7.359070
  C     -6.842250    8.710760   -6.147720
  O     -7.645640    9.578600   -5.902000
  N     -6.607700    7.608040   -5.374960
  C     -7.297440    7.343530   -4.132680
  C     -6.446470    7.695070   -2.916120
  C     -5.018240    9.898260   -7.428060
  C     -4.134140    9.867540   -8.676430
  O     -4.481540    9.790260   -9.825590
  N     -2.832860    9.924010   -8.246830
  C     -2.734450    9.989540   -6.868240
  C     -1.607420   10.058580   -6.081150
  C     -1.777140   10.121470   -4.687630
  C     -3.066730   10.113980   -4.140210
  C     -4.189140   10.056860   -4.950350
  C     -4.023080    9.988580   -6.315850
  C     -0.644790   10.215860   -3.797590
  C     -0.603150   10.213790   -2.418660
  C      0.772510   10.352570   -2.003400
  C      1.595400   10.443930   -3.205870
  O      2.780040   10.569160   -3.379260
  N      0.653570   10.346680   -4.237330
  C      0.781840   10.345630   -0.652230
  O     -0.464880   10.211650   -0.159210
  C     -1.386490   10.121400   -1.210010
  O     -2.564560    9.995210   -1.002190
  H     -4.953980   -0.837300   -7.108870
  H     -7.044510    1.382150   -4.101800
  H     -5.367480    0.967270   -8.756730
  H     -7.399840    5.048550   -8.560520
  H     -8.389810    5.194130   -6.241310
  H     -2.805530   -2.434470   -3.248390
  H     -7.594400   -1.377460   -4.021080
  H     -7.566050   -4.857040   -1.069200
  H     -5.121840   -5.411490   -0.703220
  H     -0.649560    0.747080   -6.697800
  H     -1.958410    3.295730   -6.926010
  H     -4.360580    3.177300   -5.031880
  H     -5.500690    5.148340   -4.560270
  H     -3.840960    7.150490   -8.792370
  H     -2.945050    5.003640   -7.994240
  H     -6.495620    8.603550   -8.281470
  H     -7.575900    6.286070   -4.107700
  H     -8.204760    7.953070   -4.143430
  H     -5.489540    7.180030   -2.950680
  H     -6.968330    7.402500   -2.009650
  H     -6.260560    8.764360   -2.873140
  H     -5.681420   10.769300   -7.458820
  H     -2.046800    9.915960   -8.877930
  H     -0.629310   10.057300   -6.536700
  H     -3.185450   10.160180   -3.070230
  H     -5.176130   10.078620   -4.517960
  H      0.928210   10.396010   -5.205360
  H      1.578030   10.425690    0.064000

 Total Charge           Charge          ....    0
 Multiplicity           Mult            ....    1
 Number of Electrons    NEL             ....  434
 Basis Dimension        Dim             .... 1022

ORBITAL ENERGIES
----------------

  NO   OCC          E(Eh)            E(eV)
   0   2.0000     -24.800448      -674.8545
   1   2.0000     -24.796544      -674.7483
   2   2.0000     -24.796284      -674.7412
   3   2.0000     -19.303265      -525.2685
   4   2.0000     -19.282972      -524.7164
   5   2.0000     -19.210442      -522.7427
   6   2.0000     -19.204332      -522.5764
   7   2.0000     -19.203237      -522.5466
   8   2.0000     -19.197508      -522.3908
   9   2.0000     -14.468686      -393.7130
  10   2.0000     -14.465736      -393.6327
  11   2.0000     -14.457065      -393.3967
  12   2.0000     -14.422892      -392.4669
  13   2.0000     -14.422749      -392.4630
  14   2.0000     -14.421462      -392.4279
  15   2.0000     -14.419795      -392.3826
  16   2.0000     -10.520448      -286.2759
  17   2.0000     -10.408743      -283.2363
  18   2.0000     -10.394161      -282.8395
  19   2.0000     -10.390686      -282.7449
  20   2.0000     -10.380226      -282.4603
  21   2.0000     -10.361763      -281.9579
  22   2.0000     -10.361344      -281.9465
  23   2.0000     -10.352538      -281.7069
  24   2.0000     -10.341463      -281.4055
  25   2.0000     -10.335765      -281.2505
  26   2.0000     -10.320003      -280.8216
  27   2.0000     -10.317759      -280.7605
  28   2.0000     -10.316958      -280.7387
  29   2.0000     -10.316842      -280.7355
  30   2.0000     -10.316187      -280.7177
  31   2.0000     -10.315990      -280.7123
  32   2.0000     -10.313443      -280.6430
  33   2.0000     -10.313200      -280.6364
  34   2.0000     -10.311465      -280.5892
  35   2.0000     -10.311250      -280.5834
  36   2.0000     -10.309126      -280.5256
  37   2.0000     -10.306078      -280.4426
  38   2.0000     -10.305398      -280.4241
  39   2.0000     -10.302768      -280.3526
  40   2.0000     -10.301878      -280.3284
  41   2.0000     -10.299419      -280.2614
  42   2.0000     -10.297006      -280.1958
  43   2.0000     -10.296810      -280.1904
  44   2.0000     -10.293543      -280.1016
  45   2.0000     -10.290243      -280.0117
  46   2.0000     -10.288082      -279.9529
  47   2.0000     -10.287554      -279.9386
  48   2.0000     -10.287526      -279.9378
  49   2.0000     -10.287233      -279.9298
  50   2.0000     -10.283627      -279.8317
  51   2.0000     -10.283248      -279.8214
  52   2.0000     -10.283067      -279.8165
  53   2.0000     -10.282746      -279.8077
  54   2.0000     -10.282603      -279.8038
  55   2.0000     -10.282459      -279.7999
  56   2.0000     -10.281686      -279.7789
  57   2.0000     -10.279916      -279.7307
  58   2.0000     -10.279128      -279.7093
  59   2.0000     -10.278329      -279.6875
  60   2.0000     -10.277933      -279.6768
  61   2.0000     -10.274214      -279.5756
  62   2.0000     -10.264138      -279.3014
  63   2.0000      -1.387442       -37.7542
  64   2.0000      -1.291302       -35.1381
  65   2.0000      -1.286964       -35.0201
  66   2.0000      -1.228770       -33.4365
  67   2.0000      -1.213426       -33.0190
  68   2.0000      -1.147091       -31.2139
  69   2.0000      -1.143910       -31.1274
  70   2.0000      -1.140469       -31.0337
  71   2.0000      -1.118974       -30.4488
  72   2.0000      -1.078470       -29.3467
  73   2.0000      -1.075448       -29.2644
  74   2.0000      -1.071971       -29.1698
  75   2.0000      -1.067835       -29.0573
  76   2.0000      -1.064377       -28.9632
  77   2.0000      -1.001306       -27.2469
  78   2.0000      -0.998278       -27.1645
  79   2.0000      -0.976881       -26.5823
  80   2.0000      -0.966317       -26.2948
  81   2.0000      -0.961149       -26.1542
  82   2.0000      -0.946176       -25.7468
  83   2.0000      -0.935474       -25.4555
  84   2.0000      -0.925607       -25.1871
  85   2.0000      -0.916137       -24.9294
  86   2.0000      -0.913692       -24.8628
  87   2.0000      -0.894010       -24.3272
  88   2.0000      -0.878947       -23.9174
  89   2.0000      -0.871451       -23.7134
  90   2.0000      -0.863996       -23.5105
  91   2.0000      -0.854231       -23.2448
  92   2.0000      -0.849221       -23.1085
  93   2.0000      -0.847826       -23.0705
  94   2.0000      -0.836579       -22.7645
  95   2.0000      -0.831972       -22.6391
  96   2.0000      -0.826471       -22.4894
  97   2.0000      -0.815554       -22.1924
  98   2.0000      -0.803074       -21.8528
  99   2.0000      -0.792341       -21.5607
 100   2.0000      -0.775004       -21.0889
 101   2.0000      -0.770887       -20.9769
 102   2.0000      -0.765591       -20.8328
 103   2.0000      -0.750912       -20.4333
 104   2.0000      -0.745819       -20.2948
 105   2.0000      -0.740600       -20.1528
 106   2.0000      -0.731685       -19.9101
 107   2.0000      -0.724740       -19.7212
 108   2.0000      -0.724349       -19.7105
 109   2.0000      -0.720669       -19.6104
 110   2.0000      -0.705652       -19.2018
 111   2.0000      -0.704473       -19.1697
 112   2.0000      -0.699767       -19.0416
 113   2.0000      -0.693728       -18.8773
 114   2.0000      -0.691537       -18.8177
 115   2.0000      -0.686068       -18.6689
 116   2.0000      -0.684568       -18.6281
 117   2.0000      -0.678074       -18.4513
 118   2.0000      -0.670449       -18.2439
 119   2.0000      -0.665401       -18.1065
 120   2.0000      -0.648243       -17.6396
 121   2.0000      -0.641919       -17.4675
 122   2.0000      -0.640240       -17.4218
 123   2.0000      -0.634054       -17.2535
 124   2.0000      -0.626758       -17.0550
 125   2.0000      -0.617884       -16.8135
 126   2.0000      -0.611265       -16.6334
 127   2.0000      -0.610477       -16.6119
 128   2.0000      -0.603557       -16.4236
 129   2.0000      -0.601034       -16.3550
 130   2.0000      -0.597546       -16.2600
 131   2.0000      -0.596261       -16.2251
 132   2.0000      -0.592191       -16.1143
 133   2.0000      -0.591873       -16.1057
 134   2.0000      -0.583828       -15.8868
 135   2.0000      -0.578558       -15.7434
 136   2.0000      -0.576205       -15.6793
 137   2.0000      -0.573880       -15.6161
 138   2.0000      -0.573053       -15.5936
 139   2.0000      -0.569532       -15.4978
 140   2.0000      -0.562812       -15.3149
 141   2.0000      -0.562553       -15.3078
 142   2.0000      -0.549781       -14.9603
 143   2.0000      -0.546682       -14.8760
 144   2.0000      -0.545157       -14.8345
 145   2.0000      -0.543382       -14.7862
 146   2.0000      -0.541539       -14.7360
 147   2.0000      -0.538388       -14.6503
 148   2.0000      -0.536004       -14.5854
 149   2.0000      -0.533843       -14.5266
 150   2.0000      -0.531365       -14.4592
 151   2.0000      -0.529911       -14.4196
 152   2.0000      -0.528765       -14.3884
 153   2.0000      -0.527885       -14.3645
 154   2.0000      -0.524792       -14.2803
 155   2.0000      -0.523544       -14.2464
 156   2.0000      -0.521974       -14.2036
 157   2.0000      -0.521958       -14.2032
 158   2.0000      -0.517637       -14.0856
 159   2.0000      -0.516160       -14.0454
 160   2.0000      -0.514404       -13.9976
 161   2.0000      -0.510352       -13.8874
 162   2.0000      -0.507309       -13.8046
 163   2.0000      -0.506505       -13.7827
 164   2.0000      -0.505705       -13.7609
 165   2.0000      -0.503744       -13.7076
 166   2.0000      -0.498255       -13.5582
 167   2.0000      -0.497883       -13.5481
 168   2.0000      -0.489308       -13.3147
 169   2.0000      -0.483899       -13.1676
 170   2.0000      -0.482299       -13.1240
 171   2.0000      -0.477988       -13.0067
 172   2.0000      -0.477520       -12.9940
 173   2.0000      -0.474945       -12.9239
 174   2.0000      -0.473572       -12.8865
 175   2.0000      -0.472461       -12.8563
 176   2.0000      -0.469126       -12.7656
 177   2.0000      -0.466025       -12.6812
 178   2.0000      -0.461834       -12.5671
 179   2.0000      -0.458352       -12.4724
 180   2.0000      -0.453363       -12.3366
 181   2.0000      -0.452436       -12.3114
 182   2.0000      -0.450076       -12.2472
 183   2.0000      -0.449376       -12.2281
 184   2.0000      -0.446051       -12.1377
 185   2.0000      -0.440661       -11.9910
 186   2.0000      -0.436487       -11.8774
 187   2.0000      -0.435074       -11.8390
 188   2.0000      -0.431719       -11.7477
 189   2.0000      -0.429682       -11.6922
 190   2.0000      -0.423700       -11.5295
 191   2.0000      -0.422372       -11.4933
 192   2.0000      -0.419646       -11.4192
 193   2.0000      -0.416173       -11.3247
 194   2.0000      -0.408308       -11.1106
 195   2.0000      -0.399433       -10.8691
 196   2.0000      -0.385412       -10.4876
 197   2.0000      -0.383826       -10.4444
 198   2.0000      -0.380896       -10.3647
 199   2.0000      -0.375294       -10.2123
 200   2.0000      -0.366720        -9.9790
 201   2.0000      -0.364810        -9.9270
 202   2.0000      -0.352176        -9.5832
 203   2.0000      -0.348003        -9.4696
 204   2.0000      -0.345898        -9.4124
 205   2.0000      -0.345047        -9.3892
 206   2.0000      -0.338682        -9.2160
 207   2.0000      -0.336445        -9.1551
 208   2.0000      -0.321347        -8.7443
 209   2.0000      -0.319854        -8.7037
 210   2.0000      -0.318958        -8.6793
 211   2.0000      -0.317191        -8.6312
 212   2.0000      -0.306916        -8.3516
 213   2.0000      -0.301751        -8.2110
 214   2.0000      -0.289135        -7.8678
 215   2.0000      -0.272162        -7.4059
 216   2.0000      -0.261022        -7.1028
 217   0.0000      -0.071919        -1.9570
 218   0.0000      -0.052131        -1.4186
 219   0.0000      -0.041538        -1.1303
 220   0.0000      -0.033149        -0.9020
 221   0.0000      -0.009643        -0.2624

MULLIKEN ATOMIC CHARGES
-----------------------
   0 C :    0.052917
   1 C :    0.031859
   2 C :   -0.028382
   3 C :   -0.014835
   4 C :   -0.010671
   5 C :    0.007031
   6 N :   -0.010382
   7 C :    0.021161
   8 C :    0.034754
   9 N :   -0.033925
  10 C :    0.084607
  11 C :    0.086085
  12 C :   -0.056929
  13 C :   -0.003267
  14 C :   -0.010956
  15 C :   -0.053848
  16 N :   -0.014121
  17 C :    0.024765
  18 C :    0.020301
  19 N :   -0.009964
  20 C :    0.078649
  21 O :   -0.191865
  22 C :    0.197417
  23 C :   -0.085821
  24 C :   -0.101499
  25 C :    0.521298
  26 F :   -0.162367
  27 F :   -0.155857
  28 F :   -0.161515
  29 C :   -0.006809
  30 C :    0.006141
  31 C :    0.108366
  32 C :   -0.124147
  33 C :    0.184903
  34 C :   -0.040927
  35 C :   -0.045145
  36 C :   -0.002923
  37 C :    0.052302
  38 C :    0.100292
  39 O :   -0.198873
  40 N :   -0.226288
  41 C :    0.093782
  42 C :   -0.001171
  43 C :    0.018673
  44 C :    0.107477
  45 O :   -0.171424
  46 N :   -0.075702
  47 C :    0.151281
  48 C :   -0.139967
  49 C :    0.128269
  50 C :   -0.021527
  51 C :   -0.019117
  52 C :   -0.044449
  53 C :    0.105967
  54 C :   -0.157659
  55 C :   -0.021739
  56 C :    0.165531
  57 O :   -0.150586
  58 N :   -0.126319
  59 C :    0.091538
  60 O :   -0.234454
  61 C :    0.243473
  62 O :   -0.153894
  63 H :   -0.008924
  64 H :   -0.033348
  65 H :   -0.025654
  66 H :    0.008274
  67 H :    0.008408
  68 H :   -0.020127
  69 H :   -0.024728
  70 H :    0.013255
  71 H :    0.013955
  72 H :   -0.006474
  73 H :   -0.006954
  74 H :    0.010550
  75 H :   -0.032086
  76 H :   -0.015885
  77 H :   -0.031959
  78 H :    0.057209
  79 H :    0.034029
  80 H :    0.041382
  81 H :    0.026010
  82 H :    0.025493
  83 H :    0.032405
  84 H :    0.065719
  85 H :    0.124943
  86 H :   -0.057557
  87 H :   -0.006829
  88 H :   -0.006411
  89 H :    0.130601
  90 H :    0.035188
Sum of atomic charges:    0.0000000

LOEWDIN ATOMIC CHARGES
----------------------
   0 C :   -0.010023
   1 C :   -0.013305
   2 C :   -0.013896
   3 C :   -0.014693
   4 C :   -0.014310
   5 C :   -0.007010
   6 N :   -0.035453
   7 C :    0.003002
   8 C :    0.002114
   9 N :   -0.050221
  10 C :   -0.000746
  11 C :   -0.034257
  12 C :    0.007186
  13 C :   -0.014525
  14 C :   -0.010579
  15 C :   -0.003188
  16 N :   -0.040291
  17 C :    0.004739
  18 C :    0.002389
  19 N :   -0.036474
  20 C :    0.050600
  21 O :    0.043976
  22 C :    0.036903
  23 C :   -0.049025
  24 C :   -0.125216
  25 C :    0.169770
  26 F :   -0.063167
  27 F :   -0.055189
  28 F :   -0.064305
  29 C :   -0.038765
  30 C :   -0.002951
  31 C :   -0.017694
  32 C :   -0.045524
  33 C :    0.032436
  34 C :   -0.045216
  35 C :   -0.015224
  36 C :   -0.025625
  37 C :   -0.022688
  38 C :    0.073858
  39 O :   -0.195591
  40 N :   -0.005677
  41 C :    0.040079
  42 C :   -0.057706
  43 C :   -0.026664
  44 C :    0.077477
  45 O :   -0.181712
  46 N :    0.021475
  47 C :    0.033913
  48 C :   -0.052197
  49 C :   -0.034289
  50 C :    0.002802
  51 C :   -0.006401
  52 C :   -0.021342
  53 C :    0.098843
  54 C :   -0.145369
  55 C :   -0.122208
  56 C :    0.081046
  57 O :   -0.168170
  58 N :    0.025186
  59 C :    0.124120
  60 O :   -0.043981
  61 C :    0.104126
  62 O :   -0.149412
  63 H :    0.034076
  64 H :    0.033800
  65 H :    0.035919
  66 H :    0.024981
  67 H :    0.021511
  68 H :    0.035569
  69 H :    0.038515
  70 H :    0.026559
  71 H :    0.026766
  72 H :    0.035821
  73 H :    0.034106
  74 H :    0.032249
  75 H :    0.028565
  76 H :    0.032127
  77 H :    0.025170
  78 H :    0.058422
  79 H :    0.026664
  80 H :    0.036416
  81 H :    0.026783
  82 H :    0.033446
  83 H :    0.028916
  84 H :    0.062437
  85 H :    0.090243
  86 H :    0.021527
  87 H :    0.034934
  88 H :    0.035796
  89 H :    0.086103
  90 H :    0.036817

  Mayer bond orders larger than 0.100000
B(  0-C ,  1-C ) :   1.2326 B(  0-C ,  5-C ) :   1.4757 B(  0-C , 63-H ) :   0.9854
B(  1-C ,  2-C ) :   1.4619 B(  1-C , 10-C ) :   0.9334 B(  2-C ,  3-C ) :   1.2095
B(  2-C ,  5-C ) :   0.1025 B(  2-C , 64-H ) :   1.0198 B(  3-C ,  4-C ) :   1.2456
B(  3-C ,  9-N ) :   1.4075 B(  4-C ,  5-C ) :   1.2300 B(  4-C ,  6-N ) :   1.4330
B(  5-C , 65-H ) :   1.0087 B(  6-N ,  7-C ) :   1.6669 B(  7-C ,  8-C ) :   1.2275
B(  7-C , 66-H ) :   0.9760 B(  8-C ,  9-N ) :   1.6478 B(  8-C , 67-H ) :   0.9679
B( 10-C , 11-C ) :   1.2549 B( 10-C , 15-C ) :   1.4613 B( 11-C , 12-C ) :   1.4244
B( 11-C , 20-C ) :   0.9833 B( 12-C , 13-C ) :   1.2114 B( 12-C , 15-C ) :   0.1049
B( 12-C , 68-H ) :   1.0089 B( 13-C , 14-C ) :   1.2482 B( 13-C , 19-N ) :   1.4305
B( 14-C , 15-C ) :   1.2054 B( 14-C , 16-N ) :   1.4280 B( 15-C , 69-H ) :   1.0228
B( 16-N , 17-C ) :   1.6704 B( 17-C , 18-C ) :   1.2244 B( 17-C , 70-H ) :   0.9738
B( 18-C , 19-N ) :   1.6743 B( 18-C , 71-H ) :   0.9741 B( 20-C , 21-O ) :   1.1619
B( 20-C , 22-C ) :   0.1090 B( 20-C , 24-C ) :   1.5497 B( 21-O , 22-C ) :   1.1243
B( 22-C , 23-C ) :   1.4540 B( 22-C , 29-C ) :   1.1160 B( 23-C , 24-C ) :   1.2077
B( 23-C , 72-H ) :   1.0210 B( 24-C , 25-C ) :   0.9490 B( 25-C , 26-F ) :   1.1678
B( 25-C , 27-F ) :   1.1808 B( 25-C , 28-F ) :   1.1530 B( 29-C , 30-C ) :   1.7150
B( 29-C , 73-H ) :   0.9631 B( 30-C , 31-C ) :   1.0519 B( 30-C , 74-H ) :   0.9737
B( 31-C , 32-C ) :   1.2754 B( 31-C , 36-C ) :   1.3832 B( 32-C , 33-C ) :   1.3448
B( 32-C , 75-H ) :   1.0137 B( 33-C , 34-C ) :   1.3733 B( 33-C , 40-N ) :   1.0320
B( 34-C , 35-C ) :   1.4314 B( 34-C , 37-C ) :   0.9375 B( 35-C , 36-C ) :   1.3380
B( 35-C , 76-H ) :   0.9936 B( 36-C , 77-H ) :   0.9871 B( 37-C , 38-C ) :   0.9220
B( 37-C , 43-C ) :   1.0393 B( 37-C , 78-H ) :   0.8709 B( 38-C , 39-O ) :   2.1511
B( 38-C , 40-N ) :   1.1464 B( 40-N , 41-C ) :   0.9361 B( 41-C , 42-C ) :   1.1198
B( 41-C , 79-H ) :   0.9457 B( 41-C , 80-H ) :   0.9353 B( 42-C , 81-H ) :   0.9699
B( 42-C , 82-H ) :   0.9651 B( 42-C , 83-H ) :   0.9637 B( 43-C , 44-C ) :   0.9096
B( 43-C , 52-C ) :   0.9374 B( 43-C , 84-H ) :   0.8722 B( 44-C , 45-O ) :   2.2279
B( 44-C , 46-N ) :   1.1245 B( 46-N , 47-C ) :   1.0795 B( 46-N , 85-H ) :   0.9214
B( 47-C , 48-C ) :   1.3949 B( 47-C , 52-C ) :   1.3452 B( 48-C , 49-C ) :   1.2221
B( 48-C , 86-H ) :   0.9987 B( 49-C , 50-C ) :   1.3725 B( 49-C , 53-C ) :   1.0600
B( 50-C , 51-C ) :   1.3294 B( 50-C , 87-H ) :   0.9723 B( 51-C , 52-C ) :   1.4488
B( 51-C , 88-H ) :   0.9945 B( 53-C , 54-C ) :   1.4366 B( 53-C , 58-N ) :   1.2224
B( 54-C , 55-C ) :   1.1442 B( 54-C , 61-C ) :   1.0023 B( 55-C , 56-C ) :   0.9058
B( 55-C , 59-C ) :   1.5624 B( 56-C , 57-O ) :   2.2578 B( 56-C , 58-N ) :   1.0415
B( 58-N , 89-H ) :   0.9148 B( 59-C , 60-O ) :   1.1394 B( 59-C , 90-H ) :   1.0015
B( 60-O , 61-C ) :   1.0206 B( 61-C , 62-O ) :   2.1313

-----------------------------------------------------------------------------
         ABSORPTION SPECTRUM VIA TRANSITION ELECTRIC DIPOLE MOMENTS
-----------------------------------------------------------------------------
State   Energy  Wavelength   fosc         T2         TX        TY        TZ
        (cm-1)    (nm)                  (au**2)     (au)      (au)      (au)
-----------------------------------------------------------------------------
   0   26886.7    371.9   0.389818828   4.77310  -0.48853  -0.44748  -2.08187
   1   28195.9    354.7   0.019695691   0.22996   0.01201   0.27499  -0.39268
   2   28867.4    346.4   0.049254261   0.56171  -0.22569  -0.61872   0.35771
   3   29361.3    340.6   0.701828717   7.86921   0.22476   2.48219  -1.28742
   4   30524.9    327.6   0.007697468   0.08302   0.00551  -0.00497  -0.28803
   5   31080.0    321.8   0.008732748   0.09250   0.27223   0.11084   0.07815
   6   32549.5    307.2   0.121400440   1.22787  -0.77768  -0.42817   0.66314
   7   32767.2    305.2   0.240439282   2.41569   0.34255  -1.50583   0.17557
   8   33188.6    301.3   0.002367330   0.02348  -0.10548   0.11103   0.00527
   9   33212.9    301.1   0.005147382   0.05102   0.13875  -0.17805   0.00813
  10   34872.7    286.8   0.010952211   0.10339  -0.09954  -0.28337   0.11484
  11   35268.6    283.5   0.103564295   0.96671  -0.44297  -0.80357   0.35323
  12   35458.8    282.0   0.032742864   0.30400  -0.13983  -0.53268   0.02640
  13   37376.3    267.5   0.000233323   0.00206   0.01319  -0.03973   0.01739
  14   37453.3    267.0   0.000099632   0.00088   0.00626  -0.00786  -0.02784
  15   37522.1    266.5   0.081657022   0.71644  -0.05813   0.76734  -0.35250
  16   37676.6    265.4   0.317861110   2.77742  -0.96254   1.36041  -0.01508
  17   38413.3    260.3   0.051968532   0.44538   0.60333   0.01519   0.28486
  18   38985.6    256.5   0.085242372   0.71982  -0.01975  -0.80460   0.26841
  19   39769.3    251.5   0.186658870   1.54517   0.95953   0.13809   0.77808
  20   39813.2    251.2   0.033629900   0.27808  -0.52086  -0.03315  -0.07544
  21   40138.5    249.1   0.004638078   0.03804   0.00391   0.19054  -0.04147
  22   40176.5    248.9   0.162370966   1.33049   0.39709  -0.96207   0.49721

FINAL SINGLE POINT ENERGY     -2938.526962776334

DIPOLE MOMENT
-------------
                                X             Y             Z
Electronic contribution:     29.43454     -34.22561      -0.59640
Nuclear contribution   :    -29.02963      33.99319       0.15136
                        -----------------------------------------
Total Dipole Moment    :      0.40491      -0.23242      -0.44503
                        -----------------------------------------
Magnitude (a.u.)       :      0.64500
Magnitude (Debye)      :      1.63946

Rotational constants in cm-1:     0.001803     0.000649     0.000577
Rotational constants in MHz :    54.044876    19.457696    17.311916

                             ****ORCA TERMINATED NORMALLY****
TOTAL RUN TIME: 0 days 0 hours 9 minutes 38 seconds 935 msec
