                         Program Version 4.2.0 -  RELEASE  -
|  1> # ORCA input file
|  2> # SCF done       -118.044445798387          0.000977603269
|  3> ! CAM-B3LYP def2-SVP def2/J RIJCOSX Grid4 TightSCF
|  4> %maxcore 5000
|  5> %tddft
|  6>     Mode sTDDFT
|  7>     Ethresh 5.0
|  8>     maxcore 5000
|  9> end
| 10>
| 11> %pal
| 12>   nprocs 6
| 13>   end
| 14> * xyz 0 1
| 15>    C       -3.18282        -2.08721         2.07368
| 16>    C       -2.51865        -3.00686         1.21999
| 17>    C       -1.21108        -3.35377         1.50153
| 18>    C       -0.55173        -2.80537         2.61197
| 19>    C       -1.23125        -1.88247         3.45740
| 20>    C       -2.56647        -1.53971         3.15752
| 21>    N       -0.61528        -1.34066         4.52574
| 22>    C        0.62181        -1.69989         4.74635
| 23>    C        1.29608        -2.61583         3.91254
| 24>    N        0.72827        -3.15796         2.86983
| 25>    C       -3.21385        -3.55623         0.07979
| 26>    S       -4.83474        -3.04865        -0.30444
| 27>    C       -4.88494        -4.10194        -1.69097
| 28>    C       -3.70313        -4.79679        -1.82467
| 29>    C       -2.77090        -4.48808        -0.83203
| 30>    C       -6.01114        -4.15391        -2.49533
| 31>    C       -7.01644        -4.15920        -3.17705
| 32>    C       -8.15494        -4.16567        -3.97338
| 33>    C       -9.23274        -3.39772        -3.69077
| 34>    C      -10.42156        -3.33454        -4.46858
| 35>    S      -11.71003        -2.27892        -3.95758
| 36>    C      -12.68370        -2.73512        -5.32952
| 37>    C      -12.02366        -3.65529        -6.11931
| 38>    C      -10.76034        -3.98990        -5.63682
| 39>    C      -13.93878        -2.18575        -5.52171
| 40>    C      -15.03011        -1.66842        -5.65777
| 41>    C      -16.26959        -1.06618        -5.82065
| 42>    C      -17.08640        -1.29195        -6.87470
| 43>    C      -18.34729        -0.66245        -7.05763
| 44>    S      -18.98523         0.48623        -5.91237
| 45>    C      -20.41537         0.71906        -6.88534
| 46>    C      -20.37544        -0.06076        -8.02151
| 47>    C      -19.21852        -0.83344        -8.11511
| 48>    C      -21.39988         1.60570        -6.48334
| 49>    C      -22.22770         2.40381        -6.09240
| 50>    C      -23.18606         3.32421        -5.67825
| 51>    C      -23.09401         3.98131        -4.50458
| 52>    C      -24.02965         4.95899        -3.99781
| 53>    C      -23.83003         5.44946        -2.67920
| 54>    C      -24.65954         6.37428        -2.12052
| 55>    C      -25.75145         6.87646        -2.85920
| 56>    C      -25.96473         6.39941        -4.18444
| 57>    C      -25.09552         5.44364        -4.73166
| 58>    N      -26.99891         6.86324        -4.92239
| 59>    C      -27.77575         7.75237        -4.36625
| 60>    C      -27.56385         8.22098        -3.05300
| 61>    N      -26.57404         7.79389        -2.31423
| 62>    H       -4.20596        -1.82292         1.84661
| 63>    H       -0.65833        -4.04413         0.88557
| 64>    H       -3.07223        -0.84081         3.80521
| 65>    H        1.10996        -1.25903         5.60529
| 66>    H        2.32010        -2.90380         4.11174
| 67>    H       -3.53177        -5.50105        -2.61925
| 68>    H       -1.79770        -4.94206        -0.78687
| 69>    H       -8.13766        -4.81188        -4.84079
| 70>    H       -9.20523        -2.76874        -2.81043
| 71>    H      -12.45848        -4.06136        -7.01551
| 72>    H      -10.10904        -4.69064        -6.12772
| 73>    H      -16.56985        -0.37316        -5.04290
| 74>    H      -16.78430        -1.98493        -7.64926
| 75>    H      -21.16589        -0.05934        -8.75100
| 76>    H      -19.01152        -1.50201        -8.93228
| 77>    H      -24.01712         3.48012        -6.35349
| 78>    H      -22.24832         3.76387        -3.86369
| 79>    H      -22.99300         5.06627        -2.11268
| 80>    H      -24.50847         6.74451        -1.11843
| 81>    H      -25.29084         5.11838        -5.74112
| 82>    H      -28.60039         8.11825        -4.96366
| 83>    H      -28.21978         8.95721        -2.60766
| 84> *
| 85>
| 86>                          ****END OF INPUT****

CARTESIAN COORDINATES (ANGSTROEM)
---------------------------------
  C     -3.182820   -2.087210    2.073680
  C     -2.518650   -3.006860    1.219990
  C     -1.211080   -3.353770    1.501530
  C     -0.551730   -2.805370    2.611970
  C     -1.231250   -1.882470    3.457400
  C     -2.566470   -1.539710    3.157520
  N     -0.615280   -1.340660    4.525740
  C      0.621810   -1.699890    4.746350
  C      1.296080   -2.615830    3.912540
  N      0.728270   -3.157960    2.869830
  C     -3.213850   -3.556230    0.079790
  S     -4.834740   -3.048650   -0.304440
  C     -4.884940   -4.101940   -1.690970
  C     -3.703130   -4.796790   -1.824670
  C     -2.770900   -4.488080   -0.832030
  C     -6.011140   -4.153910   -2.495330
  C     -7.016440   -4.159200   -3.177050
  C     -8.154940   -4.165670   -3.973380
  C     -9.232740   -3.397720   -3.690770
  C    -10.421560   -3.334540   -4.468580
  S    -11.710030   -2.278920   -3.957580
  C    -12.683700   -2.735120   -5.329520
  C    -12.023660   -3.655290   -6.119310
  C    -10.760340   -3.989900   -5.636820
  C    -13.938780   -2.185750   -5.521710
  C    -15.030110   -1.668420   -5.657770
  C    -16.269590   -1.066180   -5.820650
  C    -17.086400   -1.291950   -6.874700
  C    -18.347290   -0.662450   -7.057630
  S    -18.985230    0.486230   -5.912370
  C    -20.415370    0.719060   -6.885340
  C    -20.375440   -0.060760   -8.021510
  C    -19.218520   -0.833440   -8.115110
  C    -21.399880    1.605700   -6.483340
  C    -22.227700    2.403810   -6.092400
  C    -23.186060    3.324210   -5.678250
  C    -23.094010    3.981310   -4.504580
  C    -24.029650    4.958990   -3.997810
  C    -23.830030    5.449460   -2.679200
  C    -24.659540    6.374280   -2.120520
  C    -25.751450    6.876460   -2.859200
  C    -25.964730    6.399410   -4.184440
  C    -25.095520    5.443640   -4.731660
  N    -26.998910    6.863240   -4.922390
  C    -27.775750    7.752370   -4.366250
  C    -27.563850    8.220980   -3.053000
  N    -26.574040    7.793890   -2.314230
  H     -4.205960   -1.822920    1.846610
  H     -0.658330   -4.044130    0.885570
  H     -3.072230   -0.840810    3.805210
  H      1.109960   -1.259030    5.605290
  H      2.320100   -2.903800    4.111740
  H     -3.531770   -5.501050   -2.619250
  H     -1.797700   -4.942060   -0.786870
  H     -8.137660   -4.811880   -4.840790
  H     -9.205230   -2.768740   -2.810430
  H    -12.458480   -4.061360   -7.015510
  H    -10.109040   -4.690640   -6.127720
  H    -16.569850   -0.373160   -5.042900
  H    -16.784300   -1.984930   -7.649260
  H    -21.165890   -0.059340   -8.751000
  H    -19.011520   -1.502010   -8.932280
  H    -24.017120    3.480120   -6.353490
  H    -22.248320    3.763870   -3.863690
  H    -22.993000    5.066270   -2.112680
  H    -24.508470    6.744510   -1.118430
  H    -25.290840    5.118380   -5.741120
  H    -28.600390    8.118250   -4.963660
  H    -28.219780    8.957210   -2.607660

 Total Charge           Charge          ....    0
 Multiplicity           Mult            ....    1
 Number of Electrons    NEL             ....  338
 Basis Dimension        Dim             ....  780

ORBITAL ENERGIES
----------------

  NO   OCC          E(Eh)            E(eV)
   0   2.0000     -88.956814     -2420.6380
   1   2.0000     -88.956625     -2420.6328
   2   2.0000     -88.955740     -2420.6088
   3   2.0000     -14.416370      -392.2894
   4   2.0000     -14.416018      -392.2798
   5   2.0000     -14.415836      -392.2748
   6   2.0000     -14.415278      -392.2596
   7   2.0000     -10.313993      -280.6580
   8   2.0000     -10.312532      -280.6183
   9   2.0000     -10.311834      -280.5993
  10   2.0000     -10.310950      -280.5752
  11   2.0000     -10.310395      -280.5601
  12   2.0000     -10.310244      -280.5560
  13   2.0000     -10.309191      -280.5273
  14   2.0000     -10.308536      -280.5095
  15   2.0000     -10.308172      -280.4996
  16   2.0000     -10.308117      -280.4981
  17   2.0000     -10.307150      -280.4718
  18   2.0000     -10.303159      -280.3632
  19   2.0000     -10.303132      -280.3625
  20   2.0000     -10.302958      -280.3577
  21   2.0000     -10.294807      -280.1359
  22   2.0000     -10.292416      -280.0709
  23   2.0000     -10.291386      -280.0429
  24   2.0000     -10.291131      -280.0359
  25   2.0000     -10.289772      -279.9989
  26   2.0000     -10.289499      -279.9915
  27   2.0000     -10.288414      -279.9620
  28   2.0000     -10.284143      -279.8458
  29   2.0000     -10.280986      -279.7599
  30   2.0000     -10.279692      -279.7246
  31   2.0000     -10.278350      -279.6881
  32   2.0000     -10.278285      -279.6863
  33   2.0000     -10.276697      -279.6431
  34   2.0000     -10.276620      -279.6410
  35   2.0000     -10.275708      -279.6162
  36   2.0000     -10.275629      -279.6141
  37   2.0000     -10.275454      -279.6093
  38   2.0000     -10.275020      -279.5975
  39   2.0000     -10.274780      -279.5910
  40   2.0000     -10.274603      -279.5862
  41   2.0000     -10.274355      -279.5794
  42   2.0000     -10.274265      -279.5770
  43   2.0000     -10.273675      -279.5609
  44   2.0000     -10.273391      -279.5532
  45   2.0000     -10.272157      -279.5196
  46   2.0000     -10.271496      -279.5016
  47   2.0000      -8.052407      -219.1171
  48   2.0000      -8.052194      -219.1113
  49   2.0000      -8.051382      -219.0892
  50   2.0000      -6.021635      -163.8570
  51   2.0000      -6.021442      -163.8518
  52   2.0000      -6.020631      -163.8297
  53   2.0000      -6.017562      -163.7462
  54   2.0000      -6.017324      -163.7397
  55   2.0000      -6.016610      -163.7203
  56   2.0000      -6.014522      -163.6635
  57   2.0000      -6.014399      -163.6601
  58   2.0000      -6.013415      -163.6333
  59   2.0000      -1.071042       -29.1445
  60   2.0000      -1.070422       -29.1277
  61   2.0000      -0.994037       -27.0491
  62   2.0000      -0.993397       -27.0317
  63   2.0000      -0.987106       -26.8605
  64   2.0000      -0.985288       -26.8111
  65   2.0000      -0.984736       -26.7960
  66   2.0000      -0.953154       -25.9366
  67   2.0000      -0.946893       -25.7663
  68   2.0000      -0.912179       -24.8216
  69   2.0000      -0.907438       -24.6926
  70   2.0000      -0.901552       -24.5325
  71   2.0000      -0.878396       -23.9024
  72   2.0000      -0.868893       -23.6438
  73   2.0000      -0.858526       -23.3617
  74   2.0000      -0.848702       -23.0944
  75   2.0000      -0.845362       -23.0035
  76   2.0000      -0.841222       -22.8908
  77   2.0000      -0.836025       -22.7494
  78   2.0000      -0.831199       -22.6181
  79   2.0000      -0.828386       -22.5415
  80   2.0000      -0.824659       -22.4401
  81   2.0000      -0.809191       -22.0192
  82   2.0000      -0.794321       -21.6146
  83   2.0000      -0.778048       -21.1718
  84   2.0000      -0.760067       -20.6825
  85   2.0000      -0.750775       -20.4296
  86   2.0000      -0.740189       -20.1416
  87   2.0000      -0.736281       -20.0352
  88   2.0000      -0.725873       -19.7520
  89   2.0000      -0.713764       -19.4225
  90   2.0000      -0.701973       -19.1017
  91   2.0000      -0.696342       -18.9484
  92   2.0000      -0.684113       -18.6157
  93   2.0000      -0.673716       -18.3327
  94   2.0000      -0.671431       -18.2706
  95   2.0000      -0.657713       -17.8973
  96   2.0000      -0.646288       -17.5864
  97   2.0000      -0.626132       -17.0379
  98   2.0000      -0.625449       -17.0193
  99   2.0000      -0.623816       -16.9749
 100   2.0000      -0.621856       -16.9216
 101   2.0000      -0.614172       -16.7125
 102   2.0000      -0.611874       -16.6499
 103   2.0000      -0.609777       -16.5929
 104   2.0000      -0.600590       -16.3429
 105   2.0000      -0.598055       -16.2739
 106   2.0000      -0.596137       -16.2217
 107   2.0000      -0.586089       -15.9483
 108   2.0000      -0.581016       -15.8102
 109   2.0000      -0.571140       -15.5415
 110   2.0000      -0.567131       -15.4324
 111   2.0000      -0.546763       -14.8782
 112   2.0000      -0.536350       -14.5948
 113   2.0000      -0.530832       -14.4447
 114   2.0000      -0.522671       -14.2226
 115   2.0000      -0.521556       -14.1923
 116   2.0000      -0.520615       -14.1666
 117   2.0000      -0.520576       -14.1656
 118   2.0000      -0.519797       -14.1444
 119   2.0000      -0.519111       -14.1257
 120   2.0000      -0.517807       -14.0902
 121   2.0000      -0.507861       -13.8196
 122   2.0000      -0.503616       -13.7041
 123   2.0000      -0.501017       -13.6334
 124   2.0000      -0.493132       -13.4188
 125   2.0000      -0.490806       -13.3555
 126   2.0000      -0.487547       -13.2668
 127   2.0000      -0.486007       -13.2249
 128   2.0000      -0.483648       -13.1607
 129   2.0000      -0.479976       -13.0608
 130   2.0000      -0.476651       -12.9703
 131   2.0000      -0.470831       -12.8120
 132   2.0000      -0.469196       -12.7675
 133   2.0000      -0.462404       -12.5826
 134   2.0000      -0.454308       -12.3624
 135   2.0000      -0.452250       -12.3063
 136   2.0000      -0.450907       -12.2698
 137   2.0000      -0.446049       -12.1376
 138   2.0000      -0.443855       -12.0779
 139   2.0000      -0.443256       -12.0616
 140   2.0000      -0.435931       -11.8623
 141   2.0000      -0.434441       -11.8217
 142   2.0000      -0.421922       -11.4811
 143   2.0000      -0.421220       -11.4620
 144   2.0000      -0.416155       -11.3241
 145   2.0000      -0.415393       -11.3034
 146   2.0000      -0.414515       -11.2795
 147   2.0000      -0.411562       -11.1992
 148   2.0000      -0.408427       -11.1139
 149   2.0000      -0.383743       -10.4422
 150   2.0000      -0.379180       -10.3180
 151   2.0000      -0.378553       -10.3010
 152   2.0000      -0.364997        -9.9321
 153   2.0000      -0.345756        -9.4085
 154   2.0000      -0.344608        -9.3773
 155   2.0000      -0.342089        -9.3087
 156   2.0000      -0.338845        -9.2205
 157   2.0000      -0.328325        -8.9342
 158   2.0000      -0.325410        -8.8549
 159   2.0000      -0.324915        -8.8414
 160   2.0000      -0.323620        -8.8062
 161   2.0000      -0.315396        -8.5824
 162   2.0000      -0.314684        -8.5630
 163   2.0000      -0.314165        -8.5489
 164   2.0000      -0.313476        -8.5301
 165   2.0000      -0.301008        -8.1908
 166   2.0000      -0.276927        -7.5356
 167   2.0000      -0.251321        -6.8388
 168   2.0000      -0.228519        -6.2183
 169   0.0000      -0.068885        -1.8745
 170   0.0000      -0.053476        -1.4552
 171   0.0000      -0.039060        -1.0629
 172   0.0000      -0.026838        -0.7303
 173   0.0000      -0.010664        -0.2902

MULLIKEN ATOMIC CHARGES
-----------------------
   0 C :   -0.021490
   1 C :    0.201449
   2 C :   -0.087173
   3 C :    0.007811
   4 C :   -0.032015
   5 C :    0.007284
   6 N :   -0.016462
   7 C :    0.019154
   8 C :    0.020065
   9 N :   -0.020250
  10 C :   -0.079853
  11 S :    0.138071
  12 C :   -0.140076
  13 C :    0.061609
  14 C :   -0.004049
  15 C :    0.060511
  16 C :   -0.032184
  17 C :   -0.080249
  18 C :    0.071612
  19 C :   -0.086292
  20 S :    0.159805
  21 C :   -0.158109
  22 C :    0.062522
  23 C :    0.004387
  24 C :    0.054928
  25 C :   -0.015369
  26 C :   -0.095329
  27 C :    0.046904
  28 C :   -0.061912
  29 S :    0.139966
  30 C :   -0.147998
  31 C :    0.059052
  32 C :    0.011490
  33 C :    0.054778
  34 C :   -0.020251
  35 C :   -0.057279
  36 C :    0.004337
  37 C :    0.120820
  38 C :    0.005195
  39 C :    0.013829
  40 C :   -0.034347
  41 C :    0.007877
  42 C :   -0.050125
  43 N :   -0.017645
  44 C :    0.019896
  45 C :    0.018301
  46 N :   -0.017636
  47 H :   -0.003527
  48 H :   -0.038112
  49 H :   -0.022701
  50 H :    0.008887
  51 H :    0.009306
  52 H :   -0.012204
  53 H :   -0.012573
  54 H :    0.024100
  55 H :   -0.001185
  56 H :   -0.012502
  57 H :   -0.013231
  58 H :    0.031845
  59 H :    0.000359
  60 H :   -0.008907
  61 H :   -0.013101
  62 H :    0.030419
  63 H :   -0.005427
  64 H :   -0.016271
  65 H :   -0.024424
  66 H :   -0.036099
  67 H :    0.009629
  68 H :    0.010159
Sum of atomic charges:   -0.0000000

LOEWDIN ATOMIC CHARGES
----------------------
   0 C :   -0.019454
   1 C :   -0.028911
   2 C :   -0.009117
   3 C :   -0.011868
   4 C :   -0.017179
   5 C :   -0.006739
   6 N :   -0.040074
   7 C :   -0.003258
   8 C :    0.000207
   9 N :   -0.044037
  10 C :   -0.162289
  11 S :    0.451856
  12 C :   -0.185120
  13 C :   -0.035447
  14 C :   -0.052069
  15 C :   -0.060608
  16 C :   -0.025436
  17 C :   -0.039934
  18 C :   -0.017676
  19 C :   -0.170872
  20 S :    0.451870
  21 C :   -0.186922
  22 C :   -0.034017
  23 C :   -0.053452
  24 C :   -0.059528
  25 C :   -0.025832
  26 C :   -0.050793
  27 C :   -0.013632
  28 C :   -0.167391
  29 S :    0.443066
  30 C :   -0.181147
  31 C :   -0.036618
  32 C :   -0.052435
  33 C :   -0.058621
  34 C :   -0.023269
  35 C :   -0.031925
  36 C :    0.002616
  37 C :   -0.024125
  38 C :   -0.008581
  39 C :   -0.010007
  40 C :   -0.014955
  41 C :   -0.013152
  42 C :   -0.004356
  43 N :   -0.042963
  44 C :   -0.000053
  45 C :   -0.001772
  46 N :   -0.040649
  47 H :    0.022688
  48 H :    0.032363
  49 H :    0.036763
  50 H :    0.024636
  51 H :    0.024856
  52 H :    0.034689
  53 H :    0.030908
  54 H :    0.041612
  55 H :    0.034561
  56 H :    0.034511
  57 H :    0.029824
  58 H :    0.037311
  59 H :    0.039971
  60 H :    0.035236
  61 H :    0.031636
  62 H :    0.043231
  63 H :    0.034016
  64 H :    0.030559
  65 H :    0.035930
  66 H :    0.031461
  67 H :    0.024964
  68 H :    0.024939

  Mayer bond orders larger than 0.100000
B(  0-C ,  1-C ) :   1.1987 B(  0-C ,  5-C ) :   1.4984 B(  0-C , 47-H ) :   0.9832
B(  1-C ,  2-C ) :   1.3943 B(  1-C , 10-C ) :   1.0631 B(  2-C ,  3-C ) :   1.2361
B(  2-C , 48-H ) :   1.0143 B(  3-C ,  4-C ) :   1.2396 B(  3-C ,  9-N ) :   1.4320
B(  4-C ,  5-C ) :   1.2311 B(  4-C ,  6-N ) :   1.4396 B(  5-C , 49-H ) :   1.0047
B(  6-N ,  7-C ) :   1.6646 B(  7-C ,  8-C ) :   1.2299 B(  7-C , 50-H ) :   0.9741
B(  8-C ,  9-N ) :   1.6749 B(  8-C , 51-H ) :   0.9736 B( 10-C , 11-S ) :   1.1273
B( 10-C , 12-C ) :   0.1066 B( 10-C , 14-C ) :   1.5251 B( 11-S , 12-C ) :   1.1087
B( 12-C , 13-C ) :   1.5047 B( 12-C , 15-C ) :   0.9716 B( 13-C , 14-C ) :   1.2617
B( 13-C , 52-H ) :   1.0016 B( 14-C , 53-H ) :   0.9888 B( 15-C , 16-C ) :   2.2898
B( 16-C , 17-C ) :   1.0268 B( 17-C , 18-C ) :   1.7258 B( 17-C , 54-H ) :   0.9521
B( 18-C , 19-C ) :   1.1175 B( 18-C , 55-H ) :   0.9638 B( 19-C , 20-S ) :   1.1209
B( 19-C , 21-C ) :   0.1015 B( 19-C , 23-C ) :   1.4881 B( 20-S , 21-C ) :   1.1168
B( 21-C , 22-C ) :   1.4830 B( 21-C , 24-C ) :   0.9843 B( 22-C , 23-C ) :   1.2879
B( 22-C , 56-H ) :   1.0016 B( 23-C , 57-H ) :   0.9890 B( 24-C , 25-C ) :   2.2707
B( 25-C , 26-C ) :   1.0296 B( 26-C , 27-C ) :   1.6862 B( 26-C , 58-H ) :   0.9455
B( 27-C , 28-C ) :   1.1499 B( 27-C , 59-H ) :   0.9810 B( 28-C , 29-S ) :   1.1173
B( 28-C , 32-C ) :   1.4713 B( 29-S , 30-C ) :   1.1066 B( 30-C , 31-C ) :   1.5016
B( 30-C , 33-C ) :   0.9839 B( 31-C , 32-C ) :   1.2638 B( 31-C , 60-H ) :   1.0022
B( 32-C , 61-H ) :   0.9996 B( 33-C , 34-C ) :   2.2865 B( 34-C , 35-C ) :   1.0046
B( 35-C , 36-C ) :   1.7350 B( 35-C , 62-H ) :   0.9480 B( 36-C , 37-C ) :   1.0691
B( 36-C , 63-H ) :   0.9847 B( 37-C , 38-C ) :   1.2090 B( 37-C , 42-C ) :   1.3929
B( 38-C , 39-C ) :   1.4742 B( 38-C , 64-H ) :   0.9983 B( 39-C , 40-C ) :   1.2366
B( 39-C , 42-C ) :   0.1025 B( 39-C , 65-H ) :   1.0042 B( 40-C , 41-C ) :   1.2376
B( 40-C , 46-N ) :   1.4352 B( 41-C , 42-C ) :   1.2427 B( 41-C , 43-N ) :   1.4301
B( 42-C , 66-H ) :   1.0038 B( 43-N , 44-C ) :   1.6777 B( 44-C , 45-C ) :   1.2261
B( 44-C , 67-H ) :   0.9742 B( 45-C , 46-N ) :   1.6671 B( 45-C , 68-H ) :   0.9744

-----------------------------------------------------------------------------
         ABSORPTION SPECTRUM VIA TRANSITION ELECTRIC DIPOLE MOMENTS
-----------------------------------------------------------------------------
State   Energy  Wavelength   fosc         T2         TX        TY        TZ
        (cm-1)    (nm)                  (au**2)     (au)      (au)      (au)
-----------------------------------------------------------------------------
   0   20733.3    482.3   3.166854259  50.28457   6.46268  -2.41744   1.63533
   1   25508.9    392.0   0.819362253  10.57448   0.55039   1.95567   2.53908
   2   28172.1    355.0   0.027396019   0.32014   0.26141  -0.42492  -0.26693
   3   29139.5    343.2   0.048408857   0.54691  -0.68528   0.20647  -0.18620
   4   31126.7    321.3   0.028181810   0.29807   0.46680  -0.18182   0.21703
   5   31851.3    314.0   0.162460612   1.67918  -1.13106   0.63088   0.04327
   6   33952.2    294.5   0.002658398   0.02578  -0.10232   0.01095   0.12324
   7   34943.8    286.2   0.088422997   0.83305   0.82106  -0.31695   0.24179
   8   35803.2    279.3   0.029089358   0.26748   0.20941   0.31469   0.35299
   9   36856.2    271.3   0.194958501   1.74144  -0.18663  -0.79940  -1.03323
  10   37723.0    265.1   0.046177213   0.40299  -0.43634   0.45465   0.07679
  11   38382.3    260.5   0.084867508   0.72792   0.16477  -0.45367  -0.70354
  12   39098.7    255.8   0.097466832   0.82067  -0.26461  -0.34385  -0.79525
  13   39610.4    252.5   0.271166118   2.25373  -0.09568   0.90791   1.19175

FINAL SINGLE POINT ENERGY     -2948.253524345187

DIPOLE MOMENT
-------------
                                X             Y             Z
Electronic contribution:      8.94906      -4.32907       2.22880
Nuclear contribution   :     -9.04477       4.00728      -2.78907
                        -----------------------------------------
Total Dipole Moment    :     -0.09570      -0.32179      -0.56027
                        -----------------------------------------
Magnitude (a.u.)       :      0.65315
Magnitude (Debye)      :      1.66019

Rotational constants in cm-1:     0.002576     0.000244     0.000223
Rotational constants in MHz :    77.218352     7.328434     6.697566

                             ****ORCA TERMINATED NORMALLY****
TOTAL RUN TIME: 0 days 0 hours 3 minutes 0 seconds 564 msec
