                         Program Version 4.2.0 -  RELEASE  -
|  1> # ORCA input file
|  2> # SCF done       -155.410810795153          0.000901804571
|  3> ! CAM-B3LYP def2-SVP def2/J RIJCOSX Grid4 TightSCF
|  4> %maxcore 5000
|  5> %tddft
|  6>     Mode sTDDFT
|  7>     Ethresh 5.0
|  8>     maxcore 5000
|  9> end
| 10>
| 11> %pal
| 12>   nprocs 6
| 13>   end
| 14> * xyz 0 1
| 15>    C       -4.15595        -0.38033        -0.12583
| 16>    C       -3.76596        -1.27410        -1.15694
| 17>    C       -2.56394        -1.09160        -1.80575
| 18>    C       -1.73734        -0.00944        -1.45590
| 19>    C       -2.14421         0.89348        -0.43376
| 20>    C       -3.37206         0.67716         0.22607
| 21>    N       -1.36744         1.94130        -0.09014
| 22>    C       -0.23628         2.07944        -0.72667
| 23>    C        0.17535         1.17546        -1.73082
| 24>    N       -0.55522         0.15666        -2.08910
| 25>    C       -4.65696        -2.37665        -1.46968
| 26>    O       -5.51005        -2.78808        -0.51844
| 27>    C       -6.24784        -3.81200        -1.00496
| 28>    C       -5.87517        -4.06459        -2.30799
| 29>    C       -4.85275        -3.14222        -2.60961
| 30>    C       -4.19390        -3.02632        -3.93737
| 31>    F       -4.08413        -1.75519        -4.35929
| 32>    F       -2.94752        -3.53891        -3.95700
| 33>    F       -4.87718        -3.68301        -4.88575
| 34>    C       -7.22611        -4.45265        -0.18926
| 35>    C       -7.49088        -4.08522         1.08284
| 36>    C       -8.45773        -4.72896         1.90628
| 37>    O       -9.16755        -5.78359         1.46893
| 38>    C       -9.99681        -6.18760         2.46176
| 39>    C       -9.82454        -5.37599         3.56907
| 40>    C       -8.83882        -4.44271         3.21426
| 41>    C       -8.29279        -3.35202         4.06209
| 42>    F       -8.45931        -2.13487         3.50668
| 43>    F       -8.86652        -3.30405         5.26828
| 44>    F       -6.96670        -3.47495         4.26942
| 45>    C      -10.84191        -7.30862         2.22557
| 46>    C      -11.71312        -7.80905         3.12888
| 47>    C      -12.53858        -8.94125         2.87819
| 48>    O      -12.49397        -9.60007         1.70493
| 49>    C      -13.37201       -10.62874         1.75696
| 50>    C      -14.00252       -10.64145         2.98612
| 51>    C      -13.46998        -9.55929         3.70607
| 52>    C      -13.82220        -9.14349         5.08715
| 53>    F      -12.76850        -9.19682         5.92704
| 54>    F      -14.26697        -7.87209         5.14647
| 55>    F      -14.77823        -9.90909         5.62429
| 56>    C      -13.53841       -11.50902         0.64387
| 57>    C      -12.86573       -11.37387        -0.51453
| 58>    C      -12.97510       -12.21503        -1.68472
| 59>    C      -13.81091       -13.36183        -1.72399
| 60>    C      -13.90082       -14.14106        -2.83825
| 61>    C      -13.15580       -13.81856        -3.99232
| 62>    C      -12.31153       -12.67288        -3.97033
| 63>    C      -12.23693       -11.89049        -2.80756
| 64>    N      -11.58350       -12.33381        -5.05803
| 65>    C      -11.69392       -13.09817        -6.10945
| 66>    C      -12.53097       -14.23453        -6.12905
| 67>    N      -13.24613       -14.58841        -5.09510
| 68>    H       -5.09744        -0.55196         0.37256
| 69>    H       -2.20280        -1.76427        -2.56515
| 70>    H       -3.66126         1.36485         1.00433
| 71>    H        0.37872         2.92417        -0.44672
| 72>    H        1.12083         1.29909        -2.24210
| 73>    H       -6.27988        -4.80323        -2.96837
| 74>    H       -7.76072        -5.27158        -0.64601
| 75>    H       -6.95458        -3.26308         1.53203
| 76>    H      -10.33187        -5.43897         4.50884
| 77>    H      -10.75208        -7.76813         1.25193
| 78>    H      -11.81707        -7.35918         4.10363
| 79>    H      -14.74634       -11.33166         3.32636
| 80>    H      -14.25610       -12.29886         0.80307
| 81>    H      -12.16791       -10.55133        -0.60059
| 82>    H      -14.38470       -13.62318        -0.84927
| 83>    H      -14.53335       -15.01413        -2.87112
| 84>    H      -11.58842       -11.02777        -2.81996
| 85>    H      -11.10906       -12.81998        -6.97632
| 86>    H      -12.60905       -14.85700        -7.01031
| 87> *
| 88>
| 89>                          ****END OF INPUT****

CARTESIAN COORDINATES (ANGSTROEM)
---------------------------------
  C     -4.155950   -0.380330   -0.125830
  C     -3.765960   -1.274100   -1.156940
  C     -2.563940   -1.091600   -1.805750
  C     -1.737340   -0.009440   -1.455900
  C     -2.144210    0.893480   -0.433760
  C     -3.372060    0.677160    0.226070
  N     -1.367440    1.941300   -0.090140
  C     -0.236280    2.079440   -0.726670
  C      0.175350    1.175460   -1.730820
  N     -0.555220    0.156660   -2.089100
  C     -4.656960   -2.376650   -1.469680
  O     -5.510050   -2.788080   -0.518440
  C     -6.247840   -3.812000   -1.004960
  C     -5.875170   -4.064590   -2.307990
  C     -4.852750   -3.142220   -2.609610
  C     -4.193900   -3.026320   -3.937370
  F     -4.084130   -1.755190   -4.359290
  F     -2.947520   -3.538910   -3.957000
  F     -4.877180   -3.683010   -4.885750
  C     -7.226110   -4.452650   -0.189260
  C     -7.490880   -4.085220    1.082840
  C     -8.457730   -4.728960    1.906280
  O     -9.167550   -5.783590    1.468930
  C     -9.996810   -6.187600    2.461760
  C     -9.824540   -5.375990    3.569070
  C     -8.838820   -4.442710    3.214260
  C     -8.292790   -3.352020    4.062090
  F     -8.459310   -2.134870    3.506680
  F     -8.866520   -3.304050    5.268280
  F     -6.966700   -3.474950    4.269420
  C    -10.841910   -7.308620    2.225570
  C    -11.713120   -7.809050    3.128880
  C    -12.538580   -8.941250    2.878190
  O    -12.493970   -9.600070    1.704930
  C    -13.372010  -10.628740    1.756960
  C    -14.002520  -10.641450    2.986120
  C    -13.469980   -9.559290    3.706070
  C    -13.822200   -9.143490    5.087150
  F    -12.768500   -9.196820    5.927040
  F    -14.266970   -7.872090    5.146470
  F    -14.778230   -9.909090    5.624290
  C    -13.538410  -11.509020    0.643870
  C    -12.865730  -11.373870   -0.514530
  C    -12.975100  -12.215030   -1.684720
  C    -13.810910  -13.361830   -1.723990
  C    -13.900820  -14.141060   -2.838250
  C    -13.155800  -13.818560   -3.992320
  C    -12.311530  -12.672880   -3.970330
  C    -12.236930  -11.890490   -2.807560
  N    -11.583500  -12.333810   -5.058030
  C    -11.693920  -13.098170   -6.109450
  C    -12.530970  -14.234530   -6.129050
  N    -13.246130  -14.588410   -5.095100
  H     -5.097440   -0.551960    0.372560
  H     -2.202800   -1.764270   -2.565150
  H     -3.661260    1.364850    1.004330
  H      0.378720    2.924170   -0.446720
  H      1.120830    1.299090   -2.242100
  H     -6.279880   -4.803230   -2.968370
  H     -7.760720   -5.271580   -0.646010
  H     -6.954580   -3.263080    1.532030
  H    -10.331870   -5.438970    4.508840
  H    -10.752080   -7.768130    1.251930
  H    -11.817070   -7.359180    4.103630
  H    -14.746340  -11.331660    3.326360
  H    -14.256100  -12.298860    0.803070
  H    -12.167910  -10.551330   -0.600590
  H    -14.384700  -13.623180   -0.849270
  H    -14.533350  -15.014130   -2.871120
  H    -11.588420  -11.027770   -2.819960
  H    -11.109060  -12.819980   -6.976320
  H    -12.609050  -14.857000   -7.010310

 Total Charge           Charge          ....    0
 Multiplicity           Mult            ....    1
 Number of Electrons    NEL             ....  374
 Basis Dimension        Dim             ....  837

ORBITAL ENERGIES
----------------

  NO   OCC          E(Eh)            E(eV)
   0   2.0000     -24.803122      -674.9273
   1   2.0000     -24.802336      -674.9059
   2   2.0000     -24.799772      -674.8361
   3   2.0000     -24.796511      -674.7474
   4   2.0000     -24.796501      -674.7471
   5   2.0000     -24.795945      -674.7320
   6   2.0000     -24.795724      -674.7259
   7   2.0000     -24.794998      -674.7062
   8   2.0000     -24.794505      -674.6928
   9   2.0000     -19.309808      -525.4466
  10   2.0000     -19.308975      -525.4239
  11   2.0000     -19.308366      -525.4073
  12   2.0000     -14.420095      -392.3907
  13   2.0000     -14.419672      -392.3792
  14   2.0000     -14.419506      -392.3747
  15   2.0000     -14.419340      -392.3702
  16   2.0000     -10.521258      -286.2980
  17   2.0000     -10.520715      -286.2832
  18   2.0000     -10.520323      -286.2726
  19   2.0000     -10.356603      -281.8175
  20   2.0000     -10.354184      -281.7517
  21   2.0000     -10.353343      -281.7288
  22   2.0000     -10.346656      -281.5468
  23   2.0000     -10.345840      -281.5246
  24   2.0000     -10.344580      -281.4903
  25   2.0000     -10.314445      -280.6703
  26   2.0000     -10.314402      -280.6692
  27   2.0000     -10.313929      -280.6563
  28   2.0000     -10.313909      -280.6557
  29   2.0000     -10.312831      -280.6264
  30   2.0000     -10.312519      -280.6179
  31   2.0000     -10.312294      -280.6118
  32   2.0000     -10.311981      -280.6033
  33   2.0000     -10.301476      -280.3174
  34   2.0000     -10.299692      -280.2689
  35   2.0000     -10.298849      -280.2459
  36   2.0000     -10.298721      -280.2424
  37   2.0000     -10.298255      -280.2298
  38   2.0000     -10.297958      -280.2217
  39   2.0000     -10.297685      -280.2143
  40   2.0000     -10.295353      -280.1508
  41   2.0000     -10.293293      -280.0947
  42   2.0000     -10.293148      -280.0908
  43   2.0000     -10.292264      -280.0667
  44   2.0000     -10.291401      -280.0432
  45   2.0000     -10.290965      -280.0314
  46   2.0000     -10.287662      -279.9415
  47   2.0000     -10.285338      -279.8783
  48   2.0000     -10.284835      -279.8646
  49   2.0000     -10.283004      -279.8148
  50   2.0000     -10.279987      -279.7327
  51   2.0000     -10.279054      -279.7073
  52   2.0000     -10.278926      -279.7038
  53   2.0000      -1.388140       -37.7732
  54   2.0000      -1.387523       -37.7564
  55   2.0000      -1.387381       -37.7526
  56   2.0000      -1.293481       -35.1974
  57   2.0000      -1.292746       -35.1774
  58   2.0000      -1.290709       -35.1220
  59   2.0000      -1.287291       -35.0290
  60   2.0000      -1.286209       -34.9995
  61   2.0000      -1.284974       -34.9659
  62   2.0000      -1.231441       -33.5092
  63   2.0000      -1.228691       -33.4344
  64   2.0000      -1.228238       -33.4220
  65   2.0000      -1.074909       -29.2498
  66   2.0000      -1.074884       -29.2491
  67   2.0000      -0.997860       -27.1532
  68   2.0000      -0.997839       -27.1526
  69   2.0000      -0.960642       -26.1404
  70   2.0000      -0.958164       -26.0730
  71   2.0000      -0.940508       -25.5925
  72   2.0000      -0.933883       -25.4123
  73   2.0000      -0.928709       -25.2714
  74   2.0000      -0.928224       -25.2583
  75   2.0000      -0.922101       -25.0917
  76   2.0000      -0.906894       -24.6778
  77   2.0000      -0.886375       -24.1195
  78   2.0000      -0.868643       -23.6370
  79   2.0000      -0.850718       -23.1492
  80   2.0000      -0.847678       -23.0665
  81   2.0000      -0.847082       -23.0503
  82   2.0000      -0.829387       -22.5688
  83   2.0000      -0.815014       -22.1777
  84   2.0000      -0.801644       -21.8138
  85   2.0000      -0.798652       -21.7324
  86   2.0000      -0.789138       -21.4735
  87   2.0000      -0.769644       -20.9431
  88   2.0000      -0.753579       -20.5059
  89   2.0000      -0.746925       -20.3249
  90   2.0000      -0.743465       -20.2307
  91   2.0000      -0.733637       -19.9633
  92   2.0000      -0.723577       -19.6895
  93   2.0000      -0.723079       -19.6760
  94   2.0000      -0.718383       -19.5482
  95   2.0000      -0.709327       -19.3018
  96   2.0000      -0.700918       -19.0730
  97   2.0000      -0.696198       -18.9445
  98   2.0000      -0.693833       -18.8802
  99   2.0000      -0.690905       -18.8005
 100   2.0000      -0.684462       -18.6252
 101   2.0000      -0.677132       -18.4257
 102   2.0000      -0.670436       -18.2435
 103   2.0000      -0.670314       -18.2402
 104   2.0000      -0.669350       -18.2139
 105   2.0000      -0.666826       -18.1453
 106   2.0000      -0.666083       -18.1251
 107   2.0000      -0.664689       -18.0871
 108   2.0000      -0.642996       -17.4968
 109   2.0000      -0.629100       -17.1187
 110   2.0000      -0.625895       -17.0315
 111   2.0000      -0.622940       -16.9511
 112   2.0000      -0.620316       -16.8796
 113   2.0000      -0.611301       -16.6343
 114   2.0000      -0.604044       -16.4369
 115   2.0000      -0.598583       -16.2883
 116   2.0000      -0.592073       -16.1111
 117   2.0000      -0.584368       -15.9015
 118   2.0000      -0.581795       -15.8314
 119   2.0000      -0.578394       -15.7389
 120   2.0000      -0.577043       -15.7021
 121   2.0000      -0.574902       -15.6439
 122   2.0000      -0.572385       -15.5754
 123   2.0000      -0.559723       -15.2308
 124   2.0000      -0.556351       -15.1391
 125   2.0000      -0.550842       -14.9892
 126   2.0000      -0.548807       -14.9338
 127   2.0000      -0.547465       -14.8973
 128   2.0000      -0.546864       -14.8809
 129   2.0000      -0.546638       -14.8748
 130   2.0000      -0.546063       -14.8591
 131   2.0000      -0.545536       -14.8448
 132   2.0000      -0.544197       -14.8084
 133   2.0000      -0.527365       -14.3503
 134   2.0000      -0.525965       -14.3122
 135   2.0000      -0.524376       -14.2690
 136   2.0000      -0.523774       -14.2526
 137   2.0000      -0.523346       -14.2410
 138   2.0000      -0.521196       -14.1825
 139   2.0000      -0.514067       -13.9885
 140   2.0000      -0.512214       -13.9380
 141   2.0000      -0.510517       -13.8919
 142   2.0000      -0.508154       -13.8276
 143   2.0000      -0.507690       -13.8149
 144   2.0000      -0.505371       -13.7518
 145   2.0000      -0.505188       -13.7469
 146   2.0000      -0.504016       -13.7150
 147   2.0000      -0.503337       -13.6965
 148   2.0000      -0.501477       -13.6459
 149   2.0000      -0.501144       -13.6368
 150   2.0000      -0.492306       -13.3963
 151   2.0000      -0.484176       -13.1751
 152   2.0000      -0.483639       -13.1605
 153   2.0000      -0.482977       -13.1425
 154   2.0000      -0.481118       -13.0919
 155   2.0000      -0.478930       -13.0324
 156   2.0000      -0.475407       -12.9365
 157   2.0000      -0.471184       -12.8216
 158   2.0000      -0.467574       -12.7233
 159   2.0000      -0.464857       -12.6494
 160   2.0000      -0.462991       -12.5986
 161   2.0000      -0.457496       -12.4491
 162   2.0000      -0.454633       -12.3712
 163   2.0000      -0.453377       -12.3370
 164   2.0000      -0.447331       -12.1725
 165   2.0000      -0.446051       -12.1377
 166   2.0000      -0.440494       -11.9865
 167   2.0000      -0.435367       -11.8469
 168   2.0000      -0.431421       -11.7396
 169   2.0000      -0.419091       -11.4041
 170   2.0000      -0.418574       -11.3900
 171   2.0000      -0.411058       -11.1854
 172   2.0000      -0.393568       -10.7095
 173   2.0000      -0.382892       -10.4190
 174   2.0000      -0.382616       -10.4115
 175   2.0000      -0.382072       -10.3967
 176   2.0000      -0.381218       -10.3735
 177   2.0000      -0.374716       -10.1965
 178   2.0000      -0.351630        -9.5683
 179   2.0000      -0.332107        -9.0371
 180   2.0000      -0.320058        -8.7092
 181   2.0000      -0.318269        -8.6606
 182   2.0000      -0.318093        -8.6558
 183   2.0000      -0.317446        -8.6381
 184   2.0000      -0.303309        -8.2535
 185   2.0000      -0.272382        -7.4119
 186   2.0000      -0.241476        -6.5709
 187   0.0000      -0.071849        -1.9551
 188   0.0000      -0.051162        -1.3922
 189   0.0000      -0.038770        -1.0550
 190   0.0000      -0.025890        -0.7045
 191   0.0000      -0.011447        -0.3115

MULLIKEN ATOMIC CHARGES
-----------------------
   0 C :    0.023070
   1 C :    0.054781
   2 C :   -0.053438
   3 C :   -0.000604
   4 C :   -0.024029
   5 C :    0.015093
   6 N :   -0.016964
   7 C :    0.022061
   8 C :    0.021905
   9 N :   -0.011671
  10 C :    0.169363
  11 O :   -0.193780
  12 C :    0.188634
  13 C :   -0.061022
  14 C :   -0.145565
  15 C :    0.534113
  16 F :   -0.159282
  17 F :   -0.163091
  18 F :   -0.156197
  19 C :   -0.005079
  20 C :   -0.023715
  21 C :    0.130554
  22 O :   -0.193524
  23 C :    0.190293
  24 C :   -0.073979
  25 C :   -0.099727
  26 C :    0.519468
  27 F :   -0.169314
  28 F :   -0.149966
  29 F :   -0.167520
  30 C :    0.020504
  31 C :   -0.025030
  32 C :    0.130845
  33 O :   -0.197888
  34 C :    0.179970
  35 C :   -0.063245
  36 C :   -0.108737
  37 C :    0.525932
  38 F :   -0.170157
  39 F :   -0.170732
  40 F :   -0.153084
  41 C :    0.003013
  42 C :    0.003843
  43 C :    0.133954
  44 C :    0.010031
  45 C :    0.016372
  46 C :   -0.025103
  47 C :    0.016094
  48 C :   -0.076310
  49 N :   -0.021510
  50 C :    0.022197
  51 C :    0.018647
  52 N :   -0.018523
  53 H :   -0.004764
  54 H :   -0.021232
  55 H :   -0.019855
  56 H :    0.011934
  57 H :    0.011866
  58 H :   -0.001562
  59 H :    0.008135
  60 H :    0.020132
  61 H :    0.001185
  62 H :    0.005847
  63 H :    0.009245
  64 H :   -0.004435
  65 H :   -0.006267
  66 H :   -0.007548
  67 H :   -0.020608
  68 H :   -0.023475
  69 H :   -0.032147
  70 H :    0.010371
  71 H :    0.011226
Sum of atomic charges:   -0.0000000

LOEWDIN ATOMIC CHARGES
----------------------
   0 C :   -0.002940
   1 C :   -0.040707
   2 C :    0.003277
   3 C :   -0.013365
   4 C :   -0.011212
   5 C :   -0.007103
   6 N :   -0.040402
   7 C :    0.003291
   8 C :    0.002170
   9 N :   -0.037350
  10 C :    0.064885
  11 O :    0.032574
  12 C :    0.028222
  13 C :   -0.035755
  14 C :   -0.127136
  15 C :    0.170385
  16 F :   -0.058119
  17 F :   -0.063654
  18 F :   -0.055343
  19 C :   -0.019114
  20 C :   -0.037373
  21 C :    0.050251
  22 O :    0.025934
  23 C :    0.030428
  24 C :   -0.035507
  25 C :   -0.122292
  26 C :    0.168193
  27 F :   -0.068712
  28 F :   -0.050859
  29 F :   -0.067796
  30 C :   -0.019018
  31 C :   -0.033206
  32 C :    0.051287
  33 O :    0.024679
  34 C :    0.038065
  35 C :   -0.043270
  36 C :   -0.125014
  37 C :    0.169480
  38 F :   -0.069533
  39 F :   -0.068983
  40 F :   -0.052375
  41 C :   -0.037708
  42 C :   -0.006560
  43 C :   -0.021637
  44 C :   -0.007696
  45 C :   -0.007281
  46 C :   -0.014504
  47 C :   -0.013977
  48 C :   -0.007953
  49 N :   -0.042583
  50 C :    0.001004
  51 C :   -0.000735
  52 N :   -0.040481
  53 H :    0.033304
  54 H :    0.032116
  55 H :    0.037740
  56 H :    0.025918
  57 H :    0.026094
  58 H :    0.037945
  59 H :    0.041803
  60 H :    0.039732
  61 H :    0.037630
  62 H :    0.040445
  63 H :    0.037458
  64 H :    0.037140
  65 H :    0.035824
  66 H :    0.031631
  67 H :    0.028207
  68 H :    0.036138
  69 H :    0.033222
  70 H :    0.025403
  71 H :    0.025378

  Mayer bond orders larger than 0.100000
B(  0-C ,  1-C ) :   1.2112 B(  0-C ,  5-C ) :   1.4664 B(  0-C , 53-H ) :   0.9973
B(  1-C ,  2-C ) :   1.4102 B(  1-C , 10-C ) :   1.0361 B(  2-C ,  3-C ) :   1.2336
B(  2-C ,  5-C ) :   0.1002 B(  2-C , 54-H ) :   0.9981 B(  3-C ,  4-C ) :   1.2429
B(  3-C ,  9-N ) :   1.4306 B(  4-C ,  5-C ) :   1.2313 B(  4-C ,  6-N ) :   1.4311
B(  5-C , 55-H ) :   1.0090 B(  6-N ,  7-C ) :   1.6719 B(  7-C ,  8-C ) :   1.2233
B(  7-C , 56-H ) :   0.9739 B(  8-C ,  9-N ) :   1.6784 B(  8-C , 57-H ) :   0.9739
B( 10-C , 11-O ) :   1.1828 B( 10-C , 12-C ) :   0.1068 B( 10-C , 14-C ) :   1.5082
B( 11-O , 12-C ) :   1.1297 B( 12-C , 13-C ) :   1.4386 B( 12-C , 19-C ) :   1.1200
B( 13-C , 14-C ) :   1.2320 B( 13-C , 58-H ) :   1.0227 B( 14-C , 15-C ) :   0.9477
B( 15-C , 16-F ) :   1.1732 B( 15-C , 17-F ) :   1.1399 B( 15-C , 18-F ) :   1.1765
B( 19-C , 20-C ) :   1.6381 B( 19-C , 59-H ) :   0.9764 B( 20-C , 21-C ) :   1.1589
B( 20-C , 60-H ) :   0.9539 B( 21-C , 22-O ) :   1.1809 B( 21-C , 23-C ) :   0.1009
B( 21-C , 25-C ) :   1.4298 B( 22-O , 23-C ) :   1.1098 B( 23-C , 24-C ) :   1.4571
B( 23-C , 30-C ) :   1.1009 B( 24-C , 25-C ) :   1.2631 B( 24-C , 61-H ) :   1.0117
B( 25-C , 26-C ) :   0.9459 B( 26-C , 27-F ) :   1.1605 B( 26-C , 28-F ) :   1.1880
B( 26-C , 29-F ) :   1.1641 B( 30-C , 31-C ) :   1.6458 B( 30-C , 62-H ) :   0.9776
B( 31-C , 32-C ) :   1.1846 B( 31-C , 63-H ) :   0.9440 B( 32-C , 33-O ) :   1.1685
B( 32-C , 36-C ) :   1.4375 B( 33-O , 34-C ) :   1.1327 B( 34-C , 35-C ) :   1.4300
B( 34-C , 41-C ) :   1.1424 B( 35-C , 36-C ) :   1.2451 B( 35-C , 64-H ) :   1.0218
B( 36-C , 37-C ) :   0.9489 B( 37-C , 38-F ) :   1.1599 B( 37-C , 39-F ) :   1.1563
B( 37-C , 40-F ) :   1.1848 B( 41-C , 42-C ) :   1.6766 B( 41-C , 65-H ) :   0.9558
B( 42-C , 43-C ) :   1.0661 B( 42-C , 66-H ) :   0.9907 B( 43-C , 44-C ) :   1.2109
B( 43-C , 48-C ) :   1.3801 B( 44-C , 45-C ) :   1.4975 B( 44-C , 67-H ) :   0.9873
B( 45-C , 46-C ) :   1.2248 B( 45-C , 68-H ) :   1.0032 B( 46-C , 47-C ) :   1.2467
B( 46-C , 52-N ) :   1.4376 B( 47-C , 48-C ) :   1.2157 B( 47-C , 49-N ) :   1.4207
B( 48-C , 69-H ) :   1.0217 B( 49-N , 50-C ) :   1.6745 B( 50-C , 51-C ) :   1.2285
B( 50-C , 70-H ) :   0.9737 B( 51-C , 52-N ) :   1.6665 B( 51-C , 71-H ) :   0.9739

-----------------------------------------------------------------------------
         ABSORPTION SPECTRUM VIA TRANSITION ELECTRIC DIPOLE MOMENTS
-----------------------------------------------------------------------------
State   Energy  Wavelength   fosc         T2         TX        TY        TZ
        (cm-1)    (nm)                  (au**2)     (au)      (au)      (au)
-----------------------------------------------------------------------------
   0   21634.2    462.2   1.600346349  24.35282   3.24002   3.72121   0.08773
   1   28058.3    356.4   0.813890222   9.54950  -1.67062  -0.15597   2.59503
   2   29481.9    339.2   0.318844621   3.56040  -0.97952  -0.01215   1.61270
   3   30860.8    324.0   0.205267301   2.18972   0.47008  -0.00633  -1.40310
   4   32658.4    306.2   0.193612319   1.95171  -0.13086   0.46347   1.31140
   5   34622.1    288.8   0.028556339   0.27153   0.36647   0.32603   0.17591
   6   35961.9    278.1   0.309674595   2.83490   0.11512   0.74022   1.50789
   7   36046.4    277.4   0.002251569   0.02056  -0.09860  -0.01984  -0.10221
   8   37066.6    269.8   0.077646666   0.68963   0.44776   0.68899   0.12011
   9   37398.9    267.4   0.056356675   0.49609   0.17676  -0.10224  -0.67409
  10   38648.1    258.7   0.082843119   0.70567   0.24561  -0.17947  -0.78303
  11   39137.8    255.5   0.196013785   1.64879   0.93825   0.87663  -0.00174
  12   39649.3    252.2   0.255603729   2.12230   0.43396  -0.56907  -1.26891

FINAL SINGLE POINT ENERGY     -2761.437222078055

DIPOLE MOMENT
-------------
                                X             Y             Z
Electronic contribution:      4.09096      23.68992      27.83192
Nuclear contribution   :     -4.63774     -24.63175     -28.32537
                        -----------------------------------------
Total Dipole Moment    :     -0.54678      -0.94183      -0.49345
                        -----------------------------------------
Magnitude (a.u.)       :      1.19562
Magnitude (Debye)      :      3.03902

Rotational constants in cm-1:     0.001701     0.000553     0.000421
Rotational constants in MHz :    50.983133    16.576375    12.624950

                             ****ORCA TERMINATED NORMALLY****
TOTAL RUN TIME: 0 days 0 hours 3 minutes 44 seconds 621 msec
