                         Program Version 4.2.0 -  RELEASE  -
|  1> # ORCA input file
|  2> # SCF done       -160.476037093224          0.000390600382
|  3> ! CAM-B3LYP def2-SVP def2/J RIJCOSX Grid4 TightSCF
|  4> %maxcore 5000
|  5> %tddft
|  6>     Mode sTDDFT
|  7>     Ethresh 5.0
|  8>     maxcore 5000
|  9> end
| 10>
| 11> %pal
| 12>   nprocs 6
| 13>   end
| 14> * xyz 0 1
| 15>    C       -5.90655        -4.94024        -4.51038
| 16>    C       -5.72207        -3.56225        -4.22231
| 17>    C       -5.48541        -2.67295        -5.24762
| 18>    C       -5.42284        -3.13564        -6.57403
| 19>    C       -5.59657        -4.52075        -6.85354
| 20>    C       -5.83855        -5.41072        -5.78691
| 21>    N       -5.54490        -4.98107        -8.11997
| 22>    C       -5.34091        -4.10356        -9.06553
| 23>    C       -5.18923        -2.72789        -8.79213
| 24>    N       -5.22789        -2.25300        -7.57727
| 25>    C       -5.84978        -3.15146        -2.83635
| 26>    O       -6.51714        -3.97141        -2.01424
| 27>    C       -6.54347        -3.43909        -0.77374
| 28>    C       -5.86402        -2.23923        -0.78279
| 29>    C       -5.41887        -2.05097        -2.10888
| 30>    C       -4.60901        -0.89151        -2.56317
| 31>    F       -5.31139        -0.01652        -3.31324
| 32>    F       -4.12854        -0.18478        -1.52964
| 33>    F       -3.54622        -1.24740        -3.30553
| 34>    C       -7.24762        -4.19000         0.21335
| 35>    C       -7.39740        -3.90540         1.52152
| 36>    C       -8.17351        -4.78245         2.34361
| 37>    N       -8.35372        -4.67050         3.70137
| 38>    C       -9.14936        -5.67295         4.16726
| 39>    C       -9.50604        -6.46405         3.09249
| 40>    C       -8.88646        -5.89476         1.95504
| 41>    S       -9.34067        -6.85519         0.53978
| 42>    O       -8.20263        -7.52118        -0.03827
| 43>    O      -10.17205        -6.10168        -0.36024
| 44>    C      -10.32813        -8.00356         1.53979
| 45>    C      -10.29707        -7.63943         2.84019
| 46>    C      -10.91696        -9.03653         0.78055
| 47>    C      -11.65409       -10.10080         1.18376
| 48>    C      -12.11673       -11.03862         0.22038
| 49>    O      -11.83707       -10.83281        -1.08080
| 50>    C      -12.34321       -11.85483        -1.80834
| 51>    C      -12.97438       -12.75296        -0.95826
| 52>    C      -12.83203       -12.22877         0.33592
| 53>    C      -13.33714       -12.81604         1.60068
| 54>    F      -12.35178       -13.07301         2.48599
| 55>    F      -14.19403       -11.99877         2.24786
| 56>    F      -13.98648       -13.97128         1.41135
| 57>    C      -12.16332       -11.85091        -3.21412
| 58>    C      -11.55591       -10.80924        -3.85353
| 59>    C      -11.32101       -10.72328        -5.23319
| 60>    C      -10.76187        -9.62349        -5.83826
| 61>    C      -10.48707        -9.45979        -7.22110
| 62>    C       -9.96645        -8.24809        -7.54952
| 63>    C       -9.80473        -7.37305        -6.44609
| 64>    S      -10.30745        -8.16768        -4.96623
| 65>    C       -9.37169        -6.06674        -6.46283
| 66>    C       -8.98724        -5.30294        -7.60162
| 67>    C       -8.67462        -4.01786        -7.32731
| 68>    C       -8.77973        -3.66625        -5.94018
| 69>    S       -9.28957        -5.08568        -5.01455
| 70>    C       -8.54298        -2.47220        -5.37937
| 71>    H       -6.10805        -5.61283        -3.69119
| 72>    H       -5.36898        -1.61493        -5.08707
| 73>    H       -5.97761        -6.45605        -6.01426
| 74>    H       -5.29682        -4.48179       -10.07832
| 75>    H       -5.03638        -2.01178        -9.58871
| 76>    H       -5.69628        -1.57532         0.03936
| 77>    H       -7.70282        -5.08870        -0.18006
| 78>    H       -6.95113        -3.03200         1.97435
| 79>    H       -7.94698        -3.94724         4.27339
| 80>    H       -9.40049        -5.75008         5.20618
| 81>    H      -10.81089        -8.15978         3.63249
| 82>    H      -10.71433        -8.94105        -0.27914
| 83>    H      -11.89800       -10.28123         2.21866
| 84>    H      -13.47217       -13.66068        -1.23001
| 85>    H      -12.53349       -12.70587        -3.75895
| 86>    H      -11.22913        -9.96980        -3.25281
| 87>    H      -11.59673       -11.55908        -5.86258
| 88>    H      -10.68960       -10.24682        -7.92629
| 89>    H       -9.70219        -7.95412        -8.54939
| 90>    H       -8.96010        -5.73571        -8.58551
| 91>    H       -8.37602        -3.28556        -8.05698
| 92>    H       -8.23969        -1.63185        -5.97812
| 93>    H       -8.65822        -2.31342        -4.32272
| 94> *
| 95>
| 96>                          ****END OF INPUT****

CARTESIAN COORDINATES (ANGSTROEM)
---------------------------------
  C     -5.906550   -4.940240   -4.510380
  C     -5.722070   -3.562250   -4.222310
  C     -5.485410   -2.672950   -5.247620
  C     -5.422840   -3.135640   -6.574030
  C     -5.596570   -4.520750   -6.853540
  C     -5.838550   -5.410720   -5.786910
  N     -5.544900   -4.981070   -8.119970
  C     -5.340910   -4.103560   -9.065530
  C     -5.189230   -2.727890   -8.792130
  N     -5.227890   -2.253000   -7.577270
  C     -5.849780   -3.151460   -2.836350
  O     -6.517140   -3.971410   -2.014240
  C     -6.543470   -3.439090   -0.773740
  C     -5.864020   -2.239230   -0.782790
  C     -5.418870   -2.050970   -2.108880
  C     -4.609010   -0.891510   -2.563170
  F     -5.311390   -0.016520   -3.313240
  F     -4.128540   -0.184780   -1.529640
  F     -3.546220   -1.247400   -3.305530
  C     -7.247620   -4.190000    0.213350
  C     -7.397400   -3.905400    1.521520
  C     -8.173510   -4.782450    2.343610
  N     -8.353720   -4.670500    3.701370
  C     -9.149360   -5.672950    4.167260
  C     -9.506040   -6.464050    3.092490
  C     -8.886460   -5.894760    1.955040
  S     -9.340670   -6.855190    0.539780
  O     -8.202630   -7.521180   -0.038270
  O    -10.172050   -6.101680   -0.360240
  C    -10.328130   -8.003560    1.539790
  C    -10.297070   -7.639430    2.840190
  C    -10.916960   -9.036530    0.780550
  C    -11.654090  -10.100800    1.183760
  C    -12.116730  -11.038620    0.220380
  O    -11.837070  -10.832810   -1.080800
  C    -12.343210  -11.854830   -1.808340
  C    -12.974380  -12.752960   -0.958260
  C    -12.832030  -12.228770    0.335920
  C    -13.337140  -12.816040    1.600680
  F    -12.351780  -13.073010    2.485990
  F    -14.194030  -11.998770    2.247860
  F    -13.986480  -13.971280    1.411350
  C    -12.163320  -11.850910   -3.214120
  C    -11.555910  -10.809240   -3.853530
  C    -11.321010  -10.723280   -5.233190
  C    -10.761870   -9.623490   -5.838260
  C    -10.487070   -9.459790   -7.221100
  C     -9.966450   -8.248090   -7.549520
  C     -9.804730   -7.373050   -6.446090
  S    -10.307450   -8.167680   -4.966230
  C     -9.371690   -6.066740   -6.462830
  C     -8.987240   -5.302940   -7.601620
  C     -8.674620   -4.017860   -7.327310
  C     -8.779730   -3.666250   -5.940180
  S     -9.289570   -5.085680   -5.014550
  C     -8.542980   -2.472200   -5.379370
  H     -6.108050   -5.612830   -3.691190
  H     -5.368980   -1.614930   -5.087070
  H     -5.977610   -6.456050   -6.014260
  H     -5.296820   -4.481790  -10.078320
  H     -5.036380   -2.011780   -9.588710
  H     -5.696280   -1.575320    0.039360
  H     -7.702820   -5.088700   -0.180060
  H     -6.951130   -3.032000    1.974350
  H     -7.946980   -3.947240    4.273390
  H     -9.400490   -5.750080    5.206180
  H    -10.810890   -8.159780    3.632490
  H    -10.714330   -8.941050   -0.279140
  H    -11.898000  -10.281230    2.218660
  H    -13.472170  -13.660680   -1.230010
  H    -12.533490  -12.705870   -3.758950
  H    -11.229130   -9.969800   -3.252810
  H    -11.596730  -11.559080   -5.862580
  H    -10.689600  -10.246820   -7.926290
  H     -9.702190   -7.954120   -8.549390
  H     -8.960100   -5.735710   -8.585510
  H     -8.376020   -3.285560   -8.056980
  H     -8.239690   -1.631850   -5.978120
  H     -8.658220   -2.313420   -4.322720

 Total Charge           Charge          ....    0
 Multiplicity           Mult            ....    1
 Number of Electrons    NEL             ....  418
 Basis Dimension        Dim             ....  911

ORBITAL ENERGIES
----------------

  NO   OCC          E(Eh)            E(eV)
   0   2.0000     -89.132226     -2425.4112
   1   2.0000     -88.934079     -2420.0193
   2   2.0000     -88.931333     -2419.9446
   3   2.0000     -24.797807      -674.7826
   4   2.0000     -24.793536      -674.6664
   5   2.0000     -24.793499      -674.6654
   6   2.0000     -24.793090      -674.6543
   7   2.0000     -24.786801      -674.4831
   8   2.0000     -24.786465      -674.4740
   9   2.0000     -19.302085      -525.2364
  10   2.0000     -19.290734      -524.9276
  11   2.0000     -19.184865      -522.0467
  12   2.0000     -19.183266      -522.0032
  13   2.0000     -14.484498      -394.1432
  14   2.0000     -14.417583      -392.3224
  15   2.0000     -14.416448      -392.2915
  16   2.0000     -10.517795      -286.2038
  17   2.0000     -10.511527      -286.0332
  18   2.0000     -10.349240      -281.6171
  19   2.0000     -10.339301      -281.3467
  20   2.0000     -10.338881      -281.3353
  21   2.0000     -10.332807      -281.1700
  22   2.0000     -10.328419      -281.0506
  23   2.0000     -10.318090      -280.7695
  24   2.0000     -10.311966      -280.6029
  25   2.0000     -10.311387      -280.5871
  26   2.0000     -10.307772      -280.4887
  27   2.0000     -10.307380      -280.4781
  28   2.0000     -10.304550      -280.4011
  29   2.0000     -10.300942      -280.3029
  30   2.0000     -10.300807      -280.2992
  31   2.0000     -10.300178      -280.2821
  32   2.0000     -10.298617      -280.2396
  33   2.0000     -10.297972      -280.2221
  34   2.0000     -10.294448      -280.1262
  35   2.0000     -10.294270      -280.1213
  36   2.0000     -10.293948      -280.1126
  37   2.0000     -10.289547      -279.9928
  38   2.0000     -10.289219      -279.9839
  39   2.0000     -10.287693      -279.9424
  40   2.0000     -10.286906      -279.9209
  41   2.0000     -10.284055      -279.8434
  42   2.0000     -10.283281      -279.8223
  43   2.0000     -10.282266      -279.7947
  44   2.0000     -10.280928      -279.7583
  45   2.0000     -10.278253      -279.6855
  46   2.0000     -10.277617      -279.6682
  47   2.0000     -10.277245      -279.6581
  48   2.0000     -10.276584      -279.6401
  49   2.0000     -10.275991      -279.6239
  50   2.0000     -10.274528      -279.5841
  51   2.0000     -10.273242      -279.5491
  52   2.0000     -10.272392      -279.5260
  53   2.0000     -10.270360      -279.4707
  54   2.0000     -10.267801      -279.4011
  55   2.0000     -10.265174      -279.3296
  56   2.0000      -8.196870      -223.0482
  57   2.0000      -8.030307      -218.5158
  58   2.0000      -8.027449      -218.4380
  59   2.0000      -6.166004      -167.7855
  60   2.0000      -6.165649      -167.7758
  61   2.0000      -6.164945      -167.7567
  62   2.0000      -6.000032      -163.2692
  63   2.0000      -5.997300      -163.1948
  64   2.0000      -5.996109      -163.1624
  65   2.0000      -5.993361      -163.0877
  66   2.0000      -5.991103      -163.0262
  67   2.0000      -5.988000      -162.9418
  68   2.0000      -1.384602       -37.6769
  69   2.0000      -1.378344       -37.5066
  70   2.0000      -1.288201       -35.0537
  71   2.0000      -1.283885       -34.9363
  72   2.0000      -1.283438       -34.9241
  73   2.0000      -1.276363       -34.7316
  74   2.0000      -1.226089       -33.3636
  75   2.0000      -1.213397       -33.0182
  76   2.0000      -1.189355       -32.3640
  77   2.0000      -1.096525       -29.8380
  78   2.0000      -1.071914       -29.1683
  79   2.0000      -1.065603       -28.9965
  80   2.0000      -0.994785       -27.0695
  81   2.0000      -0.984687       -26.7947
  82   2.0000      -0.962454       -26.1897
  83   2.0000      -0.957915       -26.0662
  84   2.0000      -0.953753       -25.9530
  85   2.0000      -0.924627       -25.1604
  86   2.0000      -0.923047       -25.1174
  87   2.0000      -0.919499       -25.0208
  88   2.0000      -0.913930       -24.8693
  89   2.0000      -0.898558       -24.4510
  90   2.0000      -0.883457       -24.0401
  91   2.0000      -0.876148       -23.8412
  92   2.0000      -0.860223       -23.4079
  93   2.0000      -0.846948       -23.0466
  94   2.0000      -0.841127       -22.8882
  95   2.0000      -0.839102       -22.8331
  96   2.0000      -0.836737       -22.7688
  97   2.0000      -0.814569       -22.1656
  98   2.0000      -0.812307       -22.1040
  99   2.0000      -0.806997       -21.9595
 100   2.0000      -0.796702       -21.6794
 101   2.0000      -0.788203       -21.4481
 102   2.0000      -0.777066       -21.1450
 103   2.0000      -0.773224       -21.0405
 104   2.0000      -0.751747       -20.4561
 105   2.0000      -0.744004       -20.2454
 106   2.0000      -0.740226       -20.1426
 107   2.0000      -0.720938       -19.6177
 108   2.0000      -0.717951       -19.5364
 109   2.0000      -0.708602       -19.2821
 110   2.0000      -0.704234       -19.1632
 111   2.0000      -0.696457       -18.9516
 112   2.0000      -0.691102       -18.8058
 113   2.0000      -0.681928       -18.5562
 114   2.0000      -0.677600       -18.4384
 115   2.0000      -0.673646       -18.3308
 116   2.0000      -0.667373       -18.1601
 117   2.0000      -0.664020       -18.0689
 118   2.0000      -0.662974       -18.0404
 119   2.0000      -0.660796       -17.9812
 120   2.0000      -0.658737       -17.9251
 121   2.0000      -0.648877       -17.6569
 122   2.0000      -0.639057       -17.3896
 123   2.0000      -0.627870       -17.0852
 124   2.0000      -0.622413       -16.9367
 125   2.0000      -0.619903       -16.8684
 126   2.0000      -0.615248       -16.7417
 127   2.0000      -0.609265       -16.5789
 128   2.0000      -0.605660       -16.4808
 129   2.0000      -0.597423       -16.2567
 130   2.0000      -0.593240       -16.1429
 131   2.0000      -0.590968       -16.0811
 132   2.0000      -0.587415       -15.9844
 133   2.0000      -0.580114       -15.7857
 134   2.0000      -0.576464       -15.6864
 135   2.0000      -0.571492       -15.5511
 136   2.0000      -0.569701       -15.5024
 137   2.0000      -0.561766       -15.2864
 138   2.0000      -0.560190       -15.2435
 139   2.0000      -0.550596       -14.9825
 140   2.0000      -0.547211       -14.8904
 141   2.0000      -0.546114       -14.8605
 142   2.0000      -0.543402       -14.7867
 143   2.0000      -0.538885       -14.6638
 144   2.0000      -0.537421       -14.6240
 145   2.0000      -0.537066       -14.6143
 146   2.0000      -0.534117       -14.5341
 147   2.0000      -0.528312       -14.3761
 148   2.0000      -0.525157       -14.2903
 149   2.0000      -0.524540       -14.2735
 150   2.0000      -0.521683       -14.1957
 151   2.0000      -0.520835       -14.1726
 152   2.0000      -0.519598       -14.1390
 153   2.0000      -0.515114       -14.0170
 154   2.0000      -0.508933       -13.8488
 155   2.0000      -0.505653       -13.7595
 156   2.0000      -0.504376       -13.7248
 157   2.0000      -0.502218       -13.6660
 158   2.0000      -0.500308       -13.6141
 159   2.0000      -0.499267       -13.5857
 160   2.0000      -0.496987       -13.5237
 161   2.0000      -0.495406       -13.4807
 162   2.0000      -0.493446       -13.4273
 163   2.0000      -0.492784       -13.4093
 164   2.0000      -0.488166       -13.2837
 165   2.0000      -0.486436       -13.2366
 166   2.0000      -0.480890       -13.0857
 167   2.0000      -0.479117       -13.0374
 168   2.0000      -0.474712       -12.9176
 169   2.0000      -0.474395       -12.9089
 170   2.0000      -0.468285       -12.7427
 171   2.0000      -0.466265       -12.6877
 172   2.0000      -0.464297       -12.6342
 173   2.0000      -0.458743       -12.4830
 174   2.0000      -0.455384       -12.3916
 175   2.0000      -0.453117       -12.3299
 176   2.0000      -0.450869       -12.2688
 177   2.0000      -0.448624       -12.2077
 178   2.0000      -0.446493       -12.1497
 179   2.0000      -0.445255       -12.1160
 180   2.0000      -0.441106       -12.0031
 181   2.0000      -0.437525       -11.9057
 182   2.0000      -0.432260       -11.7624
 183   2.0000      -0.420592       -11.4449
 184   2.0000      -0.415347       -11.3022
 185   2.0000      -0.413086       -11.2406
 186   2.0000      -0.409772       -11.1505
 187   2.0000      -0.405634       -11.0379
 188   2.0000      -0.395030       -10.7493
 189   2.0000      -0.388841       -10.5809
 190   2.0000      -0.387381       -10.5412
 191   2.0000      -0.383151       -10.4261
 192   2.0000      -0.379841       -10.3360
 193   2.0000      -0.375203       -10.2098
 194   2.0000      -0.371221       -10.1014
 195   2.0000      -0.359343        -9.7782
 196   2.0000      -0.356182        -9.6922
 197   2.0000      -0.351381        -9.5616
 198   2.0000      -0.344812        -9.3828
 199   2.0000      -0.333045        -9.0626
 200   2.0000      -0.327827        -8.9206
 201   2.0000      -0.319595        -8.6966
 202   2.0000      -0.314886        -8.5685
 203   2.0000      -0.309507        -8.4221
 204   2.0000      -0.303450        -8.2573
 205   2.0000      -0.286376        -7.7927
 206   2.0000      -0.260296        -7.0830
 207   2.0000      -0.245149        -6.6708
 208   2.0000      -0.204486        -5.5644
 209   0.0000      -0.072019        -1.9597
 210   0.0000      -0.052541        -1.4297
 211   0.0000      -0.042313        -1.1514
 212   0.0000      -0.027124        -0.7381
 213   0.0000      -0.000306        -0.0083

MULLIKEN ATOMIC CHARGES
-----------------------
   0 C :    0.045462
   1 C :    0.049056
   2 C :   -0.044920
   3 C :   -0.014406
   4 C :   -0.012201
   5 C :    0.003745
   6 N :   -0.016437
   7 C :    0.012758
   8 C :    0.011910
   9 N :   -0.009203
  10 C :    0.158943
  11 O :   -0.172946
  12 C :    0.200859
  13 C :   -0.094590
  14 C :   -0.147116
  15 C :    0.534387
  16 F :   -0.167817
  17 F :   -0.157646
  18 F :   -0.160294
  19 C :    0.024946
  20 C :    0.007795
  21 C :    0.007107
  22 N :   -0.037220
  23 C :   -0.009157
  24 C :    0.064373
  25 C :   -0.076805
  26 S :    0.789437
  27 O :   -0.460799
  28 O :   -0.459007
  29 C :   -0.054706
  30 C :    0.032641
  31 C :    0.071554
  32 C :   -0.018132
  33 C :    0.119802
  34 O :   -0.202426
  35 C :    0.203150
  36 C :   -0.067458
  37 C :   -0.104837
  38 C :    0.518098
  39 F :   -0.171463
  40 F :   -0.171651
  41 F :   -0.155195
  42 C :   -0.040864
  43 C :    0.021552
  44 C :   -0.020725
  45 C :   -0.013685
  46 C :    0.032115
  47 C :    0.030395
  48 C :   -0.052189
  49 S :    0.085346
  50 C :   -0.071490
  51 C :    0.020365
  52 C :    0.090799
  53 C :   -0.125767
  54 S :    0.104082
  55 C :    0.025803
  56 H :    0.008137
  57 H :   -0.029600
  58 H :   -0.019350
  59 H :    0.007037
  60 H :    0.010350
  61 H :   -0.008561
  62 H :    0.002020
  63 H :   -0.035645
  64 H :    0.130856
  65 H :    0.000214
  66 H :   -0.011496
  67 H :    0.022517
  68 H :    0.005013
  69 H :   -0.009888
  70 H :   -0.011944
  71 H :    0.022210
  72 H :   -0.020710
  73 H :   -0.015308
  74 H :   -0.013935
  75 H :   -0.015494
  76 H :   -0.015434
  77 H :    0.023671
  78 H :    0.020015
Sum of atomic charges:    0.0000000

LOEWDIN ATOMIC CHARGES
----------------------
   0 C :    0.004539
   1 C :   -0.038166
   2 C :    0.004691
   3 C :   -0.016570
   4 C :   -0.009919
   5 C :   -0.007818
   6 N :   -0.039598
   7 C :   -0.004430
   8 C :   -0.007221
   9 N :   -0.039376
  10 C :    0.058678
  11 O :    0.046913
  12 C :    0.028428
  13 C :   -0.040778
  14 C :   -0.127872
  15 C :    0.171273
  16 F :   -0.067354
  17 F :   -0.056733
  18 F :   -0.058900
  19 C :   -0.009552
  20 C :   -0.036776
  21 C :   -0.000160
  22 N :    0.099806
  23 C :   -0.000492
  24 C :   -0.081754
  25 C :   -0.225385
  26 S :    1.174209
  27 O :   -0.501662
  28 O :   -0.499974
  29 C :   -0.156620
  30 C :   -0.001304
  31 C :   -0.033164
  32 C :   -0.023103
  33 C :    0.046960
  34 O :    0.027374
  35 C :    0.046303
  36 C :   -0.053038
  37 C :   -0.122287
  38 C :    0.170084
  39 F :   -0.071581
  40 F :   -0.071909
  41 F :   -0.055159
  42 C :   -0.056868
  43 C :   -0.010450
  44 C :   -0.071541
  45 C :   -0.132803
  46 C :   -0.041499
  47 C :   -0.024686
  48 C :   -0.186362
  49 S :    0.377610
  50 C :   -0.170972
  51 C :   -0.025844
  52 C :   -0.028505
  53 C :   -0.146856
  54 S :    0.375792
  55 C :   -0.058861
  56 H :    0.036697
  57 H :    0.028578
  58 H :    0.037830
  59 H :    0.023815
  60 H :    0.024755
  61 H :    0.033712
  62 H :    0.032655
  63 H :    0.026617
  64 H :    0.095323
  65 H :    0.024913
  66 H :    0.035895
  67 H :    0.034716
  68 H :    0.036128
  69 H :    0.034910
  70 H :    0.034514
  71 H :    0.026935
  72 H :    0.030064
  73 H :    0.032183
  74 H :    0.031469
  75 H :    0.031491
  76 H :    0.031065
  77 H :    0.030558
  78 H :    0.026420

  Mayer bond orders larger than 0.100000
B(  0-C ,  1-C ) :   1.2195 B(  0-C ,  5-C ) :   1.4521 B(  0-C , 56-H ) :   0.9962
B(  1-C ,  2-C ) :   1.3965 B(  1-C , 10-C ) :   1.0399 B(  2-C ,  3-C ) :   1.2360
B(  2-C , 57-H ) :   1.0012 B(  3-C ,  4-C ) :   1.2456 B(  3-C ,  9-N ) :   1.4340
B(  4-C ,  5-C ) :   1.2280 B(  4-C ,  6-N ) :   1.4188 B(  5-C , 58-H ) :   1.0087
B(  6-N ,  7-C ) :   1.6674 B(  7-C ,  8-C ) :   1.2239 B(  7-C , 59-H ) :   0.9745
B(  8-C ,  9-N ) :   1.6679 B(  8-C , 60-H ) :   0.9742 B( 10-C , 11-O ) :   1.2015
B( 10-C , 12-C ) :   0.1156 B( 10-C , 14-C ) :   1.4933 B( 11-O , 12-C ) :   1.1280
B( 12-C , 13-C ) :   1.4653 B( 12-C , 19-C ) :   1.1011 B( 13-C , 14-C ) :   1.2398
B( 13-C , 61-H ) :   1.0169 B( 14-C , 15-C ) :   0.9475 B( 15-C , 16-F ) :   1.1348
B( 15-C , 17-F ) :   1.1746 B( 15-C , 18-F ) :   1.1754 B( 19-C , 20-C ) :   1.6896
B( 19-C , 62-H ) :   0.9313 B( 20-C , 21-C ) :   1.1150 B( 20-C , 63-H ) :   0.9708
B( 21-C , 22-N ) :   1.2210 B( 21-C , 25-C ) :   1.4927 B( 22-N , 23-C ) :   1.2163
B( 22-N , 64-H ) :   0.9327 B( 23-C , 24-C ) :   1.4322 B( 23-C , 65-H ) :   0.9867
B( 24-C , 25-C ) :   1.3447 B( 24-C , 30-C ) :   1.0508 B( 25-C , 26-S ) :   0.8198
B( 26-S , 27-O ) :   1.6726 B( 26-S , 28-O ) :   1.7015 B( 26-S , 29-C ) :   0.8296
B( 29-C , 30-C ) :   1.6804 B( 29-C , 31-C ) :   1.1051 B( 30-C , 66-H ) :   0.9940
B( 31-C , 32-C ) :   1.6690 B( 31-C , 67-H ) :   0.9444 B( 32-C , 33-C ) :   1.1976
B( 32-C , 68-H ) :   0.9542 B( 33-C , 34-O ) :   1.1599 B( 33-C , 37-C ) :   1.4175
B( 34-O , 35-C ) :   1.1297 B( 35-C , 36-C ) :   1.3988 B( 35-C , 42-C ) :   1.1522
B( 36-C , 37-C ) :   1.2592 B( 36-C , 69-H ) :   1.0225 B( 37-C , 38-C ) :   0.9488
B( 38-C , 39-F ) :   1.1639 B( 38-C , 40-F ) :   1.1649 B( 38-C , 41-F ) :   1.1845
B( 42-C , 43-C ) :   1.6075 B( 42-C , 70-H ) :   0.9749 B( 43-C , 44-C ) :   1.1614
B( 43-C , 71-H ) :   0.9737 B( 44-C , 45-C ) :   1.5585 B( 44-C , 72-H ) :   0.9825
B( 45-C , 46-C ) :   1.1372 B( 45-C , 49-S ) :   1.0432 B( 46-C , 47-C ) :   1.5977
B( 46-C , 73-H ) :   0.9995 B( 47-C , 48-C ) :   1.1776 B( 47-C , 74-H ) :   0.9939
B( 48-C , 49-S ) :   1.0386 B( 48-C , 50-C ) :   1.5414 B( 50-C , 51-C ) :   1.1556
B( 50-C , 54-S ) :   1.0558 B( 51-C , 52-C ) :   1.6527 B( 51-C , 75-H ) :   0.9926
B( 52-C , 53-C ) :   1.0753 B( 52-C , 76-H ) :   0.9896 B( 53-C , 54-S ) :   1.0104
B( 53-C , 55-C ) :   1.8752 B( 55-C , 77-H ) :   0.9392 B( 55-C , 78-H ) :   0.9322

-----------------------------------------------------------------------------
         ABSORPTION SPECTRUM VIA TRANSITION ELECTRIC DIPOLE MOMENTS
-----------------------------------------------------------------------------
State   Energy  Wavelength   fosc         T2         TX        TY        TZ
        (cm-1)    (nm)                  (au**2)     (au)      (au)      (au)
-----------------------------------------------------------------------------
   0   14643.9    682.9   0.506747008  11.39223  -0.70642  -1.97309   2.64577
   1   18677.5    535.4   0.083466134   1.47119   0.67893   1.00179   0.08164
   2   21531.3    464.4   0.317111545   4.84862  -0.74509  -2.05272   0.28253
   3   23583.0    424.0   0.780619501  10.89722  -1.59938  -2.87251  -0.29650
   4   24435.2    409.2   0.321204962   4.32755  -1.04164  -1.73102  -0.49608
   5   26611.2    375.8   0.492171200   6.08875   0.22054  -0.63322  -2.37469
   6   26821.6    372.8   0.577272152   7.08553  -1.08382  -1.37447   2.00541
   7   29031.5    344.5   0.264851718   3.00337  -0.25001  -1.06551  -1.34371
   8   29694.5    336.8   0.316714150   3.51129   0.12036  -0.34404  -1.83805
   9   30402.7    328.9   0.124798084   1.35136   0.04071  -0.17926  -1.14785
  10   30682.6    325.9   0.011631519   0.12480   0.31239   0.01724  -0.16406
  11   30872.9    323.9   0.008960014   0.09554  -0.06693  -0.27072   0.13332
  12   31374.0    318.7   0.069260974   0.72677  -0.36894  -0.72664   0.25029
  13   32605.9    306.7   0.024897119   0.25138  -0.12763  -0.35203  -0.33341
  14   32802.8    304.9   0.403297539   4.04753   0.91118   0.39757  -1.74906
  15   34337.1    291.2   0.000966696   0.00927  -0.04267  -0.03461  -0.07905
  16   34489.9    289.9   0.001396571   0.01333  -0.00954   0.02962   0.11118
  17   34907.2    286.5   0.240182068   2.26517   0.70835   1.26651  -0.39920
  18   36004.0    277.7   0.034866994   0.31882  -0.07691   0.28011  -0.48419
  19   36474.1    274.2   0.050579306   0.45652  -0.01304  -0.34250  -0.58228
  20   36800.6    271.7   0.077397400   0.69238   0.34577   0.31430  -0.68851
  21   37178.3    269.0   0.011569186   0.10244  -0.31037  -0.00019  -0.07819
  22   37347.4    267.8   0.028000773   0.24682   0.03376  -0.07150  -0.49048
  23   37797.5    264.6   0.001046246   0.00911  -0.02867   0.00632   0.09083
  24   38421.4    260.3   0.037636764   0.32249  -0.07996  -0.35691  -0.43441
  25   38774.0    257.9   0.195653568   1.66120  -0.25214  -0.91137  -0.87580
  26   39337.9    254.2   0.019182871   0.16054  -0.35279  -0.18527  -0.04191
  27   40001.6    250.0   0.001968626   0.01620   0.03235   0.11883  -0.03215

FINAL SINGLE POINT ENERGY     -3793.265112441678

DIPOLE MOMENT
-------------
                                X             Y             Z
Electronic contribution:     -0.57258      -3.17248      30.05697
Nuclear contribution   :      0.74745       3.94946     -29.40123
                        -----------------------------------------
Total Dipole Moment    :      0.17487       0.77698       0.65573
                        -----------------------------------------
Magnitude (a.u.)       :      1.03163
Magnitude (Debye)      :      2.62219

Rotational constants in cm-1:     0.001928     0.000820     0.000597
Rotational constants in MHz :    57.800458    24.597301    17.911627

                             ****ORCA TERMINATED NORMALLY****
TOTAL RUN TIME: 0 days 0 hours 6 minutes 11 seconds 487 msec
