                         Program Version 4.2.0 -  RELEASE  -
|  1> # ORCA input file
|  2> # SCF done       -144.081438221826          0.000827013192
|  3> ! CAM-B3LYP def2-SVP def2/J RIJCOSX Grid4 TightSCF
|  4> %maxcore 5000
|  5> %tddft
|  6>     Mode sTDDFT
|  7>     Ethresh 5.0
|  8>     maxcore 5000
|  9> end
| 10>
| 11> %pal
| 12>   nprocs 6
| 13>   end
| 14> * xyz 0 1
| 15>    C       -0.89710        -1.92903         0.25691
| 16>    C       -2.30776        -1.91902         0.09403
| 17>    C       -3.10289        -1.60859         1.18005
| 18>    C       -2.53241        -1.30696         2.42517
| 19>    C       -1.11631        -1.32073         2.57319
| 20>    C       -0.31712        -1.64001         1.45557
| 21>    N       -0.54259        -1.03324         3.75823
| 22>    C       -1.34081        -0.74552         4.75197
| 23>    C       -2.74443        -0.73221         4.60752
| 24>    N       -3.33031        -1.00524         3.47426
| 25>    C       -2.89984        -2.22546        -1.18776
| 26>    S       -4.62624        -2.15786        -1.39412
| 27>    C       -4.48807        -2.61758        -3.06934
| 28>    C       -3.17042        -2.80843        -3.42225
| 29>    C       -2.28449        -2.58778        -2.36532
| 30>    C       -5.62154        -2.74513        -3.85444
| 31>    C       -6.64594        -2.83854        -4.50074
| 32>    C       -7.82342        -2.93421        -5.23136
| 33>    C       -9.03262        -2.73363        -4.65617
| 34>    C      -10.28502        -2.80337        -5.32467
| 35>    S      -11.73901        -2.51505        -4.41425
| 36>    C      -12.72311        -2.74873        -5.83596
| 37>    C      -11.93915        -3.03658        -6.93836
| 38>    C      -10.57846        -3.06785        -6.65132
| 39>    C      -14.09611        -2.63144        -5.76004
| 40>    C      -15.29989        -2.50586        -5.62978
| 41>    C      -16.66631        -2.35155        -5.48243
| 42>    C      -17.23505        -2.10658        -4.27113
| 43>    C      -18.63376        -1.92405        -4.08972
| 44>    C      -19.23765        -1.69137        -2.86364
| 45>    O      -20.59935        -1.49836        -2.74027
| 46>    C      -21.31665        -1.55516        -3.89354
| 47>    C      -20.69687        -1.80302        -5.15105
| 48>    C      -21.57866        -1.82358        -6.18129
| 49>    S      -23.18588        -1.53963        -5.62811
| 50>    C      -22.65903        -1.39223        -3.99262
| 51>    O      -19.35101        -1.99177        -5.26143
| 52>    C      -18.54341        -1.63374        -1.63165
| 53>    C      -19.15053        -1.38947        -0.43149
| 54>    C      -18.40676        -1.36110         0.76154
| 55>    C      -18.91683        -1.11750         2.01061
| 56>    C      -18.17921        -1.09792         3.25468
| 57>    C      -16.83709        -1.32905         3.43000
| 58>    C      -15.91155        -1.63379         2.41142
| 59>    N      -15.08958        -1.88462         1.64829
| 60>    C      -16.18280        -1.29761         4.67855
| 61>    N      -15.58257        -1.28588         5.65781
| 62>    C      -19.12695        -0.78914         4.32579
| 63>    C      -20.40667        -0.62400         3.76635
| 64>    C      -20.34061        -0.82157         2.30637
| 65>    O      -21.26747        -0.75093         1.52509
| 66>    C      -21.49914        -0.32337         4.55481
| 67>    C      -21.30991        -0.18814         5.92224
| 68>    C      -20.05249        -0.34985         6.49573
| 69>    C      -18.95265        -0.65176         5.69078
| 70>    C      -19.85416        -0.20287         7.97127
| 71>    H       -0.27300        -2.16867        -0.58954
| 72>    H       -4.17975        -1.59028         1.09944
| 73>    H        0.75449        -1.64602         1.58146
| 74>    H       -0.87272        -0.51549         5.69983
| 75>    H       -3.39017        -0.49200         5.44197
| 76>    H       -2.87047        -3.09844        -4.41352
| 77>    H       -1.22030        -2.69671        -2.47183
| 78>    H       -7.73126        -3.17985        -6.28075
| 79>    H       -9.06961        -2.49780        -3.60061
| 80>    H      -12.35943        -3.21556        -7.91224
| 81>    H       -9.82455        -3.27543        -7.38926
| 82>    H      -17.27802        -2.43116        -6.37082
| 83>    H      -16.59708        -2.04064        -3.40599
| 84>    H      -21.37844        -1.98687        -7.21944
| 85>    H      -23.35790        -1.19659        -3.20686
| 86>    H      -17.47733        -1.79789        -1.64562
| 87>    H      -20.21461        -1.21630        -0.38747
| 88>    H      -17.34499        -1.55191         0.66836
| 89>    H      -22.47271        -0.19960         4.10574
| 90>    H      -22.15274         0.04630         6.55618
| 91>    H      -17.98511        -0.77277         6.15084
| 92>    H      -20.79554        -0.00943         8.47852
| 93>    H      -19.16999         0.61935         8.17756
| 94>    H      -19.41147        -1.10826         8.38382
| 95> *
| 96>
| 97>                          ****END OF INPUT****

CARTESIAN COORDINATES (ANGSTROEM)
---------------------------------
  C     -0.897100   -1.929030    0.256910
  C     -2.307760   -1.919020    0.094030
  C     -3.102890   -1.608590    1.180050
  C     -2.532410   -1.306960    2.425170
  C     -1.116310   -1.320730    2.573190
  C     -0.317120   -1.640010    1.455570
  N     -0.542590   -1.033240    3.758230
  C     -1.340810   -0.745520    4.751970
  C     -2.744430   -0.732210    4.607520
  N     -3.330310   -1.005240    3.474260
  C     -2.899840   -2.225460   -1.187760
  S     -4.626240   -2.157860   -1.394120
  C     -4.488070   -2.617580   -3.069340
  C     -3.170420   -2.808430   -3.422250
  C     -2.284490   -2.587780   -2.365320
  C     -5.621540   -2.745130   -3.854440
  C     -6.645940   -2.838540   -4.500740
  C     -7.823420   -2.934210   -5.231360
  C     -9.032620   -2.733630   -4.656170
  C    -10.285020   -2.803370   -5.324670
  S    -11.739010   -2.515050   -4.414250
  C    -12.723110   -2.748730   -5.835960
  C    -11.939150   -3.036580   -6.938360
  C    -10.578460   -3.067850   -6.651320
  C    -14.096110   -2.631440   -5.760040
  C    -15.299890   -2.505860   -5.629780
  C    -16.666310   -2.351550   -5.482430
  C    -17.235050   -2.106580   -4.271130
  C    -18.633760   -1.924050   -4.089720
  C    -19.237650   -1.691370   -2.863640
  O    -20.599350   -1.498360   -2.740270
  C    -21.316650   -1.555160   -3.893540
  C    -20.696870   -1.803020   -5.151050
  C    -21.578660   -1.823580   -6.181290
  S    -23.185880   -1.539630   -5.628110
  C    -22.659030   -1.392230   -3.992620
  O    -19.351010   -1.991770   -5.261430
  C    -18.543410   -1.633740   -1.631650
  C    -19.150530   -1.389470   -0.431490
  C    -18.406760   -1.361100    0.761540
  C    -18.916830   -1.117500    2.010610
  C    -18.179210   -1.097920    3.254680
  C    -16.837090   -1.329050    3.430000
  C    -15.911550   -1.633790    2.411420
  N    -15.089580   -1.884620    1.648290
  C    -16.182800   -1.297610    4.678550
  N    -15.582570   -1.285880    5.657810
  C    -19.126950   -0.789140    4.325790
  C    -20.406670   -0.624000    3.766350
  C    -20.340610   -0.821570    2.306370
  O    -21.267470   -0.750930    1.525090
  C    -21.499140   -0.323370    4.554810
  C    -21.309910   -0.188140    5.922240
  C    -20.052490   -0.349850    6.495730
  C    -18.952650   -0.651760    5.690780
  C    -19.854160   -0.202870    7.971270
  H     -0.273000   -2.168670   -0.589540
  H     -4.179750   -1.590280    1.099440
  H      0.754490   -1.646020    1.581460
  H     -0.872720   -0.515490    5.699830
  H     -3.390170   -0.492000    5.441970
  H     -2.870470   -3.098440   -4.413520
  H     -1.220300   -2.696710   -2.471830
  H     -7.731260   -3.179850   -6.280750
  H     -9.069610   -2.497800   -3.600610
  H    -12.359430   -3.215560   -7.912240
  H     -9.824550   -3.275430   -7.389260
  H    -17.278020   -2.431160   -6.370820
  H    -16.597080   -2.040640   -3.405990
  H    -21.378440   -1.986870   -7.219440
  H    -23.357900   -1.196590   -3.206860
  H    -17.477330   -1.797890   -1.645620
  H    -20.214610   -1.216300   -0.387470
  H    -17.344990   -1.551910    0.668360
  H    -22.472710   -0.199600    4.105740
  H    -22.152740    0.046300    6.556180
  H    -17.985110   -0.772770    6.150840
  H    -20.795540   -0.009430    8.478520
  H    -19.169990    0.619350    8.177560
  H    -19.411470   -1.108260    8.383820

 Total Charge           Charge          ....    0
 Multiplicity           Mult            ....    1
 Number of Electrons    NEL             ....  400
 Basis Dimension        Dim             ....  916

ORBITAL ENERGIES
----------------

  NO   OCC          E(Eh)            E(eV)
   0   2.0000     -88.961916     -2420.7768
   1   2.0000     -88.961126     -2420.7553
   2   2.0000     -88.955520     -2420.6028
   3   2.0000     -19.288673      -524.8715
   4   2.0000     -19.279088      -524.6107
   5   2.0000     -19.206637      -522.6392
   6   2.0000     -14.414786      -392.2463
   7   2.0000     -14.413699      -392.2167
   8   2.0000     -14.410140      -392.1198
   9   2.0000     -14.406706      -392.0264
  10   2.0000     -10.367246      -282.1071
  11   2.0000     -10.357124      -281.8317
  12   2.0000     -10.356273      -281.8085
  13   2.0000     -10.346387      -281.5395
  14   2.0000     -10.344688      -281.4933
  15   2.0000     -10.333633      -281.1925
  16   2.0000     -10.332378      -281.1583
  17   2.0000     -10.316560      -280.7279
  18   2.0000     -10.313395      -280.6418
  19   2.0000     -10.312083      -280.6060
  20   2.0000     -10.310281      -280.5570
  21   2.0000     -10.308830      -280.5175
  22   2.0000     -10.308715      -280.5144
  23   2.0000     -10.308283      -280.5026
  24   2.0000     -10.307220      -280.4737
  25   2.0000     -10.306343      -280.4499
  26   2.0000     -10.304835      -280.4088
  27   2.0000     -10.304425      -280.3977
  28   2.0000     -10.303913      -280.3837
  29   2.0000     -10.303539      -280.3736
  30   2.0000     -10.300042      -280.2784
  31   2.0000     -10.297214      -280.2014
  32   2.0000     -10.296616      -280.1852
  33   2.0000     -10.296521      -280.1826
  34   2.0000     -10.295096      -280.1438
  35   2.0000     -10.294368      -280.1240
  36   2.0000     -10.292866      -280.0831
  37   2.0000     -10.291816      -280.0546
  38   2.0000     -10.286685      -279.9149
  39   2.0000     -10.286224      -279.9024
  40   2.0000     -10.284686      -279.8605
  41   2.0000     -10.283912      -279.8395
  42   2.0000     -10.283163      -279.8191
  43   2.0000     -10.282388      -279.7980
  44   2.0000     -10.280844      -279.7560
  45   2.0000     -10.279495      -279.7193
  46   2.0000     -10.279422      -279.7173
  47   2.0000     -10.279351      -279.7154
  48   2.0000     -10.277487      -279.6646
  49   2.0000     -10.277452      -279.6637
  50   2.0000     -10.275783      -279.6183
  51   2.0000     -10.275534      -279.6115
  52   2.0000     -10.275053      -279.5984
  53   2.0000     -10.273794      -279.5642
  54   2.0000     -10.273235      -279.5489
  55   2.0000     -10.269242      -279.4403
  56   2.0000      -8.057689      -219.2609
  57   2.0000      -8.056854      -219.2381
  58   2.0000      -8.051005      -219.0790
  59   2.0000      -6.027208      -164.0087
  60   2.0000      -6.026048      -163.9771
  61   2.0000      -6.023001      -163.8942
  62   2.0000      -6.021969      -163.8661
  63   2.0000      -6.020236      -163.8189
  64   2.0000      -6.019373      -163.7955
  65   2.0000      -6.019025      -163.7860
  66   2.0000      -6.016156      -163.7079
  67   2.0000      -6.013141      -163.6259
  68   2.0000      -1.211384       -32.9634
  69   2.0000      -1.173621       -31.9358
  70   2.0000      -1.120234       -30.4831
  71   2.0000      -1.069255       -29.0959
  72   2.0000      -1.010493       -27.4969
  73   2.0000      -0.992350       -27.0032
  74   2.0000      -0.992326       -27.0026
  75   2.0000      -0.989523       -26.9263
  76   2.0000      -0.988920       -26.9099
  77   2.0000      -0.987087       -26.8600
  78   2.0000      -0.985915       -26.8281
  79   2.0000      -0.946399       -25.7528
  80   2.0000      -0.945744       -25.7350
  81   2.0000      -0.936599       -25.4861
  82   2.0000      -0.917307       -24.9612
  83   2.0000      -0.911389       -24.8002
  84   2.0000      -0.895326       -24.3631
  85   2.0000      -0.886763       -24.1300
  86   2.0000      -0.878126       -23.8950
  87   2.0000      -0.866749       -23.5855
  88   2.0000      -0.856574       -23.3086
  89   2.0000      -0.851468       -23.1696
  90   2.0000      -0.845534       -23.0082
  91   2.0000      -0.840645       -22.8751
  92   2.0000      -0.835486       -22.7347
  93   2.0000      -0.833004       -22.6672
  94   2.0000      -0.823165       -22.3995
  95   2.0000      -0.820464       -22.3260
  96   2.0000      -0.808500       -22.0004
  97   2.0000      -0.798336       -21.7238
  98   2.0000      -0.785440       -21.3729
  99   2.0000      -0.772544       -21.0220
 100   2.0000      -0.754452       -20.5297
 101   2.0000      -0.747367       -20.3369
 102   2.0000      -0.736210       -20.0333
 103   2.0000      -0.733329       -19.9549
 104   2.0000      -0.723227       -19.6800
 105   2.0000      -0.714100       -19.4317
 106   2.0000      -0.697386       -18.9768
 107   2.0000      -0.696639       -18.9565
 108   2.0000      -0.694123       -18.8881
 109   2.0000      -0.682682       -18.5767
 110   2.0000      -0.677673       -18.4404
 111   2.0000      -0.670524       -18.2459
 112   2.0000      -0.667558       -18.1652
 113   2.0000      -0.660133       -17.9631
 114   2.0000      -0.652414       -17.7531
 115   2.0000      -0.647063       -17.6075
 116   2.0000      -0.628771       -17.1097
 117   2.0000      -0.626038       -17.0354
 118   2.0000      -0.622517       -16.9396
 119   2.0000      -0.614175       -16.7126
 120   2.0000      -0.605475       -16.4758
 121   2.0000      -0.604732       -16.4556
 122   2.0000      -0.599748       -16.3200
 123   2.0000      -0.594823       -16.1860
 124   2.0000      -0.588411       -16.0115
 125   2.0000      -0.585907       -15.9433
 126   2.0000      -0.579902       -15.7799
 127   2.0000      -0.576726       -15.6935
 128   2.0000      -0.576386       -15.6843
 129   2.0000      -0.565426       -15.3860
 130   2.0000      -0.554941       -15.1007
 131   2.0000      -0.545393       -14.8409
 132   2.0000      -0.538466       -14.6524
 133   2.0000      -0.534349       -14.5404
 134   2.0000      -0.532037       -14.4775
 135   2.0000      -0.529159       -14.3992
 136   2.0000      -0.524386       -14.2693
 137   2.0000      -0.522526       -14.2187
 138   2.0000      -0.520478       -14.1629
 139   2.0000      -0.519638       -14.1401
 140   2.0000      -0.519404       -14.1337
 141   2.0000      -0.512495       -13.9457
 142   2.0000      -0.509827       -13.8731
 143   2.0000      -0.508608       -13.8399
 144   2.0000      -0.506206       -13.7746
 145   2.0000      -0.504867       -13.7381
 146   2.0000      -0.504071       -13.7165
 147   2.0000      -0.500024       -13.6063
 148   2.0000      -0.491348       -13.3703
 149   2.0000      -0.490466       -13.3463
 150   2.0000      -0.489641       -13.3238
 151   2.0000      -0.486825       -13.2472
 152   2.0000      -0.485719       -13.2171
 153   2.0000      -0.484865       -13.1939
 154   2.0000      -0.482987       -13.1428
 155   2.0000      -0.481101       -13.0914
 156   2.0000      -0.475034       -12.9263
 157   2.0000      -0.471352       -12.8261
 158   2.0000      -0.466321       -12.6892
 159   2.0000      -0.458417       -12.4742
 160   2.0000      -0.456445       -12.4205
 161   2.0000      -0.453544       -12.3416
 162   2.0000      -0.444816       -12.1041
 163   2.0000      -0.444252       -12.0887
 164   2.0000      -0.442655       -12.0452
 165   2.0000      -0.442306       -12.0357
 166   2.0000      -0.440811       -11.9951
 167   2.0000      -0.437695       -11.9103
 168   2.0000      -0.436876       -11.8880
 169   2.0000      -0.435272       -11.8444
 170   2.0000      -0.435011       -11.8372
 171   2.0000      -0.425558       -11.5800
 172   2.0000      -0.424304       -11.5459
 173   2.0000      -0.423050       -11.5118
 174   2.0000      -0.419453       -11.4139
 175   2.0000      -0.417448       -11.3593
 176   2.0000      -0.414121       -11.2688
 177   2.0000      -0.413014       -11.2387
 178   2.0000      -0.411466       -11.1966
 179   2.0000      -0.398999       -10.8573
 180   2.0000      -0.395221       -10.7545
 181   2.0000      -0.383989       -10.4489
 182   2.0000      -0.377275       -10.2662
 183   2.0000      -0.363928        -9.9030
 184   2.0000      -0.348738        -9.4896
 185   2.0000      -0.344832        -9.3833
 186   2.0000      -0.341878        -9.3030
 187   2.0000      -0.330455        -8.9921
 188   2.0000      -0.328563        -8.9406
 189   2.0000      -0.325722        -8.8633
 190   2.0000      -0.325394        -8.8544
 191   2.0000      -0.321776        -8.7560
 192   2.0000      -0.313736        -8.5372
 193   2.0000      -0.312703        -8.5091
 194   2.0000      -0.309130        -8.4118
 195   2.0000      -0.306516        -8.3407
 196   2.0000      -0.294343        -8.0095
 197   2.0000      -0.282507        -7.6874
 198   2.0000      -0.253911        -6.9093
 199   2.0000      -0.232487        -6.3263
 200   0.0000      -0.095741        -2.6052
 201   0.0000      -0.063296        -1.7224
 202   0.0000      -0.052535        -1.4295
 203   0.0000      -0.036858        -1.0030
 204   0.0000      -0.019529        -0.5314

MULLIKEN ATOMIC CHARGES
-----------------------
   0 C :   -0.011187
   1 C :    0.193533
   2 C :   -0.100866
   3 C :    0.010670
   4 C :   -0.030645
   5 C :    0.010994
   6 N :   -0.018051
   7 C :    0.019782
   8 C :    0.021830
   9 N :   -0.018353
  10 C :   -0.072892
  11 S :    0.147592
  12 C :   -0.139795
  13 C :    0.061926
  14 C :   -0.012984
  15 C :    0.066483
  16 C :   -0.034975
  17 C :   -0.073000
  18 C :    0.068176
  19 C :   -0.085693
  20 S :    0.172916
  21 C :   -0.170029
  22 C :    0.070412
  23 C :    0.007059
  24 C :    0.067847
  25 C :   -0.013802
  26 C :   -0.045907
  27 C :   -0.058037
  28 C :    0.182745
  29 C :    0.191587
  30 O :   -0.247244
  31 C :    0.220493
  32 C :    0.214001
  33 C :   -0.170842
  34 S :    0.115206
  35 C :   -0.166615
  36 O :   -0.249681
  37 C :   -0.046844
  38 C :    0.016109
  39 C :   -0.038992
  40 C :   -0.068222
  41 C :    0.333262
  42 C :   -0.357919
  43 C :   -0.185067
  44 N :    0.138152
  45 C :   -0.183266
  46 N :    0.142492
  47 C :    0.040335
  48 C :   -0.017679
  49 C :    0.141032
  50 O :   -0.151199
  51 C :   -0.020858
  52 C :    0.006589
  53 C :   -0.038354
  54 C :   -0.075617
  55 C :    0.094343
  56 H :   -0.022030
  57 H :   -0.016810
  58 H :   -0.023111
  59 H :    0.008356
  60 H :    0.011189
  61 H :   -0.013979
  62 H :   -0.014683
  63 H :    0.024305
  64 H :    0.003373
  65 H :   -0.009060
  66 H :   -0.011647
  67 H :    0.039516
  68 H :    0.013596
  69 H :    0.027758
  70 H :    0.033395
  71 H :    0.014143
  72 H :    0.036161
  73 H :    0.002503
  74 H :   -0.010230
  75 H :   -0.017453
  76 H :   -0.013166
  77 H :    0.010689
  78 H :    0.038873
  79 H :    0.037363
Sum of atomic charges:   -0.0000000

LOEWDIN ATOMIC CHARGES
----------------------
   0 C :   -0.007743
   1 C :   -0.029940
   2 C :   -0.020466
   3 C :   -0.011566
   4 C :   -0.016616
   5 C :   -0.007714
   6 N :   -0.040989
   7 C :   -0.002330
   8 C :    0.001500
   9 N :   -0.042163
  10 C :   -0.159649
  11 S :    0.458501
  12 C :   -0.184366
  13 C :   -0.035768
  14 C :   -0.057129
  15 C :   -0.055763
  16 C :   -0.026832
  17 C :   -0.034166
  18 C :   -0.019440
  19 C :   -0.164760
  20 S :    0.462089
  21 C :   -0.192650
  22 C :   -0.026438
  23 C :   -0.054601
  24 C :   -0.044020
  25 C :   -0.031828
  26 C :   -0.013362
  27 C :   -0.028418
  28 C :    0.053953
  29 C :    0.017907
  30 O :   -0.046802
  31 C :   -0.007936
  32 C :   -0.010885
  33 C :   -0.206720
  34 S :    0.442609
  35 C :   -0.204467
  36 O :   -0.043511
  37 C :    0.011323
  38 C :   -0.026919
  39 C :    0.063913
  40 C :   -0.098171
  41 C :    0.077158
  42 C :   -0.144019
  43 C :   -0.018750
  44 N :   -0.059570
  45 C :   -0.017516
  46 N :   -0.059478
  47 C :   -0.011045
  48 C :   -0.051022
  49 C :    0.082880
  50 O :   -0.146674
  51 C :    0.015459
  52 C :   -0.012560
  53 C :   -0.000966
  54 C :   -0.005022
  55 C :   -0.043830
  56 H :    0.029638
  57 H :    0.027244
  58 H :    0.036297
  59 H :    0.024563
  60 H :    0.025660
  61 H :    0.034144
  62 H :    0.029377
  63 H :    0.041707
  64 H :    0.036366
  65 H :    0.035989
  66 H :    0.030626
  67 H :    0.047828
  68 H :    0.040718
  69 H :    0.030314
  70 H :    0.032980
  71 H :    0.039251
  72 H :    0.036580
  73 H :    0.039550
  74 H :    0.037930
  75 H :    0.030108
  76 H :    0.036209
  77 H :    0.029745
  78 H :    0.042576
  79 H :    0.041886

  Mayer bond orders larger than 0.100000
B(  0-C ,  1-C ) :   1.2230 B(  0-C ,  5-C ) :   1.4902 B(  0-C , 56-H ) :   0.9934
B(  1-C ,  2-C ) :   1.3725 B(  1-C , 10-C ) :   1.0659 B(  2-C ,  3-C ) :   1.2474
B(  2-C , 57-H ) :   1.0024 B(  3-C ,  4-C ) :   1.2451 B(  3-C ,  9-N ) :   1.4306
B(  4-C ,  5-C ) :   1.2288 B(  4-C ,  6-N ) :   1.4376 B(  5-C , 58-H ) :   1.0034
B(  6-N ,  7-C ) :   1.6655 B(  7-C ,  8-C ) :   1.2288 B(  7-C , 59-H ) :   0.9738
B(  8-C ,  9-N ) :   1.6741 B(  8-C , 60-H ) :   0.9737 B( 10-C , 11-S ) :   1.1335
B( 10-C , 12-C ) :   0.1060 B( 10-C , 14-C ) :   1.5224 B( 11-S , 12-C ) :   1.1093
B( 12-C , 13-C ) :   1.5067 B( 12-C , 15-C ) :   0.9758 B( 13-C , 14-C ) :   1.2577
B( 13-C , 61-H ) :   1.0014 B( 14-C , 62-H ) :   0.9895 B( 15-C , 16-C ) :   2.2869
B( 16-C , 17-C ) :   1.0329 B( 17-C , 18-C ) :   1.7248 B( 17-C , 63-H ) :   0.9508
B( 18-C , 19-C ) :   1.1196 B( 18-C , 64-H ) :   0.9633 B( 19-C , 20-S ) :   1.1325
B( 19-C , 21-C ) :   0.1015 B( 19-C , 23-C ) :   1.4754 B( 20-S , 21-C ) :   1.1115
B( 21-C , 22-C ) :   1.4673 B( 21-C , 24-C ) :   1.0059 B( 22-C , 23-C ) :   1.3002
B( 22-C , 65-H ) :   1.0006 B( 23-C , 66-H ) :   0.9885 B( 24-C , 25-C ) :   2.2560
B( 25-C , 26-C ) :   1.0026 B( 26-C , 27-C ) :   1.6596 B( 26-C , 67-H ) :   0.9615
B( 27-C , 28-C ) :   1.1923 B( 27-C , 68-H ) :   0.9591 B( 28-C , 29-C ) :   1.3989
B( 28-C , 36-O ) :   1.0909 B( 29-C , 30-O ) :   1.0711 B( 29-C , 37-C ) :   1.1812
B( 30-O , 31-C ) :   1.0528 B( 31-C , 32-C ) :   1.2058 B( 31-C , 35-C ) :   1.5752
B( 32-C , 33-C ) :   1.5695 B( 32-C , 36-O ) :   1.0332 B( 33-C , 34-S ) :   1.1481
B( 33-C , 69-H ) :   0.9736 B( 34-S , 35-C ) :   1.1421 B( 35-C , 70-H ) :   0.9708
B( 37-C , 38-C ) :   1.5295 B( 37-C , 71-H ) :   0.9692 B( 38-C , 39-C ) :   1.1592
B( 38-C , 72-H ) :   0.9912 B( 39-C , 40-C ) :   1.5126 B( 39-C , 73-H ) :   0.9623
B( 40-C , 41-C ) :   1.0822 B( 40-C , 49-C ) :   0.9426 B( 41-C , 42-C ) :   1.6151
B( 41-C , 47-C ) :   0.9761 B( 42-C , 43-C ) :   1.1483 B( 42-C , 45-C ) :   1.1467
B( 43-C , 44-N ) :   2.9578 B( 45-C , 46-N ) :   2.9618 B( 47-C , 48-C ) :   1.3268
B( 47-C , 54-C ) :   1.3724 B( 48-C , 49-C ) :   0.9477 B( 48-C , 51-C ) :   1.3880
B( 49-C , 50-O ) :   2.2083 B( 51-C , 52-C ) :   1.3374 B( 51-C , 74-H ) :   1.0061
B( 52-C , 53-C ) :   1.3948 B( 52-C , 75-H ) :   0.9892 B( 53-C , 54-C ) :   1.3479
B( 53-C , 55-C ) :   1.0523 B( 54-C , 76-H ) :   0.9871 B( 55-C , 77-H ) :   0.9598
B( 55-C , 78-H ) :   0.9533 B( 55-C , 79-H ) :   0.9541

-----------------------------------------------------------------------------
         ABSORPTION SPECTRUM VIA TRANSITION ELECTRIC DIPOLE MOMENTS
-----------------------------------------------------------------------------
State   Energy  Wavelength   fosc         T2         TX        TY        TZ
        (cm-1)    (nm)                  (au**2)     (au)      (au)      (au)
-----------------------------------------------------------------------------
   0   15752.6    634.8   1.044931304  21.83788  -3.26685   0.59068   3.28887
   1   22069.1    453.1   1.278802480  19.07629   3.41050   0.22258   2.71942
   2   23636.6    423.1   0.769749308  10.72111  -3.03759  -0.07280  -1.22018
   3   25584.7    390.9   0.148726301   1.91374  -0.49188  -0.36304  -1.24097
   4   27056.9    369.6   0.468618630   5.70186  -0.45262  -0.32459  -2.32199
   5   27956.8    357.7   0.000543033   0.00639   0.02496  -0.02097  -0.07302
   6   28270.6    353.7   0.140070387   1.63112  -1.16005   0.06273  -0.53053
   7   28883.3    346.2   0.219303232   2.49962   1.08412  -0.50126  -1.03588
   8   30076.5    332.5   0.254286156   2.78337   1.00505  -0.33315  -1.28928
   9   30389.2    329.1   0.038991241   0.42240   0.25761   0.09531   0.58903
  10   31502.3    317.4   0.000072077   0.00075   0.01494  -0.02299  -0.00116
  11   32309.6    309.5   0.030710434   0.31292  -0.55538   0.01496  -0.06513
  12   32373.7    308.9   0.017783151   0.18084  -0.10528  -0.02795  -0.41107
  13   33402.5    299.4   0.072259697   0.71218  -0.81032   0.03010  -0.23379
  14   33881.2    295.1   0.085625631   0.83199   0.36894  -0.16928  -0.81684
  15   35253.5    283.7   0.035433201   0.33089   0.01083   0.19121   0.54241
  16   35706.0    280.1   0.170061569   1.56798   0.41573  -0.25097  -1.15419
  17   36071.5    277.2   0.255640937   2.33315  -1.13548   0.35851   0.95671
  18   36298.1    275.5   0.000437992   0.00397   0.04965  -0.02581   0.02900
  19   36931.8    270.8   0.095824706   0.85419   0.63487  -0.18647  -0.64525
  20   37138.2    269.3   0.066004290   0.58510   0.57287   0.06557   0.50261
  21   37835.9    264.3   0.063403529   0.55168  -0.28921  -0.13237  -0.67120
  22   38267.3    261.3   0.306990525   2.64102  -1.59407   0.29396   0.11640
  23   38762.8    258.0   0.005736098   0.04872  -0.16839   0.12529  -0.06829
  24   39142.8    255.5   0.003981234   0.03348  -0.12784   0.07588   0.10669
  25   39259.3    254.7   0.085005045   0.71282  -0.51475   0.22838   0.62904
  26   39438.1    253.6   0.004767489   0.03980   0.12249  -0.08410  -0.13312
  27   39626.7    252.4   0.216107668   1.79538  -1.12357   0.03954  -0.72899
  28   40053.1    249.7   0.002313072   0.01901  -0.00336   0.01364  -0.13717

FINAL SINGLE POINT ENERGY     -3403.210955071778

DIPOLE MOMENT
-------------
                                X             Y             Z
Electronic contribution:     -7.44543      -2.77473     -20.35069
Nuclear contribution   :      6.59160       2.82754      18.91486
                        -----------------------------------------
Total Dipole Moment    :     -0.85383       0.05281      -1.43584
                        -----------------------------------------
Magnitude (a.u.)       :      1.67136
Magnitude (Debye)      :      4.24825

Rotational constants in cm-1:     0.001205     0.000379     0.000289
Rotational constants in MHz :    36.113977    11.353222     8.659357

                             ****ORCA TERMINATED NORMALLY****
TOTAL RUN TIME: 0 days 0 hours 7 minutes 58 seconds 171 msec
