                         Program Version 4.2.0 -  RELEASE  -
|  1> # ORCA input file
|  2> # SCF done       -163.466401575253          0.000708516372
|  3> ! CAM-B3LYP def2-SVP def2/J RIJCOSX Grid4 TightSCF
|  4> %maxcore 5000
|  5> %tddft
|  6>     Mode sTDDFT
|  7>     Ethresh 5.0
|  8>     maxcore 5000
|  9> end
| 10>
| 11> %pal
| 12>   nprocs 6
| 13>   end
| 14> * xyz 0 1
| 15>    C       -8.02896        -2.49237        -2.57325
| 16>    C       -6.64777        -2.48238        -2.88345
| 17>    C       -6.23899        -2.47686        -4.19880
| 18>    C       -7.19220        -2.42729        -5.23066
| 19>    C       -8.57828        -2.39631        -4.90977
| 20>    C       -8.97249        -2.44353        -3.55667
| 21>    N       -9.50904        -2.33347        -5.88414
| 22>    C       -9.08076        -2.30801        -7.11682
| 23>    C       -7.70621        -2.35968        -7.43591
| 24>    N       -6.78179        -2.41956        -6.51788
| 25>    C       -5.68632        -2.51792        -1.77931
| 26>    C       -4.56317        -1.74909        -1.71471
| 27>    O       -3.64895        -1.84583        -0.67626
| 28>    C       -3.99164        -2.72152         0.31110
| 29>    C       -5.19492        -3.48372         0.26225
| 30>    C       -5.35834        -4.28472         1.34362
| 31>    S       -4.04122        -4.12353         2.44285
| 32>    C       -3.26549        -2.96211         1.42955
| 33>    O       -6.05924        -3.39659        -0.79190
| 34>    C       -4.26882        -0.71480        -2.65830
| 35>    C       -3.12642         0.00503        -2.62474
| 36>    C       -2.79317         1.07512        -3.50823
| 37>    S       -1.10986         1.42454        -3.75424
| 38>    C       -1.44475         2.68143        -4.90578
| 39>    C       -2.80958         2.79100        -5.10546
| 40>    C       -3.57241         1.92090        -4.28031
| 41>    C       -5.05863         2.03556        -4.12944
| 42>    F       -5.45377         1.81377        -2.86019
| 43>    F       -5.51267         3.25900        -4.42114
| 44>    F       -5.75512         1.16927        -4.88939
| 45>    C       -3.40795         3.60663        -6.21139
| 46>    F       -2.57584         3.71018        -7.26483
| 47>    F       -4.52443         3.05773        -6.70397
| 48>    F       -3.71269         4.86790        -5.85687
| 49>    C       -0.34323         3.43227        -5.41983
| 50>    C       -0.39575         4.72624        -5.80546
| 51>    C        0.71893         5.47342        -6.27657
| 52>    S        0.53816         7.18347        -6.53935
| 53>    C        2.19972         7.32259        -7.03470
| 54>    C        2.83374         6.09429        -7.00335
| 55>    C        2.00509         5.06193        -6.57575
| 56>    C        2.74842         8.54561        -7.38012
| 57>    C        3.21946         9.63021        -7.65911
| 58>    C        3.76679        10.87087        -7.95716
| 59>    C        5.03501        11.03899        -8.39407
| 60>    C        5.60030        12.31814        -8.66867
| 61>    O        4.89837        13.44999        -8.47770
| 62>    C        5.68193        14.50495        -8.80226
| 63>    C        6.91667        14.05541        -9.21566
| 64>    C        6.86797        12.65141        -9.13071
| 65>    C        7.95563        11.70165        -9.46966
| 66>    F        8.31722        10.92972        -8.42446
| 67>    F        7.60929        10.84141       -10.44887
| 68>    F        9.06621        12.32184        -9.88521
| 69>    C        5.13035        15.82634        -8.66374
| 70>    C        5.78453        16.95300        -8.93246
| 71>    H       -8.32129        -2.52445        -1.53474
| 72>    H       -5.19748        -2.53674        -4.47301
| 73>    H      -10.02742        -2.43541        -3.33196
| 74>    H       -9.83372        -2.24965        -7.89144
| 75>    H       -7.36995        -2.35233        -8.46418
| 76>    H       -6.16714        -4.95289         1.55295
| 77>    H       -2.33006        -2.52882         1.71480
| 78>    H       -5.02891        -0.52785        -3.39643
| 79>    H       -2.35472        -0.27229        -1.92043
| 80>    H        0.60698         2.91784        -5.40108
| 81>    H       -1.32300         5.27603        -5.73178
| 82>    H        3.86531         5.97218        -7.28144
| 83>    H        2.32801         4.04006        -6.49444
| 84>    H        3.12466        11.73073        -7.81426
| 85>    H        5.68044        10.18715        -8.54796
| 86>    H        7.75138        14.64205        -9.53725
| 87>    H        4.10868        15.84855        -8.31023
| 88>    H        6.80113        16.95160        -9.28441
| 89>    H        5.31681        17.91297        -8.80731
| 90> *
| 91>
| 92>                          ****END OF INPUT****

CARTESIAN COORDINATES (ANGSTROEM)
---------------------------------
  C     -8.028960   -2.492370   -2.573250
  C     -6.647770   -2.482380   -2.883450
  C     -6.238990   -2.476860   -4.198800
  C     -7.192200   -2.427290   -5.230660
  C     -8.578280   -2.396310   -4.909770
  C     -8.972490   -2.443530   -3.556670
  N     -9.509040   -2.333470   -5.884140
  C     -9.080760   -2.308010   -7.116820
  C     -7.706210   -2.359680   -7.435910
  N     -6.781790   -2.419560   -6.517880
  C     -5.686320   -2.517920   -1.779310
  C     -4.563170   -1.749090   -1.714710
  O     -3.648950   -1.845830   -0.676260
  C     -3.991640   -2.721520    0.311100
  C     -5.194920   -3.483720    0.262250
  C     -5.358340   -4.284720    1.343620
  S     -4.041220   -4.123530    2.442850
  C     -3.265490   -2.962110    1.429550
  O     -6.059240   -3.396590   -0.791900
  C     -4.268820   -0.714800   -2.658300
  C     -3.126420    0.005030   -2.624740
  C     -2.793170    1.075120   -3.508230
  S     -1.109860    1.424540   -3.754240
  C     -1.444750    2.681430   -4.905780
  C     -2.809580    2.791000   -5.105460
  C     -3.572410    1.920900   -4.280310
  C     -5.058630    2.035560   -4.129440
  F     -5.453770    1.813770   -2.860190
  F     -5.512670    3.259000   -4.421140
  F     -5.755120    1.169270   -4.889390
  C     -3.407950    3.606630   -6.211390
  F     -2.575840    3.710180   -7.264830
  F     -4.524430    3.057730   -6.703970
  F     -3.712690    4.867900   -5.856870
  C     -0.343230    3.432270   -5.419830
  C     -0.395750    4.726240   -5.805460
  C      0.718930    5.473420   -6.276570
  S      0.538160    7.183470   -6.539350
  C      2.199720    7.322590   -7.034700
  C      2.833740    6.094290   -7.003350
  C      2.005090    5.061930   -6.575750
  C      2.748420    8.545610   -7.380120
  C      3.219460    9.630210   -7.659110
  C      3.766790   10.870870   -7.957160
  C      5.035010   11.038990   -8.394070
  C      5.600300   12.318140   -8.668670
  O      4.898370   13.449990   -8.477700
  C      5.681930   14.504950   -8.802260
  C      6.916670   14.055410   -9.215660
  C      6.867970   12.651410   -9.130710
  C      7.955630   11.701650   -9.469660
  F      8.317220   10.929720   -8.424460
  F      7.609290   10.841410  -10.448870
  F      9.066210   12.321840   -9.885210
  C      5.130350   15.826340   -8.663740
  C      5.784530   16.953000   -8.932460
  H     -8.321290   -2.524450   -1.534740
  H     -5.197480   -2.536740   -4.473010
  H    -10.027420   -2.435410   -3.331960
  H     -9.833720   -2.249650   -7.891440
  H     -7.369950   -2.352330   -8.464180
  H     -6.167140   -4.952890    1.552950
  H     -2.330060   -2.528820    1.714800
  H     -5.028910   -0.527850   -3.396430
  H     -2.354720   -0.272290   -1.920430
  H      0.606980    2.917840   -5.401080
  H     -1.323000    5.276030   -5.731780
  H      3.865310    5.972180   -7.281440
  H      2.328010    4.040060   -6.494440
  H      3.124660   11.730730   -7.814260
  H      5.680440   10.187150   -8.547960
  H      7.751380   14.642050   -9.537250
  H      4.108680   15.848550   -8.310230
  H      6.801130   16.951600   -9.284410
  H      5.316810   17.912970   -8.807310

 Total Charge           Charge          ....    0
 Multiplicity           Mult            ....    1
 Number of Electrons    NEL             ....  420
 Basis Dimension        Dim             ....  891

ORBITAL ENERGIES
----------------

  NO   OCC          E(Eh)            E(eV)
   0   2.0000     -88.971319     -2421.0327
   1   2.0000     -88.960855     -2420.7479
   2   2.0000     -88.959523     -2420.7117
   3   2.0000     -24.797678      -674.7791
   4   2.0000     -24.793838      -674.6746
   5   2.0000     -24.793546      -674.6667
   6   2.0000     -24.793390      -674.6624
   7   2.0000     -24.793188      -674.6570
   8   2.0000     -24.790613      -674.5869
   9   2.0000     -24.790356      -674.5799
  10   2.0000     -24.790239      -674.5767
  11   2.0000     -24.790133      -674.5738
  12   2.0000     -19.302893      -525.2584
  13   2.0000     -19.280833      -524.6581
  14   2.0000     -19.274003      -524.4723
  15   2.0000     -14.418090      -392.3362
  16   2.0000     -14.417814      -392.3287
  17   2.0000     -10.516779      -286.1761
  18   2.0000     -10.516639      -286.1723
  19   2.0000     -10.515808      -286.1497
  20   2.0000     -10.351387      -281.6756
  21   2.0000     -10.346159      -281.5333
  22   2.0000     -10.344908      -281.4993
  23   2.0000     -10.342509      -281.4340
  24   2.0000     -10.342178      -281.4250
  25   2.0000     -10.339285      -281.3463
  26   2.0000     -10.324418      -280.9417
  27   2.0000     -10.324303      -280.9386
  28   2.0000     -10.316120      -280.7159
  29   2.0000     -10.312730      -280.6236
  30   2.0000     -10.312147      -280.6078
  31   2.0000     -10.311265      -280.5838
  32   2.0000     -10.310962      -280.5755
  33   2.0000     -10.306539      -280.4552
  34   2.0000     -10.305068      -280.4152
  35   2.0000     -10.304437      -280.3980
  36   2.0000     -10.297573      -280.2112
  37   2.0000     -10.297279      -280.2032
  38   2.0000     -10.296867      -280.1920
  39   2.0000     -10.295143      -280.1451
  40   2.0000     -10.294166      -280.1185
  41   2.0000     -10.292938      -280.0851
  42   2.0000     -10.292463      -280.0722
  43   2.0000     -10.290634      -280.0224
  44   2.0000     -10.288491      -279.9641
  45   2.0000     -10.288028      -279.9515
  46   2.0000     -10.285283      -279.8768
  47   2.0000     -10.284340      -279.8511
  48   2.0000     -10.282820      -279.8098
  49   2.0000     -10.282061      -279.7891
  50   2.0000     -10.281775      -279.7813
  51   2.0000     -10.279254      -279.7127
  52   2.0000     -10.278351      -279.6882
  53   2.0000     -10.277241      -279.6580
  54   2.0000     -10.276508      -279.6380
  55   2.0000     -10.275677      -279.6154
  56   2.0000      -8.067523      -219.5285
  57   2.0000      -8.056597      -219.2311
  58   2.0000      -8.055244      -219.1943
  59   2.0000      -6.036684      -164.2665
  60   2.0000      -6.032598      -164.1553
  61   2.0000      -6.029667      -164.0756
  62   2.0000      -6.025783      -163.9699
  63   2.0000      -6.024744      -163.9416
  64   2.0000      -6.021710      -163.8591
  65   2.0000      -6.020586      -163.8285
  66   2.0000      -6.018790      -163.7796
  67   2.0000      -6.016947      -163.7294
  68   2.0000      -1.386768       -37.7359
  69   2.0000      -1.382660       -37.6241
  70   2.0000      -1.381696       -37.5978
  71   2.0000      -1.288550       -35.0632
  72   2.0000      -1.287804       -35.0429
  73   2.0000      -1.286224       -34.9999
  74   2.0000      -1.283039       -34.9133
  75   2.0000      -1.280481       -34.8436
  76   2.0000      -1.280467       -34.8433
  77   2.0000      -1.222505       -33.2660
  78   2.0000      -1.203882       -32.7593
  79   2.0000      -1.166091       -31.7309
  80   2.0000      -1.073429       -29.2095
  81   2.0000      -1.008249       -27.4358
  82   2.0000      -0.996296       -27.1106
  83   2.0000      -0.989180       -26.9170
  84   2.0000      -0.988876       -26.9087
  85   2.0000      -0.957099       -26.0440
  86   2.0000      -0.929100       -25.2821
  87   2.0000      -0.924424       -25.1549
  88   2.0000      -0.921128       -25.0652
  89   2.0000      -0.909679       -24.7536
  90   2.0000      -0.894231       -24.3333
  91   2.0000      -0.889021       -24.1915
  92   2.0000      -0.880464       -23.9586
  93   2.0000      -0.866448       -23.5773
  94   2.0000      -0.851873       -23.1806
  95   2.0000      -0.846038       -23.0219
  96   2.0000      -0.835455       -22.7339
  97   2.0000      -0.833656       -22.6849
  98   2.0000      -0.829145       -22.5622
  99   2.0000      -0.823877       -22.4188
 100   2.0000      -0.810969       -22.0676
 101   2.0000      -0.802597       -21.8398
 102   2.0000      -0.790030       -21.4978
 103   2.0000      -0.775732       -21.1087
 104   2.0000      -0.765827       -20.8392
 105   2.0000      -0.760568       -20.6961
 106   2.0000      -0.743945       -20.2438
 107   2.0000      -0.737755       -20.0753
 108   2.0000      -0.729324       -19.8459
 109   2.0000      -0.722656       -19.6645
 110   2.0000      -0.715864       -19.4797
 111   2.0000      -0.707499       -19.2520
 112   2.0000      -0.697581       -18.9822
 113   2.0000      -0.697083       -18.9686
 114   2.0000      -0.689286       -18.7564
 115   2.0000      -0.680606       -18.5202
 116   2.0000      -0.677914       -18.4470
 117   2.0000      -0.675522       -18.3819
 118   2.0000      -0.669962       -18.2306
 119   2.0000      -0.668419       -18.1886
 120   2.0000      -0.667679       -18.1685
 121   2.0000      -0.664814       -18.0905
 122   2.0000      -0.664699       -18.0874
 123   2.0000      -0.662323       -18.0227
 124   2.0000      -0.661649       -18.0044
 125   2.0000      -0.653259       -17.7761
 126   2.0000      -0.627805       -17.0835
 127   2.0000      -0.626120       -17.0376
 128   2.0000      -0.624095       -16.9825
 129   2.0000      -0.615731       -16.7549
 130   2.0000      -0.612965       -16.6796
 131   2.0000      -0.608832       -16.5672
 132   2.0000      -0.597679       -16.2637
 133   2.0000      -0.590052       -16.0561
 134   2.0000      -0.588142       -16.0042
 135   2.0000      -0.580578       -15.7983
 136   2.0000      -0.577891       -15.7252
 137   2.0000      -0.573113       -15.5952
 138   2.0000      -0.568478       -15.4691
 139   2.0000      -0.566983       -15.4284
 140   2.0000      -0.558268       -15.1912
 141   2.0000      -0.551039       -14.9945
 142   2.0000      -0.550660       -14.9842
 143   2.0000      -0.547182       -14.8896
 144   2.0000      -0.543666       -14.7939
 145   2.0000      -0.542759       -14.7692
 146   2.0000      -0.542599       -14.7649
 147   2.0000      -0.541250       -14.7282
 148   2.0000      -0.537638       -14.6299
 149   2.0000      -0.532339       -14.4857
 150   2.0000      -0.524693       -14.2776
 151   2.0000      -0.523257       -14.2385
 152   2.0000      -0.522965       -14.2306
 153   2.0000      -0.520453       -14.1622
 154   2.0000      -0.517434       -14.0801
 155   2.0000      -0.513222       -13.9655
 156   2.0000      -0.511655       -13.9228
 157   2.0000      -0.510275       -13.8853
 158   2.0000      -0.507064       -13.7979
 159   2.0000      -0.505522       -13.7559
 160   2.0000      -0.504457       -13.7270
 161   2.0000      -0.500853       -13.6289
 162   2.0000      -0.499535       -13.5930
 163   2.0000      -0.498436       -13.5631
 164   2.0000      -0.497708       -13.5433
 165   2.0000      -0.497270       -13.5314
 166   2.0000      -0.491991       -13.3878
 167   2.0000      -0.488666       -13.2973
 168   2.0000      -0.485995       -13.2246
 169   2.0000      -0.482646       -13.1335
 170   2.0000      -0.481592       -13.1048
 171   2.0000      -0.481243       -13.0953
 172   2.0000      -0.478595       -13.0232
 173   2.0000      -0.478480       -13.0201
 174   2.0000      -0.473317       -12.8796
 175   2.0000      -0.471699       -12.8356
 176   2.0000      -0.471444       -12.8287
 177   2.0000      -0.466464       -12.6931
 178   2.0000      -0.464147       -12.6301
 179   2.0000      -0.461857       -12.5678
 180   2.0000      -0.456953       -12.4343
 181   2.0000      -0.451910       -12.2971
 182   2.0000      -0.445988       -12.1360
 183   2.0000      -0.444791       -12.1034
 184   2.0000      -0.441785       -12.0216
 185   2.0000      -0.437758       -11.9120
 186   2.0000      -0.434117       -11.8129
 187   2.0000      -0.431137       -11.7318
 188   2.0000      -0.429971       -11.7001
 189   2.0000      -0.424267       -11.5449
 190   2.0000      -0.418502       -11.3880
 191   2.0000      -0.416341       -11.3292
 192   2.0000      -0.411716       -11.2034
 193   2.0000      -0.398712       -10.8495
 194   2.0000      -0.385797       -10.4981
 195   2.0000      -0.380804       -10.3622
 196   2.0000      -0.374490       -10.1904
 197   2.0000      -0.358226        -9.7478
 198   2.0000      -0.345293        -9.3959
 199   2.0000      -0.343823        -9.3559
 200   2.0000      -0.337353        -9.1798
 201   2.0000      -0.328896        -8.9497
 202   2.0000      -0.322771        -8.7831
 203   2.0000      -0.316537        -8.6134
 204   2.0000      -0.315303        -8.5798
 205   2.0000      -0.305555        -8.3146
 206   2.0000      -0.300279        -8.1710
 207   2.0000      -0.279182        -7.5969
 208   2.0000      -0.253738        -6.9046
 209   2.0000      -0.238121        -6.4796
 210   0.0000      -0.067690        -1.8419
 211   0.0000      -0.048266        -1.3134
 212   0.0000      -0.034466        -0.9379
 213   0.0000      -0.021112        -0.5745
 214   0.0000       0.005219         0.1420

MULLIKEN ATOMIC CHARGES
-----------------------
   0 C :    0.050023
   1 C :    0.011448
   2 C :   -0.041179
   3 C :   -0.003151
   4 C :   -0.017430
   5 C :    0.010516
   6 N :   -0.016014
   7 C :    0.020372
   8 C :    0.024030
   9 N :   -0.014814
  10 C :    0.143651
  11 C :    0.157781
  12 O :   -0.265225
  13 C :    0.226937
  14 C :    0.215900
  15 C :   -0.174231
  16 S :    0.111964
  17 C :   -0.173330
  18 O :   -0.242924
  19 C :   -0.064999
  20 C :    0.044191
  21 C :   -0.113561
  22 S :    0.157642
  23 C :   -0.123006
  24 C :   -0.083293
  25 C :   -0.076903
  26 C :    0.520427
  27 F :   -0.164243
  28 F :   -0.152131
  29 F :   -0.160541
  30 C :    0.520963
  31 F :   -0.162249
  32 F :   -0.155296
  33 F :   -0.162104
  34 C :    0.023630
  35 C :    0.089576
  36 C :   -0.101102
  37 S :    0.172685
  38 C :   -0.160052
  39 C :    0.066651
  40 C :    0.006176
  41 C :    0.055378
  42 C :   -0.010928
  43 C :   -0.066391
  44 C :   -0.012192
  45 C :    0.117259
  46 O :   -0.193303
  47 C :    0.176917
  48 C :   -0.079237
  49 C :   -0.102175
  50 C :    0.517425
  51 F :   -0.169013
  52 F :   -0.168385
  53 F :   -0.153517
  54 C :    0.004141
  55 C :   -0.015024
  56 H :   -0.006968
  57 H :   -0.012548
  58 H :   -0.021113
  59 H :    0.013251
  60 H :    0.012072
  61 H :    0.027478
  62 H :    0.024671
  63 H :    0.035376
  64 H :    0.002628
  65 H :   -0.009139
  66 H :   -0.002292
  67 H :   -0.008671
  68 H :   -0.011321
  69 H :    0.035527
  70 H :    0.020837
  71 H :   -0.007076
  72 H :    0.004306
  73 H :    0.021358
  74 H :    0.033886
Sum of atomic charges:    0.0000000

LOEWDIN ATOMIC CHARGES
----------------------
   0 C :    0.001029
   1 C :   -0.031038
   2 C :   -0.002165
   3 C :   -0.013841
   4 C :   -0.011008
   5 C :   -0.007130
   6 N :   -0.039781
   7 C :    0.003259
   8 C :    0.002951
   9 N :   -0.038364
  10 C :    0.036943
  11 C :    0.018774
  12 O :   -0.061282
  13 C :   -0.004723
  14 C :   -0.008939
  15 C :   -0.207146
  16 S :    0.438317
  17 C :   -0.210021
  18 O :   -0.046977
  19 C :   -0.009029
  20 C :   -0.062039
  21 C :   -0.141107
  22 S :    0.469397
  23 C :   -0.146278
  24 C :   -0.114764
  25 C :   -0.115901
  26 C :    0.164958
  27 F :   -0.058941
  28 F :   -0.047600
  29 F :   -0.061395
  30 C :    0.163508
  31 F :   -0.058051
  32 F :   -0.049601
  33 F :   -0.061764
  34 C :   -0.056450
  35 C :   -0.013206
  36 C :   -0.170304
  37 S :    0.463017
  38 C :   -0.188036
  39 C :   -0.030397
  40 C :   -0.049784
  41 C :   -0.052595
  42 C :   -0.025815
  43 C :   -0.026875
  44 C :   -0.020051
  45 C :    0.044541
  46 O :    0.027298
  47 C :    0.033718
  48 C :   -0.042700
  49 C :   -0.122162
  50 C :    0.168935
  51 F :   -0.069357
  52 F :   -0.069120
  53 F :   -0.053988
  54 C :   -0.035530
  55 C :   -0.027213
  56 H :    0.034448
  57 H :    0.038159
  58 H :    0.037095
  59 H :    0.026132
  60 H :    0.026228
  61 H :    0.030341
  62 H :    0.029218
  63 H :    0.032732
  64 H :    0.030979
  65 H :    0.028218
  66 H :    0.027264
  67 H :    0.036151
  68 H :    0.030371
  69 H :    0.046546
  70 H :    0.043050
  71 H :    0.035288
  72 H :    0.038615
  73 H :    0.024501
  74 H :    0.030483

  Mayer bond orders larger than 0.100000
B(  0-C ,  1-C ) :   1.2364 B(  0-C ,  5-C ) :   1.4582 B(  0-C , 56-H ) :   0.9977
B(  1-C ,  2-C ) :   1.4336 B(  1-C , 10-C ) :   0.9953 B(  2-C ,  3-C ) :   1.2239
B(  2-C ,  5-C ) :   0.1004 B(  2-C , 57-H ) :   1.0131 B(  3-C ,  4-C ) :   1.2523
B(  3-C ,  9-N ) :   1.4231 B(  4-C ,  5-C ) :   1.2304 B(  4-C ,  6-N ) :   1.4320
B(  5-C , 58-H ) :   1.0080 B(  6-N ,  7-C ) :   1.6728 B(  7-C ,  8-C ) :   1.2257
B(  7-C , 59-H ) :   0.9738 B(  8-C ,  9-N ) :   1.6744 B(  8-C , 60-H ) :   0.9739
B( 10-C , 11-C ) :   1.5528 B( 10-C , 18-O ) :   1.0818 B( 11-C , 12-O ) :   1.0535
B( 11-C , 19-C ) :   1.1786 B( 12-O , 13-C ) :   1.0516 B( 13-C , 14-C ) :   1.2017
B( 13-C , 17-C ) :   1.5746 B( 14-C , 15-C ) :   1.5740 B( 14-C , 18-O ) :   1.0449
B( 15-C , 16-S ) :   1.1459 B( 15-C , 61-H ) :   0.9721 B( 16-S , 17-C ) :   1.1397
B( 17-C , 62-H ) :   0.9721 B( 19-C , 20-C ) :   1.6982 B( 19-C , 63-H ) :   0.9346
B( 20-C , 21-C ) :   1.0837 B( 20-C , 64-H ) :   0.9542 B( 21-C , 22-S ) :   1.1411
B( 21-C , 25-C ) :   1.5434 B( 22-S , 23-C ) :   1.1367 B( 23-C , 24-C ) :   1.5447
B( 23-C , 34-C ) :   1.1052 B( 24-C , 25-C ) :   1.2806 B( 24-C , 30-C ) :   0.9513
B( 25-C , 26-C ) :   0.9501 B( 26-C , 27-F ) :   1.1476 B( 26-C , 28-F ) :   1.1559
B( 26-C , 29-F ) :   1.1205 B( 30-C , 31-F ) :   1.1515 B( 30-C , 32-F ) :   1.1532
B( 30-C , 33-F ) :   1.1294 B( 34-C , 35-C ) :   1.7267 B( 34-C , 65-H ) :   0.9490
B( 35-C , 36-C ) :   1.1345 B( 35-C , 66-H ) :   0.9459 B( 36-C , 37-S ) :   1.1276
B( 36-C , 38-C ) :   0.1020 B( 36-C , 40-C ) :   1.4824 B( 37-S , 38-C ) :   1.1216
B( 38-C , 39-C ) :   1.4803 B( 38-C , 41-C ) :   0.9835 B( 39-C , 40-C ) :   1.2932
B( 39-C , 67-H ) :   1.0006 B( 40-C , 68-H ) :   0.9894 B( 41-C , 42-C ) :   2.2907
B( 42-C , 43-C ) :   0.9886 B( 43-C , 44-C ) :   1.6817 B( 43-C , 69-H ) :   0.9617
B( 44-C , 45-C ) :   1.1700 B( 44-C , 70-H ) :   0.9537 B( 45-C , 46-O ) :   1.1731
B( 45-C , 49-C ) :   1.4447 B( 46-O , 47-C ) :   1.1156 B( 47-C , 48-C ) :   1.4810
B( 47-C , 54-C ) :   1.1021 B( 48-C , 49-C ) :   1.2519 B( 48-C , 71-H ) :   1.0143
B( 49-C , 50-C ) :   0.9482 B( 50-C , 51-F ) :   1.1621 B( 50-C , 52-F ) :   1.1661
B( 50-C , 53-F ) :   1.1835 B( 54-C , 55-C ) :   1.9371 B( 54-C , 72-H ) :   0.9536
B( 55-C , 73-H ) :   0.9553 B( 55-C , 74-H ) :   0.9504

-----------------------------------------------------------------------------
         ABSORPTION SPECTRUM VIA TRANSITION ELECTRIC DIPOLE MOMENTS
-----------------------------------------------------------------------------
State   Energy  Wavelength   fosc         T2         TX        TY        TZ
        (cm-1)    (nm)                  (au**2)     (au)      (au)      (au)
-----------------------------------------------------------------------------
   0   22200.3    450.4   2.687844820  39.85851  -3.65606  -4.85377   1.71251
   1   26046.6    383.9   0.086872333   1.09801  -0.13590   0.71226  -0.75646
   2   28410.7    352.0   0.033756908   0.39116   0.04578   0.10725   0.61446
   3   29809.6    335.5   0.042335456   0.46754   0.05360   0.30602   0.60912
   4   31237.3    320.1   0.058353005   0.61499  -0.28556  -0.72515  -0.08717
   5   32615.4    306.6   0.110575758   1.11612   0.31065   0.94346  -0.35986
   6   32676.2    306.0   0.003686703   0.03714   0.13722   0.06022  -0.12119
   7   34546.7    289.5   0.026283086   0.25046   0.47891  -0.13616  -0.05069
   8   35990.2    277.9   0.238381739   2.18054   0.87021   1.16738  -0.24599
   9   36987.2    270.4   0.019573320   0.17422  -0.02708   0.40983   0.07429
  10   37028.8    270.1   0.061079298   0.54304  -0.21449  -0.63794   0.30011
  11   38718.3    258.3   0.256687678   2.18255  -0.42360   0.37920  -1.36357
  12   38920.9    256.9   0.047727640   0.40370  -0.47426   0.03081   0.42169
  13   39158.4    255.4   0.054743426   0.46024   0.61097   0.18950   0.22594
  14   39428.3    253.6   0.005005952   0.04180   0.18006  -0.09679  -0.00298
  15   39474.6    253.3   0.001584123   0.01321  -0.09375  -0.00375   0.06640
  16   40138.8    249.1   0.115061627   0.94372   0.40381  -0.00472   0.88353

FINAL SINGLE POINT ENERGY     -3922.249798959850

DIPOLE MOMENT
-------------
                                X             Y             Z
Electronic contribution:      2.46288       2.89620      -5.94969
Nuclear contribution   :     -1.98287      -2.96344       6.69955
                        -----------------------------------------
Total Dipole Moment    :      0.48001      -0.06725       0.74986
                        -----------------------------------------
Magnitude (a.u.)       :      0.89287
Magnitude (Debye)      :      2.26950

Rotational constants in cm-1:     0.003002     0.000298     0.000282
Rotational constants in MHz :    90.009872     8.933642     8.464975

                             ****ORCA TERMINATED NORMALLY****
TOTAL RUN TIME: 0 days 0 hours 5 minutes 11 seconds 772 msec
