                         Program Version 4.2.0 -  RELEASE  -
|  1> # ORCA input file
|  2> # SCF done        -99.430055723782          0.000407927957
|  3> ! CAM-B3LYP def2-SVP def2/J RIJCOSX Grid4 TightSCF
|  4> %maxcore 5000
|  5> %tddft
|  6>     Mode sTDDFT
|  7>     Ethresh 5.0
|  8>     maxcore 5000
|  9> end
| 10>
| 11> %pal
| 12>   nprocs 6
| 13>   end
| 14> * xyz 0 1
| 15>    C       -0.66429        -0.66479        -6.40474
| 16>    C       -0.66746        -0.91259        -5.07957
| 17>    C        0.46209        -0.35665        -4.40891
| 18>    C        1.32054         0.32609        -5.30737
| 19>    S        0.70280         0.25801        -6.93715
| 20>    C        2.48180         0.94494        -4.89777
| 21>    C        2.80868         0.88634        -3.54446
| 22>    C        1.94674         0.20542        -2.64571
| 23>    C        0.78626        -0.41277        -3.05579
| 24>    S        2.55966         0.26596        -1.01456
| 25>    C        3.95905         1.18978        -1.54230
| 26>    C        3.93946         1.43125        -2.88427
| 27>    C        4.94564         1.58131        -0.59360
| 28>    C        4.95672         1.35879         0.76365
| 29>    C        6.08910         1.86902         1.40154
| 30>    C        6.96698         2.49110         0.54303
| 31>    S        6.37218         2.44630        -1.09366
| 32>    C        8.21192         3.10392         0.84748
| 33>    C        9.09332         3.71689        -0.01446
| 34>    C       10.23746         4.20693         0.61640
| 35>    C       10.25506         3.97962         1.97419
| 36>    S        8.81538         3.13927         2.48151
| 37>    C       11.26156         4.33290         2.91244
| 38>    C       11.28056         4.10618         4.27009
| 39>    C       12.43617         4.57828         4.89554
| 40>    C       13.32305         5.17449         4.02959
| 41>    S       12.71049         5.15273         2.39920
| 42>    C       14.59067         5.75056         4.32605
| 43>    C       15.47025         6.33793         3.46526
| 44>    C       16.65375         6.80538         4.09156
| 45>    C       16.65082         6.55131         5.48790
| 46>    S       15.18551         5.74495         5.98021
| 47>    C       17.69531         6.91277         6.30976
| 48>    C       18.78838         7.55174         5.73015
| 49>    C       18.79248         7.80671         4.33543
| 50>    C       17.74783         7.44526         3.51247
| 51>    S       20.26160         8.61220         3.85065
| 52>    C       20.83665         8.59654         5.48570
| 53>    C       19.98169         8.02127         6.35487
| 54>    H       -1.38971        -0.96658        -7.13504
| 55>    H       -1.43570        -1.46999        -4.57419
| 56>    H        3.12235         1.45871        -5.59681
| 57>    H        0.14638        -0.92653        -2.35589
| 58>    H        4.71327         1.98293        -3.38867
| 59>    H        4.16182         0.83914         1.26856
| 60>    H        6.27430         1.79087         2.45820
| 61>    H        8.90307         3.79888        -1.06997
| 62>    H       11.03808         4.71377         0.10733
| 63>    H       10.47519         3.61091         4.78298
| 64>    H       12.63071         4.49137         5.94988
| 65>    H       15.27836         6.43342         2.41091
| 66>    H       17.67246         6.70962         7.36875
| 67>    H       17.76986         7.64741         2.45341
| 68>    H       21.79680         9.02846         5.69095
| 69>    H       20.17142         7.92282         7.40872
| 70> *
| 71>
| 72>                          ****END OF INPUT****

CARTESIAN COORDINATES (ANGSTROEM)
---------------------------------
  C     -0.664290   -0.664790   -6.404740
  C     -0.667460   -0.912590   -5.079570
  C      0.462090   -0.356650   -4.408910
  C      1.320540    0.326090   -5.307370
  S      0.702800    0.258010   -6.937150
  C      2.481800    0.944940   -4.897770
  C      2.808680    0.886340   -3.544460
  C      1.946740    0.205420   -2.645710
  C      0.786260   -0.412770   -3.055790
  S      2.559660    0.265960   -1.014560
  C      3.959050    1.189780   -1.542300
  C      3.939460    1.431250   -2.884270
  C      4.945640    1.581310   -0.593600
  C      4.956720    1.358790    0.763650
  C      6.089100    1.869020    1.401540
  C      6.966980    2.491100    0.543030
  S      6.372180    2.446300   -1.093660
  C      8.211920    3.103920    0.847480
  C      9.093320    3.716890   -0.014460
  C     10.237460    4.206930    0.616400
  C     10.255060    3.979620    1.974190
  S      8.815380    3.139270    2.481510
  C     11.261560    4.332900    2.912440
  C     11.280560    4.106180    4.270090
  C     12.436170    4.578280    4.895540
  C     13.323050    5.174490    4.029590
  S     12.710490    5.152730    2.399200
  C     14.590670    5.750560    4.326050
  C     15.470250    6.337930    3.465260
  C     16.653750    6.805380    4.091560
  C     16.650820    6.551310    5.487900
  S     15.185510    5.744950    5.980210
  C     17.695310    6.912770    6.309760
  C     18.788380    7.551740    5.730150
  C     18.792480    7.806710    4.335430
  C     17.747830    7.445260    3.512470
  S     20.261600    8.612200    3.850650
  C     20.836650    8.596540    5.485700
  C     19.981690    8.021270    6.354870
  H     -1.389710   -0.966580   -7.135040
  H     -1.435700   -1.469990   -4.574190
  H      3.122350    1.458710   -5.596810
  H      0.146380   -0.926530   -2.355890
  H      4.713270    1.982930   -3.388670
  H      4.161820    0.839140    1.268560
  H      6.274300    1.790870    2.458200
  H      8.903070    3.798880   -1.069970
  H     11.038080    4.713770    0.107330
  H     10.475190    3.610910    4.782980
  H     12.630710    4.491370    5.949880
  H     15.278360    6.433420    2.410910
  H     17.672460    6.709620    7.368750
  H     17.769860    7.647410    2.453410
  H     21.796800    9.028460    5.690950
  H     20.171420    7.922820    7.408720

 Total Charge           Charge          ....    0
 Multiplicity           Mult            ....    1
 Number of Electrons    NEL             ....  320
 Basis Dimension        Dim             ....  654

ORBITAL ENERGIES
----------------

  NO   OCC          E(Eh)            E(eV)
   0   2.0000     -88.955714     -2420.6080
   1   2.0000     -88.955059     -2420.5902
   2   2.0000     -88.955037     -2420.5896
   3   2.0000     -88.942674     -2420.2532
   4   2.0000     -88.942616     -2420.2516
   5   2.0000     -88.940102     -2420.1832
   6   2.0000     -88.940093     -2420.1830
   7   2.0000     -10.306141      -280.4443
   8   2.0000     -10.306020      -280.4411
   9   2.0000     -10.305859      -280.4367
  10   2.0000     -10.305777      -280.4345
  11   2.0000     -10.305633      -280.4305
  12   2.0000     -10.305530      -280.4277
  13   2.0000     -10.303699      -280.3779
  14   2.0000     -10.303621      -280.3758
  15   2.0000     -10.294088      -280.1164
  16   2.0000     -10.294003      -280.1141
  17   2.0000     -10.292062      -280.0613
  18   2.0000     -10.291979      -280.0590
  19   2.0000     -10.290760      -280.0258
  20   2.0000     -10.290756      -280.0257
  21   2.0000     -10.276798      -279.6459
  22   2.0000     -10.276763      -279.6449
  23   2.0000     -10.275045      -279.5982
  24   2.0000     -10.275026      -279.5977
  25   2.0000     -10.274668      -279.5879
  26   2.0000     -10.274658      -279.5877
  27   2.0000     -10.274569      -279.5852
  28   2.0000     -10.274563      -279.5851
  29   2.0000     -10.274459      -279.5823
  30   2.0000     -10.274427      -279.5814
  31   2.0000     -10.274408      -279.5808
  32   2.0000     -10.274114      -279.5728
  33   2.0000     -10.273506      -279.5563
  34   2.0000     -10.273473      -279.5554
  35   2.0000     -10.269881      -279.4577
  36   2.0000     -10.269843      -279.4566
  37   2.0000     -10.267526      -279.3936
  38   2.0000     -10.267485      -279.3925
  39   2.0000      -8.051274      -219.0863
  40   2.0000      -8.050614      -219.0683
  41   2.0000      -8.050605      -219.0681
  42   2.0000      -8.038596      -218.7413
  43   2.0000      -8.038578      -218.7408
  44   2.0000      -8.036503      -218.6844
  45   2.0000      -8.036501      -218.6843
  46   2.0000      -6.020706      -163.8318
  47   2.0000      -6.020018      -163.8130
  48   2.0000      -6.020009      -163.8128
  49   2.0000      -6.016588      -163.7197
  50   2.0000      -6.015925      -163.7016
  51   2.0000      -6.015916      -163.7014
  52   2.0000      -6.013081      -163.6243
  53   2.0000      -6.012450      -163.6071
  54   2.0000      -6.012439      -163.6068
  55   2.0000      -6.008312      -163.4945
  56   2.0000      -6.008293      -163.4940
  57   2.0000      -6.006168      -163.4361
  58   2.0000      -6.006162      -163.4360
  59   2.0000      -6.004301      -163.3853
  60   2.0000      -6.004284      -163.3849
  61   2.0000      -6.001938      -163.3210
  62   2.0000      -6.001936      -163.3210
  63   2.0000      -5.999626      -163.2581
  64   2.0000      -5.999596      -163.2573
  65   2.0000      -5.997826      -163.2092
  66   2.0000      -5.997821      -163.2090
  67   2.0000      -0.999670       -27.2024
  68   2.0000      -0.995335       -27.0844
  69   2.0000      -0.990675       -26.9576
  70   2.0000      -0.983402       -26.7597
  71   2.0000      -0.972755       -26.4700
  72   2.0000      -0.962796       -26.1990
  73   2.0000      -0.957672       -26.0596
  74   2.0000      -0.901902       -24.5420
  75   2.0000      -0.897897       -24.4330
  76   2.0000      -0.870194       -23.6792
  77   2.0000      -0.866858       -23.5884
  78   2.0000      -0.866666       -23.5832
  79   2.0000      -0.846202       -23.0263
  80   2.0000      -0.836054       -22.7502
  81   2.0000      -0.834867       -22.7179
  82   2.0000      -0.826866       -22.5002
  83   2.0000      -0.819351       -22.2957
  84   2.0000      -0.816660       -22.2224
  85   2.0000      -0.807889       -21.9838
  86   2.0000      -0.784316       -21.3423
  87   2.0000      -0.771511       -20.9939
  88   2.0000      -0.770717       -20.9723
  89   2.0000      -0.765564       -20.8321
  90   2.0000      -0.721917       -19.6444
  91   2.0000      -0.713625       -19.4187
  92   2.0000      -0.691382       -18.8135
  93   2.0000      -0.678855       -18.4726
  94   2.0000      -0.671498       -18.2724
  95   2.0000      -0.659633       -17.9495
  96   2.0000      -0.644083       -17.5264
  97   2.0000      -0.643750       -17.5173
  98   2.0000      -0.640351       -17.4248
  99   2.0000      -0.631214       -17.1762
 100   2.0000      -0.616482       -16.7753
 101   2.0000      -0.613501       -16.6942
 102   2.0000      -0.611371       -16.6362
 103   2.0000      -0.609700       -16.5908
 104   2.0000      -0.608449       -16.5567
 105   2.0000      -0.593733       -16.1563
 106   2.0000      -0.566778       -15.4228
 107   2.0000      -0.559903       -15.2357
 108   2.0000      -0.556127       -15.1330
 109   2.0000      -0.544726       -14.8227
 110   2.0000      -0.543365       -14.7857
 111   2.0000      -0.534055       -14.5324
 112   2.0000      -0.526146       -14.3172
 113   2.0000      -0.517690       -14.0870
 114   2.0000      -0.516312       -14.0496
 115   2.0000      -0.503237       -13.6938
 116   2.0000      -0.500251       -13.6125
 117   2.0000      -0.500015       -13.6061
 118   2.0000      -0.499591       -13.5946
 119   2.0000      -0.493627       -13.4323
 120   2.0000      -0.489796       -13.3280
 121   2.0000      -0.488681       -13.2977
 122   2.0000      -0.485725       -13.2173
 123   2.0000      -0.482030       -13.1167
 124   2.0000      -0.480370       -13.0715
 125   2.0000      -0.475364       -12.9353
 126   2.0000      -0.466615       -12.6972
 127   2.0000      -0.463141       -12.6027
 128   2.0000      -0.461119       -12.5477
 129   2.0000      -0.453311       -12.3352
 130   2.0000      -0.451359       -12.2821
 131   2.0000      -0.447486       -12.1767
 132   2.0000      -0.447310       -12.1719
 133   2.0000      -0.439246       -11.9525
 134   2.0000      -0.438155       -11.9228
 135   2.0000      -0.435026       -11.8377
 136   2.0000      -0.429220       -11.6797
 137   2.0000      -0.424249       -11.5444
 138   2.0000      -0.416672       -11.3382
 139   2.0000      -0.410523       -11.1709
 140   2.0000      -0.406191       -11.0530
 141   2.0000      -0.403994       -10.9932
 142   2.0000      -0.397729       -10.8228
 143   2.0000      -0.397471       -10.8157
 144   2.0000      -0.397419       -10.8143
 145   2.0000      -0.382377       -10.4050
 146   2.0000      -0.369683       -10.0596
 147   2.0000      -0.369644       -10.0585
 148   2.0000      -0.353703        -9.6247
 149   2.0000      -0.331008        -9.0072
 150   2.0000      -0.325674        -8.8620
 151   2.0000      -0.324965        -8.8427
 152   2.0000      -0.319677        -8.6989
 153   2.0000      -0.314991        -8.5714
 154   2.0000      -0.309310        -8.4168
 155   2.0000      -0.290931        -7.9166
 156   2.0000      -0.271106        -7.3772
 157   2.0000      -0.259943        -7.0734
 158   2.0000      -0.248590        -6.7645
 159   2.0000      -0.226819        -6.1721
 160   0.0000      -0.053945        -1.4679
 161   0.0000      -0.027310        -0.7431
 162   0.0000       0.001764         0.0480
 163   0.0000       0.024799         0.6748
 164   0.0000       0.035265         0.9596

MULLIKEN ATOMIC CHARGES
-----------------------
   0 C :   -0.059160
   1 C :    0.026561
   2 C :    0.086042
   3 C :   -0.065833
   4 S :    0.092517
   5 C :   -0.057808
   6 C :    0.121115
   7 C :   -0.041805
   8 C :   -0.051158
   9 S :    0.098171
  10 C :   -0.013053
  11 C :   -0.065771
  12 C :   -0.039805
  13 C :   -0.007330
  14 C :   -0.014853
  15 C :   -0.029266
  16 S :    0.117629
  17 C :   -0.033417
  18 C :   -0.012165
  19 C :   -0.009807
  20 C :   -0.034785
  21 S :    0.118251
  22 C :   -0.030763
  23 C :   -0.012391
  24 C :   -0.009828
  25 C :   -0.037943
  26 S :    0.117608
  27 C :   -0.012096
  28 C :   -0.067661
  29 C :    0.122493
  30 C :   -0.042954
  31 S :    0.098472
  32 C :   -0.052682
  33 C :    0.087631
  34 C :   -0.066622
  35 C :   -0.059408
  36 S :    0.092340
  37 C :   -0.057115
  38 C :    0.025551
  39 H :    0.027580
  40 H :   -0.018424
  41 H :   -0.034529
  42 H :   -0.035319
  43 H :   -0.019890
  44 H :   -0.007974
  45 H :   -0.010821
  46 H :   -0.010309
  47 H :   -0.011352
  48 H :   -0.011857
  49 H :   -0.006944
  50 H :   -0.019322
  51 H :   -0.034450
  52 H :   -0.033620
  53 H :    0.026753
  54 H :   -0.018425
Sum of atomic charges:    0.0000000

LOEWDIN ATOMIC CHARGES
----------------------
   0 C :   -0.161835
   1 C :   -0.063047
   2 C :   -0.047606
   3 C :   -0.156482
   4 S :    0.386197
   5 C :   -0.037010
   6 C :   -0.044052
   7 C :   -0.152323
   8 C :   -0.037789
   9 S :    0.386792
  10 C :   -0.161440
  11 C :   -0.064173
  12 C :   -0.183059
  13 C :   -0.055639
  14 C :   -0.062957
  15 C :   -0.177805
  16 S :    0.434985
  17 C :   -0.180757
  18 C :   -0.060515
  19 C :   -0.060306
  20 C :   -0.180672
  21 S :    0.434030
  22 C :   -0.177743
  23 C :   -0.062796
  24 C :   -0.055804
  25 C :   -0.183066
  26 S :    0.434845
  27 C :   -0.161460
  28 C :   -0.064330
  29 C :   -0.044019
  30 C :   -0.152235
  31 S :    0.386844
  32 C :   -0.038041
  33 C :   -0.047594
  34 C :   -0.156400
  35 C :   -0.037267
  36 S :    0.386160
  37 C :   -0.161599
  38 C :   -0.063089
  39 H :    0.024204
  40 H :    0.030150
  41 H :    0.029581
  42 H :    0.029514
  43 H :    0.025396
  44 H :    0.028271
  45 H :    0.027081
  46 H :    0.027271
  47 H :    0.027115
  48 H :    0.026901
  49 H :    0.028428
  50 H :    0.025500
  51 H :    0.029704
  52 H :    0.029781
  53 H :    0.023992
  54 H :    0.030167

  Mayer bond orders larger than 0.100000
B(  0-C ,  1-C ) :   1.6483 B(  0-C ,  4-S ) :   1.1125 B(  0-C , 39-H ) :   0.9679
B(  1-C ,  2-C ) :   1.1590 B(  1-C , 40-H ) :   0.9977 B(  2-C ,  3-C ) :   1.2908
B(  2-C ,  8-C ) :   1.3314 B(  3-C ,  4-S ) :   1.0538 B(  3-C ,  5-C ) :   1.3812
B(  5-C ,  6-C ) :   1.3300 B(  5-C ,  8-C ) :   0.1039 B(  5-C , 41-H ) :   1.0031
B(  6-C ,  7-C ) :   1.2879 B(  6-C , 11-C ) :   1.1447 B(  7-C ,  8-C ) :   1.3893
B(  7-C ,  9-S ) :   1.0350 B(  8-C , 42-H ) :   1.0013 B(  9-S , 10-C ) :   1.0720
B( 10-C , 11-C ) :   1.5784 B( 10-C , 12-C ) :   1.1459 B( 11-C , 43-H ) :   0.9959
B( 12-C , 13-C ) :   1.5184 B( 12-C , 16-S ) :   1.1171 B( 13-C , 14-C ) :   1.2559
B( 13-C , 44-H ) :   0.9923 B( 14-C , 15-C ) :   1.5115 B( 14-C , 45-H ) :   0.9932
B( 15-C , 16-S ) :   1.1205 B( 15-C , 17-C ) :   1.1488 B( 17-C , 18-C ) :   1.5104
B( 17-C , 21-S ) :   1.1175 B( 18-C , 19-C ) :   1.2608 B( 18-C , 46-H ) :   0.9929
B( 19-C , 20-C ) :   1.5118 B( 19-C , 47-H ) :   0.9919 B( 20-C , 21-S ) :   1.1176
B( 20-C , 22-C ) :   1.1489 B( 22-C , 23-C ) :   1.5130 B( 22-C , 25-C ) :   0.1000
B( 22-C , 26-S ) :   1.1207 B( 23-C , 24-C ) :   1.2559 B( 23-C , 48-H ) :   0.9922
B( 24-C , 25-C ) :   1.5172 B( 24-C , 49-H ) :   0.9931 B( 25-C , 26-S ) :   1.1167
B( 25-C , 27-C ) :   1.1458 B( 27-C , 28-C ) :   1.5777 B( 27-C , 31-S ) :   1.0720
B( 28-C , 29-C ) :   1.1438 B( 28-C , 50-H ) :   0.9966 B( 29-C , 30-C ) :   1.2892
B( 29-C , 35-C ) :   1.3292 B( 30-C , 31-S ) :   1.0350 B( 30-C , 32-C ) :   1.3893
B( 32-C , 33-C ) :   1.3308 B( 32-C , 35-C ) :   0.1042 B( 32-C , 51-H ) :   1.0010
B( 33-C , 34-C ) :   1.2919 B( 33-C , 38-C ) :   1.1579 B( 34-C , 35-C ) :   1.3811
B( 34-C , 36-S ) :   1.0537 B( 35-C , 52-H ) :   1.0029 B( 36-S , 37-C ) :   1.1122
B( 37-C , 38-C ) :   1.6488 B( 37-C , 53-H ) :   0.9679 B( 38-C , 54-H ) :   0.9982

-----------------------------------------------------------------------------
         ABSORPTION SPECTRUM VIA TRANSITION ELECTRIC DIPOLE MOMENTS
-----------------------------------------------------------------------------
State   Energy  Wavelength   fosc         T2         TX        TY        TZ
        (cm-1)    (nm)                  (au**2)     (au)      (au)      (au)
-----------------------------------------------------------------------------
   0   22416.1    446.1   2.612695285  38.37111  -5.07691  -2.17791  -2.80228
   1   28904.7    346.0   0.198304099   2.25859  -0.55760  -0.41556   1.33229
   2   29893.6    334.5   0.006814814   0.07505  -0.11851  -0.03834   0.24400
   3   30709.3    325.6   0.001288043   0.01381  -0.08574  -0.05694  -0.05671
   4   32309.6    309.5   0.033730776   0.34369  -0.16653  -0.25419   0.50135
   5   35261.2    283.6   0.242027542   2.25966   1.23459   0.52268   0.67990
   6   36417.6    274.6   0.327446482   2.96009   1.40568   0.61481   0.77856
   7   37676.9    265.4   0.056876618   0.49697  -0.57915  -0.23984  -0.32254
   8   38508.1    259.7   0.130524578   1.11587   0.36992   0.33090  -0.93249

FINAL SINGLE POINT ENERGY     -4013.987360694212

DIPOLE MOMENT
-------------
                                X             Y             Z
Electronic contribution:      0.25713       0.65483      -0.98003
Nuclear contribution   :     -0.31109      -0.73888       1.14196
                        -----------------------------------------
Total Dipole Moment    :     -0.05396      -0.08405       0.16194
                        -----------------------------------------
Magnitude (a.u.)       :      0.19026
Magnitude (Debye)      :      0.48360

Rotational constants in cm-1:     0.011781     0.000411     0.000398
Rotational constants in MHz :   353.171625    12.333214    11.919785

                             ****ORCA TERMINATED NORMALLY****
TOTAL RUN TIME: 0 days 0 hours 2 minutes 48 seconds 694 msec
