                         Program Version 4.2.0 -  RELEASE  -
|  1> # ORCA input file
|  2> # SCF done       -135.723584698370          0.000833017844
|  3> ! CAM-B3LYP def2-SVP def2/J RIJCOSX Grid4 TightSCF
|  4> %maxcore 5000
|  5> %tddft
|  6>     Mode sTDDFT
|  7>     Ethresh 5.0
|  8>     maxcore 5000
|  9> end
| 10>
| 11> %pal
| 12>   nprocs 6
| 13>   end
| 14> * xyz 0 1
| 15>    C       -0.55390         1.32971        -0.00546
| 16>    C       -0.29700         0.64438         1.15623
| 17>    N        0.01416        -0.65338         1.23067
| 18>    C        0.09540        -1.39361         0.14440
| 19>    C       -0.20855        -0.82647        -1.12266
| 20>    C       -0.52814         0.57599        -1.18818
| 21>    N       -0.80229         0.96803        -2.43470
| 22>    S       -0.69153        -0.30914        -3.40422
| 23>    N       -0.29397        -1.41308        -2.31395
| 24>    C        0.47731        -2.78436         0.30548
| 25>    C        0.20331        -3.47296         1.47107
| 26>    C        0.52769        -4.81853         1.65915
| 27>    C        1.18024        -5.59313         0.70936
| 28>    C        1.52147        -4.90402        -0.49321
| 29>    C        1.16809        -3.51501        -0.69215
| 30>    N        1.65170        -3.15380        -1.86376
| 31>    O        2.24474        -4.22547        -2.37440
| 32>    N        2.17636        -5.29009        -1.57080
| 33>    C        1.50288        -6.97767         0.91147
| 34>    C        2.26351        -7.69654         0.02053
| 35>    C        2.62277        -9.03392         0.15802
| 36>    C        2.27880        -9.78666         1.37137
| 37>    C        1.52017        -9.29299         2.37317
| 38>    S        0.86203        -7.70877         2.38417
| 39>    C        2.91497       -11.05047         1.22798
| 40>    C        3.60690       -11.09040         0.01759
| 41>    C        4.26077       -12.32640        -0.18232
| 42>    C        4.05628       -13.17273         0.86002
| 43>    S        3.06418       -12.51248         2.11903
| 44>    C        3.41358        -9.84738        -0.68337
| 45>    C        3.94989        -9.59188        -1.96406
| 46>    C        3.53459        -8.63358        -2.84202
| 47>    C        4.13338        -8.40350        -4.09425
| 48>    C        5.28105        -8.97604        -4.67126
| 49>    C        5.55923        -8.46905        -5.97889
| 50>    N        6.62816        -8.90432        -6.67300
| 51>    C        7.39604        -9.79744        -6.10144
| 52>    C        7.11792       -10.30278        -4.79340
| 53>    N        6.08003        -9.89622        -4.10384
| 54>    C        8.00594       -11.31743        -4.15246
| 55>    C        8.58270       -10.26600        -6.87572
| 56>    C        4.63138        -7.51103        -6.40846
| 57>    S        3.43991        -7.24372        -5.18347
| 58>    C        4.57917        -6.80711        -7.64433
| 59>    C        5.48820        -6.98693        -8.68642
| 60>    N        5.45071        -6.34610        -9.85375
| 61>    C        4.51956        -5.46292       -10.10867
| 62>    C        3.52943        -5.16256        -9.15565
| 63>    C        3.55992        -5.85341        -7.89680
| 64>    N        2.56947        -5.47986        -7.09212
| 65>    S        1.69030        -4.36181        -7.84663
| 66>    N        2.51170        -4.30047        -9.22491
| 67>    H       -0.77788         2.38286        -0.02212
| 68>    H       -0.32209         1.14902         2.11298
| 69>    H       -0.29795        -2.93834         2.26275
| 70>    H        0.25509        -5.27435         2.59944
| 71>    H        2.63035        -7.14724        -0.83208
| 72>    H        1.26655        -9.86805         3.24982
| 73>    H        4.84816       -12.57750        -1.04663
| 74>    H        4.42900       -14.17117         0.98113
| 75>    H        4.74391       -10.24981        -2.29067
| 76>    H        2.67358        -8.01900        -2.62437
| 77>    H        9.02323       -10.93677        -4.07387
| 78>    H        8.03343       -12.22997        -4.74655
| 79>    H        7.63251       -11.54659        -3.15840
| 80>    H        8.60630        -9.76095        -7.83709
| 81>    H        8.53317       -11.34218        -7.03503
| 82>    H        9.50118       -10.04782        -6.33266
| 83>    H        6.29404        -7.69561        -8.56800
| 84>    H        4.54021        -4.97667       -11.07272
| 85> *
| 86>
| 87>                          ****END OF INPUT****

CARTESIAN COORDINATES (ANGSTROEM)
---------------------------------
  C     -0.553900    1.329710   -0.005460
  C     -0.297000    0.644380    1.156230
  N      0.014160   -0.653380    1.230670
  C      0.095400   -1.393610    0.144400
  C     -0.208550   -0.826470   -1.122660
  C     -0.528140    0.575990   -1.188180
  N     -0.802290    0.968030   -2.434700
  S     -0.691530   -0.309140   -3.404220
  N     -0.293970   -1.413080   -2.313950
  C      0.477310   -2.784360    0.305480
  C      0.203310   -3.472960    1.471070
  C      0.527690   -4.818530    1.659150
  C      1.180240   -5.593130    0.709360
  C      1.521470   -4.904020   -0.493210
  C      1.168090   -3.515010   -0.692150
  N      1.651700   -3.153800   -1.863760
  O      2.244740   -4.225470   -2.374400
  N      2.176360   -5.290090   -1.570800
  C      1.502880   -6.977670    0.911470
  C      2.263510   -7.696540    0.020530
  C      2.622770   -9.033920    0.158020
  C      2.278800   -9.786660    1.371370
  C      1.520170   -9.292990    2.373170
  S      0.862030   -7.708770    2.384170
  C      2.914970  -11.050470    1.227980
  C      3.606900  -11.090400    0.017590
  C      4.260770  -12.326400   -0.182320
  C      4.056280  -13.172730    0.860020
  S      3.064180  -12.512480    2.119030
  C      3.413580   -9.847380   -0.683370
  C      3.949890   -9.591880   -1.964060
  C      3.534590   -8.633580   -2.842020
  C      4.133380   -8.403500   -4.094250
  C      5.281050   -8.976040   -4.671260
  C      5.559230   -8.469050   -5.978890
  N      6.628160   -8.904320   -6.673000
  C      7.396040   -9.797440   -6.101440
  C      7.117920  -10.302780   -4.793400
  N      6.080030   -9.896220   -4.103840
  C      8.005940  -11.317430   -4.152460
  C      8.582700  -10.266000   -6.875720
  C      4.631380   -7.511030   -6.408460
  S      3.439910   -7.243720   -5.183470
  C      4.579170   -6.807110   -7.644330
  C      5.488200   -6.986930   -8.686420
  N      5.450710   -6.346100   -9.853750
  C      4.519560   -5.462920  -10.108670
  C      3.529430   -5.162560   -9.155650
  C      3.559920   -5.853410   -7.896800
  N      2.569470   -5.479860   -7.092120
  S      1.690300   -4.361810   -7.846630
  N      2.511700   -4.300470   -9.224910
  H     -0.777880    2.382860   -0.022120
  H     -0.322090    1.149020    2.112980
  H     -0.297950   -2.938340    2.262750
  H      0.255090   -5.274350    2.599440
  H      2.630350   -7.147240   -0.832080
  H      1.266550   -9.868050    3.249820
  H      4.848160  -12.577500   -1.046630
  H      4.429000  -14.171170    0.981130
  H      4.743910  -10.249810   -2.290670
  H      2.673580   -8.019000   -2.624370
  H      9.023230  -10.936770   -4.073870
  H      8.033430  -12.229970   -4.746550
  H      7.632510  -11.546590   -3.158400
  H      8.606300   -9.760950   -7.837090
  H      8.533170  -11.342180   -7.035030
  H      9.501180  -10.047820   -6.332660
  H      6.294040   -7.695610   -8.568000
  H      4.540210   -4.976670  -11.072720

 Total Charge           Charge          ....    0
 Multiplicity           Mult            ....    1
 Number of Electrons    NEL             ....  392
 Basis Dimension        Dim             ....  838

ORBITAL ENERGIES
----------------

  NO   OCC          E(Eh)            E(eV)
   0   2.0000     -89.025666     -2422.5115
   1   2.0000     -89.022050     -2422.4131
   2   2.0000     -88.965730     -2420.8806
   3   2.0000     -88.957497     -2420.6566
   4   2.0000     -88.951655     -2420.4976
   5   2.0000     -19.349518      -526.5272
   6   2.0000     -14.475679      -393.9033
   7   2.0000     -14.472186      -393.8082
   8   2.0000     -14.439877      -392.9290
   9   2.0000     -14.437155      -392.8550
  10   2.0000     -14.434119      -392.7723
  11   2.0000     -14.434013      -392.7695
  12   2.0000     -14.412715      -392.1899
  13   2.0000     -14.411153      -392.1474
  14   2.0000     -14.411105      -392.1461
  15   2.0000     -14.398365      -391.7994
  16   2.0000     -10.332472      -281.1609
  17   2.0000     -10.324471      -280.9431
  18   2.0000     -10.323842      -280.9260
  19   2.0000     -10.321626      -280.8657
  20   2.0000     -10.320948      -280.8473
  21   2.0000     -10.320149      -280.8255
  22   2.0000     -10.317920      -280.7649
  23   2.0000     -10.316225      -280.7188
  24   2.0000     -10.314212      -280.6640
  25   2.0000     -10.313762      -280.6517
  26   2.0000     -10.313294      -280.6390
  27   2.0000     -10.312843      -280.6267
  28   2.0000     -10.309213      -280.5279
  29   2.0000     -10.302849      -280.3548
  30   2.0000     -10.300496      -280.2908
  31   2.0000     -10.297029      -280.1964
  32   2.0000     -10.296465      -280.1811
  33   2.0000     -10.294754      -280.1345
  34   2.0000     -10.293005      -280.0869
  35   2.0000     -10.291514      -280.0463
  36   2.0000     -10.291398      -280.0432
  37   2.0000     -10.290371      -280.0152
  38   2.0000     -10.290324      -280.0140
  39   2.0000     -10.289429      -279.9896
  40   2.0000     -10.287825      -279.9460
  41   2.0000     -10.284060      -279.8435
  42   2.0000     -10.283537      -279.8293
  43   2.0000     -10.282242      -279.7940
  44   2.0000     -10.274404      -279.5807
  45   2.0000     -10.270310      -279.4693
  46   2.0000     -10.269479      -279.4467
  47   2.0000     -10.268636      -279.4238
  48   2.0000     -10.266426      -279.3637
  49   2.0000     -10.266095      -279.3547
  50   2.0000     -10.265249      -279.3316
  51   2.0000     -10.261715      -279.2355
  52   2.0000      -8.117476      -220.8877
  53   2.0000      -8.113748      -220.7863
  54   2.0000      -8.061089      -219.3534
  55   2.0000      -8.051312      -219.0874
  56   2.0000      -8.047069      -218.9719
  57   2.0000      -6.088525      -165.6772
  58   2.0000      -6.084887      -165.5782
  59   2.0000      -6.080758      -165.4658
  60   2.0000      -6.080223      -165.4513
  61   2.0000      -6.077188      -165.3687
  62   2.0000      -6.076255      -165.3433
  63   2.0000      -6.030649      -164.1023
  64   2.0000      -6.026181      -163.9807
  65   2.0000      -6.022913      -163.8918
  66   2.0000      -6.020271      -163.8199
  67   2.0000      -6.016520      -163.7178
  68   2.0000      -6.015995      -163.7036
  69   2.0000      -6.014349      -163.6588
  70   2.0000      -6.012284      -163.6026
  71   2.0000      -6.009075      -163.5152
  72   2.0000      -1.302496       -35.4427
  73   2.0000      -1.125218       -30.6187
  74   2.0000      -1.121016       -30.5044
  75   2.0000      -1.070137       -29.1199
  76   2.0000      -1.045274       -28.4433
  77   2.0000      -1.026726       -27.9386
  78   2.0000      -1.009081       -27.4585
  79   2.0000      -1.000188       -27.2165
  80   2.0000      -0.994849       -27.0712
  81   2.0000      -0.994291       -27.0560
  82   2.0000      -0.980886       -26.6913
  83   2.0000      -0.975739       -26.5512
  84   2.0000      -0.964737       -26.2518
  85   2.0000      -0.961772       -26.1712
  86   2.0000      -0.923880       -25.1400
  87   2.0000      -0.912904       -24.8414
  88   2.0000      -0.901526       -24.5318
  89   2.0000      -0.896101       -24.3841
  90   2.0000      -0.893117       -24.3030
  91   2.0000      -0.880090       -23.9485
  92   2.0000      -0.872488       -23.7416
  93   2.0000      -0.867652       -23.6100
  94   2.0000      -0.854027       -23.2393
  95   2.0000      -0.836981       -22.7754
  96   2.0000      -0.835011       -22.7218
  97   2.0000      -0.818285       -22.2667
  98   2.0000      -0.798783       -21.7360
  99   2.0000      -0.792809       -21.5734
 100   2.0000      -0.788708       -21.4618
 101   2.0000      -0.776976       -21.1426
 102   2.0000      -0.759689       -20.6722
 103   2.0000      -0.754334       -20.5265
 104   2.0000      -0.748434       -20.3659
 105   2.0000      -0.742765       -20.2117
 106   2.0000      -0.722472       -19.6595
 107   2.0000      -0.717867       -19.5342
 108   2.0000      -0.713260       -19.4088
 109   2.0000      -0.712372       -19.3846
 110   2.0000      -0.707946       -19.2642
 111   2.0000      -0.692326       -18.8391
 112   2.0000      -0.690843       -18.7988
 113   2.0000      -0.672761       -18.3067
 114   2.0000      -0.651871       -17.7383
 115   2.0000      -0.644963       -17.5503
 116   2.0000      -0.641907       -17.4672
 117   2.0000      -0.633278       -17.2324
 118   2.0000      -0.626940       -17.0599
 119   2.0000      -0.620981       -16.8978
 120   2.0000      -0.613025       -16.6813
 121   2.0000      -0.610483       -16.6121
 122   2.0000      -0.602608       -16.3978
 123   2.0000      -0.598327       -16.2813
 124   2.0000      -0.597809       -16.2672
 125   2.0000      -0.594862       -16.1870
 126   2.0000      -0.592268       -16.1164
 127   2.0000      -0.576733       -15.6937
 128   2.0000      -0.570017       -15.5110
 129   2.0000      -0.562748       -15.3131
 130   2.0000      -0.551829       -15.0160
 131   2.0000      -0.550297       -14.9743
 132   2.0000      -0.547624       -14.9016
 133   2.0000      -0.547091       -14.8871
 134   2.0000      -0.544738       -14.8231
 135   2.0000      -0.541912       -14.7462
 136   2.0000      -0.540463       -14.7068
 137   2.0000      -0.532433       -14.4882
 138   2.0000      -0.530876       -14.4459
 139   2.0000      -0.514226       -13.9928
 140   2.0000      -0.512017       -13.9327
 141   2.0000      -0.508363       -13.8333
 142   2.0000      -0.504951       -13.7404
 143   2.0000      -0.500009       -13.6059
 144   2.0000      -0.496321       -13.5056
 145   2.0000      -0.494897       -13.4668
 146   2.0000      -0.488573       -13.2948
 147   2.0000      -0.486706       -13.2439
 148   2.0000      -0.485742       -13.2177
 149   2.0000      -0.481347       -13.0981
 150   2.0000      -0.477883       -13.0039
 151   2.0000      -0.473542       -12.8857
 152   2.0000      -0.471880       -12.8405
 153   2.0000      -0.470663       -12.8074
 154   2.0000      -0.467135       -12.7114
 155   2.0000      -0.464352       -12.6357
 156   2.0000      -0.462797       -12.5934
 157   2.0000      -0.461380       -12.5548
 158   2.0000      -0.459458       -12.5025
 159   2.0000      -0.452040       -12.3006
 160   2.0000      -0.447119       -12.1667
 161   2.0000      -0.443317       -12.0633
 162   2.0000      -0.438508       -11.9324
 163   2.0000      -0.431488       -11.7414
 164   2.0000      -0.428263       -11.6536
 165   2.0000      -0.425000       -11.5648
 166   2.0000      -0.423433       -11.5222
 167   2.0000      -0.422274       -11.4907
 168   2.0000      -0.418032       -11.3752
 169   2.0000      -0.413275       -11.2458
 170   2.0000      -0.407905       -11.0997
 171   2.0000      -0.400302       -10.8928
 172   2.0000      -0.399280       -10.8650
 173   2.0000      -0.395663       -10.7666
 174   2.0000      -0.394498       -10.7348
 175   2.0000      -0.391825       -10.6621
 176   2.0000      -0.381137       -10.3713
 177   2.0000      -0.377890       -10.2829
 178   2.0000      -0.371551       -10.1104
 179   2.0000      -0.366059        -9.9610
 180   2.0000      -0.358076        -9.7437
 181   2.0000      -0.356558        -9.7024
 182   2.0000      -0.352097        -9.5811
 183   2.0000      -0.348916        -9.4945
 184   2.0000      -0.342360        -9.3161
 185   2.0000      -0.338559        -9.2127
 186   2.0000      -0.331283        -9.0147
 187   2.0000      -0.326180        -8.8758
 188   2.0000      -0.320510        -8.7215
 189   2.0000      -0.315072        -8.5736
 190   2.0000      -0.307062        -8.3556
 191   2.0000      -0.305414        -8.3107
 192   2.0000      -0.293277        -7.9805
 193   2.0000      -0.273965        -7.4550
 194   2.0000      -0.254253        -6.9186
 195   2.0000      -0.209119        -5.6904
 196   0.0000      -0.088671        -2.4129
 197   0.0000      -0.069607        -1.8941
 198   0.0000      -0.052067        -1.4168
 199   0.0000      -0.039099        -1.0639
 200   0.0000      -0.028221        -0.7679

MULLIKEN ATOMIC CHARGES
-----------------------
   0 C :   -0.023226
   1 C :    0.026537
   2 N :   -0.056720
   3 C :   -0.055075
   4 C :   -0.009075
   5 C :    0.068627
   6 N :   -0.273418
   7 S :    0.515068
   8 N :   -0.241679
   9 C :    0.049701
  10 C :   -0.005981
  11 C :   -0.067418
  12 C :    0.134976
  13 C :   -0.040743
  14 C :   -0.020429
  15 N :    0.066135
  16 O :   -0.089856
  17 N :    0.014077
  18 C :   -0.084422
  19 C :   -0.071748
  20 C :    0.040879
  21 C :    0.067626
  22 C :   -0.124890
  23 S :    0.096449
  24 C :   -0.107202
  25 C :    0.051626
  26 C :    0.012856
  27 C :   -0.069973
  28 S :    0.123511
  29 C :    0.109227
  30 C :   -0.043243
  31 C :    0.019991
  32 C :   -0.146905
  33 C :    0.023962
  34 C :    0.057086
  35 N :    0.011135
  36 C :   -0.172726
  37 C :   -0.175512
  38 N :    0.014460
  39 C :    0.129567
  40 C :    0.129335
  41 C :   -0.188526
  42 S :    0.220369
  43 C :    0.060250
  44 C :   -0.040493
  45 N :   -0.036545
  46 C :   -0.019542
  47 C :    0.029156
  48 C :   -0.010371
  49 N :   -0.310194
  50 S :    0.514494
  51 N :   -0.259787
  52 H :   -0.005166
  53 H :    0.006799
  54 H :   -0.006514
  55 H :    0.003543
  56 H :    0.003796
  57 H :    0.031701
  58 H :   -0.015928
  59 H :    0.023454
  60 H :   -0.011545
  61 H :   -0.022359
  62 H :    0.023310
  63 H :    0.023176
  64 H :    0.024225
  65 H :    0.031561
  66 H :    0.023290
  67 H :    0.024030
  68 H :    0.004934
  69 H :   -0.003714
Sum of atomic charges:    0.0000000

LOEWDIN ATOMIC CHARGES
----------------------
   0 C :   -0.042952
   1 C :    0.015306
   2 N :   -0.071759
   3 C :    0.024649
   4 C :   -0.071505
   5 C :   -0.044024
   6 N :   -0.293964
   7 S :    0.659001
   8 N :   -0.257338
   9 C :   -0.044156
  10 C :    0.025581
  11 C :   -0.032903
  12 C :   -0.028244
  13 C :   -0.039792
  14 C :   -0.046969
  15 N :   -0.007321
  16 O :    0.075774
  17 N :   -0.035642
  18 C :   -0.177069
  19 C :   -0.002818
  20 C :   -0.031954
  21 C :   -0.049871
  22 C :   -0.140682
  23 S :    0.439608
  24 C :   -0.198704
  25 C :   -0.040500
  26 C :   -0.060302
  27 C :   -0.167363
  28 S :    0.417493
  29 C :   -0.031659
  30 C :   -0.010943
  31 C :   -0.043286
  32 C :   -0.176253
  33 C :   -0.052855
  34 C :   -0.040754
  35 N :   -0.043010
  36 C :    0.000558
  37 C :   -0.008284
  38 N :   -0.038527
  39 C :   -0.053092
  40 C :   -0.052396
  41 C :   -0.195656
  42 S :    0.537349
  43 C :   -0.059701
  44 C :    0.013702
  45 N :   -0.058316
  46 C :    0.017422
  47 C :   -0.077135
  48 C :   -0.047330
  49 N :   -0.304781
  50 S :    0.650102
  51 N :   -0.274544
  52 H :    0.039856
  53 H :    0.025155
  54 H :    0.039038
  55 H :    0.024775
  56 H :    0.036841
  57 H :    0.034920
  58 H :    0.031639
  59 H :    0.022147
  60 H :    0.028059
  61 H :    0.026556
  62 H :    0.036689
  63 H :    0.036397
  64 H :    0.036637
  65 H :    0.039699
  66 H :    0.036988
  67 H :    0.037308
  68 H :    0.019599
  69 H :    0.025501

  Mayer bond orders larger than 0.100000
B(  0-C ,  1-C ) :   1.4993 B(  0-C ,  3-C ) :   0.1059 B(  0-C ,  5-C ) :   1.2363
B(  0-C , 52-H ) :   0.9904 B(  1-C ,  2-N ) :   1.3875 B(  1-C , 53-H ) :   0.9737
B(  2-N ,  3-C ) :   1.7468 B(  3-C ,  4-C ) :   1.1504 B(  3-C ,  9-C ) :   1.0022
B(  4-C ,  5-C ) :   1.1765 B(  4-C ,  8-N ) :   1.5278 B(  5-C ,  6-N ) :   1.5079
B(  6-N ,  7-S ) :   1.2744 B(  6-N ,  8-N ) :   0.1532 B(  7-S ,  8-N ) :   1.2955
B(  9-C , 10-C ) :   1.5278 B(  9-C , 12-C ) :   0.1065 B(  9-C , 14-C ) :   1.1744
B( 10-C , 11-C ) :   1.1943 B( 10-C , 54-H ) :   0.9934 B( 11-C , 12-C ) :   1.4465
B( 11-C , 55-H ) :   0.9809 B( 12-C , 13-C ) :   1.1410 B( 12-C , 18-C ) :   1.1538
B( 13-C , 14-C ) :   1.1512 B( 13-C , 17-N ) :   1.5768 B( 14-C , 15-N ) :   1.5882
B( 15-N , 16-O ) :   1.0715 B( 15-N , 17-N ) :   0.1804 B( 16-O , 17-N ) :   1.0579
B( 18-C , 19-C ) :   1.5379 B( 18-C , 23-S ) :   1.0202 B( 19-C , 20-C ) :   1.2291
B( 19-C , 56-H ) :   0.9439 B( 20-C , 21-C ) :   1.0508 B( 20-C , 29-C ) :   1.3643
B( 21-C , 22-C ) :   1.6102 B( 21-C , 24-C ) :   1.1723 B( 22-C , 23-S ) :   1.1346
B( 22-C , 57-H ) :   0.9414 B( 24-C , 25-C ) :   1.4399 B( 24-C , 28-S ) :   1.0767
B( 25-C , 26-C ) :   1.2214 B( 25-C , 29-C ) :   1.0999 B( 26-C , 27-C ) :   1.5863
B( 26-C , 58-H ) :   0.9981 B( 27-C , 28-S ) :   1.1486 B( 27-C , 59-H ) :   0.9662
B( 29-C , 30-C ) :   1.1580 B( 30-C , 31-C ) :   1.5977 B( 30-C , 60-H ) :   0.9499
B( 31-C , 32-C ) :   1.1907 B( 31-C , 61-H ) :   0.9449 B( 32-C , 33-C ) :   1.2948
B( 32-C , 41-C ) :   0.1412 B( 32-C , 42-S ) :   1.1458 B( 33-C , 34-C ) :   1.2361
B( 33-C , 38-N ) :   1.3940 B( 34-C , 35-N ) :   1.3960 B( 34-C , 41-C ) :   1.3338
B( 35-N , 36-C ) :   1.7173 B( 36-C , 37-C ) :   1.1333 B( 36-C , 40-C ) :   1.0965
B( 37-C , 38-N ) :   1.7133 B( 37-C , 39-C ) :   1.0968 B( 39-C , 62-H ) :   0.9406
B( 39-C , 63-H ) :   0.9406 B( 39-C , 64-H ) :   0.9435 B( 40-C , 65-H ) :   0.9434
B( 40-C , 66-H ) :   0.9401 B( 40-C , 67-H ) :   0.9406 B( 41-C , 42-S ) :   1.1726
B( 41-C , 43-C ) :   1.1436 B( 43-C , 44-C ) :   1.4668 B( 43-C , 46-C ) :   0.1032
B( 43-C , 48-C ) :   1.1634 B( 44-C , 45-N ) :   1.4089 B( 44-C , 68-H ) :   0.9611
B( 45-N , 46-C ) :   1.6931 B( 46-C , 47-C ) :   1.1800 B( 46-C , 69-H ) :   0.9933
B( 47-C , 48-C ) :   1.1858 B( 47-C , 51-N ) :   1.4953 B( 48-C , 49-N ) :   1.5020
B( 49-N , 50-S ) :   1.2485 B( 49-N , 51-N ) :   0.1527 B( 50-S , 51-N ) :   1.2970

-----------------------------------------------------------------------------
         ABSORPTION SPECTRUM VIA TRANSITION ELECTRIC DIPOLE MOMENTS
-----------------------------------------------------------------------------
State   Energy  Wavelength   fosc         T2         TX        TY        TZ
        (cm-1)    (nm)                  (au**2)     (au)      (au)      (au)
-----------------------------------------------------------------------------
   0   11750.0    851.1   0.493469392  13.82605  -1.63564   1.72460   2.85945
   1   16022.1    624.1   0.415789923   8.54341  -0.07828   1.87294  -2.24263
   2   20197.4    495.1   0.086428149   1.40876  -0.77642   0.85934   0.25975
   3   21101.1    473.9   0.333728343   5.20671   0.45384  -1.96582   1.06596
   4   21525.5    464.6   0.047044626   0.71950  -0.26220   0.68948  -0.41877
   5   21795.3    458.8   0.379655377   5.73459   0.06058  -1.98061   1.34465
   6   25142.5    397.7   0.052165478   0.68305  -0.04431   0.81391   0.13648
   7   26466.2    377.8   0.024375353   0.30320  -0.13453  -0.37581   0.37930
   8   27471.1    364.0   0.002698309   0.03234   0.16875  -0.02298   0.05773
   9   27772.9    360.1   0.261280461   3.09714   0.80147   0.00415  -1.56677
  10   28566.2    350.1   0.139871366   1.61195   0.57627  -1.13072   0.03653
  11   29189.7    342.6   0.000990531   0.01117  -0.00847   0.10434   0.01458
  12   29940.5    334.0   0.027263385   0.29978   0.17770   0.44092  -0.27164
  13   30680.2    325.9   0.105598666   1.13312   0.68638  -0.44294  -0.68251
  14   31013.2    322.4   0.008209436   0.08714  -0.22613   0.17287  -0.07827
  15   31032.0    322.2   0.025826321   0.27399   0.29973  -0.40493   0.14205
  16   31799.4    314.5   0.035008224   0.36243   0.53280  -0.24521  -0.13574
  17   32888.2    304.1   0.133359038   1.33493   0.26167   0.45716  -1.02833
  18   34314.3    291.4   0.026993860   0.25898  -0.04392   0.24547  -0.44362
  19   34492.1    289.9   0.018197697   0.17369  -0.21774  -0.05659   0.35082
  20   34712.6    288.1   0.032237758   0.30574  -0.06624  -0.16246   0.52437
  21   35512.0    281.6   0.338341328   3.13658  -0.34987   1.31641  -1.13192
  22   35872.1    278.8   0.110216275   1.01150  -0.40727   0.91897  -0.03366
  23   36017.4    277.6   0.058984525   0.53914  -0.47808   0.43592   0.34720
  24   36307.0    275.4   0.033871319   0.30713   0.19100  -0.51969  -0.02382
  25   36497.2    274.0   0.004046559   0.03650   0.00391   0.18919  -0.02634
  26   36523.7    273.8   0.000472126   0.00426  -0.05127  -0.03908   0.00998
  27   36610.3    273.1   0.057312849   0.51538  -0.62679   0.20055  -0.28687
  28   36945.6    270.7   0.043424854   0.38695   0.37295  -0.49619   0.04059
  29   37560.1    266.2   0.053965592   0.47300  -0.03622   0.55043  -0.41076
  30   37638.3    265.7   0.002926047   0.02559   0.02511  -0.15035  -0.04855
  31   37986.5    263.3   0.002928157   0.02538  -0.12864   0.08759  -0.03401
  32   38278.4    261.2   0.003697947   0.03180   0.02688   0.12143  -0.12782
  33   38766.3    258.0   0.350718172   2.97837   0.87970  -1.48470   0.01360
  34   39007.9    256.4   0.071221731   0.60108   0.41009  -0.14797  -0.64110
  35   39159.3    255.4   0.004341366   0.03650   0.02845  -0.08987  -0.16617
  36   39260.9    254.7   0.011114870   0.09320   0.02302   0.28378   0.11017
  37   39358.4    254.1   0.256071079   2.14190   0.63526  -1.31738   0.05338
  38   39538.7    252.9   0.048090876   0.40042  -0.15834  -0.60058  -0.12104

FINAL SINGLE POINT ENERGY     -3993.094219667915

DIPOLE MOMENT
-------------
                                X             Y             Z
Electronic contribution:    -30.87540      28.50337       1.21275
Nuclear contribution   :     30.58949     -29.26342       0.34552
                        -----------------------------------------
Total Dipole Moment    :     -0.28591      -0.76004       1.55827
                        -----------------------------------------
Magnitude (a.u.)       :      1.75717
Magnitude (Debye)      :      4.46636

Rotational constants in cm-1:     0.001430     0.001116     0.000654
Rotational constants in MHz :    42.879802    33.464291    19.604033

                             ****ORCA TERMINATED NORMALLY****
TOTAL RUN TIME: 0 days 0 hours 5 minutes 21 seconds 575 msec
