                         Program Version 4.2.0 -  RELEASE  -
|  1> # ORCA input file
|  2> # SCF done       -160.635876572984          0.000926178290
|  3> ! CAM-B3LYP def2-SVP def2/J RIJCOSX Grid4 TightSCF
|  4> %maxcore 5000
|  5> %tddft
|  6>     Mode sTDDFT
|  7>     Ethresh 5.0
|  8>     maxcore 5000
|  9> end
| 10>
| 11> %pal
| 12>   nprocs 6
| 13>   end
| 14> * xyz 0 1
| 15>    C        4.16996         1.12950        -1.85055
| 16>    C        4.34647        -0.02227        -2.57816
| 17>    N        3.91713        -1.23202        -2.21212
| 18>    C        3.26710        -1.40523        -1.07695
| 19>    C        3.01572        -0.29623        -0.22237
| 20>    C        3.48517         0.99975        -0.63273
| 21>    N        3.17998         1.94311         0.26183
| 22>    S        2.38950         1.26154         1.48110
| 23>    N        2.38803        -0.25573         0.95009
| 24>    C        2.83703        -2.73164        -0.76296
| 25>    C        2.14048        -3.18587         0.33710
| 26>    C        1.90424        -4.55954         0.26212
| 27>    C        2.43352        -5.13782        -0.90993
| 28>    S        3.21588        -4.00004        -1.91154
| 29>    C        2.13584        -6.52269        -0.89525
| 30>    C        1.42082        -6.82196         0.27545
| 31>    C        1.25663        -5.59403         1.04473
| 32>    C        0.62592        -5.45702         2.24720
| 33>    C        0.03348        -6.55146         2.91065
| 34>    N       -0.44862        -7.43986         3.45269
| 35>    C        0.52305        -4.21591         2.91023
| 36>    N        0.43008        -3.21459         3.46118
| 37>    C        1.06977        -8.16646         0.37290
| 38>    C        1.51063        -8.90189        -0.71475
| 39>    S        2.38142        -7.90086        -1.87458
| 40>    C        1.32932       -10.29270        -0.95906
| 41>    C        1.81504       -10.91371        -2.08592
| 42>    C        1.65688       -12.26292        -2.39169
| 43>    C        0.82439       -13.12490        -1.53894
| 44>    C        0.27202       -12.73230        -0.37086
| 45>    S        0.43700       -11.15724         0.28799
| 46>    C        0.75855       -14.37600        -2.21111
| 47>    C        1.49861       -14.31133        -3.39149
| 48>    C        1.47164       -15.52991        -4.10488
| 49>    C        0.72386       -16.46518        -3.46319
| 50>    S        0.03378       -15.91530        -1.97254
| 51>    C        2.09628       -13.00581        -3.50696
| 52>    C        2.96882       -12.66243        -4.56606
| 53>    C        3.85222       -11.62824        -4.60043
| 54>    C        4.70862       -11.34554        -5.69082
| 55>    C        4.78774       -11.95314        -6.93727
| 56>    C        5.77846       -11.39085        -7.73477
| 57>    C        6.46812       -10.34024        -7.10407
| 58>    S        5.88604       -10.04734        -5.52455
| 59>    C        7.45011        -9.84652        -7.99623
| 60>    C        7.38189       -10.58227        -9.19419
| 61>    C        6.33151       -11.57296        -9.07262
| 62>    C        5.93558       -12.48692       -10.00586
| 63>    C        6.53067       -12.57474       -11.28181
| 64>    N        7.00222       -12.65848       -12.32374
| 65>    C        4.89781       -13.40766        -9.75470
| 66>    N        4.05687       -14.15989        -9.54803
| 67>    C        8.32383       -10.16775       -10.13889
| 68>    C        9.10363        -9.13000        -9.67553
| 69>    S        8.66695        -8.65203        -8.03635
| 70>    C       10.16173        -8.45645       -10.36696
| 71>    C       10.88087        -7.40614        -9.80956
| 72>    N       11.87190        -6.73817       -10.40038
| 73>    C       12.24922        -7.04943       -11.61120
| 74>    C       11.62225        -8.09345       -12.31593
| 75>    C       10.55248        -8.81801       -11.68343
| 76>    N       10.06546        -9.77220       -12.47553
| 77>    S       10.87063        -9.75402       -13.86568
| 78>    N       11.87485        -8.54605       -13.54598
| 79>    H        4.53170         2.08710        -2.18385
| 80>    H        4.86472        -0.00384        -3.52720
| 81>    H        1.83284        -2.53261         1.13333
| 82>    H        0.51961        -8.60219         1.18737
| 83>    H        2.32614       -10.27830        -2.79535
| 84>    H       -0.31461       -13.39563         0.24486
| 85>    H        1.97012       -15.71079        -5.03980
| 86>    H        0.52695       -17.47315        -3.77201
| 87>    H        2.95022       -13.34408        -5.40608
| 88>    H        3.97195       -10.98713        -3.74000
| 89>    H        4.14857       -12.76171        -7.23903
| 90>    H        8.45416       -10.58608       -11.12029
| 91>    H       10.64709        -7.06881        -8.80764
| 92>    H       13.05486        -6.47943       -12.04899
| 93> *
| 94>
| 95>                          ****END OF INPUT****

CARTESIAN COORDINATES (ANGSTROEM)
---------------------------------
  C      4.169960    1.129500   -1.850550
  C      4.346470   -0.022270   -2.578160
  N      3.917130   -1.232020   -2.212120
  C      3.267100   -1.405230   -1.076950
  C      3.015720   -0.296230   -0.222370
  C      3.485170    0.999750   -0.632730
  N      3.179980    1.943110    0.261830
  S      2.389500    1.261540    1.481100
  N      2.388030   -0.255730    0.950090
  C      2.837030   -2.731640   -0.762960
  C      2.140480   -3.185870    0.337100
  C      1.904240   -4.559540    0.262120
  C      2.433520   -5.137820   -0.909930
  S      3.215880   -4.000040   -1.911540
  C      2.135840   -6.522690   -0.895250
  C      1.420820   -6.821960    0.275450
  C      1.256630   -5.594030    1.044730
  C      0.625920   -5.457020    2.247200
  C      0.033480   -6.551460    2.910650
  N     -0.448620   -7.439860    3.452690
  C      0.523050   -4.215910    2.910230
  N      0.430080   -3.214590    3.461180
  C      1.069770   -8.166460    0.372900
  C      1.510630   -8.901890   -0.714750
  S      2.381420   -7.900860   -1.874580
  C      1.329320  -10.292700   -0.959060
  C      1.815040  -10.913710   -2.085920
  C      1.656880  -12.262920   -2.391690
  C      0.824390  -13.124900   -1.538940
  C      0.272020  -12.732300   -0.370860
  S      0.437000  -11.157240    0.287990
  C      0.758550  -14.376000   -2.211110
  C      1.498610  -14.311330   -3.391490
  C      1.471640  -15.529910   -4.104880
  C      0.723860  -16.465180   -3.463190
  S      0.033780  -15.915300   -1.972540
  C      2.096280  -13.005810   -3.506960
  C      2.968820  -12.662430   -4.566060
  C      3.852220  -11.628240   -4.600430
  C      4.708620  -11.345540   -5.690820
  C      4.787740  -11.953140   -6.937270
  C      5.778460  -11.390850   -7.734770
  C      6.468120  -10.340240   -7.104070
  S      5.886040  -10.047340   -5.524550
  C      7.450110   -9.846520   -7.996230
  C      7.381890  -10.582270   -9.194190
  C      6.331510  -11.572960   -9.072620
  C      5.935580  -12.486920  -10.005860
  C      6.530670  -12.574740  -11.281810
  N      7.002220  -12.658480  -12.323740
  C      4.897810  -13.407660   -9.754700
  N      4.056870  -14.159890   -9.548030
  C      8.323830  -10.167750  -10.138890
  C      9.103630   -9.130000   -9.675530
  S      8.666950   -8.652030   -8.036350
  C     10.161730   -8.456450  -10.366960
  C     10.880870   -7.406140   -9.809560
  N     11.871900   -6.738170  -10.400380
  C     12.249220   -7.049430  -11.611200
  C     11.622250   -8.093450  -12.315930
  C     10.552480   -8.818010  -11.683430
  N     10.065460   -9.772200  -12.475530
  S     10.870630   -9.754020  -13.865680
  N     11.874850   -8.546050  -13.545980
  H      4.531700    2.087100   -2.183850
  H      4.864720   -0.003840   -3.527200
  H      1.832840   -2.532610    1.133330
  H      0.519610   -8.602190    1.187370
  H      2.326140  -10.278300   -2.795350
  H     -0.314610  -13.395630    0.244860
  H      1.970120  -15.710790   -5.039800
  H      0.526950  -17.473150   -3.772010
  H      2.950220  -13.344080   -5.406080
  H      3.971950  -10.987130   -3.740000
  H      4.148570  -12.761710   -7.239030
  H      8.454160  -10.586080  -11.120290
  H     10.647090   -7.068810   -8.807640
  H     13.054860   -6.479430  -12.048990

 Total Charge           Charge          ....    0
 Multiplicity           Mult            ....    1
 Number of Electrons    NEL             ....  488
 Basis Dimension        Dim             ....  998

ORBITAL ENERGIES
----------------

  NO   OCC          E(Eh)            E(eV)
   0   2.0000     -89.035151     -2422.7696
   1   2.0000     -89.034181     -2422.7432
   2   2.0000     -88.992315     -2421.6040
   3   2.0000     -88.984947     -2421.4035
   4   2.0000     -88.982893     -2421.3476
   5   2.0000     -88.982022     -2421.3239
   6   2.0000     -88.980024     -2421.2695
   7   2.0000     -88.957607     -2420.6595
   8   2.0000     -14.452400      -393.2698
   9   2.0000     -14.448751      -393.1705
  10   2.0000     -14.445470      -393.0812
  11   2.0000     -14.444462      -393.0538
  12   2.0000     -14.429771      -392.6540
  13   2.0000     -14.428064      -392.6076
  14   2.0000     -14.425733      -392.5441
  15   2.0000     -14.423690      -392.4885
  16   2.0000     -14.418911      -392.3585
  17   2.0000     -14.416211      -392.2850
  18   2.0000     -10.363321      -282.0003
  19   2.0000     -10.357989      -281.8552
  20   2.0000     -10.350720      -281.6574
  21   2.0000     -10.345548      -281.5167
  22   2.0000     -10.343408      -281.4584
  23   2.0000     -10.333825      -281.1977
  24   2.0000     -10.332896      -281.1724
  25   2.0000     -10.332805      -281.1699
  26   2.0000     -10.332418      -281.1594
  27   2.0000     -10.331814      -281.1429
  28   2.0000     -10.331536      -281.1354
  29   2.0000     -10.331507      -281.1346
  30   2.0000     -10.330790      -281.1151
  31   2.0000     -10.330225      -281.0997
  32   2.0000     -10.328301      -281.0474
  33   2.0000     -10.328168      -281.0437
  34   2.0000     -10.327035      -281.0129
  35   2.0000     -10.326620      -281.0016
  36   2.0000     -10.324040      -280.9314
  37   2.0000     -10.321206      -280.8543
  38   2.0000     -10.319523      -280.8085
  39   2.0000     -10.317701      -280.7589
  40   2.0000     -10.316630      -280.7298
  41   2.0000     -10.315178      -280.6903
  42   2.0000     -10.314026      -280.6589
  43   2.0000     -10.313919      -280.6560
  44   2.0000     -10.308943      -280.5206
  45   2.0000     -10.305614      -280.4300
  46   2.0000     -10.303002      -280.3589
  47   2.0000     -10.302685      -280.3503
  48   2.0000     -10.301393      -280.3152
  49   2.0000     -10.298567      -280.2382
  50   2.0000     -10.298051      -280.2242
  51   2.0000     -10.297481      -280.2087
  52   2.0000     -10.297204      -280.2012
  53   2.0000     -10.292304      -280.0678
  54   2.0000     -10.291353      -280.0420
  55   2.0000     -10.290310      -280.0136
  56   2.0000     -10.288986      -279.9776
  57   2.0000     -10.288841      -279.9736
  58   2.0000     -10.288123      -279.9541
  59   2.0000     -10.286899      -279.9207
  60   2.0000     -10.285999      -279.8963
  61   2.0000     -10.279814      -279.7280
  62   2.0000     -10.275572      -279.6125
  63   2.0000     -10.274704      -279.5889
  64   2.0000      -8.126922      -221.1448
  65   2.0000      -8.125953      -221.1184
  66   2.0000      -8.086574      -220.0469
  67   2.0000      -8.078865      -219.8371
  68   2.0000      -8.077246      -219.7930
  69   2.0000      -8.076672      -219.7774
  70   2.0000      -8.075211      -219.7377
  71   2.0000      -8.053010      -219.1335
  72   2.0000      -6.098036      -165.9360
  73   2.0000      -6.097067      -165.9096
  74   2.0000      -6.090185      -165.7223
  75   2.0000      -6.089566      -165.7055
  76   2.0000      -6.089171      -165.6948
  77   2.0000      -6.088639      -165.6803
  78   2.0000      -6.055873      -164.7887
  79   2.0000      -6.051783      -164.6774
  80   2.0000      -6.048823      -164.5968
  81   2.0000      -6.048087      -164.5768
  82   2.0000      -6.046499      -164.5336
  83   2.0000      -6.045859      -164.5162
  84   2.0000      -6.044881      -164.4896
  85   2.0000      -6.043785      -164.4597
  86   2.0000      -6.042325      -164.4200
  87   2.0000      -6.041778      -164.4051
  88   2.0000      -6.041463      -164.3966
  89   2.0000      -6.040252      -164.3636
  90   2.0000      -6.039699      -164.3486
  91   2.0000      -6.039140      -164.3333
  92   2.0000      -6.036970      -164.2743
  93   2.0000      -6.022470      -163.8798
  94   2.0000      -6.018215      -163.7640
  95   2.0000      -6.015017      -163.6769
  96   2.0000      -1.134934       -30.8831
  97   2.0000      -1.133747       -30.8508
  98   2.0000      -1.055636       -28.7253
  99   2.0000      -1.046186       -28.4682
 100   2.0000      -1.042547       -28.3691
 101   2.0000      -1.036665       -28.2091
 102   2.0000      -1.020843       -27.7785
 103   2.0000      -1.016067       -27.6486
 104   2.0000      -1.009856       -27.4796
 105   2.0000      -1.006212       -27.3804
 106   2.0000      -1.002166       -27.2703
 107   2.0000      -0.997447       -27.1419
 108   2.0000      -0.993144       -27.0248
 109   2.0000      -0.986832       -26.8531
 110   2.0000      -0.982951       -26.7475
 111   2.0000      -0.972835       -26.4722
 112   2.0000      -0.954910       -25.9844
 113   2.0000      -0.953448       -25.9446
 114   2.0000      -0.931455       -25.3462
 115   2.0000      -0.919074       -25.0093
 116   2.0000      -0.914823       -24.8936
 117   2.0000      -0.903656       -24.5897
 118   2.0000      -0.901485       -24.5307
 119   2.0000      -0.892370       -24.2826
 120   2.0000      -0.881605       -23.9897
 121   2.0000      -0.874693       -23.8016
 122   2.0000      -0.869382       -23.6571
 123   2.0000      -0.863638       -23.5008
 124   2.0000      -0.856443       -23.3050
 125   2.0000      -0.851626       -23.1739
 126   2.0000      -0.845938       -23.0191
 127   2.0000      -0.841890       -22.9090
 128   2.0000      -0.821365       -22.3505
 129   2.0000      -0.804450       -21.8902
 130   2.0000      -0.794169       -21.6104
 131   2.0000      -0.783460       -21.3190
 132   2.0000      -0.776787       -21.1374
 133   2.0000      -0.771121       -20.9833
 134   2.0000      -0.765077       -20.8188
 135   2.0000      -0.756206       -20.5774
 136   2.0000      -0.742092       -20.1933
 137   2.0000      -0.732846       -19.9418
 138   2.0000      -0.726218       -19.7614
 139   2.0000      -0.722301       -19.6548
 140   2.0000      -0.710276       -19.3276
 141   2.0000      -0.708031       -19.2665
 142   2.0000      -0.699721       -19.0404
 143   2.0000      -0.690610       -18.7924
 144   2.0000      -0.683740       -18.6055
 145   2.0000      -0.677433       -18.4339
 146   2.0000      -0.669699       -18.2234
 147   2.0000      -0.661327       -17.9956
 148   2.0000      -0.658104       -17.9079
 149   2.0000      -0.644951       -17.5500
 150   2.0000      -0.639918       -17.4131
 151   2.0000      -0.630971       -17.1696
 152   2.0000      -0.628228       -17.0950
 153   2.0000      -0.625252       -17.0140
 154   2.0000      -0.620722       -16.8907
 155   2.0000      -0.613329       -16.6895
 156   2.0000      -0.611085       -16.6285
 157   2.0000      -0.608409       -16.5556
 158   2.0000      -0.605617       -16.4797
 159   2.0000      -0.599057       -16.3012
 160   2.0000      -0.596571       -16.2335
 161   2.0000      -0.589494       -16.0409
 162   2.0000      -0.583157       -15.8685
 163   2.0000      -0.571637       -15.5550
 164   2.0000      -0.561223       -15.2717
 165   2.0000      -0.560903       -15.2630
 166   2.0000      -0.558844       -15.2069
 167   2.0000      -0.558450       -15.1962
 168   2.0000      -0.552759       -15.0413
 169   2.0000      -0.552608       -15.0372
 170   2.0000      -0.546124       -14.8608
 171   2.0000      -0.541722       -14.7410
 172   2.0000      -0.540637       -14.7115
 173   2.0000      -0.539610       -14.6835
 174   2.0000      -0.526120       -14.3164
 175   2.0000      -0.520732       -14.1698
 176   2.0000      -0.516187       -14.0462
 177   2.0000      -0.513596       -13.9756
 178   2.0000      -0.508341       -13.8327
 179   2.0000      -0.505432       -13.7535
 180   2.0000      -0.504970       -13.7409
 181   2.0000      -0.499594       -13.5946
 182   2.0000      -0.499255       -13.5854
 183   2.0000      -0.498267       -13.5585
 184   2.0000      -0.495850       -13.4928
 185   2.0000      -0.494087       -13.4448
 186   2.0000      -0.488352       -13.2887
 187   2.0000      -0.487653       -13.2697
 188   2.0000      -0.486190       -13.2299
 189   2.0000      -0.479357       -13.0440
 190   2.0000      -0.478503       -13.0207
 191   2.0000      -0.475156       -12.9297
 192   2.0000      -0.472191       -12.8490
 193   2.0000      -0.471564       -12.8319
 194   2.0000      -0.470689       -12.8081
 195   2.0000      -0.468510       -12.7488
 196   2.0000      -0.460496       -12.5307
 197   2.0000      -0.458330       -12.4718
 198   2.0000      -0.457303       -12.4438
 199   2.0000      -0.456887       -12.4325
 200   2.0000      -0.456161       -12.4128
 201   2.0000      -0.452811       -12.3216
 202   2.0000      -0.452216       -12.3054
 203   2.0000      -0.447766       -12.1843
 204   2.0000      -0.442026       -12.0281
 205   2.0000      -0.441561       -12.0155
 206   2.0000      -0.439052       -11.9472
 207   2.0000      -0.438959       -11.9447
 208   2.0000      -0.435893       -11.8613
 209   2.0000      -0.435207       -11.8426
 210   2.0000      -0.435116       -11.8401
 211   2.0000      -0.433585       -11.7984
 212   2.0000      -0.431912       -11.7529
 213   2.0000      -0.428334       -11.6556
 214   2.0000      -0.426244       -11.5987
 215   2.0000      -0.422316       -11.4918
 216   2.0000      -0.420631       -11.4460
 217   2.0000      -0.418213       -11.3802
 218   2.0000      -0.411539       -11.1986
 219   2.0000      -0.410762       -11.1774
 220   2.0000      -0.407437       -11.0869
 221   2.0000      -0.405046       -11.0219
 222   2.0000      -0.404137       -10.9971
 223   2.0000      -0.396813       -10.7978
 224   2.0000      -0.384872       -10.4729
 225   2.0000      -0.379815       -10.3353
 226   2.0000      -0.375793       -10.2258
 227   2.0000      -0.364983        -9.9317
 228   2.0000      -0.362785        -9.8719
 229   2.0000      -0.359763        -9.7897
 230   2.0000      -0.352174        -9.5831
 231   2.0000      -0.348456        -9.4820
 232   2.0000      -0.347449        -9.4546
 233   2.0000      -0.341529        -9.2935
 234   2.0000      -0.338497        -9.2110
 235   2.0000      -0.337206        -9.1758
 236   2.0000      -0.325924        -8.8688
 237   2.0000      -0.318523        -8.6674
 238   2.0000      -0.318226        -8.6594
 239   2.0000      -0.310259        -8.4426
 240   2.0000      -0.287255        -7.8166
 241   2.0000      -0.274154        -7.4601
 242   2.0000      -0.255979        -6.9655
 243   2.0000      -0.222197        -6.0463
 244   0.0000      -0.107409        -2.9227
 245   0.0000      -0.099704        -2.7131
 246   0.0000      -0.078301        -2.1307
 247   0.0000      -0.073655        -2.0043
 248   0.0000      -0.064096        -1.7441

MULLIKEN ATOMIC CHARGES
-----------------------
   0 C :   -0.033088
   1 C :    0.033674
   2 N :   -0.087110
   3 C :    0.053412
   4 C :   -0.036194
   5 C :    0.082099
   6 N :   -0.270789
   7 S :    0.531884
   8 N :   -0.263428
   9 C :   -0.123909
  10 C :   -0.044235
  11 C :    0.005886
  12 C :   -0.083519
  13 S :    0.232881
  14 C :   -0.102883
  15 C :    0.020489
  16 C :    0.306343
  17 C :   -0.302802
  18 C :   -0.188434
  19 N :    0.172686
  20 C :   -0.188475
  21 N :    0.176174
  22 C :   -0.060299
  23 C :   -0.057367
  24 S :    0.164668
  25 C :   -0.022194
  26 C :   -0.100840
  27 C :    0.051408
  28 C :    0.057854
  29 C :   -0.123697
  30 S :    0.133616
  31 C :   -0.105503
  32 C :    0.046927
  33 C :    0.009044
  34 C :   -0.066898
  35 S :    0.130159
  36 C :    0.085190
  37 C :   -0.023583
  38 C :    0.023935
  39 C :   -0.074783
  40 C :   -0.041885
  41 C :    0.011211
  42 C :   -0.111048
  43 S :    0.175457
  44 C :   -0.085147
  45 C :    0.013987
  46 C :    0.309589
  47 C :   -0.302876
  48 C :   -0.186698
  49 N :    0.173896
  50 C :   -0.185894
  51 N :    0.160507
  52 C :   -0.048881
  53 C :   -0.108705
  54 S :    0.163529
  55 C :    0.113223
  56 C :   -0.067020
  57 N :   -0.037660
  58 C :   -0.004505
  59 C :    0.011800
  60 C :    0.015238
  61 N :   -0.285461
  62 S :    0.534820
  63 N :   -0.257425
  64 H :   -0.005180
  65 H :    0.009687
  66 H :    0.017823
  67 H :    0.021014
  68 H :   -0.009063
  69 H :    0.039387
  70 H :   -0.010770
  71 H :    0.028242
  72 H :   -0.015716
  73 H :   -0.025654
  74 H :    0.003875
  75 H :    0.018131
  76 H :    0.005688
  77 H :    0.004184
Sum of atomic charges:   -0.0000000

LOEWDIN ATOMIC CHARGES
----------------------
   0 C :   -0.049476
   1 C :    0.020471
   2 N :   -0.096171
   3 C :    0.003754
   4 C :   -0.066889
   5 C :   -0.041862
   6 N :   -0.286206
   7 S :    0.666950
   8 N :   -0.271815
   9 C :   -0.181863
  10 C :   -0.007843
  11 C :   -0.079622
  12 C :   -0.171159
  13 S :    0.511408
  14 C :   -0.183107
  15 C :   -0.061842
  16 C :    0.081832
  17 C :   -0.102266
  18 C :   -0.016399
  19 N :   -0.035083
  20 C :   -0.017709
  21 N :   -0.029927
  22 C :   -0.042167
  23 C :   -0.174738
  24 S :    0.473239
  25 C :   -0.182599
  26 C :   -0.032404
  27 C :   -0.020945
  28 C :   -0.046151
  29 C :   -0.139198
  30 S :    0.461940
  31 C :   -0.203801
  32 C :   -0.038774
  33 C :   -0.062973
  34 C :   -0.162167
  35 S :    0.422796
  36 C :   -0.049835
  37 C :   -0.003535
  38 C :   -0.063683
  39 C :   -0.153754
  40 C :   -0.036268
  41 C :   -0.060419
  42 C :   -0.198538
  43 S :    0.465373
  44 C :   -0.166980
  45 C :   -0.081927
  46 C :    0.084250
  47 C :   -0.105115
  48 C :   -0.017678
  49 N :   -0.032698
  50 C :   -0.014337
  51 N :   -0.040744
  52 C :   -0.015772
  53 C :   -0.169035
  54 S :    0.470105
  55 C :   -0.056597
  56 C :   -0.003971
  57 N :   -0.056425
  58 C :    0.027680
  59 C :   -0.076248
  60 C :   -0.035905
  61 N :   -0.282735
  62 S :    0.669994
  63 N :   -0.271123
  64 H :    0.040195
  65 H :    0.026981
  66 H :    0.041173
  67 H :    0.035161
  68 H :    0.024561
  69 H :    0.038113
  70 H :    0.032385
  71 H :    0.024323
  72 H :    0.032432
  73 H :    0.022408
  74 H :    0.037303
  75 H :    0.039106
  76 H :    0.015441
  77 H :    0.029106

  Mayer bond orders larger than 0.100000
B(  0-C ,  1-C ) :   1.5028 B(  0-C ,  3-C ) :   0.1029 B(  0-C ,  5-C ) :   1.2338
B(  0-C , 64-H ) :   0.9897 B(  1-C ,  2-N ) :   1.3880 B(  1-C , 65-H ) :   0.9720
B(  2-N ,  3-C ) :   1.7132 B(  3-C ,  4-C ) :   1.1549 B(  3-C ,  9-C ) :   1.1153
B(  4-C ,  5-C ) :   1.1800 B(  4-C ,  8-N ) :   1.5426 B(  5-C ,  6-N ) :   1.4997
B(  6-N ,  7-S ) :   1.2834 B(  6-N ,  8-N ) :   0.1503 B(  7-S ,  8-N ) :   1.2727
B(  9-C , 10-C ) :   1.4980 B(  9-C , 13-S ) :   1.0844 B( 10-C , 11-C ) :   1.2559
B( 10-C , 66-H ) :   0.9818 B( 11-C , 12-C ) :   1.4235 B( 11-C , 16-C ) :   1.0036
B( 12-C , 13-S ) :   1.1301 B( 12-C , 14-C ) :   1.1875 B( 14-C , 15-C ) :   1.4558
B( 14-C , 24-S ) :   1.1148 B( 15-C , 16-C ) :   0.9903 B( 15-C , 22-C ) :   1.3032
B( 16-C , 17-C ) :   1.7089 B( 17-C , 18-C ) :   1.1320 B( 17-C , 20-C ) :   1.1390
B( 18-C , 19-N ) :   2.9903 B( 20-C , 21-N ) :   2.9913 B( 22-C , 23-C ) :   1.4526
B( 22-C , 67-H ) :   0.9794 B( 23-C , 24-S ) :   1.1071 B( 23-C , 25-C ) :   1.1718
B( 25-C , 26-C ) :   1.5154 B( 25-C , 30-S ) :   1.0581 B( 26-C , 27-C ) :   1.2495
B( 26-C , 68-H ) :   0.9591 B( 27-C , 28-C ) :   1.0544 B( 27-C , 36-C ) :   1.3748
B( 28-C , 29-C ) :   1.6106 B( 28-C , 31-C ) :   1.1760 B( 29-C , 30-S ) :   1.1347
B( 29-C , 69-H ) :   0.9412 B( 31-C , 32-C ) :   1.4431 B( 31-C , 35-S ) :   1.0755
B( 32-C , 33-C ) :   1.2205 B( 32-C , 36-C ) :   1.0989 B( 33-C , 34-C ) :   1.5867
B( 33-C , 70-H ) :   0.9977 B( 34-C , 35-S ) :   1.1551 B( 34-C , 71-H ) :   0.9658
B( 36-C , 37-C ) :   1.1714 B( 37-C , 38-C ) :   1.6354 B( 37-C , 72-H ) :   0.9599
B( 38-C , 39-C ) :   1.1346 B( 38-C , 73-H ) :   0.9553 B( 39-C , 40-C ) :   1.4357
B( 39-C , 43-S ) :   1.1103 B( 40-C , 41-C ) :   1.3111 B( 40-C , 74-H ) :   0.9901
B( 41-C , 42-C ) :   1.4383 B( 41-C , 46-C ) :   0.9869 B( 42-C , 43-S ) :   1.1050
B( 42-C , 44-C ) :   1.1935 B( 44-C , 45-C ) :   1.4344 B( 44-C , 54-S ) :   1.1327
B( 45-C , 46-C ) :   1.0068 B( 45-C , 52-C ) :   1.2365 B( 46-C , 47-C ) :   1.7054
B( 47-C , 48-C ) :   1.1352 B( 47-C , 50-C ) :   1.1339 B( 48-C , 49-N ) :   2.9910
B( 50-C , 51-N ) :   2.9843 B( 52-C , 53-C ) :   1.5017 B( 52-C , 75-H ) :   0.9840
B( 53-C , 54-S ) :   1.0788 B( 53-C , 55-C ) :   1.1045 B( 55-C , 56-C ) :   1.4576
B( 55-C , 58-C ) :   0.1052 B( 55-C , 60-C ) :   1.2008 B( 56-C , 57-N ) :   1.4343
B( 56-C , 76-H ) :   0.9791 B( 57-N , 58-C ) :   1.6990 B( 58-C , 59-C ) :   1.1789
B( 58-C , 77-H ) :   0.9934 B( 59-C , 60-C ) :   1.1871 B( 59-C , 63-N ) :   1.4931
B( 60-C , 61-N ) :   1.5155 B( 61-N , 62-S ) :   1.2597 B( 61-N , 63-N ) :   0.1503
B( 62-S , 63-N ) :   1.3036

-----------------------------------------------------------------------------
         ABSORPTION SPECTRUM VIA TRANSITION ELECTRIC DIPOLE MOMENTS
-----------------------------------------------------------------------------
State   Energy  Wavelength   fosc         T2         TX        TY        TZ
        (cm-1)    (nm)                  (au**2)     (au)      (au)      (au)
-----------------------------------------------------------------------------
   0    9984.9   1001.5   0.231307379   7.62647   1.44073  -1.13815  -2.06286
   1   10798.0    926.1   0.120244420   3.66604  -0.75647  -1.72984   0.31853
   2   16531.3    604.9   0.146210835   2.91171  -1.02896   0.17534   1.34989
   3   17423.6    573.9   0.517151817   9.77135  -1.34494   1.79236   2.17943
   4   19395.7    515.6   0.103152292   1.75085   0.45223  -0.87820  -0.88039
   5   20547.0    486.7   0.784660861  12.57216  -1.95916  -2.71872   1.15863
   6   20943.5    477.5   0.079004996   1.24188  -0.08306  -1.10510   0.11725
   7   23597.7    423.8   0.198148731   2.76437   0.93771   0.17618  -1.36163
   8   23653.9    422.8   0.148896790   2.07232  -0.67765  -1.20418   0.40382
   9   24577.5    406.9   0.190972457   2.55805   0.74106   1.27873  -0.61133
  10   25766.9    388.1   0.151591013   1.93681   0.44424   1.30307  -0.20367
  11   26116.5    382.9   0.067369433   0.84923   0.20440  -0.79817  -0.41276
  12   26908.4    371.6   0.132266889   1.61823   0.91286   0.41220  -0.78422
  13   27936.4    358.0   0.066359858   0.78201  -0.35687  -0.55185   0.59170
  14   29115.6    343.5   0.047644143   0.53872   0.09286   0.68494   0.24687
  15   29344.8    340.8   0.286788985   3.21741   1.14698   1.02055  -0.92753
  16   30285.3    330.2   0.110318172   1.19920   0.42929   0.73517  -0.68879
  17   30458.2    328.3   0.071001432   0.76743   0.31590   0.57398  -0.58154
  18   30733.5    325.4   0.000897983   0.00962  -0.07148   0.06036   0.02941
  19   30778.7    324.9   0.308099683   3.29546  -0.91667   0.00652   1.56689
  20   31113.5    321.4   0.488707689   5.17102  -0.50575   0.79220   2.07066
  21   31399.3    318.5   0.001046170   0.01097   0.04431   0.02274   0.09213
  22   31761.6    314.8   0.556956630   5.77291   1.46447   1.82810   0.53506
  23   32186.1    310.7   0.057500802   0.58814  -0.16056  -0.74991  -0.00183
  24   32616.2    306.6   0.186001479   1.87741  -0.64775   0.42463   1.13027
  25   32716.8    305.7   0.339600296   3.41722   1.16933   1.25844  -0.68281
  26   33680.0    296.9   0.125442401   1.22616   0.12656   1.04408   0.34646
  27   33831.8    295.6   0.020660755   0.20105   0.18667   0.35773   0.19553
  28   34205.3    292.4   0.303655198   2.92256  -0.21677  -1.63585  -0.44674
  29   34769.0    287.6   0.487984211   4.62050   0.45873   2.07510   0.32249
  30   35442.4    282.1   0.036169148   0.33596   0.04761   0.08172  -0.57185
  31   35598.8    280.9   0.067450718   0.62377  -0.69869  -0.10578   0.35272
  32   36300.9    275.5   0.017086443   0.15496   0.19270   0.30003  -0.16674
  33   36353.8    275.1   0.085649792   0.77563   0.42860   0.12127  -0.75975
  34   36557.7    273.5   0.058432942   0.52620   0.33672   0.62859   0.13303
  35   36773.9    271.9   0.010439473   0.09346  -0.03193  -0.18813   0.23884
  36   37108.8    269.5   0.003455748   0.03066  -0.06086   0.05922   0.15312
  37   37145.6    269.2   0.000267410   0.00237   0.04475   0.00716  -0.01779
  38   37635.0    265.7   0.036846807   0.32232  -0.05595   0.39424   0.40467
  39   37902.5    263.8   0.000089276   0.00078  -0.02495  -0.01204  -0.00288
  40   38079.8    262.6   0.041904778   0.36228  -0.13451  -0.55434   0.19209
  41   38167.7    262.0   0.002192184   0.01891  -0.06940  -0.10495   0.05548
  42   38479.1    259.9   0.038150438   0.32640   0.03689   0.46497   0.32991
  43   38726.6    258.2   0.043888754   0.37309  -0.01878   0.41670   0.44621
  44   38939.7    256.8   0.021636509   0.18292   0.31095   0.15701  -0.24816
  45   39142.2    255.5   0.025172410   0.21172   0.26356  -0.04521  -0.37445
  46   39240.7    254.8   0.001090759   0.00915  -0.07833  -0.03302   0.04387
  47   39428.3    253.6   0.019272546   0.16092   0.23591  -0.01439  -0.32413
  48   39632.7    252.3   0.050154349   0.41661   0.13629   0.52071   0.35623
  49   39851.9    250.9   0.003451565   0.02851  -0.13478   0.03037   0.09709
  50   40137.0    249.1   0.001960700   0.01608  -0.01691   0.10431   0.07011
  51   40215.1    248.7   0.003344791   0.02738  -0.15578  -0.05255  -0.01874

FINAL SINGLE POINT ENERGY     -5490.295447840407

DIPOLE MOMENT
-------------
                                X             Y             Z
Electronic contribution:      1.39044      11.78080       3.40623
Nuclear contribution   :     -1.01172     -11.20952      -3.15263
                        -----------------------------------------
Total Dipole Moment    :      0.37872       0.57128       0.25360
                        -----------------------------------------
Magnitude (a.u.)       :      0.73082
Magnitude (Debye)      :      1.85761

Rotational constants in cm-1:     0.000868     0.000439     0.000296
Rotational constants in MHz :    26.007727    13.171131     8.887674

                             ****ORCA TERMINATED NORMALLY****
TOTAL RUN TIME: 0 days 0 hours 7 minutes 5 seconds 761 msec
