                         Program Version 4.2.0 -  RELEASE  -
|  1> # ORCA input file
|  2> # SCF done       -151.829298982343          0.000891828732
|  3> ! CAM-B3LYP def2-SVP def2/J RIJCOSX Grid4 TightSCF
|  4> %maxcore 5000
|  5> %tddft
|  6>     Mode sTDDFT
|  7>     Ethresh 5.0
|  8>     maxcore 5000
|  9> end
| 10>
| 11> %pal
| 12>   nprocs 6
| 13>   end
| 14> * xyz 0 1
| 15>    C        8.67905       -27.09598       -11.51212
| 16>    C        8.41397       -27.99121       -12.50467
| 17>    C        9.23123       -29.09029       -13.08503
| 18>    N        7.14949       -27.72689       -12.96079
| 19>    C        6.60167       -26.68313       -12.28466
| 20>    C        5.22778       -26.21183       -12.60111
| 21>    C        7.53981       -26.25161       -11.35499
| 22>    C        7.47243       -25.18955       -10.39631
| 23>    C        6.46420       -24.32423       -10.19590
| 24>    C        6.51630       -23.28123        -9.19739
| 25>    N        5.44001       -22.48549        -9.12271
| 26>    C        5.47186       -21.52197        -8.22027
| 27>    C        6.54974       -21.31321        -7.38038
| 28>    C        7.63733       -22.19153        -7.52358
| 29>    N        7.59824       -23.16874        -8.43134
| 30>    C        8.84417       -22.11938        -6.73728
| 31>    C        9.13923       -21.14582        -5.84369
| 32>    C       10.33420       -21.07952        -5.09617
| 33>    C       10.62340       -20.05812        -4.23226
| 34>    C       11.79582       -19.88373        -3.45059
| 35>    C       11.81052       -18.74839        -2.70184
| 36>    C       10.64998       -17.95186        -2.84101
| 37>    S        9.52906       -18.70879        -3.95676
| 38>    C       10.35383       -16.74397        -2.25102
| 39>    C       11.13969       -15.96747        -1.36559
| 40>    C       10.55598       -14.80042        -0.99087
| 41>    C        9.26480       -14.56713        -1.54895
| 42>    S        8.83086       -15.94075        -2.56428
| 43>    C        8.53000       -13.43165        -1.37648
| 44>    C        7.25114       -13.09471        -1.92624
| 45>    C        6.37612       -14.05303        -2.46668
| 46>    C        5.19555       -13.65258        -3.03388
| 47>    C        4.83913       -12.29294        -3.08525
| 48>    C        5.67288       -11.33772        -2.51657
| 49>    C        6.85570       -11.74452        -1.93760
| 50>    C        3.57529       -12.17694        -3.77716
| 51>    C        3.14614       -13.46436        -4.14484
| 52>    C        4.13048       -14.50926        -3.67497
| 53>    C        3.48798       -15.45689        -2.64421
| 54>    C        2.90001       -14.72014        -1.44707
| 55>    C        4.69829       -15.33280        -4.84422
| 56>    C        5.35395       -14.46632        -5.91201
| 57>    C        1.97371       -13.63845        -4.83638
| 58>    C        1.19766       -12.52556        -5.19549
| 59>    C        1.63309       -11.25144        -4.80916
| 60>    C        2.80714       -11.06899        -4.10703
| 61>    C       -0.01654       -12.74775        -5.95206
| 62>    C       -0.74719       -11.80820        -6.57228
| 63>    C       -1.95829       -12.04811        -7.31307
| 64>    C       -2.92640       -13.00318        -7.06353
| 65>    C       -3.01851       -14.06047        -6.02199
| 66>    N       -3.94543       -12.79913        -7.94511
| 67>    C       -3.67294       -11.73917        -8.75940
| 68>    C       -4.61337       -11.33674        -9.83906
| 69>    C       -2.43720       -11.24301        -8.40235
| 70>    C       -1.75451       -10.14673        -9.05540
| 71>    C       -0.43816        -9.99491        -9.14130
| 72>    H        9.58412       -27.02692       -10.94213
| 73>    H       10.19505       -29.13292       -12.58720
| 74>    H        9.39782       -28.93043       -14.15087
| 75>    H        8.73354       -30.05266       -12.96086
| 76>    H        6.68854       -28.23703       -13.69701
| 77>    H        4.78461       -26.83645       -13.37503
| 78>    H        5.24421       -25.18190       -12.95629
| 79>    H        4.59311       -26.25334       -11.71693
| 80>    H        8.34764       -25.07920        -9.76891
| 81>    H        5.55342       -24.34291       -10.77021
| 82>    H        4.59010       -20.89262        -8.17287
| 83>    H        6.54370       -20.51973        -6.65253
| 84>    H        9.55190       -22.91565        -6.92304
| 85>    H        8.43776       -20.33823        -5.67574
| 86>    H       11.06631       -21.86657        -5.21647
| 87>    H       12.59147       -20.60773        -3.47455
| 88>    H       12.61993       -18.45842        -2.05521
| 89>    H       12.11407       -16.28976        -1.04360
| 90>    H       11.00880       -14.08076        -0.33104
| 91>    H        9.00481       -12.65693        -0.78521
| 92>    H        6.62033       -15.10117        -2.41424
| 93>    H        5.40242       -10.29211        -2.53080
| 94>    H        7.51630       -11.00798        -1.50159
| 95>    H        4.24728       -16.16176        -2.29901
| 96>    H        2.70035       -16.02866        -3.13969
| 97>    H        3.67190       -14.15889        -0.92521
| 98>    H        2.45884       -15.42897        -0.74995
| 99>    H        2.12748       -14.02410        -1.76665
|100>    H        3.88653       -15.90939        -5.29304
|101>    H        5.43350       -16.03803        -4.45079
|102>    H        4.63605       -13.76489        -6.33168
|103>    H        5.73843       -15.09008        -6.71551
|104>    H        6.18159       -13.90076        -5.48997
|105>    H        1.64373       -14.62765        -5.12245
|106>    H        1.03338       -10.38962        -5.05964
|107>    H        3.12258       -10.07630        -3.82054
|108>    H       -0.30513       -13.78496        -6.05536
|109>    H       -0.42990       -10.77440        -6.55250
|110>    H       -2.50199       -13.74121        -5.11940
|111>    H       -2.56381       -14.99222        -6.36314
|112>    H       -4.06121       -14.26303        -5.77904
|113>    H       -4.78597       -13.35247        -7.98669
|114>    H       -5.64462       -11.50111        -9.52869
|115>    H       -4.43482       -11.91360       -10.74831
|116>    H       -4.48502       -10.28487       -10.07973
|117>    H       -2.40310        -9.41797        -9.52818
|118>    H        0.24888       -10.71821        -8.73751
|119>    H       -0.00179        -9.14863        -9.64436
|120> *
|121>
|122>                          ****END OF INPUT****

CARTESIAN COORDINATES (ANGSTROEM)
---------------------------------
  C      8.679050  -27.095980  -11.512120
  C      8.413970  -27.991210  -12.504670
  C      9.231230  -29.090290  -13.085030
  N      7.149490  -27.726890  -12.960790
  C      6.601670  -26.683130  -12.284660
  C      5.227780  -26.211830  -12.601110
  C      7.539810  -26.251610  -11.354990
  C      7.472430  -25.189550  -10.396310
  C      6.464200  -24.324230  -10.195900
  C      6.516300  -23.281230   -9.197390
  N      5.440010  -22.485490   -9.122710
  C      5.471860  -21.521970   -8.220270
  C      6.549740  -21.313210   -7.380380
  C      7.637330  -22.191530   -7.523580
  N      7.598240  -23.168740   -8.431340
  C      8.844170  -22.119380   -6.737280
  C      9.139230  -21.145820   -5.843690
  C     10.334200  -21.079520   -5.096170
  C     10.623400  -20.058120   -4.232260
  C     11.795820  -19.883730   -3.450590
  C     11.810520  -18.748390   -2.701840
  C     10.649980  -17.951860   -2.841010
  S      9.529060  -18.708790   -3.956760
  C     10.353830  -16.743970   -2.251020
  C     11.139690  -15.967470   -1.365590
  C     10.555980  -14.800420   -0.990870
  C      9.264800  -14.567130   -1.548950
  S      8.830860  -15.940750   -2.564280
  C      8.530000  -13.431650   -1.376480
  C      7.251140  -13.094710   -1.926240
  C      6.376120  -14.053030   -2.466680
  C      5.195550  -13.652580   -3.033880
  C      4.839130  -12.292940   -3.085250
  C      5.672880  -11.337720   -2.516570
  C      6.855700  -11.744520   -1.937600
  C      3.575290  -12.176940   -3.777160
  C      3.146140  -13.464360   -4.144840
  C      4.130480  -14.509260   -3.674970
  C      3.487980  -15.456890   -2.644210
  C      2.900010  -14.720140   -1.447070
  C      4.698290  -15.332800   -4.844220
  C      5.353950  -14.466320   -5.912010
  C      1.973710  -13.638450   -4.836380
  C      1.197660  -12.525560   -5.195490
  C      1.633090  -11.251440   -4.809160
  C      2.807140  -11.068990   -4.107030
  C     -0.016540  -12.747750   -5.952060
  C     -0.747190  -11.808200   -6.572280
  C     -1.958290  -12.048110   -7.313070
  C     -2.926400  -13.003180   -7.063530
  C     -3.018510  -14.060470   -6.021990
  N     -3.945430  -12.799130   -7.945110
  C     -3.672940  -11.739170   -8.759400
  C     -4.613370  -11.336740   -9.839060
  C     -2.437200  -11.243010   -8.402350
  C     -1.754510  -10.146730   -9.055400
  C     -0.438160   -9.994910   -9.141300
  H      9.584120  -27.026920  -10.942130
  H     10.195050  -29.132920  -12.587200
  H      9.397820  -28.930430  -14.150870
  H      8.733540  -30.052660  -12.960860
  H      6.688540  -28.237030  -13.697010
  H      4.784610  -26.836450  -13.375030
  H      5.244210  -25.181900  -12.956290
  H      4.593110  -26.253340  -11.716930
  H      8.347640  -25.079200   -9.768910
  H      5.553420  -24.342910  -10.770210
  H      4.590100  -20.892620   -8.172870
  H      6.543700  -20.519730   -6.652530
  H      9.551900  -22.915650   -6.923040
  H      8.437760  -20.338230   -5.675740
  H     11.066310  -21.866570   -5.216470
  H     12.591470  -20.607730   -3.474550
  H     12.619930  -18.458420   -2.055210
  H     12.114070  -16.289760   -1.043600
  H     11.008800  -14.080760   -0.331040
  H      9.004810  -12.656930   -0.785210
  H      6.620330  -15.101170   -2.414240
  H      5.402420  -10.292110   -2.530800
  H      7.516300  -11.007980   -1.501590
  H      4.247280  -16.161760   -2.299010
  H      2.700350  -16.028660   -3.139690
  H      3.671900  -14.158890   -0.925210
  H      2.458840  -15.428970   -0.749950
  H      2.127480  -14.024100   -1.766650
  H      3.886530  -15.909390   -5.293040
  H      5.433500  -16.038030   -4.450790
  H      4.636050  -13.764890   -6.331680
  H      5.738430  -15.090080   -6.715510
  H      6.181590  -13.900760   -5.489970
  H      1.643730  -14.627650   -5.122450
  H      1.033380  -10.389620   -5.059640
  H      3.122580  -10.076300   -3.820540
  H     -0.305130  -13.784960   -6.055360
  H     -0.429900  -10.774400   -6.552500
  H     -2.501990  -13.741210   -5.119400
  H     -2.563810  -14.992220   -6.363140
  H     -4.061210  -14.263030   -5.779040
  H     -4.785970  -13.352470   -7.986690
  H     -5.644620  -11.501110   -9.528690
  H     -4.434820  -11.913600  -10.748310
  H     -4.485020  -10.284870  -10.079730
  H     -2.403100   -9.417970   -9.528180
  H      0.248880  -10.718210   -8.737510
  H     -0.001790   -9.148630   -9.644360

 Total Charge           Charge          ....    0
 Multiplicity           Mult            ....    1
 Number of Electrons    NEL             ....  414
 Basis Dimension        Dim             .... 1046

ORBITAL ENERGIES
----------------

  NO   OCC          E(Eh)            E(eV)
   0   2.0000     -88.937707     -2420.1180
   1   2.0000     -88.935401     -2420.0553
   2   2.0000     -14.443311      -393.0225
   3   2.0000     -14.440022      -392.9330
   4   2.0000     -14.376937      -391.2163
   5   2.0000     -14.374605      -391.1529
   6   2.0000     -10.309696      -280.5411
   7   2.0000     -10.303500      -280.3725
   8   2.0000     -10.302224      -280.3378
   9   2.0000     -10.301693      -280.3233
  10   2.0000     -10.301005      -280.3046
  11   2.0000     -10.298522      -280.2370
  12   2.0000     -10.291994      -280.0594
  13   2.0000     -10.283380      -279.8250
  14   2.0000     -10.281518      -279.7743
  15   2.0000     -10.280872      -279.7567
  16   2.0000     -10.280311      -279.7415
  17   2.0000     -10.280103      -279.7358
  18   2.0000     -10.279655      -279.7236
  19   2.0000     -10.277894      -279.6757
  20   2.0000     -10.273526      -279.5569
  21   2.0000     -10.273372      -279.5527
  22   2.0000     -10.270664      -279.4790
  23   2.0000     -10.269725      -279.4534
  24   2.0000     -10.268465      -279.4191
  25   2.0000     -10.266587      -279.3680
  26   2.0000     -10.264034      -279.2986
  27   2.0000     -10.263989      -279.2973
  28   2.0000     -10.261516      -279.2300
  29   2.0000     -10.261439      -279.2280
  30   2.0000     -10.261398      -279.2268
  31   2.0000     -10.261291      -279.2239
  32   2.0000     -10.260319      -279.1975
  33   2.0000     -10.259643      -279.1791
  34   2.0000     -10.258327      -279.1433
  35   2.0000     -10.257544      -279.1220
  36   2.0000     -10.257196      -279.1125
  37   2.0000     -10.255826      -279.0752
  38   2.0000     -10.255342      -279.0621
  39   2.0000     -10.254415      -279.0368
  40   2.0000     -10.253955      -279.0243
  41   2.0000     -10.253156      -279.0026
  42   2.0000     -10.252848      -278.9942
  43   2.0000     -10.252007      -278.9713
  44   2.0000     -10.251901      -278.9684
  45   2.0000     -10.251325      -278.9527
  46   2.0000     -10.249880      -278.9134
  47   2.0000     -10.249155      -278.8937
  48   2.0000     -10.247245      -278.8417
  49   2.0000     -10.238717      -278.6096
  50   2.0000     -10.238546      -278.6050
  51   2.0000     -10.237494      -278.5764
  52   2.0000     -10.235291      -278.5164
  53   2.0000     -10.232831      -278.4495
  54   2.0000     -10.232622      -278.4438
  55   2.0000     -10.229934      -278.3706
  56   2.0000     -10.227488      -278.3041
  57   2.0000      -8.033481      -218.6021
  58   2.0000      -8.031658      -218.5525
  59   2.0000      -6.003278      -163.3575
  60   2.0000      -6.001416      -163.3068
  61   2.0000      -5.999208      -163.2467
  62   2.0000      -5.997479      -163.1997
  63   2.0000      -5.994355      -163.1147
  64   2.0000      -5.992450      -163.0628
  65   2.0000      -1.060412       -28.8553
  66   2.0000      -1.056577       -28.7509
  67   2.0000      -1.049858       -28.5681
  68   2.0000      -0.987522       -26.8718
  69   2.0000      -0.974471       -26.5167
  70   2.0000      -0.964995       -26.2588
  71   2.0000      -0.949642       -25.8411
  72   2.0000      -0.932336       -25.3702
  73   2.0000      -0.908189       -24.7131
  74   2.0000      -0.900008       -24.4905
  75   2.0000      -0.888338       -24.1729
  76   2.0000      -0.884499       -24.0684
  77   2.0000      -0.876373       -23.8473
  78   2.0000      -0.871054       -23.7026
  79   2.0000      -0.862862       -23.4797
  80   2.0000      -0.855512       -23.2797
  81   2.0000      -0.854039       -23.2396
  82   2.0000      -0.842812       -22.9341
  83   2.0000      -0.831457       -22.6251
  84   2.0000      -0.825169       -22.4540
  85   2.0000      -0.824814       -22.4443
  86   2.0000      -0.818867       -22.2825
  87   2.0000      -0.816902       -22.2290
  88   2.0000      -0.814099       -22.1528
  89   2.0000      -0.809265       -22.0212
  90   2.0000      -0.805060       -21.9068
  91   2.0000      -0.803943       -21.8764
  92   2.0000      -0.801393       -21.8070
  93   2.0000      -0.788455       -21.4549
  94   2.0000      -0.766298       -20.8520
  95   2.0000      -0.748156       -20.3584
  96   2.0000      -0.739874       -20.1330
  97   2.0000      -0.734264       -19.9803
  98   2.0000      -0.721823       -19.6418
  99   2.0000      -0.711108       -19.3502
 100   2.0000      -0.706464       -19.2239
 101   2.0000      -0.702349       -19.1119
 102   2.0000      -0.692324       -18.8391
 103   2.0000      -0.681264       -18.5381
 104   2.0000      -0.675476       -18.3806
 105   2.0000      -0.672283       -18.2938
 106   2.0000      -0.663231       -18.0474
 107   2.0000      -0.661751       -18.0071
 108   2.0000      -0.659011       -17.9326
 109   2.0000      -0.647372       -17.6159
 110   2.0000      -0.645479       -17.5644
 111   2.0000      -0.632863       -17.2211
 112   2.0000      -0.630011       -17.1435
 113   2.0000      -0.618799       -16.8384
 114   2.0000      -0.610614       -16.6156
 115   2.0000      -0.607493       -16.5307
 116   2.0000      -0.605084       -16.4652
 117   2.0000      -0.600990       -16.3538
 118   2.0000      -0.598368       -16.2824
 119   2.0000      -0.586226       -15.9520
 120   2.0000      -0.579185       -15.7604
 121   2.0000      -0.573476       -15.6051
 122   2.0000      -0.570453       -15.5228
 123   2.0000      -0.566787       -15.4231
 124   2.0000      -0.557945       -15.1825
 125   2.0000      -0.554312       -15.0836
 126   2.0000      -0.549539       -14.9537
 127   2.0000      -0.533037       -14.5047
 128   2.0000      -0.531919       -14.4742
 129   2.0000      -0.530364       -14.4319
 130   2.0000      -0.525462       -14.2986
 131   2.0000      -0.523593       -14.2477
 132   2.0000      -0.520243       -14.1565
 133   2.0000      -0.518471       -14.1083
 134   2.0000      -0.516626       -14.0581
 135   2.0000      -0.512476       -13.9452
 136   2.0000      -0.510110       -13.8808
 137   2.0000      -0.507435       -13.8080
 138   2.0000      -0.505115       -13.7449
 139   2.0000      -0.500234       -13.6121
 140   2.0000      -0.497045       -13.5253
 141   2.0000      -0.495707       -13.4889
 142   2.0000      -0.494445       -13.4545
 143   2.0000      -0.491923       -13.3859
 144   2.0000      -0.491734       -13.3808
 145   2.0000      -0.489554       -13.3215
 146   2.0000      -0.488469       -13.2919
 147   2.0000      -0.487366       -13.2619
 148   2.0000      -0.487119       -13.2552
 149   2.0000      -0.484333       -13.1794
 150   2.0000      -0.480059       -13.0631
 151   2.0000      -0.479470       -13.0470
 152   2.0000      -0.474614       -12.9149
 153   2.0000      -0.471106       -12.8194
 154   2.0000      -0.468477       -12.7479
 155   2.0000      -0.464494       -12.6395
 156   2.0000      -0.461845       -12.5674
 157   2.0000      -0.460859       -12.5406
 158   2.0000      -0.459255       -12.4970
 159   2.0000      -0.458007       -12.4630
 160   2.0000      -0.453221       -12.3328
 161   2.0000      -0.451805       -12.2942
 162   2.0000      -0.451261       -12.2794
 163   2.0000      -0.450029       -12.2459
 164   2.0000      -0.444760       -12.1025
 165   2.0000      -0.443861       -12.0781
 166   2.0000      -0.440152       -11.9771
 167   2.0000      -0.437221       -11.8974
 168   2.0000      -0.436313       -11.8727
 169   2.0000      -0.435154       -11.8411
 170   2.0000      -0.433875       -11.8063
 171   2.0000      -0.426094       -11.5946
 172   2.0000      -0.422725       -11.5029
 173   2.0000      -0.420265       -11.4360
 174   2.0000      -0.414630       -11.2826
 175   2.0000      -0.414185       -11.2705
 176   2.0000      -0.412296       -11.2192
 177   2.0000      -0.410666       -11.1748
 178   2.0000      -0.405048       -11.0219
 179   2.0000      -0.403536       -10.9808
 180   2.0000      -0.398690       -10.8489
 181   2.0000      -0.397191       -10.8081
 182   2.0000      -0.394573       -10.7369
 183   2.0000      -0.389338       -10.5944
 184   2.0000      -0.384471       -10.4620
 185   2.0000      -0.380052       -10.3417
 186   2.0000      -0.374380       -10.1874
 187   2.0000      -0.372581       -10.1384
 188   2.0000      -0.370169       -10.0728
 189   2.0000      -0.368016       -10.0142
 190   2.0000      -0.358057        -9.7432
 191   2.0000      -0.347993        -9.4694
 192   2.0000      -0.347507        -9.4561
 193   2.0000      -0.334386        -9.0991
 194   2.0000      -0.330609        -8.9963
 195   2.0000      -0.321790        -8.7564
 196   2.0000      -0.315714        -8.5910
 197   2.0000      -0.308285        -8.3889
 198   2.0000      -0.301306        -8.1990
 199   2.0000      -0.294158        -8.0044
 200   2.0000      -0.294031        -8.0010
 201   2.0000      -0.273938        -7.4542
 202   2.0000      -0.269012        -7.3202
 203   2.0000      -0.249547        -6.7905
 204   2.0000      -0.234075        -6.3695
 205   2.0000      -0.232448        -6.3252
 206   2.0000      -0.203672        -5.5422
 207   0.0000      -0.070121        -1.9081
 208   0.0000      -0.019631        -0.5342
 209   0.0000       0.002066         0.0562
 210   0.0000       0.008109         0.2207
 211   0.0000       0.030901         0.8409

MULLIKEN ATOMIC CHARGES
-----------------------
   0 C :   -0.085728
   1 C :   -0.077163
   2 C :    0.133746
   3 N :   -0.044240
   4 C :   -0.169000
   5 C :    0.132142
   6 C :    0.077141
   7 C :    0.034736
   8 C :    0.003548
   9 C :   -0.070360
  10 N :   -0.078733
  11 C :    0.069320
  12 C :   -0.066665
  13 C :    0.048871
  14 N :   -0.067225
  15 C :    0.021837
  16 C :    0.025887
  17 C :   -0.016849
  18 C :   -0.012411
  19 C :    0.034293
  20 C :    0.032537
  21 C :   -0.048618
  22 S :    0.054147
  23 C :   -0.040187
  24 C :    0.030980
  25 C :    0.034696
  26 C :   -0.014467
  27 S :    0.054660
  28 C :   -0.031950
  29 C :    0.105219
  30 C :   -0.099741
  31 C :    0.002446
  32 C :    0.112923
  33 C :   -0.054180
  34 C :   -0.011563
  35 C :    0.101871
  36 C :    0.024990
  37 C :   -0.141651
  38 C :    0.073569
  39 C :    0.023247
  40 C :    0.063963
  41 C :    0.030412
  42 C :   -0.117357
  43 C :    0.127690
  44 C :   -0.019754
  45 C :   -0.046252
  46 C :   -0.035382
  47 C :   -0.022373
  48 C :    0.040901
  49 C :   -0.161483
  50 C :    0.119649
  51 N :   -0.040576
  52 C :   -0.153477
  53 C :    0.129994
  54 C :    0.037287
  55 C :   -0.049686
  56 C :   -0.044143
  57 H :   -0.046783
  58 H :    0.012114
  59 H :    0.016168
  60 H :    0.015919
  61 H :    0.106565
  62 H :   -0.012751
  63 H :    0.042013
  64 H :    0.042907
  65 H :   -0.013658
  66 H :   -0.048340
  67 H :   -0.007187
  68 H :   -0.016628
  69 H :   -0.020492
  70 H :    0.003096
  71 H :   -0.016039
  72 H :   -0.012403
  73 H :   -0.014130
  74 H :   -0.016479
  75 H :   -0.013352
  76 H :   -0.021336
  77 H :   -0.022083
  78 H :   -0.037743
  79 H :   -0.033074
  80 H :   -0.001581
  81 H :   -0.005670
  82 H :    0.021338
  83 H :    0.005164
  84 H :    0.022349
  85 H :   -0.005871
  86 H :   -0.001845
  87 H :    0.021295
  88 H :    0.006313
  89 H :    0.019836
  90 H :   -0.047990
  91 H :   -0.032163
  92 H :   -0.042667
  93 H :   -0.038104
  94 H :   -0.003732
  95 H :    0.033315
  96 H :    0.032158
  97 H :   -0.002378
  98 H :    0.107190
  99 H :    0.002926
 100 H :    0.031405
 101 H :    0.016410
 102 H :   -0.019524
 103 H :    0.024686
 104 H :    0.009351
Sum of atomic charges:    0.0000000

LOEWDIN ATOMIC CHARGES
----------------------
   0 C :   -0.077681
   1 C :   -0.034175
   2 C :   -0.054732
   3 N :    0.085775
   4 C :   -0.005050
   5 C :   -0.055107
   6 C :   -0.093516
   7 C :    0.028392
   8 C :   -0.077484
   9 C :    0.033224
  10 N :   -0.109196
  11 C :    0.039852
  12 C :   -0.080001
  13 C :    0.031556
  14 N :   -0.098225
  15 C :   -0.029718
  16 C :   -0.013745
  17 C :   -0.062193
  18 C :   -0.135031
  19 C :   -0.038140
  20 C :   -0.026922
  21 C :   -0.183862
  22 S :    0.360090
  23 C :   -0.175294
  24 C :   -0.040495
  25 C :   -0.025983
  26 C :   -0.149381
  27 S :    0.378259
  28 C :   -0.040795
  29 C :   -0.034151
  30 C :   -0.029834
  31 C :    0.004054
  32 C :   -0.011594
  33 C :   -0.024227
  34 C :   -0.015441
  35 C :   -0.027945
  36 C :    0.004049
  37 C :   -0.035658
  38 C :   -0.010767
  39 C :   -0.058272
  40 C :   -0.012600
  41 C :   -0.057272
  42 C :   -0.029087
  43 C :   -0.015954
  44 C :   -0.021724
  45 C :   -0.017575
  46 C :   -0.047807
  47 C :   -0.005321
  48 C :   -0.078586
  49 C :   -0.015042
  50 C :   -0.056880
  51 N :    0.086255
  52 C :   -0.023246
  53 C :   -0.053348
  54 C :   -0.081474
  55 C :   -0.019993
  56 C :   -0.066207
  57 H :    0.018672
  58 H :    0.039363
  59 H :    0.029823
  60 H :    0.029694
  61 H :    0.082175
  62 H :    0.026028
  63 H :    0.040290
  64 H :    0.040897
  65 H :    0.029959
  66 H :    0.022016
  67 H :    0.020966
  68 H :    0.027025
  69 H :    0.031144
  70 H :    0.019593
  71 H :    0.032745
  72 H :    0.033167
  73 H :    0.031815
  74 H :    0.030816
  75 H :    0.032668
  76 H :    0.032648
  77 H :    0.008581
  78 H :    0.025925
  79 H :    0.024509
  80 H :    0.020059
  81 H :    0.018787
  82 H :    0.025387
  83 H :    0.022360
  84 H :    0.025698
  85 H :    0.018541
  86 H :    0.020080
  87 H :    0.025530
  88 H :    0.023088
  89 H :    0.025249
  90 H :    0.021110
  91 H :    0.024592
  92 H :    0.024443
  93 H :    0.021420
  94 H :    0.026852
  95 H :    0.041760
  96 H :    0.033599
  97 H :    0.026648
  98 H :    0.082929
  99 H :    0.028400
 100 H :    0.035805
 101 H :    0.037395
 102 H :    0.023286
 103 H :    0.022492
 104 H :    0.019196

  Mayer bond orders larger than 0.100000
B(  0-C ,  1-C ) :   1.5447 B(  0-C ,  6-C ) :   1.2180 B(  0-C , 57-H ) :   1.0147
B(  1-C ,  2-C ) :   1.0854 B(  1-C ,  3-N ) :   1.1873 B(  2-C , 58-H ) :   0.9461
B(  2-C , 59-H ) :   0.9476 B(  2-C , 60-H ) :   0.9477 B(  3-N ,  4-C ) :   1.2516
B(  3-N , 61-H ) :   0.9375 B(  4-C ,  5-C ) :   1.1158 B(  4-C ,  6-C ) :   1.4447
B(  5-C , 62-H ) :   0.9328 B(  5-C , 63-H ) :   0.9378 B(  5-C , 64-H ) :   0.9384
B(  6-C ,  7-C ) :   1.0933 B(  7-C ,  8-C ) :   1.6743 B(  7-C , 65-H ) :   0.9685
B(  8-C ,  9-C ) :   1.0435 B(  8-C , 66-H ) :   0.9648 B(  9-C , 10-N ) :   1.5261
B(  9-C , 14-N ) :   1.5234 B( 10-N , 11-C ) :   1.5455 B( 11-C , 12-C ) :   1.4000
B( 11-C , 67-H ) :   0.9773 B( 12-C , 13-C ) :   1.3275 B( 12-C , 68-H ) :   0.9672
B( 13-C , 14-N ) :   1.5023 B( 13-C , 15-C ) :   1.0635 B( 15-C , 16-C ) :   1.6485
B( 15-C , 69-H ) :   0.9886 B( 16-C , 17-C ) :   1.1431 B( 16-C , 70-H ) :   0.9588
B( 17-C , 18-C ) :   1.5766 B( 17-C , 71-H ) :   0.9867 B( 18-C , 19-C ) :   1.1327
B( 18-C , 22-S ) :   1.0326 B( 19-C , 20-C ) :   1.5999 B( 19-C , 72-H ) :   0.9983
B( 20-C , 21-C ) :   1.1815 B( 20-C , 73-H ) :   0.9934 B( 21-C , 22-S ) :   1.0354
B( 21-C , 23-C ) :   1.5307 B( 23-C , 24-C ) :   1.1694 B( 23-C , 27-S ) :   1.0428
B( 24-C , 25-C ) :   1.6125 B( 24-C , 74-H ) :   0.9929 B( 25-C , 26-C ) :   1.1258
B( 25-C , 75-H ) :   0.9978 B( 26-C , 27-S ) :   1.0163 B( 26-C , 28-C ) :   1.6217
B( 28-C , 29-C ) :   1.0882 B( 28-C , 76-H ) :   0.9687 B( 29-C , 30-C ) :   1.2784
B( 29-C , 34-C ) :   1.3214 B( 30-C , 31-C ) :   1.4317 B( 30-C , 77-H ) :   0.9744
B( 31-C , 32-C ) :   1.3620 B( 31-C , 37-C ) :   0.9153 B( 32-C , 33-C ) :   1.3285
B( 32-C , 35-C ) :   0.9966 B( 33-C , 34-C ) :   1.3893 B( 33-C , 78-H ) :   0.9921
B( 34-C , 79-H ) :   0.9912 B( 35-C , 36-C ) :   1.3697 B( 35-C , 45-C ) :   1.3273
B( 36-C , 37-C ) :   0.9155 B( 36-C , 42-C ) :   1.3761 B( 37-C , 38-C ) :   1.0366
B( 37-C , 40-C ) :   1.0398 B( 38-C , 39-C ) :   1.0995 B( 38-C , 80-H ) :   0.9397
B( 38-C , 81-H ) :   0.9389 B( 39-C , 82-H ) :   0.9648 B( 39-C , 83-H ) :   0.9639
B( 39-C , 84-H ) :   0.9645 B( 40-C , 41-C ) :   1.1045 B( 40-C , 85-H ) :   0.9384
B( 40-C , 86-H ) :   0.9382 B( 41-C , 87-H ) :   0.9638 B( 41-C , 88-H ) :   0.9637
B( 41-C , 89-H ) :   0.9632 B( 42-C , 43-C ) :   1.2902 B( 42-C , 90-H ) :   1.0134
B( 43-C , 44-C ) :   1.3496 B( 43-C , 46-C ) :   1.0560 B( 44-C , 45-C ) :   1.3960
B( 44-C , 91-H ) :   0.9834 B( 45-C , 92-H ) :   0.9904 B( 46-C , 47-C ) :   1.7179
B( 46-C , 93-H ) :   0.9851 B( 47-C , 48-C ) :   1.0698 B( 47-C , 94-H ) :   0.9539
B( 48-C , 49-C ) :   1.4785 B( 48-C , 54-C ) :   1.2249 B( 49-C , 50-C ) :   1.1088
B( 49-C , 51-N ) :   1.2212 B( 50-C , 95-H ) :   0.9400 B( 50-C , 96-H ) :   0.9401
B( 50-C , 97-H ) :   0.9391 B( 51-N , 52-C ) :   1.2118 B( 51-N , 98-H ) :   0.9386
B( 52-C , 53-C ) :   1.1069 B( 52-C , 54-C ) :   1.4812 B( 53-C , 99-H ) :   0.9427
B( 53-C ,100-H ) :   0.9451 B( 53-C ,101-H ) :   0.9413 B( 54-C , 55-C ) :   1.0745
B( 55-C , 56-C ) :   1.9514 B( 55-C ,102-H ) :   0.9577 B( 56-C ,103-H ) :   0.9589
B( 56-C ,104-H ) :   0.9474

-----------------------------------------------------------------------------
         ABSORPTION SPECTRUM VIA TRANSITION ELECTRIC DIPOLE MOMENTS
-----------------------------------------------------------------------------
State   Energy  Wavelength   fosc         T2         TX        TY        TZ
        (cm-1)    (nm)                  (au**2)     (au)      (au)      (au)
-----------------------------------------------------------------------------
   0   15580.0    641.9   1.303886891  27.55175  -1.72195   4.57539   1.91115
   1   23862.8    419.1   0.088985331   1.22764  -0.90142  -0.19803  -0.61309
   2   24573.9    406.9   0.103148114   1.38185  -0.14553  -0.89889  -0.74341
   3   25534.7    391.6   1.139891840  14.69631   3.11069   0.31809   2.21782
   4   29945.8    333.9   0.492762768   5.41722  -1.82509  -0.08263  -1.44202
   5   30840.7    324.2   0.004796777   0.05120  -0.05204   0.07659  -0.20647
   6   30985.6    322.7   0.314618423   3.34272  -1.45059  -0.41692  -1.03184
   7   31867.6    313.8   0.013415049   0.13859  -0.01604   0.25465   0.27108
   8   32427.3    308.4   0.038252972   0.38836   0.52685  -0.33277  -0.00685
   9   33107.8    302.0   0.058909301   0.58577  -0.64410  -0.01164  -0.41324
  10   33509.0    298.4   0.106526447   1.04658  -0.70179  -0.31671  -0.67362
  11   33876.5    295.2   0.233234547   2.26657   1.27617   0.14219   0.78597
  12   34125.4    293.0   0.255149846   2.46146   0.42372  -1.24902  -0.84964
  13   34453.6    290.2   0.199187261   1.90328   0.30573  -0.98897  -0.91200
  14   34492.8    289.9   0.110463939   1.05431  -0.16533  -0.74606  -0.68583
  15   35743.5    279.8   0.064742100   0.59630   0.55516   0.05344   0.53408
  16   36075.3    277.2   0.023982943   0.21886   0.18660   0.28567   0.32005
  17   36087.3    277.1   0.103028615   0.93989  -0.10242   0.81734   0.51123
  18   37031.5    270.0   0.067368572   0.59891  -0.42701   0.40650  -0.50133
  19   37253.0    268.4   0.018709617   0.16534  -0.28139  -0.19396   0.22032
  20   37688.1    265.3   0.000978013   0.00854   0.04421   0.06139  -0.05310
  21   38067.4    262.7   0.032823864   0.28387   0.12614  -0.47264  -0.21109
  22   39354.6    254.1   0.093108044   0.77887   0.05069  -0.83629  -0.27735
  23   39689.3    252.0   0.216286580   1.79404   1.05439  -0.01164   0.82593
  24   40297.1    248.2   0.024947766   0.20381   0.29345  -0.14460   0.31111

FINAL SINGLE POINT ENERGY     -2984.606772387702

DIPOLE MOMENT
-------------
                                X             Y             Z
Electronic contribution:     44.38159      -3.35292      25.95627
Nuclear contribution   :    -45.17898       2.88774     -26.16044
                        -----------------------------------------
Total Dipole Moment    :     -0.79739      -0.46518      -0.20418
                        -----------------------------------------
Magnitude (a.u.)       :      0.94547
Magnitude (Debye)      :      2.40320

Rotational constants in cm-1:     0.001049     0.000514     0.000355
Rotational constants in MHz :    31.450833    15.396821    10.646988

                             ****ORCA TERMINATED NORMALLY****
TOTAL RUN TIME: 0 days 0 hours 7 minutes 24 seconds 355 msec
