                         Program Version 4.2.0 -  RELEASE  -
|  1> # ORCA input file
|  2> # SCF done       -169.604126015872          0.000508878187
|  3> ! CAM-B3LYP def2-SVP def2/J RIJCOSX Grid4 TightSCF
|  4> %maxcore 5000
|  5> %tddft
|  6>     Mode sTDDFT
|  7>     Ethresh 5.0
|  8>     maxcore 5000
|  9> end
| 10>
| 11> %pal
| 12>   nprocs 6
| 13>   end
| 14> * xyz 0 1
| 15>    C       -5.65821        -0.44833         1.34182
| 16>    S       -5.92059        -1.73916         0.24693
| 17>    C       -4.36416        -2.44201         0.59192
| 18>    C       -3.69812        -1.67383         1.52723
| 19>    C       -4.43844        -0.54597         1.94888
| 20>    O       -4.03454         0.38603         2.85725
| 21>    C       -2.86652         0.36957         3.51353
| 22>    O       -2.61850         1.25096         4.28521
| 23>    C       -1.83168        -0.73913         3.31304
| 24>    O       -0.81016        -0.72906         3.93967
| 25>    S       -2.10078        -2.05146         2.15259
| 26>    C       -3.88349        -3.63389        -0.01938
| 27>    C       -4.61784        -4.36364        -0.88312
| 28>    N       -4.26276        -5.51297        -1.53163
| 29>    C       -3.08849        -6.19290        -1.57220
| 30>    S       -1.62997        -5.65164        -0.81307
| 31>    C       -0.80263        -7.06066        -1.40640
| 32>    N        0.51445        -7.26131        -1.04870
| 33>    O        1.02962        -8.34157        -1.35655
| 34>    O        1.08923        -6.38446        -0.42325
| 35>    C       -1.60805        -7.87863        -2.15448
| 36>    C       -2.92924        -7.41504        -2.25722
| 37>    C       -3.96280        -8.12636        -2.95215
| 38>    C       -3.79774        -9.41478        -3.35051
| 39>    C       -4.70697       -10.19297        -4.08962
| 40>    C       -4.38285       -11.46412        -4.49622
| 41>    C       -5.13911       -12.35915        -5.29564
| 42>    C       -4.49926       -13.52454        -5.58960
| 43>    C       -3.20296       -13.61710        -5.03017
| 44>    S       -2.83377       -12.18686        -4.09702
| 45>    C       -2.26479       -14.61932        -5.16699
| 46>    C       -2.32289       -15.80793        -5.92839
| 47>    C       -1.18248       -16.54953        -5.89780
| 48>    C       -0.15166       -15.99243        -5.09646
| 49>    S       -0.70883       -14.48296        -4.37118
| 50>    C        1.10164       -16.48783        -4.89336
| 51>    N        2.01000       -15.87918        -4.08327
| 52>    C        3.28483       -16.26727        -3.88249
| 53>    S        3.91849       -17.63031        -4.76034
| 54>    C        5.43549       -17.44797        -3.93195
| 55>    N        6.44587       -18.35227        -4.24629
| 56>    O        7.51590       -18.23947        -3.67196
| 57>    O        6.17715       -19.20203        -5.08457
| 58>    C        5.43871       -16.40939        -3.04195
| 59>    C        4.21928       -15.70379        -2.99191
| 60>    C        4.06823       -14.61087        -2.07574
| 61>    C        3.07675       -13.70924        -1.91212
| 62>    C        3.10349       -12.73192        -0.87373
| 63>    S        4.39564       -12.57749         0.26998
| 64>    C        3.59838       -11.30037         1.13946
| 65>    C        2.37695       -11.01862         0.55710
| 66>    C        2.11139       -11.80825        -0.57846
| 67>    O        1.00830       -11.73587        -1.37718
| 68>    C       -0.00602       -10.89151        -1.20929
| 69>    O       -0.88979       -10.87510        -2.02812
| 70>    C       -0.11028        -9.98018         0.00032
| 71>    O       -1.11458        -9.34072         0.19765
| 72>    S        1.19880        -9.87947         1.18162
| 73>    C        4.27627       -10.74243         2.27499
| 74>    C        3.86527        -9.72290         3.02699
| 75>    H       -6.39836         0.31016         1.48940
| 76>    H       -2.88681        -3.92144         0.27408
| 77>    H       -5.62274        -4.03683        -1.11657
| 78>    H       -4.99815        -5.94934        -2.07328
| 79>    H       -1.24097        -8.78276        -2.60123
| 80>    H       -4.89581        -7.61935        -3.16687
| 81>    H       -2.87913        -9.91629        -3.08148
| 82>    H       -5.66681        -9.78433        -4.37590
| 83>    H       -6.12732       -12.10579        -5.63789
| 84>    H       -4.91721       -14.31193        -6.19142
| 85>    H       -3.20250       -16.07340        -6.48673
| 86>    H       -1.04020       -17.47569        -6.42481
| 87>    H        1.41880       -17.39617        -5.38268
| 88>    H        1.68498       -15.06300        -3.57727
| 89>    H        6.30145       -16.16644        -2.44813
| 90>    H        4.91068       -14.51349        -1.40034
| 91>    H        2.19692       -13.64937        -2.53694
| 92>    H        5.21858       -11.22689         2.49764
| 93>    H        2.94667        -9.19605         2.84331
| 94>    H        4.45976        -9.37992         3.85512
| 95> *
| 96>
| 97>                          ****END OF INPUT****

CARTESIAN COORDINATES (ANGSTROEM)
---------------------------------
  C     -5.658210   -0.448330    1.341820
  S     -5.920590   -1.739160    0.246930
  C     -4.364160   -2.442010    0.591920
  C     -3.698120   -1.673830    1.527230
  C     -4.438440   -0.545970    1.948880
  O     -4.034540    0.386030    2.857250
  C     -2.866520    0.369570    3.513530
  O     -2.618500    1.250960    4.285210
  C     -1.831680   -0.739130    3.313040
  O     -0.810160   -0.729060    3.939670
  S     -2.100780   -2.051460    2.152590
  C     -3.883490   -3.633890   -0.019380
  C     -4.617840   -4.363640   -0.883120
  N     -4.262760   -5.512970   -1.531630
  C     -3.088490   -6.192900   -1.572200
  S     -1.629970   -5.651640   -0.813070
  C     -0.802630   -7.060660   -1.406400
  N      0.514450   -7.261310   -1.048700
  O      1.029620   -8.341570   -1.356550
  O      1.089230   -6.384460   -0.423250
  C     -1.608050   -7.878630   -2.154480
  C     -2.929240   -7.415040   -2.257220
  C     -3.962800   -8.126360   -2.952150
  C     -3.797740   -9.414780   -3.350510
  C     -4.706970  -10.192970   -4.089620
  C     -4.382850  -11.464120   -4.496220
  C     -5.139110  -12.359150   -5.295640
  C     -4.499260  -13.524540   -5.589600
  C     -3.202960  -13.617100   -5.030170
  S     -2.833770  -12.186860   -4.097020
  C     -2.264790  -14.619320   -5.166990
  C     -2.322890  -15.807930   -5.928390
  C     -1.182480  -16.549530   -5.897800
  C     -0.151660  -15.992430   -5.096460
  S     -0.708830  -14.482960   -4.371180
  C      1.101640  -16.487830   -4.893360
  N      2.010000  -15.879180   -4.083270
  C      3.284830  -16.267270   -3.882490
  S      3.918490  -17.630310   -4.760340
  C      5.435490  -17.447970   -3.931950
  N      6.445870  -18.352270   -4.246290
  O      7.515900  -18.239470   -3.671960
  O      6.177150  -19.202030   -5.084570
  C      5.438710  -16.409390   -3.041950
  C      4.219280  -15.703790   -2.991910
  C      4.068230  -14.610870   -2.075740
  C      3.076750  -13.709240   -1.912120
  C      3.103490  -12.731920   -0.873730
  S      4.395640  -12.577490    0.269980
  C      3.598380  -11.300370    1.139460
  C      2.376950  -11.018620    0.557100
  C      2.111390  -11.808250   -0.578460
  O      1.008300  -11.735870   -1.377180
  C     -0.006020  -10.891510   -1.209290
  O     -0.889790  -10.875100   -2.028120
  C     -0.110280   -9.980180    0.000320
  O     -1.114580   -9.340720    0.197650
  S      1.198800   -9.879470    1.181620
  C      4.276270  -10.742430    2.274990
  C      3.865270   -9.722900    3.026990
  H     -6.398360    0.310160    1.489400
  H     -2.886810   -3.921440    0.274080
  H     -5.622740   -4.036830   -1.116570
  H     -4.998150   -5.949340   -2.073280
  H     -1.240970   -8.782760   -2.601230
  H     -4.895810   -7.619350   -3.166870
  H     -2.879130   -9.916290   -3.081480
  H     -5.666810   -9.784330   -4.375900
  H     -6.127320  -12.105790   -5.637890
  H     -4.917210  -14.311930   -6.191420
  H     -3.202500  -16.073400   -6.486730
  H     -1.040200  -17.475690   -6.424810
  H      1.418800  -17.396170   -5.382680
  H      1.684980  -15.063000   -3.577270
  H      6.301450  -16.166440   -2.448130
  H      4.910680  -14.513490   -1.400340
  H      2.196920  -13.649370   -2.536940
  H      5.218580  -11.226890    2.497640
  H      2.946670   -9.196050    2.843310
  H      4.459760   -9.379920    3.855120

 Total Charge           Charge          ....    0
 Multiplicity           Mult            ....    1
 Number of Electrons    NEL             ....  484
 Basis Dimension        Dim             ....  972

ORBITAL ENERGIES
----------------

  NO   OCC          E(Eh)            E(eV)
   0   2.0000     -88.984199     -2421.3832
   1   2.0000     -88.981548     -2421.3110
   2   2.0000     -88.976909     -2421.1848
   3   2.0000     -88.971039     -2421.0250
   4   2.0000     -88.970642     -2421.0143
   5   2.0000     -88.965509     -2420.8746
   6   2.0000     -88.953392     -2420.5449
   7   2.0000     -88.940193     -2420.1857
   8   2.0000     -19.310907      -525.4765
   9   2.0000     -19.302283      -525.2418
  10   2.0000     -19.240232      -523.5533
  11   2.0000     -19.237498      -523.4789
  12   2.0000     -19.236932      -523.4635
  13   2.0000     -19.236480      -523.4512
  14   2.0000     -19.232021      -523.3299
  15   2.0000     -19.228505      -523.2342
  16   2.0000     -19.227970      -523.2197
  17   2.0000     -19.226320      -523.1748
  18   2.0000     -14.645787      -398.5321
  19   2.0000     -14.640375      -398.3849
  20   2.0000     -14.493684      -394.3932
  21   2.0000     -14.492289      -394.3552
  22   2.0000     -10.436269      -283.9853
  23   2.0000     -10.429849      -283.8106
  24   2.0000     -10.407523      -283.2031
  25   2.0000     -10.407442      -283.2009
  26   2.0000     -10.372004      -282.2366
  27   2.0000     -10.370425      -282.1936
  28   2.0000     -10.364151      -282.0229
  29   2.0000     -10.362048      -281.9657
  30   2.0000     -10.346117      -281.5322
  31   2.0000     -10.337002      -281.2841
  32   2.0000     -10.334704      -281.2216
  33   2.0000     -10.333535      -281.1898
  34   2.0000     -10.328306      -281.0475
  35   2.0000     -10.324246      -280.9370
  36   2.0000     -10.324186      -280.9354
  37   2.0000     -10.320214      -280.8273
  38   2.0000     -10.318333      -280.7761
  39   2.0000     -10.316482      -280.7257
  40   2.0000     -10.315925      -280.7106
  41   2.0000     -10.310029      -280.5502
  42   2.0000     -10.309766      -280.5430
  43   2.0000     -10.308035      -280.4959
  44   2.0000     -10.306410      -280.4517
  45   2.0000     -10.299502      -280.2637
  46   2.0000     -10.298911      -280.2476
  47   2.0000     -10.298755      -280.2434
  48   2.0000     -10.298148      -280.2269
  49   2.0000     -10.297193      -280.2009
  50   2.0000     -10.294576      -280.1296
  51   2.0000     -10.294506      -280.1277
  52   2.0000     -10.293028      -280.0875
  53   2.0000     -10.291789      -280.0538
  54   2.0000     -10.291233      -280.0387
  55   2.0000     -10.287590      -279.9395
  56   2.0000     -10.286969      -279.9227
  57   2.0000     -10.279034      -279.7067
  58   2.0000     -10.277690      -279.6702
  59   2.0000     -10.274713      -279.5892
  60   2.0000      -8.078974      -219.8401
  61   2.0000      -8.077014      -219.7867
  62   2.0000      -8.072507      -219.6641
  63   2.0000      -8.067089      -219.5167
  64   2.0000      -8.066604      -219.5035
  65   2.0000      -8.061766      -219.3718
  66   2.0000      -8.049738      -219.0445
  67   2.0000      -8.036536      -218.6853
  68   2.0000      -6.048704      -164.5936
  69   2.0000      -6.046796      -164.5417
  70   2.0000      -6.044307      -164.4740
  71   2.0000      -6.042320      -164.4199
  72   2.0000      -6.041837      -164.4067
  73   2.0000      -6.040385      -164.3672
  74   2.0000      -6.038284      -164.3101
  75   2.0000      -6.037820      -164.2974
  76   2.0000      -6.036781      -164.2692
  77   2.0000      -6.035809      -164.2427
  78   2.0000      -6.034429      -164.2052
  79   2.0000      -6.032622      -164.1560
  80   2.0000      -6.032050      -164.1404
  81   2.0000      -6.031628      -164.1289
  82   2.0000      -6.028448      -164.0424
  83   2.0000      -6.027911      -164.0278
  84   2.0000      -6.027287      -164.0108
  85   2.0000      -6.022405      -163.8780
  86   2.0000      -6.019596      -163.8015
  87   2.0000      -6.015642      -163.6939
  88   2.0000      -6.010355      -163.5501
  89   2.0000      -6.006261      -163.4387
  90   2.0000      -6.002251      -163.3296
  91   2.0000      -5.997281      -163.1943
  92   2.0000      -1.312277       -35.7089
  93   2.0000      -1.307846       -35.5883
  94   2.0000      -1.239884       -33.7390
  95   2.0000      -1.231760       -33.5179
  96   2.0000      -1.164845       -31.6970
  97   2.0000      -1.162850       -31.6428
  98   2.0000      -1.132443       -30.8153
  99   2.0000      -1.129273       -30.7291
 100   2.0000      -1.129138       -30.7254
 101   2.0000      -1.126951       -30.6659
 102   2.0000      -1.098418       -29.8895
 103   2.0000      -1.094566       -29.7847
 104   2.0000      -1.010848       -27.5066
 105   2.0000      -1.008700       -27.4481
 106   2.0000      -1.004394       -27.3309
 107   2.0000      -1.001073       -27.2406
 108   2.0000      -0.995781       -27.0966
 109   2.0000      -0.974962       -26.5301
 110   2.0000      -0.936012       -25.4702
 111   2.0000      -0.925007       -25.1707
 112   2.0000      -0.923797       -25.1378
 113   2.0000      -0.914355       -24.8809
 114   2.0000      -0.908828       -24.7305
 115   2.0000      -0.899040       -24.4641
 116   2.0000      -0.893134       -24.3034
 117   2.0000      -0.887165       -24.1410
 118   2.0000      -0.875748       -23.8303
 119   2.0000      -0.863505       -23.4972
 120   2.0000      -0.855687       -23.2844
 121   2.0000      -0.853044       -23.2125
 122   2.0000      -0.851411       -23.1681
 123   2.0000      -0.850106       -23.1325
 124   2.0000      -0.828589       -22.5470
 125   2.0000      -0.827456       -22.5162
 126   2.0000      -0.824677       -22.4406
 127   2.0000      -0.804421       -21.8894
 128   2.0000      -0.796611       -21.6769
 129   2.0000      -0.785366       -21.3709
 130   2.0000      -0.767895       -20.8955
 131   2.0000      -0.766010       -20.8442
 132   2.0000      -0.762245       -20.7417
 133   2.0000      -0.750587       -20.4245
 134   2.0000      -0.742307       -20.1992
 135   2.0000      -0.730946       -19.8900
 136   2.0000      -0.730015       -19.8647
 137   2.0000      -0.721138       -19.6232
 138   2.0000      -0.711950       -19.3731
 139   2.0000      -0.706634       -19.2285
 140   2.0000      -0.692676       -18.8487
 141   2.0000      -0.677963       -18.4483
 142   2.0000      -0.666286       -18.1306
 143   2.0000      -0.660393       -17.9702
 144   2.0000      -0.657425       -17.8894
 145   2.0000      -0.651236       -17.7210
 146   2.0000      -0.647437       -17.6177
 147   2.0000      -0.643161       -17.5013
 148   2.0000      -0.640337       -17.4245
 149   2.0000      -0.637658       -17.3516
 150   2.0000      -0.629058       -17.1175
 151   2.0000      -0.627662       -17.0795
 152   2.0000      -0.622454       -16.9378
 153   2.0000      -0.621472       -16.9111
 154   2.0000      -0.619749       -16.8642
 155   2.0000      -0.616207       -16.7678
 156   2.0000      -0.613815       -16.7027
 157   2.0000      -0.605010       -16.4632
 158   2.0000      -0.594942       -16.1892
 159   2.0000      -0.594362       -16.1734
 160   2.0000      -0.591635       -16.0992
 161   2.0000      -0.590276       -16.0622
 162   2.0000      -0.584808       -15.9134
 163   2.0000      -0.579649       -15.7731
 164   2.0000      -0.576998       -15.7009
 165   2.0000      -0.570063       -15.5122
 166   2.0000      -0.568428       -15.4677
 167   2.0000      -0.567064       -15.4306
 168   2.0000      -0.560932       -15.2637
 169   2.0000      -0.556482       -15.1426
 170   2.0000      -0.550944       -14.9919
 171   2.0000      -0.546855       -14.8807
 172   2.0000      -0.542500       -14.7622
 173   2.0000      -0.540521       -14.7083
 174   2.0000      -0.539537       -14.6815
 175   2.0000      -0.537212       -14.6183
 176   2.0000      -0.534507       -14.5447
 177   2.0000      -0.529040       -14.3959
 178   2.0000      -0.524460       -14.2713
 179   2.0000      -0.522530       -14.2188
 180   2.0000      -0.517783       -14.0896
 181   2.0000      -0.515430       -14.0256
 182   2.0000      -0.514274       -13.9941
 183   2.0000      -0.509265       -13.8578
 184   2.0000      -0.505233       -13.7481
 185   2.0000      -0.500403       -13.6167
 186   2.0000      -0.500039       -13.6067
 187   2.0000      -0.499533       -13.5930
 188   2.0000      -0.497568       -13.5395
 189   2.0000      -0.495056       -13.4712
 190   2.0000      -0.493593       -13.4314
 191   2.0000      -0.492682       -13.4066
 192   2.0000      -0.491524       -13.3751
 193   2.0000      -0.484215       -13.1762
 194   2.0000      -0.476571       -12.9681
 195   2.0000      -0.474729       -12.9180
 196   2.0000      -0.470322       -12.7981
 197   2.0000      -0.466146       -12.6845
 198   2.0000      -0.464461       -12.6386
 199   2.0000      -0.462445       -12.5838
 200   2.0000      -0.457785       -12.4570
 201   2.0000      -0.454185       -12.3590
 202   2.0000      -0.451146       -12.2763
 203   2.0000      -0.447644       -12.1810
 204   2.0000      -0.444486       -12.0951
 205   2.0000      -0.439870       -11.9695
 206   2.0000      -0.438963       -11.9448
 207   2.0000      -0.435601       -11.8533
 208   2.0000      -0.434835       -11.8324
 209   2.0000      -0.429848       -11.6968
 210   2.0000      -0.428108       -11.6494
 211   2.0000      -0.427226       -11.6254
 212   2.0000      -0.422020       -11.4838
 213   2.0000      -0.413734       -11.2583
 214   2.0000      -0.399302       -10.8656
 215   2.0000      -0.395823       -10.7709
 216   2.0000      -0.393778       -10.7152
 217   2.0000      -0.390274       -10.6199
 218   2.0000      -0.389225       -10.5913
 219   2.0000      -0.383674       -10.4403
 220   2.0000      -0.380025       -10.3410
 221   2.0000      -0.377298       -10.2668
 222   2.0000      -0.376158       -10.2358
 223   2.0000      -0.374687       -10.1958
 224   2.0000      -0.372598       -10.1389
 225   2.0000      -0.368033       -10.0147
 226   2.0000      -0.364778        -9.9261
 227   2.0000      -0.357382        -9.7248
 228   2.0000      -0.352328        -9.5873
 229   2.0000      -0.349005        -9.4969
 230   2.0000      -0.344868        -9.3843
 231   2.0000      -0.343986        -9.3603
 232   2.0000      -0.334463        -9.1012
 233   2.0000      -0.325211        -8.8495
 234   2.0000      -0.321578        -8.7506
 235   2.0000      -0.309729        -8.4282
 236   2.0000      -0.306413        -8.3379
 237   2.0000      -0.300577        -8.1791
 238   2.0000      -0.285299        -7.7634
 239   2.0000      -0.260885        -7.0991
 240   2.0000      -0.251476        -6.8430
 241   2.0000      -0.210239        -5.7209
 242   0.0000      -0.081917        -2.2291
 243   0.0000      -0.066619        -1.8128
 244   0.0000      -0.052494        -1.4284
 245   0.0000      -0.046329        -1.2607
 246   0.0000      -0.044171        -1.2019

MULLIKEN ATOMIC CHARGES
-----------------------
   0 C :   -0.124920
   1 S :    0.121840
   2 C :   -0.133406
   3 C :   -0.061616
   4 C :    0.212043
   5 O :   -0.190471
   6 C :    0.200884
   7 O :   -0.115619
   8 C :    0.004133
   9 O :   -0.120163
  10 S :    0.109344
  11 C :   -0.038475
  12 C :    0.035491
  13 N :   -0.006409
  14 C :   -0.103355
  15 S :    0.138290
  16 C :   -0.012663
  17 N :    0.290753
  18 O :   -0.301489
  19 O :   -0.257219
  20 C :    0.054203
  21 C :    0.121180
  22 C :   -0.046372
  23 C :   -0.012724
  24 C :   -0.000815
  25 C :   -0.022192
  26 C :    0.036051
  27 C :    0.027785
  28 C :   -0.043449
  29 S :    0.074687
  30 C :   -0.043779
  31 C :    0.028028
  32 C :    0.038565
  33 C :   -0.037385
  34 S :    0.043133
  35 C :    0.020109
  36 N :   -0.019830
  37 C :   -0.119651
  38 S :    0.139643
  39 C :   -0.000127
  40 N :    0.280543
  41 O :   -0.259894
  42 O :   -0.275601
  43 C :   -0.001585
  44 C :    0.132196
  45 C :   -0.026158
  46 C :    0.004172
  47 C :   -0.139935
  48 S :    0.136239
  49 C :   -0.172397
  50 C :   -0.001331
  51 C :    0.164020
  52 O :   -0.191077
  53 C :    0.255565
  54 O :   -0.150883
  55 C :   -0.001358
  56 O :   -0.159938
  57 S :    0.129103
  58 C :    0.041107
  59 C :   -0.031833
  60 H :    0.032651
  61 H :    0.023354
  62 H :    0.019323
  63 H :    0.142723
  64 H :    0.015560
  65 H :   -0.043967
  66 H :    0.033633
  67 H :   -0.026002
  68 H :   -0.014941
  69 H :   -0.013795
  70 H :   -0.011928
  71 H :   -0.009447
  72 H :    0.027839
  73 H :    0.147219
  74 H :    0.010188
  75 H :   -0.003918
  76 H :   -0.011633
  77 H :   -0.007252
  78 H :    0.040051
  79 H :    0.035352
Sum of atomic charges:   -0.0000000

LOEWDIN ATOMIC CHARGES
----------------------
   0 C :   -0.203886
   1 S :    0.445820
   2 C :   -0.177724
   3 C :   -0.236781
   4 C :   -0.005882
   5 O :   -0.020547
   6 C :    0.046509
   7 O :   -0.093946
   8 C :   -0.107134
   9 O :   -0.096711
  10 S :    0.383254
  11 C :   -0.111521
  12 C :    0.022744
  13 N :    0.048048
  14 C :   -0.096505
  15 S :    0.473209
  16 C :   -0.222089
  17 N :    0.284306
  18 O :   -0.248100
  19 O :   -0.224327
  20 C :    0.027117
  21 C :   -0.094709
  22 C :   -0.047157
  23 C :   -0.017592
  24 C :   -0.064515
  25 C :   -0.136900
  26 C :   -0.036656
  27 C :   -0.028338
  28 C :   -0.183866
  29 S :    0.393495
  30 C :   -0.173649
  31 C :   -0.036521
  32 C :   -0.031253
  33 C :   -0.178020
  34 S :    0.347110
  35 C :   -0.019244
  36 N :    0.056289
  37 C :   -0.090037
  38 S :    0.449005
  39 C :   -0.219336
  40 N :    0.274551
  41 O :   -0.224907
  42 O :   -0.242068
  43 C :    0.007050
  44 C :   -0.111851
  45 C :   -0.018819
  46 C :   -0.062540
  47 C :   -0.185633
  48 S :    0.460760
  49 C :   -0.183086
  50 C :   -0.214551
  51 C :   -0.005318
  52 O :   -0.006213
  53 C :    0.063056
  54 O :   -0.125141
  55 C :   -0.111781
  56 O :   -0.126238
  57 S :    0.411791
  58 C :   -0.048553
  59 C :   -0.033044
  60 H :    0.034400
  61 H :    0.014989
  62 H :    0.027134
  63 H :    0.099632
  64 H :    0.040130
  65 H :    0.015413
  66 H :    0.026121
  67 H :    0.027962
  68 H :    0.032321
  69 H :    0.031304
  70 H :    0.033505
  71 H :    0.034387
  72 H :    0.029436
  73 H :    0.085328
  74 H :    0.045807
  75 H :    0.027367
  76 H :    0.025552
  77 H :    0.031111
  78 H :    0.014541
  79 H :    0.032136

  Mayer bond orders larger than 0.100000
B(  0-C ,  1-S ) :   1.1301 B(  0-C ,  4-C ) :   1.5917 B(  0-C , 60-H ) :   0.9693
B(  1-S ,  2-C ) :   1.1393 B(  2-C ,  3-C ) :   1.5505 B(  2-C , 11-C ) :   1.1832
B(  3-C ,  4-C ) :   1.2336 B(  3-C , 10-S ) :   0.9645 B(  4-C ,  5-O ) :   1.0478
B(  5-O ,  6-C ) :   1.1001 B(  6-C ,  7-O ) :   2.2380 B(  6-C ,  8-C ) :   0.7985
B(  8-C ,  9-O ) :   2.1644 B(  8-C , 10-S ) :   1.0491 B(  9-O , 10-S ) :   0.1393
B( 11-C , 12-C ) :   1.6891 B( 11-C , 61-H ) :   0.9386 B( 12-C , 13-N ) :   1.1530
B( 12-C , 62-H ) :   0.9621 B( 13-N , 14-C ) :   1.2243 B( 13-N , 63-H ) :   0.9081
B( 14-C , 15-S ) :   1.1416 B( 14-C , 21-C ) :   1.3258 B( 15-S , 16-C ) :   1.0558
B( 16-C , 17-N ) :   1.0358 B( 16-C , 20-C ) :   1.4201 B( 17-N , 18-O ) :   1.4210
B( 17-N , 19-O ) :   1.5164 B( 18-O , 19-O ) :   0.2162 B( 20-C , 21-C ) :   1.2952
B( 20-C , 64-H ) :   0.9828 B( 21-C , 22-C ) :   1.0531 B( 22-C , 23-C ) :   1.6917
B( 22-C , 65-H ) :   0.9705 B( 23-C , 24-C ) :   1.1387 B( 23-C , 66-H ) :   0.9610
B( 24-C , 25-C ) :   1.5668 B( 24-C , 67-H ) :   0.9859 B( 25-C , 26-C ) :   1.1319
B( 25-C , 29-S ) :   1.0435 B( 26-C , 27-C ) :   1.5981 B( 26-C , 68-H ) :   0.9987
B( 27-C , 28-C ) :   1.1821 B( 27-C , 69-H ) :   0.9940 B( 28-C , 29-S ) :   1.0452
B( 28-C , 30-C ) :   1.5192 B( 30-C , 31-C ) :   1.1850 B( 30-C , 34-S ) :   1.0424
B( 31-C , 32-C ) :   1.6140 B( 31-C , 70-H ) :   0.9919 B( 32-C , 33-C ) :   1.1483
B( 32-C , 71-H ) :   0.9947 B( 33-C , 34-S ) :   1.0136 B( 33-C , 35-C ) :   1.6146
B( 35-C , 36-N ) :   1.1225 B( 35-C , 72-H ) :   0.9579 B( 36-N , 37-C ) :   1.2690
B( 36-N , 73-H ) :   0.9053 B( 37-C , 38-S ) :   1.1349 B( 37-C , 44-C ) :   1.3145
B( 38-S , 39-C ) :   1.0532 B( 39-C , 40-N ) :   0.9882 B( 39-C , 43-C ) :   1.4766
B( 40-N , 41-O ) :   1.5238 B( 40-N , 42-O ) :   1.4992 B( 41-O , 42-O ) :   0.2512
B( 43-C , 44-C ) :   1.2253 B( 43-C , 74-H ) :   1.0074 B( 44-C , 45-C ) :   1.1127
B( 45-C , 46-C ) :   1.6445 B( 45-C , 75-H ) :   0.9621 B( 46-C , 47-C ) :   1.1770
B( 46-C , 76-H ) :   0.9500 B( 47-C , 48-S ) :   1.1097 B( 47-C , 49-C ) :   0.1054
B( 47-C , 51-C ) :   1.5071 B( 48-S , 49-C ) :   1.1298 B( 49-C , 50-C ) :   1.5553
B( 49-C , 58-C ) :   1.1177 B( 50-C , 51-C ) :   1.2507 B( 50-C , 57-S ) :   0.9682
B( 51-C , 52-O ) :   1.0530 B( 52-O , 53-C ) :   1.1293 B( 53-C , 54-O ) :   2.1164
B( 53-C , 55-C ) :   0.8034 B( 55-C , 56-O ) :   2.0965 B( 55-C , 57-S ) :   1.0518
B( 56-O , 57-S ) :   0.1240 B( 58-C , 59-C ) :   1.9223 B( 58-C , 77-H ) :   0.9479
B( 59-C , 78-H ) :   0.9523 B( 59-C , 79-H ) :   0.9461

-----------------------------------------------------------------------------
         ABSORPTION SPECTRUM VIA TRANSITION ELECTRIC DIPOLE MOMENTS
-----------------------------------------------------------------------------
State   Energy  Wavelength   fosc         T2         TX        TY        TZ
        (cm-1)    (nm)                  (au**2)     (au)      (au)      (au)
-----------------------------------------------------------------------------
   0   13898.0    719.5   0.987923331  23.40172  -3.10694   3.68720   0.39143
   1   16703.0    598.7   0.024362316   0.48017   0.64684  -0.18724   0.16343
   2   20190.6    495.3   0.460015270   7.50064   0.96110  -2.27133  -1.19080
   3   22511.7    444.2   0.043765904   0.64004   0.68677  -0.35576  -0.20448
   4   23122.3    432.5   0.097835124   1.39296   1.11508  -0.38477  -0.03883
   5   23566.7    424.3   1.254877004  17.52985   1.20800   3.19161   2.42574
   6   24686.3    405.1   0.349553842   4.66159   1.87416  -1.07189   0.01355
   7   25809.7    387.5   0.095759962   1.22145  -0.93581   0.51114  -0.29058
   8   26002.7    384.6   0.059652806   0.75524  -0.61203   0.57007   0.23599
   9   26467.2    377.8   0.073612121   0.91562   0.84973  -0.36964   0.23862
  10   28648.6    349.1   0.171064911   1.96577  -0.25289   1.19096   0.69530
  11   28861.4    346.5   0.085442751   0.97462   0.72220   0.32509   0.58937
  12   29782.2    335.8   0.300870382   3.32582   0.74204  -1.23975  -1.11276
  13   30179.5    331.4   0.100106331   1.09201   0.23746   0.73999   0.69860
  14   30361.9    329.4   0.050595480   0.54860   0.19682   0.49372   0.51586
  15   30663.2    326.1   0.107140834   1.15031  -0.38240   0.83428   0.55502
  16   31011.2    322.5   0.094328815   1.00138   0.96120  -0.27812   0.01115
  17   31660.6    315.8   0.031595410   0.32853  -0.25293  -0.17837  -0.48243
  18   32085.7    311.7   0.184575795   1.89382   0.99794  -0.83038  -0.45652
  19   32465.2    308.0   0.076143328   0.77213  -0.18594  -0.41164  -0.75373
  20   32639.7    306.4   0.112384887   1.13354   0.91064  -0.42935   0.34630
  21   33208.0    301.1   0.030695440   0.30430   0.25848   0.22438   0.43260
  22   33436.7    299.1   0.022546127   0.22199   0.45080  -0.11072   0.08066
  23   34027.4    293.9   0.071445617   0.69123   0.80654  -0.11151  -0.16818
  24   34296.2    291.6   0.022842254   0.21926   0.35326  -0.06238   0.30096
  25   34611.3    288.9   0.028007866   0.26640   0.49269  -0.01840   0.15270
  26   34885.2    286.7   0.162058173   1.52934   0.47910  -1.04839  -0.44798
  27   35455.3    282.0   0.044725114   0.41528   0.17644   0.47083   0.40308
  28   35804.6    279.3   0.087137303   0.80120  -0.16341  -0.75864  -0.44605
  29   36391.0    274.8   0.120421612   1.08940   0.85982  -0.58560   0.08475
  30   36605.5    273.2   0.069706993   0.62691   0.68002  -0.34642   0.21089
  31   37099.1    269.5   0.004904781   0.04352   0.09599   0.02149   0.18398
  32   37243.6    268.5   0.303506455   2.68282  -1.21077  -0.53986  -0.96198
  33   37539.3    266.4   0.006742717   0.05913  -0.04973   0.15652   0.17934
  34   38470.4    259.9   0.030106711   0.25764  -0.30433   0.38081   0.14145
  35   38476.6    259.9   0.152979263   1.30892  -0.31838  -0.87603  -0.66342
  36   38949.9    256.7   0.046072284   0.38941   0.39868  -0.47903   0.03150
  37   39081.9    255.9   0.046413053   0.39097   0.44081   0.03841   0.44179
  38   39319.6    254.3   0.188294734   1.57654  -0.77548  -0.49109  -0.85673
  39   39547.8    252.9   0.009219805   0.07675  -0.16734  -0.12371  -0.18288
  40   39712.4    251.8   0.014272252   0.11832   0.01837  -0.15290  -0.30757
  41   39836.3    251.0   0.010498423   0.08676   0.17797  -0.06582  -0.22529
  42   39979.9    250.1   0.003537887   0.02913   0.10428   0.12551   0.05006
  43   40243.8    248.5   0.018971158   0.15519   0.09799   0.32934   0.19268

FINAL SINGLE POINT ENERGY     -5612.624795008453

DIPOLE MOMENT
-------------
                                X             Y             Z
Electronic contribution:      8.90942      19.37864      13.65949
Nuclear contribution   :    -13.09852     -19.99318     -15.39936
                        -----------------------------------------
Total Dipole Moment    :     -4.18910      -0.61454      -1.73987
                        -----------------------------------------
Magnitude (a.u.)       :      4.57749
Magnitude (Debye)      :     11.63505

Rotational constants in cm-1:     0.001889     0.000414     0.000346
Rotational constants in MHz :    56.643491    12.398492    10.358199

                             ****ORCA TERMINATED NORMALLY****
TOTAL RUN TIME: 0 days 0 hours 6 minutes 14 seconds 338 msec
