                         Program Version 4.2.0 -  RELEASE  -
|  1> # ORCA input file
|  2> # SCF done       -195.281651102180          0.000489233307
|  3> ! CAM-B3LYP def2-SVP def2/J RIJCOSX Grid4 TightSCF
|  4> %maxcore 5000
|  5> %tddft
|  6>     Mode sTDDFT
|  7>     Ethresh 5.0
|  8>     maxcore 5000
|  9> end
| 10>
| 11> %pal
| 12>   nprocs 6
| 13>   end
| 14> * xyz 0 1
| 15>    C        4.64429       -13.20261         9.24624
| 16>    C        5.78856       -13.48098        10.21123
| 17>    O        5.91672       -13.06774        11.32307
| 18>    O        6.67955       -14.29999         9.62352
| 19>    C        6.33311       -14.55415         8.26774
| 20>    C        4.81361       -14.30694         8.20594
| 21>    C        4.27396       -14.01683         6.81074
| 22>    C        5.06618       -12.93395         6.09097
| 23>    C        6.55275       -13.25287         6.01846
| 24>    C        7.19392       -13.64298         7.35938
| 25>    O        8.37609       -14.34450         6.99313
| 26>    C        8.27800       -14.86471         5.75810
| 27>    O        9.12226       -15.54868         5.26803
| 28>    C        6.94316       -14.43923         5.12648
| 29>    C        7.07081       -14.10491         3.68302
| 30>    C        6.41151       -14.74786         2.71296
| 31>    C        6.51901       -14.44492         1.32212
| 32>    O        7.33702       -13.46210         0.87065
| 33>    C        7.23072       -13.41916        -0.48541
| 34>    C        6.30047       -14.36964        -0.90360
| 35>    C        5.86132       -15.04746         0.25591
| 36>    O        4.99616       -16.06906         0.34325
| 37>    O        5.84149       -14.60269        -2.15066
| 38>    C        8.03305       -12.55928        -1.26735
| 39>    C        8.92151       -11.65989        -0.76835
| 40>    C        9.75378       -10.87137        -1.59623
| 41>    C       10.65046        -9.97408        -1.12566
| 42>    N       11.47227        -9.25995        -1.95415
| 43>    C       12.35375        -8.31780        -1.58589
| 44>    S       12.40395        -7.75604         0.05975
| 45>    C       13.60064        -6.57400        -0.39267
| 46>    N       14.08531        -5.73716         0.61285
| 47>    O       14.92334        -4.90614         0.30876
| 48>    O       13.62421        -5.90440         1.73167
| 49>    C       13.93331        -6.61712        -1.71554
| 50>    C       13.25601        -7.62922        -2.43238
| 51>    C       13.54072        -7.87037        -3.80316
| 52>    C       13.22751        -8.95598        -4.57241
| 53>    C       13.60817        -9.06856        -5.91568
| 54>    C       13.33163       -10.15666        -6.71170
| 55>    C       13.74144       -10.36218        -8.04642
| 56>    C       13.33928       -11.55316        -8.57890
| 57>    C       12.57552       -12.34454        -7.69706
| 58>    S       12.38773       -11.53844        -6.16450
| 59>    C       12.02382       -13.59476        -7.94702
| 60>    C       12.16793       -14.37733        -9.10613
| 61>    C       11.51199       -15.57642        -9.04370
| 62>    C       10.80991       -15.78725        -7.84150
| 63>    S       11.01876       -14.41933        -6.77508
| 64>    C       10.04521       -16.90065        -7.52276
| 65>    C        9.31941       -17.02333        -6.35172
| 66>    C        8.54864       -18.12625        -6.00908
| 67>    C        7.72376       -18.26332        -4.84892
| 68>    C        7.44344       -17.29496        -3.90290
| 69>    C        6.58205       -17.47282        -2.80903
| 70>    N        5.88174       -17.52031        -1.89703
| 71>    C        7.91025       -15.97222        -3.92096
| 72>    N        8.19691       -14.85843        -3.84418
| 73>    C        7.15943       -19.61122        -4.85128
| 74>    C        7.59511       -20.27786        -6.02148
| 75>    C        8.47120       -19.36911        -6.79656
| 76>    O        9.00587       -19.62515        -7.85835
| 77>    C        7.22584       -21.56413        -6.32110
| 78>    C        6.38552       -22.22877        -5.41865
| 79>    C        5.96105       -21.55733        -4.24990
| 80>    C        6.33549       -20.25227        -3.94798
| 81>    S        4.93244       -22.56194        -3.27309
| 82>    C        5.08400       -23.85266        -4.43511
| 83>    C        5.86446       -23.54924        -5.49915
| 84>   Br        4.19553       -25.47772        -4.13457
| 85>    H        4.78468       -12.20677         8.82312
| 86>    H        3.68951       -13.22361         9.76650
| 87>    H        6.59849       -15.59500         8.05853
| 88>    H        4.32060       -15.20840         8.58716
| 89>    H        3.23007       -13.71084         6.89394
| 90>    H        4.29650       -14.93821         6.22654
| 91>    H        4.93676       -11.97818         6.60236
| 92>    H        4.68532       -12.81689         5.07515
| 93>    H        7.08063       -12.36896         5.64152
| 94>    H        7.50732       -12.77376         7.94624
| 95>    H        6.24866       -15.27609         5.25149
| 96>    H        7.74321       -13.29762         3.43154
| 97>    H        5.73711       -15.56320         2.93237
| 98>    H        4.98436       -16.54512        -0.51081
| 99>    H        6.40088       -14.15067        -2.79813
|100>    H        7.93898       -12.67131        -2.33952
|101>    H        9.01186       -11.54834         0.30194
|102>    H        9.66900       -11.01943        -2.66602
|103>    H       10.77280        -9.78909        -0.06923
|104>    H       11.37247        -9.43594        -2.94774
|105>    H       14.66234        -5.95550        -2.14767
|106>    H       14.13308        -7.09534        -4.27322
|107>    H       12.72048        -9.81716        -4.15842
|108>    H       14.16478        -8.25652        -6.36433
|109>    H       14.32816        -9.62964        -8.57188
|110>    H       13.56635       -11.87414        -9.57913
|111>    H       12.75062       -14.05266        -9.94924
|112>    H       11.50961       -16.31060        -9.82933
|113>    H       10.01169       -17.70332        -8.24520
|114>    H        9.35813       -16.19159        -5.65791
|115>    H        7.57148       -22.04590        -7.22220
|116>    H        5.98716       -19.78537        -3.04187
|117>    H        6.06534       -24.22688        -6.30880
|118> *
|119>
|120>                          ****END OF INPUT****

CARTESIAN COORDINATES (ANGSTROEM)
---------------------------------
  C      4.644290  -13.202610    9.246240
  C      5.788560  -13.480980   10.211230
  O      5.916720  -13.067740   11.323070
  O      6.679550  -14.299990    9.623520
  C      6.333110  -14.554150    8.267740
  C      4.813610  -14.306940    8.205940
  C      4.273960  -14.016830    6.810740
  C      5.066180  -12.933950    6.090970
  C      6.552750  -13.252870    6.018460
  C      7.193920  -13.642980    7.359380
  O      8.376090  -14.344500    6.993130
  C      8.278000  -14.864710    5.758100
  O      9.122260  -15.548680    5.268030
  C      6.943160  -14.439230    5.126480
  C      7.070810  -14.104910    3.683020
  C      6.411510  -14.747860    2.712960
  C      6.519010  -14.444920    1.322120
  O      7.337020  -13.462100    0.870650
  C      7.230720  -13.419160   -0.485410
  C      6.300470  -14.369640   -0.903600
  C      5.861320  -15.047460    0.255910
  O      4.996160  -16.069060    0.343250
  O      5.841490  -14.602690   -2.150660
  C      8.033050  -12.559280   -1.267350
  C      8.921510  -11.659890   -0.768350
  C      9.753780  -10.871370   -1.596230
  C     10.650460   -9.974080   -1.125660
  N     11.472270   -9.259950   -1.954150
  C     12.353750   -8.317800   -1.585890
  S     12.403950   -7.756040    0.059750
  C     13.600640   -6.574000   -0.392670
  N     14.085310   -5.737160    0.612850
  O     14.923340   -4.906140    0.308760
  O     13.624210   -5.904400    1.731670
  C     13.933310   -6.617120   -1.715540
  C     13.256010   -7.629220   -2.432380
  C     13.540720   -7.870370   -3.803160
  C     13.227510   -8.955980   -4.572410
  C     13.608170   -9.068560   -5.915680
  C     13.331630  -10.156660   -6.711700
  C     13.741440  -10.362180   -8.046420
  C     13.339280  -11.553160   -8.578900
  C     12.575520  -12.344540   -7.697060
  S     12.387730  -11.538440   -6.164500
  C     12.023820  -13.594760   -7.947020
  C     12.167930  -14.377330   -9.106130
  C     11.511990  -15.576420   -9.043700
  C     10.809910  -15.787250   -7.841500
  S     11.018760  -14.419330   -6.775080
  C     10.045210  -16.900650   -7.522760
  C      9.319410  -17.023330   -6.351720
  C      8.548640  -18.126250   -6.009080
  C      7.723760  -18.263320   -4.848920
  C      7.443440  -17.294960   -3.902900
  C      6.582050  -17.472820   -2.809030
  N      5.881740  -17.520310   -1.897030
  C      7.910250  -15.972220   -3.920960
  N      8.196910  -14.858430   -3.844180
  C      7.159430  -19.611220   -4.851280
  C      7.595110  -20.277860   -6.021480
  C      8.471200  -19.369110   -6.796560
  O      9.005870  -19.625150   -7.858350
  C      7.225840  -21.564130   -6.321100
  C      6.385520  -22.228770   -5.418650
  C      5.961050  -21.557330   -4.249900
  C      6.335490  -20.252270   -3.947980
  S      4.932440  -22.561940   -3.273090
  C      5.084000  -23.852660   -4.435110
  C      5.864460  -23.549240   -5.499150
  Br     4.195530  -25.477720   -4.134570
  H      4.784680  -12.206770    8.823120
  H      3.689510  -13.223610    9.766500
  H      6.598490  -15.595000    8.058530
  H      4.320600  -15.208400    8.587160
  H      3.230070  -13.710840    6.893940
  H      4.296500  -14.938210    6.226540
  H      4.936760  -11.978180    6.602360
  H      4.685320  -12.816890    5.075150
  H      7.080630  -12.368960    5.641520
  H      7.507320  -12.773760    7.946240
  H      6.248660  -15.276090    5.251490
  H      7.743210  -13.297620    3.431540
  H      5.737110  -15.563200    2.932370
  H      4.984360  -16.545120   -0.510810
  H      6.400880  -14.150670   -2.798130
  H      7.938980  -12.671310   -2.339520
  H      9.011860  -11.548340    0.301940
  H      9.669000  -11.019430   -2.666020
  H     10.772800   -9.789090   -0.069230
  H     11.372470   -9.435940   -2.947740
  H     14.662340   -5.955500   -2.147670
  H     14.133080   -7.095340   -4.273220
  H     12.720480   -9.817160   -4.158420
  H     14.164780   -8.256520   -6.364330
  H     14.328160   -9.629640   -8.571880
  H     13.566350  -11.874140   -9.579130
  H     12.750620  -14.052660   -9.949240
  H     11.509610  -16.310600   -9.829330
  H     10.011690  -17.703320   -8.245200
  H      9.358130  -16.191590   -5.657910
  H      7.571480  -22.045900   -7.222200
  H      5.987160  -19.785370   -3.041870
  H      6.065340  -24.226880   -6.308800

 Total Charge           Charge          ....    0
 Multiplicity           Mult            ....    1
 Number of Electrons    NEL             ....  546
 Basis Dimension        Dim             .... 1179

ORBITAL ENERGIES
----------------

  NO   OCC          E(Eh)            E(eV)
   0   2.0000    -482.880514    -13139.8468
   1   2.0000     -88.988753     -2421.5071
   2   2.0000     -88.977886     -2421.2114
   3   2.0000     -88.969578     -2420.9853
   4   2.0000     -88.968834     -2420.9650
   5   2.0000     -62.558245     -1702.2964
   6   2.0000     -56.392189     -1534.5095
   7   2.0000     -56.389489     -1534.4360
   8   2.0000     -56.389446     -1534.4348
   9   2.0000     -19.269439      -524.3481
  10   2.0000     -19.251597      -523.8626
  11   2.0000     -19.250553      -523.8342
  12   2.0000     -19.242739      -523.6216
  13   2.0000     -19.236638      -523.4555
  14   2.0000     -19.235498      -523.4245
  15   2.0000     -19.218010      -522.9486
  16   2.0000     -19.204090      -522.5699
  17   2.0000     -19.189829      -522.1818
  18   2.0000     -19.188715      -522.1515
  19   2.0000     -14.648056      -398.5939
  20   2.0000     -14.497332      -394.4924
  21   2.0000     -14.418454      -392.3461
  22   2.0000     -14.414874      -392.2487
  23   2.0000     -10.388564      -282.6872
  24   2.0000     -10.384590      -282.5791
  25   2.0000     -10.383257      -282.5428
  26   2.0000     -10.354202      -281.7522
  27   2.0000     -10.352568      -281.7077
  28   2.0000     -10.349892      -281.6349
  29   2.0000     -10.343907      -281.4720
  30   2.0000     -10.335053      -281.2311
  31   2.0000     -10.334062      -281.2041
  32   2.0000     -10.333893      -281.1995
  33   2.0000     -10.332826      -281.1705
  34   2.0000     -10.331255      -281.1277
  35   2.0000     -10.327602      -281.0283
  36   2.0000     -10.327342      -281.0213
  37   2.0000     -10.326456      -280.9971
  38   2.0000     -10.325187      -280.9626
  39   2.0000     -10.324169      -280.9349
  40   2.0000     -10.322994      -280.9030
  41   2.0000     -10.322607      -280.8924
  42   2.0000     -10.321203      -280.8542
  43   2.0000     -10.318283      -280.7748
  44   2.0000     -10.317650      -280.7575
  45   2.0000     -10.317230      -280.7461
  46   2.0000     -10.313270      -280.6384
  47   2.0000     -10.311945      -280.6023
  48   2.0000     -10.311256      -280.5835
  49   2.0000     -10.310277      -280.5569
  50   2.0000     -10.309425      -280.5337
  51   2.0000     -10.308812      -280.5170
  52   2.0000     -10.306262      -280.4477
  53   2.0000     -10.303319      -280.3676
  54   2.0000     -10.299611      -280.2667
  55   2.0000     -10.298918      -280.2478
  56   2.0000     -10.298241      -280.2294
  57   2.0000     -10.295593      -280.1573
  58   2.0000     -10.292156      -280.0638
  59   2.0000     -10.290751      -280.0256
  60   2.0000     -10.289607      -279.9944
  61   2.0000     -10.287617      -279.9403
  62   2.0000     -10.286331      -279.9053
  63   2.0000     -10.284930      -279.8672
  64   2.0000     -10.282260      -279.7945
  65   2.0000     -10.282191      -279.7926
  66   2.0000     -10.279793      -279.7274
  67   2.0000     -10.278374      -279.6888
  68   2.0000     -10.277313      -279.6599
  69   2.0000     -10.276479      -279.6372
  70   2.0000     -10.275541      -279.6117
  71   2.0000     -10.268818      -279.4287
  72   2.0000     -10.268462      -279.4190
  73   2.0000     -10.264328      -279.3066
  74   2.0000      -8.787682      -239.1250
  75   2.0000      -8.084251      -219.9836
  76   2.0000      -8.074017      -219.7052
  77   2.0000      -8.065417      -219.4712
  78   2.0000      -8.064672      -219.4509
  79   2.0000      -6.623962      -180.2472
  80   2.0000      -6.609400      -179.8509
  81   2.0000      -6.609262      -179.8472
  82   2.0000      -6.054081      -164.7399
  83   2.0000      -6.049555      -164.6168
  84   2.0000      -6.045416      -164.5041
  85   2.0000      -6.043594      -164.4546
  86   2.0000      -6.039640      -164.3469
  87   2.0000      -6.035194      -164.2260
  88   2.0000      -6.035114      -164.2238
  89   2.0000      -6.034179      -164.1984
  90   2.0000      -6.030845      -164.1076
  91   2.0000      -6.030197      -164.0900
  92   2.0000      -6.026699      -163.9948
  93   2.0000      -6.026063      -163.9775
  94   2.0000      -2.739822       -74.5544
  95   2.0000      -2.735774       -74.4442
  96   2.0000      -2.735602       -74.4395
  97   2.0000      -2.724066       -74.1256
  98   2.0000      -2.724052       -74.1252
  99   2.0000      -1.316307       -35.8185
 100   2.0000      -1.191686       -32.4274
 101   2.0000      -1.188531       -32.3416
 102   2.0000      -1.183332       -32.2001
 103   2.0000      -1.137612       -30.9560
 104   2.0000      -1.135542       -30.8997
 105   2.0000      -1.117358       -30.4049
 106   2.0000      -1.111595       -30.2480
 107   2.0000      -1.101926       -29.9849
 108   2.0000      -1.100668       -29.9507
 109   2.0000      -1.095093       -29.7990
 110   2.0000      -1.022211       -27.8158
 111   2.0000      -1.018522       -27.7154
 112   2.0000      -1.010745       -27.5038
 113   2.0000      -1.008968       -27.4554
 114   2.0000      -0.998027       -27.1577
 115   2.0000      -0.996525       -27.1168
 116   2.0000      -0.982363       -26.7315
 117   2.0000      -0.945856       -25.7381
 118   2.0000      -0.944927       -25.7128
 119   2.0000      -0.936091       -25.4723
 120   2.0000      -0.920499       -25.0481
 121   2.0000      -0.914066       -24.8730
 122   2.0000      -0.908559       -24.7231
 123   2.0000      -0.902429       -24.5564
 124   2.0000      -0.901975       -24.5440
 125   2.0000      -0.888374       -24.1739
 126   2.0000      -0.879842       -23.9417
 127   2.0000      -0.878687       -23.9103
 128   2.0000      -0.875139       -23.8137
 129   2.0000      -0.870193       -23.6792
 130   2.0000      -0.867694       -23.6112
 131   2.0000      -0.858075       -23.3494
 132   2.0000      -0.855520       -23.2799
 133   2.0000      -0.845722       -23.0133
 134   2.0000      -0.843577       -22.9549
 135   2.0000      -0.834274       -22.7018
 136   2.0000      -0.831974       -22.6392
 137   2.0000      -0.822106       -22.3706
 138   2.0000      -0.806436       -21.9443
 139   2.0000      -0.800895       -21.7935
 140   2.0000      -0.788876       -21.4664
 141   2.0000      -0.775118       -21.0920
 142   2.0000      -0.758611       -20.6429
 143   2.0000      -0.751564       -20.4511
 144   2.0000      -0.744793       -20.2668
 145   2.0000      -0.733402       -19.9569
 146   2.0000      -0.731761       -19.9122
 147   2.0000      -0.720884       -19.6163
 148   2.0000      -0.715586       -19.4721
 149   2.0000      -0.704305       -19.1651
 150   2.0000      -0.699183       -19.0257
 151   2.0000      -0.689471       -18.7614
 152   2.0000      -0.686414       -18.6783
 153   2.0000      -0.684299       -18.6207
 154   2.0000      -0.678981       -18.4760
 155   2.0000      -0.670544       -18.2464
 156   2.0000      -0.667486       -18.1632
 157   2.0000      -0.657258       -17.8849
 158   2.0000      -0.656812       -17.8728
 159   2.0000      -0.653924       -17.7942
 160   2.0000      -0.649035       -17.6612
 161   2.0000      -0.644317       -17.5328
 162   2.0000      -0.641332       -17.4515
 163   2.0000      -0.639522       -17.4023
 164   2.0000      -0.634898       -17.2764
 165   2.0000      -0.629397       -17.1268
 166   2.0000      -0.626260       -17.0414
 167   2.0000      -0.622740       -16.9456
 168   2.0000      -0.620154       -16.8753
 169   2.0000      -0.618645       -16.8342
 170   2.0000      -0.616037       -16.7632
 171   2.0000      -0.603737       -16.4285
 172   2.0000      -0.601622       -16.3710
 173   2.0000      -0.595736       -16.2108
 174   2.0000      -0.592740       -16.1293
 175   2.0000      -0.590823       -16.0771
 176   2.0000      -0.588670       -16.0185
 177   2.0000      -0.585377       -15.9289
 178   2.0000      -0.581043       -15.8110
 179   2.0000      -0.573566       -15.6075
 180   2.0000      -0.566506       -15.4154
 181   2.0000      -0.564215       -15.3531
 182   2.0000      -0.558452       -15.1962
 183   2.0000      -0.551057       -14.9950
 184   2.0000      -0.549675       -14.9574
 185   2.0000      -0.544715       -14.8225
 186   2.0000      -0.543921       -14.8009
 187   2.0000      -0.543505       -14.7895
 188   2.0000      -0.538478       -14.6527
 189   2.0000      -0.537853       -14.6357
 190   2.0000      -0.533969       -14.5300
 191   2.0000      -0.531432       -14.4610
 192   2.0000      -0.528391       -14.3783
 193   2.0000      -0.528071       -14.3695
 194   2.0000      -0.525292       -14.2939
 195   2.0000      -0.522748       -14.2247
 196   2.0000      -0.522266       -14.2116
 197   2.0000      -0.519685       -14.1413
 198   2.0000      -0.518710       -14.1148
 199   2.0000      -0.517015       -14.0687
 200   2.0000      -0.510600       -13.8941
 201   2.0000      -0.509116       -13.8538
 202   2.0000      -0.504497       -13.7281
 203   2.0000      -0.503537       -13.7019
 204   2.0000      -0.501756       -13.6535
 205   2.0000      -0.498122       -13.5546
 206   2.0000      -0.496865       -13.5204
 207   2.0000      -0.493486       -13.4284
 208   2.0000      -0.491971       -13.3872
 209   2.0000      -0.488590       -13.2952
 210   2.0000      -0.487892       -13.2762
 211   2.0000      -0.486810       -13.2468
 212   2.0000      -0.485676       -13.2159
 213   2.0000      -0.484422       -13.1818
 214   2.0000      -0.482273       -13.1233
 215   2.0000      -0.479927       -13.0595
 216   2.0000      -0.477324       -12.9887
 217   2.0000      -0.470589       -12.8054
 218   2.0000      -0.468779       -12.7561
 219   2.0000      -0.466846       -12.7035
 220   2.0000      -0.462736       -12.5917
 221   2.0000      -0.459365       -12.4999
 222   2.0000      -0.457559       -12.4508
 223   2.0000      -0.457487       -12.4489
 224   2.0000      -0.453524       -12.3410
 225   2.0000      -0.452419       -12.3109
 226   2.0000      -0.450270       -12.2525
 227   2.0000      -0.448579       -12.2065
 228   2.0000      -0.446590       -12.1523
 229   2.0000      -0.445363       -12.1189
 230   2.0000      -0.444178       -12.0867
 231   2.0000      -0.441570       -12.0157
 232   2.0000      -0.439505       -11.9595
 233   2.0000      -0.439014       -11.9462
 234   2.0000      -0.435503       -11.8506
 235   2.0000      -0.432644       -11.7728
 236   2.0000      -0.431247       -11.7348
 237   2.0000      -0.430265       -11.7081
 238   2.0000      -0.426936       -11.6175
 239   2.0000      -0.423137       -11.5141
 240   2.0000      -0.421213       -11.4618
 241   2.0000      -0.419525       -11.4159
 242   2.0000      -0.417150       -11.3512
 243   2.0000      -0.410795       -11.1783
 244   2.0000      -0.408014       -11.1026
 245   2.0000      -0.401636       -10.9291
 246   2.0000      -0.395551       -10.7635
 247   2.0000      -0.393346       -10.7035
 248   2.0000      -0.386413       -10.5148
 249   2.0000      -0.384574       -10.4648
 250   2.0000      -0.383230       -10.4282
 251   2.0000      -0.379264       -10.3203
 252   2.0000      -0.378113       -10.2890
 253   2.0000      -0.374131       -10.1806
 254   2.0000      -0.370095       -10.0708
 255   2.0000      -0.365283        -9.9398
 256   2.0000      -0.365172        -9.9368
 257   2.0000      -0.362984        -9.8773
 258   2.0000      -0.356651        -9.7050
 259   2.0000      -0.349023        -9.4974
 260   2.0000      -0.345693        -9.4068
 261   2.0000      -0.342137        -9.3100
 262   2.0000      -0.334347        -9.0980
 263   2.0000      -0.333935        -9.0868
 264   2.0000      -0.326902        -8.8955
 265   2.0000      -0.324416        -8.8278
 266   2.0000      -0.308720        -8.4007
 267   2.0000      -0.306267        -8.3340
 268   2.0000      -0.289604        -7.8805
 269   2.0000      -0.284848        -7.7511
 270   2.0000      -0.269953        -7.3458
 271   2.0000      -0.234553        -6.3825
 272   2.0000      -0.218117        -5.9353
 273   0.0000      -0.119688        -3.2569
 274   0.0000      -0.070102        -1.9076
 275   0.0000      -0.059888        -1.6296
 276   0.0000      -0.049518        -1.3474
 277   0.0000      -0.022996        -0.6258

MULLIKEN ATOMIC CHARGES
-----------------------
   0 C :    0.027231
   1 C :    0.135406
   2 O :   -0.159542
   3 O :   -0.260556
   4 C :    0.153404
   5 C :   -0.134569
   6 C :    0.088737
   7 C :    0.106740
   8 C :   -0.076208
   9 C :    0.170233
  10 O :   -0.258798
  11 C :    0.190027
  12 O :   -0.145612
  13 C :   -0.099184
  14 C :    0.029988
  15 C :   -0.002431
  16 C :    0.053097
  17 O :   -0.229195
  18 C :    0.099820
  19 C :    0.087018
  20 C :    0.106136
  21 O :   -0.197380
  22 O :   -0.189041
  23 C :   -0.044737
  24 C :   -0.012150
  25 C :    0.021945
  26 C :    0.028530
  27 N :   -0.001563
  28 C :   -0.105197
  29 S :    0.156848
  30 C :   -0.003493
  31 N :    0.278374
  32 O :   -0.257048
  33 O :   -0.267120
  34 C :    0.011754
  35 C :    0.111828
  36 C :   -0.002828
  37 C :   -0.042870
  38 C :    0.018516
  39 C :   -0.044622
  40 C :    0.058023
  41 C :    0.013653
  42 C :   -0.016571
  43 S :    0.095266
  44 C :   -0.064529
  45 C :    0.047060
  46 C :    0.017418
  47 C :    0.008250
  48 S :    0.111643
  49 C :   -0.028492
  50 C :   -0.036598
  51 C :   -0.101798
  52 C :    0.341002
  53 C :   -0.385281
  54 C :   -0.130291
  55 N :    0.091591
  56 C :   -0.159537
  57 N :    0.072323
  58 C :    0.011105
  59 C :   -0.006553
  60 C :    0.139729
  61 O :   -0.165184
  62 C :   -0.077713
  63 C :    0.116840
  64 C :   -0.092978
  65 C :   -0.028758
  66 S :    0.179839
  67 C :   -0.123982
  68 C :    0.037628
  69 Br:    0.017412
  70 H :    0.040959
  71 H :    0.042829
  72 H :    0.019333
  73 H :    0.018858
  74 H :    0.010098
  75 H :    0.008168
  76 H :    0.002197
  77 H :    0.013363
  78 H :    0.010851
  79 H :    0.017091
  80 H :    0.026956
  81 H :   -0.003410
  82 H :   -0.002378
  83 H :    0.187337
  84 H :    0.191730
  85 H :   -0.011921
  86 H :   -0.003998
  87 H :   -0.008907
  88 H :    0.027531
  89 H :    0.136858
  90 H :    0.011404
  91 H :   -0.000336
  92 H :   -0.002577
  93 H :    0.001065
  94 H :    0.000379
  95 H :   -0.005126
  96 H :   -0.005342
  97 H :    0.000949
  98 H :    0.017226
  99 H :    0.009253
 100 H :   -0.015124
 101 H :   -0.012208
 102 H :   -0.005112
Sum of atomic charges:   -0.0000000

LOEWDIN ATOMIC CHARGES
----------------------
   0 C :   -0.058393
   1 C :    0.074311
   2 O :   -0.149091
   3 O :   -0.074969
   4 C :    0.066720
   5 C :   -0.040311
   6 C :   -0.027205
   7 C :   -0.026214
   8 C :   -0.032378
   9 C :    0.067289
  10 O :   -0.072338
  11 C :    0.076706
  12 O :   -0.140740
  13 C :   -0.062607
  14 C :   -0.021318
  15 C :   -0.029048
  16 C :   -0.000294
  17 O :   -0.004319
  18 C :   -0.022664
  19 C :   -0.002044
  20 C :   -0.003668
  21 O :   -0.058032
  22 O :   -0.041874
  23 C :   -0.023974
  24 C :   -0.045917
  25 C :   -0.036471
  26 C :   -0.018074
  27 N :    0.066585
  28 C :   -0.080229
  29 S :    0.454903
  30 C :   -0.215406
  31 N :    0.273825
  32 O :   -0.222087
  33 O :   -0.233757
  34 C :    0.010004
  35 C :   -0.123606
  36 C :    0.025026
  37 C :   -0.081166
  38 C :   -0.000055
  39 C :   -0.171457
  40 C :   -0.002849
  41 C :   -0.048204
  42 C :   -0.134585
  43 S :    0.394021
  44 C :   -0.206034
  45 C :   -0.003772
  46 C :   -0.051118
  47 C :   -0.099132
  48 S :    0.412026
  49 C :   -0.080183
  50 C :    0.047159
  51 C :   -0.121051
  52 C :    0.083811
  53 C :   -0.182827
  54 C :    0.023026
  55 N :   -0.080583
  56 C :    0.010657
  57 N :   -0.108628
  58 C :   -0.020467
  59 C :   -0.046204
  60 C :    0.082831
  61 O :   -0.157917
  62 C :    0.017535
  63 C :   -0.034924
  64 C :   -0.147345
  65 C :   -0.014854
  66 S :    0.427913
  67 C :   -0.274215
  68 C :   -0.070569
  69 Br:    0.131765
  70 H :    0.040509
  71 H :    0.045097
  72 H :    0.029349
  73 H :    0.034161
  74 H :    0.031633
  75 H :    0.024527
  76 H :    0.022289
  77 H :    0.034261
  78 H :    0.032459
  79 H :    0.028832
  80 H :    0.039842
  81 H :    0.025420
  82 H :    0.038924
  83 H :    0.067970
  84 H :    0.081706
  85 H :    0.030701
  86 H :    0.029872
  87 H :    0.029101
  88 H :    0.025255
  89 H :    0.094401
  90 H :    0.046327
  91 H :    0.039152
  92 H :    0.014098
  93 H :    0.040375
  94 H :    0.039343
  95 H :    0.035184
  96 H :    0.035446
  97 H :    0.038946
  98 H :    0.038989
  99 H :    0.029392
 100 H :    0.039115
 101 H :    0.038375
 102 H :    0.038006

  Mayer bond orders larger than 0.100000
B(  0-C ,  1-C ) :   0.9623 B(  0-C ,  5-C ) :   1.0244 B(  0-C , 70-H ) :   0.9265
B(  0-C , 71-H ) :   0.9307 B(  1-C ,  2-O ) :   2.2354 B(  1-C ,  3-O ) :   1.1232
B(  3-O ,  4-C ) :   0.9634 B(  4-C ,  5-C ) :   1.0189 B(  4-C ,  9-C ) :   0.9616
B(  4-C , 72-H ) :   0.9210 B(  5-C ,  6-C ) :   1.0596 B(  5-C , 73-H ) :   0.9158
B(  6-C ,  7-C ) :   1.0715 B(  6-C , 74-H ) :   0.9271 B(  6-C , 75-H ) :   0.9383
B(  7-C ,  8-C ) :   1.0626 B(  7-C , 76-H ) :   0.9378 B(  7-C , 77-H ) :   0.9207
B(  8-C ,  9-C ) :   1.0071 B(  8-C , 13-C ) :   0.9660 B(  8-C , 78-H ) :   0.9132
B(  9-C , 10-O ) :   0.9622 B(  9-C , 79-H ) :   0.9203 B( 10-O , 11-C ) :   1.1294
B( 11-C , 12-O ) :   2.2631 B( 11-C , 13-C ) :   0.8763 B( 13-C , 14-C ) :   1.0083
B( 13-C , 80-H ) :   0.8994 B( 14-C , 15-C ) :   1.7535 B( 14-C , 81-H ) :   0.9714
B( 15-C , 16-C ) :   1.1489 B( 15-C , 82-H ) :   0.9651 B( 16-C , 17-O ) :   1.1222
B( 16-C , 18-C ) :   0.1125 B( 16-C , 20-C ) :   1.3946 B( 17-O , 18-C ) :   1.1102
B( 18-C , 19-C ) :   1.3091 B( 18-C , 23-C ) :   1.1606 B( 19-C , 20-C ) :   1.2230
B( 19-C , 22-O ) :   1.2331 B( 20-C , 21-O ) :   1.2882 B( 21-O , 83-H ) :   0.9169
B( 22-O , 84-H ) :   0.9339 B( 23-C , 24-C ) :   1.6204 B( 23-C , 85-H ) :   0.9586
B( 24-C , 25-C ) :   1.1557 B( 24-C , 86-H ) :   0.9963 B( 25-C , 26-C ) :   1.6461
B( 25-C , 87-H ) :   0.9744 B( 26-C , 27-N ) :   1.0693 B( 26-C , 88-H ) :   0.9633
B( 27-N , 28-C ) :   1.3237 B( 27-N , 89-H ) :   0.9059 B( 28-C , 29-S ) :   1.1383
B( 28-C , 35-C ) :   1.2544 B( 29-S , 30-C ) :   1.0423 B( 30-C , 31-N ) :   0.9818
B( 30-C , 34-C ) :   1.5077 B( 31-N , 32-O ) :   1.5275 B( 31-N , 33-O ) :   1.5037
B( 32-O , 33-O ) :   0.2549 B( 34-C , 35-C ) :   1.1989 B( 34-C , 90-H ) :   1.0070
B( 35-C , 36-C ) :   1.1591 B( 36-C , 37-C ) :   1.5539 B( 36-C , 91-H ) :   0.9726
B( 37-C , 38-C ) :   1.2118 B( 37-C , 92-H ) :   0.9533 B( 38-C , 39-C ) :   1.5109
B( 38-C , 93-H ) :   0.9868 B( 39-C , 40-C ) :   1.1789 B( 39-C , 43-S ) :   1.0180
B( 40-C , 41-C ) :   1.5431 B( 40-C , 94-H ) :   0.9995 B( 41-C , 42-C ) :   1.2263
B( 41-C , 95-H ) :   0.9953 B( 42-C , 43-S ) :   1.1027 B( 42-C , 44-C ) :   1.4145
B( 44-C , 45-C ) :   1.2557 B( 44-C , 48-S ) :   1.0456 B( 45-C , 46-C ) :   1.4944
B( 45-C , 96-H ) :   0.9946 B( 46-C , 47-C ) :   1.2236 B( 46-C , 97-H ) :   1.0020
B( 47-C , 48-S ) :   1.1036 B( 47-C , 49-C ) :   1.3474 B( 49-C , 50-C ) :   1.3388
B( 49-C , 98-H ) :   0.9758 B( 50-C , 51-C ) :   1.3956 B( 50-C , 99-H ) :   0.9462
B( 51-C , 52-C ) :   1.1733 B( 51-C , 60-C ) :   0.9703 B( 52-C , 53-C ) :   1.4908
B( 52-C , 58-C ) :   0.9871 B( 53-C , 54-C ) :   1.1906 B( 53-C , 56-C ) :   1.1852
B( 54-C , 55-N ) :   2.8535 B( 55-N , 83-H ) :   0.1168 B( 56-C , 57-N ) :   2.8687
B( 58-C , 59-C ) :   1.2770 B( 58-C , 65-C ) :   1.4202 B( 59-C , 60-C ) :   0.9304
B( 59-C , 62-C ) :   1.4400 B( 60-C , 61-O ) :   2.1853 B( 62-C , 63-C ) :   1.2301
B( 62-C ,100-H ) :   1.0170 B( 63-C , 64-C ) :   1.3215 B( 63-C , 68-C ) :   1.1642
B( 64-C , 65-C ) :   1.3161 B( 64-C , 66-S ) :   1.0832 B( 65-C ,101-H ) :   0.9805
B( 66-S , 67-C ) :   1.0875 B( 67-C , 68-C ) :   1.6185 B( 67-C , 69-Br) :   1.0142
B( 68-C ,102-H ) :   0.9996

-----------------------------------------------------------------------------
         ABSORPTION SPECTRUM VIA TRANSITION ELECTRIC DIPOLE MOMENTS
-----------------------------------------------------------------------------
State   Energy  Wavelength   fosc         T2         TX        TY        TZ
        (cm-1)    (nm)                  (au**2)     (au)      (au)      (au)
-----------------------------------------------------------------------------
   0    8025.5   1246.0   0.293442144  12.03716  -0.64036  -2.84068  -1.88617
   1   12250.4    816.3   0.773377391  20.78335  -2.50667  -3.77974   0.46206
   2   18752.4    533.3   0.830525918  14.58050  -2.47967  -1.84538   2.24194
   3   20219.5    494.6   0.044794902   0.72935  -0.17807  -0.54851  -0.62990
   4   20725.5    482.5   0.811764005  12.89435   2.05391   2.93151   0.28643
   5   21697.2    460.9   0.053547757   0.81248  -0.54004   0.05461   0.71962
   6   22602.4    442.4   0.258294180   3.76214  -0.10569   1.14821   1.55968
   7   23483.9    425.8   0.306834838   4.30141   0.47807  -0.41258  -1.97551
   8   24953.7    400.7   0.200759906   2.64860  -0.57090  -1.52374   0.02991
   9   25738.5    388.5   0.008506835   0.10881  -0.16587  -0.28224  -0.04044
  10   26307.3    380.1   0.003301068   0.04131  -0.12475  -0.10283  -0.12318
  11   27017.0    370.1   0.002565972   0.03127  -0.02196   0.08416   0.15396
  12   27645.3    361.7   0.238375776   2.83868  -0.28868   0.56000   1.56261
  13   28202.1    354.6   0.001748878   0.02042  -0.01723   0.14140   0.01113
  14   29352.0    340.7   0.165910921   1.86086  -0.51599  -0.87263   0.91276
  15   30150.3    331.7   0.146528778   1.59995  -0.62030  -0.95437  -0.55168
  16   30510.3    327.8   0.150871873   1.62794  -0.55005  -0.30651   1.10970
  17   30684.6    325.9   0.001141203   0.01224  -0.02251  -0.10831  -0.00262
  18   31103.5    321.5   0.117511339   1.24379   0.22656   0.89241   0.62933
  19   31706.8    315.4   0.232599523   2.41508  -0.55188  -1.39892  -0.39183
  20   32306.2    309.5   0.206096948   2.10021   0.76007   0.91041   0.83286
  21   32461.0    308.1   0.316174087   3.20657  -0.56832  -1.50056   0.79492
  22   32732.7    305.5   0.017993994   0.18098  -0.03768   0.11951  -0.40654
  23   33057.9    302.5   0.031724978   0.31594  -0.25766  -0.49948  -0.00843
  24   33690.6    296.8   0.000092023   0.00090   0.01225   0.02737  -0.00001
  25   34271.6    291.8   0.009774357   0.09389   0.17696   0.19975  -0.15059
  26   34785.5    287.5   0.069904252   0.66158   0.33468   0.63647   0.38009
  27   35119.2    284.7   0.090219498   0.84573  -0.26645   0.35432   0.80572
  28   35569.6    281.1   0.005217063   0.04829   0.01547  -0.14206  -0.16693
  29   35626.7    280.7   0.285358477   2.63688   0.12822   0.99536   1.27660
  30   35816.7    279.2   0.007088482   0.06515   0.19821  -0.15852  -0.02716
  31   36174.5    276.4   0.008344560   0.07594   0.11098  -0.25101   0.02490
  32   36470.4    274.2   0.013257892   0.11968  -0.14742  -0.15839   0.26992
  33   37283.6    268.2   0.010657239   0.09410   0.03054  -0.10912  -0.28507
  34   37674.9    265.4   0.024811676   0.21681   0.15687  -0.05150  -0.43537
  35   37874.0    264.0   0.179555277   1.56075   0.15549  -0.58174  -1.09460
  36   38178.1    261.9   0.006925112   0.05972   0.04652  -0.07852  -0.22669
  37   38446.5    260.1   0.005667206   0.04853  -0.03704   0.21600  -0.02235
  38   38498.2    259.8   0.013549755   0.11587   0.00763  -0.33935   0.02552
  39   38660.6    258.7   0.019022679   0.16199   0.16263   0.35650   0.09188
  40   38899.3    257.1   0.006759475   0.05721  -0.17736   0.13390   0.08843
  41   39414.8    253.7   0.017940605   0.14985  -0.26319   0.28113  -0.03937
  42   39521.4    253.0   0.003635689   0.03029  -0.17022   0.01562   0.03267
  43   39826.6    251.1   0.006800755   0.05622   0.15558   0.06524   0.16660
  44   39929.3    250.4   0.002587133   0.02133  -0.05209  -0.11128  -0.07896
  45   40276.5    248.3   0.036666417   0.29970   0.07094  -0.37157  -0.39574

FINAL SINGLE POINT ENERGY     -7097.002618072104

DIPOLE MOMENT
-------------
                                X             Y             Z
Electronic contribution:    -34.64133    -139.97491     -68.67180
Nuclear contribution   :     34.72617     140.97983      62.40473
                        -----------------------------------------
Total Dipole Moment    :      0.08483       1.00492      -6.26707
                        -----------------------------------------
Magnitude (a.u.)       :      6.34769
Magnitude (Debye)      :     16.13456

Rotational constants in cm-1:     0.000539     0.000425     0.000244
Rotational constants in MHz :    16.154864    12.727960     7.314864

                             ****ORCA TERMINATED NORMALLY****
TOTAL RUN TIME: 0 days 0 hours 15 minutes 54 seconds 759 msec
