                         Program Version 4.2.0 -  RELEASE  -
|  1> # ORCA input file
|  2> # SCF done       -181.598376323422          0.000751990050
|  3> ! CAM-B3LYP def2-SVP def2/J RIJCOSX Grid4 TightSCF
|  4> %maxcore 5000
|  5> %tddft
|  6>     Mode sTDDFT
|  7>     Ethresh 5.0
|  8>     maxcore 5000
|  9> end
| 10>
| 11> %pal
| 12>   nprocs 6
| 13>   end
| 14> * xyz 0 1
| 15>    C      -12.19580         0.50299         2.83015
| 16>    C      -12.55017         0.64627         4.11630
| 17>    C      -12.40173         1.93199         4.74462
| 18>    C      -12.75120         2.16184         6.06097
| 19>    C      -12.60033         3.42847         6.64798
| 20>    N      -12.47207         4.47256         7.11082
| 21>    C      -13.27882         1.14864         6.87683
| 22>    N      -13.70906         0.31427         7.53901
| 23>    C      -11.86744         2.96057         3.90973
| 24>    C      -11.53803         2.72535         2.61057
| 25>    O      -11.70339         1.48838         2.06457
| 26>    C      -10.99552         3.71232         1.68481
| 27>    C      -10.80474         5.04751         2.07152
| 28>    C      -10.28141         5.94684         1.17430
| 29>    C       -9.98800         5.54595        -0.14159
| 30>    C      -10.17595         4.22850        -0.53553
| 31>    C      -10.66667         3.32172         0.38019
| 32>    C       -9.52731         6.69560        -0.88294
| 33>    C       -9.53627         7.81485        -0.03104
| 34>    C      -10.00173         7.42537         1.35930
| 35>    C       -8.82763         7.68089         2.32940
| 36>    C       -9.04902         7.26741         3.77847
| 37>    C      -11.31888         8.11245         1.77523
| 38>    C      -11.26278         9.62373         1.95652
| 39>    C       -9.09130         9.02866        -0.49455
| 40>    C       -8.66008         9.16494        -1.82654
| 41>    C       -8.68560         8.03893        -2.66472
| 42>    C       -9.10753         6.81226        -2.20185
| 43>    C       -8.20691        10.45460        -2.27097
| 44>    C       -7.59594        10.73608        -3.44901
| 45>    C       -7.16509        12.02774        -3.81572
| 46>    C       -6.48361        12.31055        -4.96702
| 47>    C       -6.00272        13.57765        -5.39228
| 48>    C       -5.31965        13.55606        -6.56552
| 49>    C       -5.21561        12.26791        -7.14877
| 50>    S       -6.04161        11.08546        -6.15168
| 51>    C       -4.55850        11.90800        -8.29998
| 52>    C       -3.79187        12.73711        -9.16250
| 53>    C       -3.19903        12.08081       -10.18652
| 54>    C       -3.46225        10.67503       -10.21345
| 55>    S       -4.53908        10.24820        -8.87388
| 56>    C       -2.99032         9.75226       -11.07693
| 57>    C       -3.40585         8.34048       -11.01801
| 58>    C       -2.92597         7.38530       -10.11531
| 59>    N       -1.89546         7.44139        -9.19522
| 60>    C       -1.02363         8.57906        -9.02856
| 61>    C       -1.26755         9.32372        -7.71784
| 62>    C       -1.81560         6.23255        -8.53920
| 63>    C       -2.81983         5.37190        -9.05339
| 64>    C       -3.50736         6.09786       -10.07833
| 65>    C       -4.53247         5.73773       -10.94153
| 66>    C       -4.96755         6.66725       -11.86176
| 67>    C       -4.41113         7.93989       -11.89183
| 68>    C       -3.00716         4.08796        -8.56702
| 69>    C       -2.19454         3.65051        -7.53958
| 70>    C       -1.21925         4.48422        -7.01980
| 71>    C       -0.98496         5.77976        -7.49444
| 72>    C        0.09243         6.54241        -6.89669
| 73>    C        0.46200         6.45015        -5.60437
| 74>    C        1.54654         7.20124        -5.03371
| 75>    C        1.89118         7.11989        -3.71685
| 76>    C        2.96719         7.88908        -3.18309
| 77>    C        3.34031         7.82733        -1.85464
| 78>    C        4.40136         8.59422        -1.34762
| 79>    N        5.26980         9.22661        -0.94008
| 80>    C        2.67697         6.99401        -0.93940
| 81>    N        2.12738         6.30968        -0.19789
| 82>    C        3.63842         8.73954        -4.13319
| 83>    C        3.22992         8.75565        -5.41053
| 84>    O        2.21397         8.02076        -5.89403
| 85>    H      -12.27494        -0.42555         2.28399
| 86>    H      -12.94183        -0.18449         4.67933
| 87>    H      -11.73181         3.93747         4.34206
| 88>    H      -11.08019         5.36792         3.06194
| 89>    H       -9.94727         3.91717        -1.54342
| 90>    H      -10.81273         2.29364         0.08774
| 91>    H       -8.58981         8.74519         2.29475
| 92>    H       -7.95851         7.14395         1.93917
| 93>    H       -9.93243         7.73971         4.19917
| 94>    H       -8.19017         7.57306         4.37240
| 95>    H       -9.14706         6.18915         3.86750
| 96>    H      -11.65541         7.65865         2.70865
| 97>    H      -12.06647         7.87680         1.01267
| 98>    H      -10.49920         9.90976         2.67472
| 99>    H      -12.22287         9.97449         2.32955
|100>    H      -11.06876        10.12392         1.01220
|101>    H       -9.04438         9.89113         0.15317
|102>    H       -8.36970         8.13320        -3.69176
|103>    H       -9.10809         5.95231        -2.85503
|104>    H       -8.35591        11.26937        -1.57199
|105>    H       -7.39354         9.94850        -4.16243
|106>    H       -7.37281        12.84962        -3.14285
|107>    H       -6.17766        14.46239        -4.80543
|108>    H       -4.88536        14.42327        -7.03009
|109>    H       -3.69859        13.79404        -8.98610
|110>    H       -2.57423        12.54031       -10.93210
|111>    H       -2.39302        10.07465       -11.92067
|112>    H       -1.21217         9.25394        -9.86713
|113>    H        0.01812         8.25255        -9.10258
|114>    H       -2.29534         9.67097        -7.67147
|115>    H       -0.60431        10.18267        -7.65456
|116>    H       -1.08914         8.67892        -6.86133
|117>    H       -4.96681         4.75128       -10.89413
|118>    H       -5.75361         6.41833       -12.55825
|119>    H       -4.78540         8.66335       -12.60187
|120>    H       -3.77302         3.45324        -8.98468
|121>    H       -2.31085         2.65500        -7.13932
|122>    H       -0.57727         4.10608        -6.23910
|123>    H        0.65501         7.21131        -7.52871
|124>    H       -0.07350         5.81882        -4.91203
|125>    H        1.34064         6.46168        -3.06346
|126>    H        4.46192         9.35452        -3.81000
|127>    H        3.68236         9.36530        -6.17873
|128> *
|129>
|130>                          ****END OF INPUT****

CARTESIAN COORDINATES (ANGSTROEM)
---------------------------------
  C    -12.195800    0.502990    2.830150
  C    -12.550170    0.646270    4.116300
  C    -12.401730    1.931990    4.744620
  C    -12.751200    2.161840    6.060970
  C    -12.600330    3.428470    6.647980
  N    -12.472070    4.472560    7.110820
  C    -13.278820    1.148640    6.876830
  N    -13.709060    0.314270    7.539010
  C    -11.867440    2.960570    3.909730
  C    -11.538030    2.725350    2.610570
  O    -11.703390    1.488380    2.064570
  C    -10.995520    3.712320    1.684810
  C    -10.804740    5.047510    2.071520
  C    -10.281410    5.946840    1.174300
  C     -9.988000    5.545950   -0.141590
  C    -10.175950    4.228500   -0.535530
  C    -10.666670    3.321720    0.380190
  C     -9.527310    6.695600   -0.882940
  C     -9.536270    7.814850   -0.031040
  C    -10.001730    7.425370    1.359300
  C     -8.827630    7.680890    2.329400
  C     -9.049020    7.267410    3.778470
  C    -11.318880    8.112450    1.775230
  C    -11.262780    9.623730    1.956520
  C     -9.091300    9.028660   -0.494550
  C     -8.660080    9.164940   -1.826540
  C     -8.685600    8.038930   -2.664720
  C     -9.107530    6.812260   -2.201850
  C     -8.206910   10.454600   -2.270970
  C     -7.595940   10.736080   -3.449010
  C     -7.165090   12.027740   -3.815720
  C     -6.483610   12.310550   -4.967020
  C     -6.002720   13.577650   -5.392280
  C     -5.319650   13.556060   -6.565520
  C     -5.215610   12.267910   -7.148770
  S     -6.041610   11.085460   -6.151680
  C     -4.558500   11.908000   -8.299980
  C     -3.791870   12.737110   -9.162500
  C     -3.199030   12.080810  -10.186520
  C     -3.462250   10.675030  -10.213450
  S     -4.539080   10.248200   -8.873880
  C     -2.990320    9.752260  -11.076930
  C     -3.405850    8.340480  -11.018010
  C     -2.925970    7.385300  -10.115310
  N     -1.895460    7.441390   -9.195220
  C     -1.023630    8.579060   -9.028560
  C     -1.267550    9.323720   -7.717840
  C     -1.815600    6.232550   -8.539200
  C     -2.819830    5.371900   -9.053390
  C     -3.507360    6.097860  -10.078330
  C     -4.532470    5.737730  -10.941530
  C     -4.967550    6.667250  -11.861760
  C     -4.411130    7.939890  -11.891830
  C     -3.007160    4.087960   -8.567020
  C     -2.194540    3.650510   -7.539580
  C     -1.219250    4.484220   -7.019800
  C     -0.984960    5.779760   -7.494440
  C      0.092430    6.542410   -6.896690
  C      0.462000    6.450150   -5.604370
  C      1.546540    7.201240   -5.033710
  C      1.891180    7.119890   -3.716850
  C      2.967190    7.889080   -3.183090
  C      3.340310    7.827330   -1.854640
  C      4.401360    8.594220   -1.347620
  N      5.269800    9.226610   -0.940080
  C      2.676970    6.994010   -0.939400
  N      2.127380    6.309680   -0.197890
  C      3.638420    8.739540   -4.133190
  C      3.229920    8.755650   -5.410530
  O      2.213970    8.020760   -5.894030
  H    -12.274940   -0.425550    2.283990
  H    -12.941830   -0.184490    4.679330
  H    -11.731810    3.937470    4.342060
  H    -11.080190    5.367920    3.061940
  H     -9.947270    3.917170   -1.543420
  H    -10.812730    2.293640    0.087740
  H     -8.589810    8.745190    2.294750
  H     -7.958510    7.143950    1.939170
  H     -9.932430    7.739710    4.199170
  H     -8.190170    7.573060    4.372400
  H     -9.147060    6.189150    3.867500
  H    -11.655410    7.658650    2.708650
  H    -12.066470    7.876800    1.012670
  H    -10.499200    9.909760    2.674720
  H    -12.222870    9.974490    2.329550
  H    -11.068760   10.123920    1.012200
  H     -9.044380    9.891130    0.153170
  H     -8.369700    8.133200   -3.691760
  H     -9.108090    5.952310   -2.855030
  H     -8.355910   11.269370   -1.571990
  H     -7.393540    9.948500   -4.162430
  H     -7.372810   12.849620   -3.142850
  H     -6.177660   14.462390   -4.805430
  H     -4.885360   14.423270   -7.030090
  H     -3.698590   13.794040   -8.986100
  H     -2.574230   12.540310  -10.932100
  H     -2.393020   10.074650  -11.920670
  H     -1.212170    9.253940   -9.867130
  H      0.018120    8.252550   -9.102580
  H     -2.295340    9.670970   -7.671470
  H     -0.604310   10.182670   -7.654560
  H     -1.089140    8.678920   -6.861330
  H     -4.966810    4.751280  -10.894130
  H     -5.753610    6.418330  -12.558250
  H     -4.785400    8.663350  -12.601870
  H     -3.773020    3.453240   -8.984680
  H     -2.310850    2.655000   -7.139320
  H     -0.577270    4.106080   -6.239100
  H      0.655010    7.211310   -7.528710
  H     -0.073500    5.818820   -4.912030
  H      1.340640    6.461680   -3.063460
  H      4.461920    9.354520   -3.810000
  H      3.682360    9.365300   -6.178730

 Total Charge           Charge          ....    0
 Multiplicity           Mult            ....    1
 Number of Electrons    NEL             ....  492
 Basis Dimension        Dim             .... 1203

ORBITAL ENERGIES
----------------

  NO   OCC          E(Eh)            E(eV)
   0   2.0000     -88.947175     -2420.3757
   1   2.0000     -88.946497     -2420.3572
   2   2.0000     -19.321724      -525.7708
   3   2.0000     -19.320181      -525.7288
   4   2.0000     -14.458516      -393.4362
   5   2.0000     -14.393506      -391.6672
   6   2.0000     -14.393379      -391.6637
   7   2.0000     -14.392612      -391.6429
   8   2.0000     -14.391160      -391.6034
   9   2.0000     -10.379351      -282.4365
  10   2.0000     -10.379040      -282.4280
  11   2.0000     -10.374786      -282.3123
  12   2.0000     -10.373080      -282.2659
  13   2.0000     -10.334108      -281.2054
  14   2.0000     -10.332665      -281.1661
  15   2.0000     -10.316963      -280.7388
  16   2.0000     -10.315138      -280.6892
  17   2.0000     -10.314163      -280.6626
  18   2.0000     -10.313100      -280.6337
  19   2.0000     -10.312778      -280.6250
  20   2.0000     -10.312653      -280.6216
  21   2.0000     -10.311652      -280.5943
  22   2.0000     -10.311114      -280.5797
  23   2.0000     -10.309460      -280.5347
  24   2.0000     -10.303956      -280.3849
  25   2.0000     -10.303658      -280.3768
  26   2.0000     -10.302182      -280.3366
  27   2.0000     -10.299812      -280.2721
  28   2.0000     -10.298578      -280.2385
  29   2.0000     -10.297725      -280.2153
  30   2.0000     -10.297466      -280.2083
  31   2.0000     -10.297338      -280.2048
  32   2.0000     -10.296692      -280.1872
  33   2.0000     -10.295822      -280.1636
  34   2.0000     -10.295345      -280.1506
  35   2.0000     -10.294412      -280.1252
  36   2.0000     -10.292565      -280.0749
  37   2.0000     -10.290673      -280.0234
  38   2.0000     -10.289910      -280.0027
  39   2.0000     -10.289590      -279.9940
  40   2.0000     -10.288022      -279.9513
  41   2.0000     -10.287507      -279.9373
  42   2.0000     -10.286121      -279.8996
  43   2.0000     -10.285575      -279.8847
  44   2.0000     -10.285421      -279.8805
  45   2.0000     -10.283661      -279.8326
  46   2.0000     -10.283472      -279.8275
  47   2.0000     -10.282584      -279.8033
  48   2.0000     -10.282574      -279.8031
  49   2.0000     -10.280670      -279.7512
  50   2.0000     -10.279349      -279.7153
  51   2.0000     -10.278697      -279.6976
  52   2.0000     -10.278094      -279.6812
  53   2.0000     -10.277559      -279.6666
  54   2.0000     -10.276864      -279.6477
  55   2.0000     -10.276676      -279.6426
  56   2.0000     -10.275763      -279.6177
  57   2.0000     -10.274540      -279.5845
  58   2.0000     -10.274176      -279.5745
  59   2.0000     -10.272288      -279.5232
  60   2.0000     -10.271702      -279.5072
  61   2.0000     -10.270491      -279.4743
  62   2.0000     -10.269014      -279.4341
  63   2.0000     -10.268447      -279.4186
  64   2.0000     -10.268099      -279.4092
  65   2.0000     -10.267961      -279.4054
  66   2.0000     -10.263924      -279.2956
  67   2.0000     -10.260583      -279.2047
  68   2.0000     -10.256939      -279.1055
  69   2.0000     -10.254976      -279.0521
  70   2.0000      -8.042721      -218.8536
  71   2.0000      -8.042561      -218.8492
  72   2.0000      -6.012496      -163.6083
  73   2.0000      -6.012405      -163.6059
  74   2.0000      -6.008556      -163.5011
  75   2.0000      -6.008451      -163.4983
  76   2.0000      -6.003484      -163.3631
  77   2.0000      -6.003257      -163.3569
  78   2.0000      -1.230893       -33.4943
  79   2.0000      -1.230381       -33.4804
  80   2.0000      -1.086728       -29.5714
  81   2.0000      -0.997891       -27.1540
  82   2.0000      -0.996641       -27.1200
  83   2.0000      -0.994014       -27.0485
  84   2.0000      -0.992550       -27.0087
  85   2.0000      -0.976501       -26.5719
  86   2.0000      -0.972679       -26.4679
  87   2.0000      -0.971288       -26.4301
  88   2.0000      -0.960785       -26.1443
  89   2.0000      -0.958149       -26.0726
  90   2.0000      -0.954618       -25.9765
  91   2.0000      -0.952693       -25.9241
  92   2.0000      -0.949987       -25.8505
  93   2.0000      -0.937395       -25.5078
  94   2.0000      -0.934543       -25.4302
  95   2.0000      -0.910778       -24.7835
  96   2.0000      -0.909228       -24.7413
  97   2.0000      -0.903416       -24.5832
  98   2.0000      -0.887215       -24.1424
  99   2.0000      -0.878899       -23.9161
 100   2.0000      -0.873855       -23.7788
 101   2.0000      -0.871213       -23.7069
 102   2.0000      -0.869545       -23.6615
 103   2.0000      -0.858702       -23.3665
 104   2.0000      -0.847402       -23.0590
 105   2.0000      -0.845207       -22.9993
 106   2.0000      -0.842010       -22.9123
 107   2.0000      -0.838642       -22.8206
 108   2.0000      -0.837037       -22.7769
 109   2.0000      -0.835086       -22.7238
 110   2.0000      -0.824047       -22.4235
 111   2.0000      -0.816342       -22.2138
 112   2.0000      -0.806714       -21.9518
 113   2.0000      -0.804205       -21.8835
 114   2.0000      -0.786966       -21.4144
 115   2.0000      -0.779143       -21.2016
 116   2.0000      -0.776083       -21.1183
 117   2.0000      -0.770573       -20.9684
 118   2.0000      -0.763220       -20.7683
 119   2.0000      -0.753437       -20.5021
 120   2.0000      -0.743759       -20.2387
 121   2.0000      -0.733305       -19.9542
 122   2.0000      -0.719396       -19.5758
 123   2.0000      -0.715433       -19.4679
 124   2.0000      -0.711386       -19.3578
 125   2.0000      -0.706663       -19.2293
 126   2.0000      -0.698568       -19.0090
 127   2.0000      -0.697852       -18.9895
 128   2.0000      -0.691067       -18.8049
 129   2.0000      -0.684341       -18.6219
 130   2.0000      -0.675538       -18.3823
 131   2.0000      -0.672529       -18.3004
 132   2.0000      -0.666698       -18.1418
 133   2.0000      -0.665507       -18.1094
 134   2.0000      -0.656802       -17.8725
 135   2.0000      -0.651880       -17.7386
 136   2.0000      -0.648180       -17.6379
 137   2.0000      -0.643649       -17.5146
 138   2.0000      -0.630894       -17.1675
 139   2.0000      -0.630201       -17.1486
 140   2.0000      -0.619036       -16.8448
 141   2.0000      -0.614561       -16.7231
 142   2.0000      -0.612712       -16.6727
 143   2.0000      -0.609149       -16.5758
 144   2.0000      -0.601616       -16.3708
 145   2.0000      -0.597246       -16.2519
 146   2.0000      -0.595395       -16.2015
 147   2.0000      -0.593305       -16.1446
 148   2.0000      -0.589418       -16.0389
 149   2.0000      -0.588393       -16.0110
 150   2.0000      -0.582276       -15.8445
 151   2.0000      -0.580089       -15.7850
 152   2.0000      -0.579762       -15.7761
 153   2.0000      -0.578364       -15.7381
 154   2.0000      -0.573153       -15.5963
 155   2.0000      -0.571524       -15.5520
 156   2.0000      -0.562661       -15.3108
 157   2.0000      -0.561407       -15.2767
 158   2.0000      -0.558557       -15.1991
 159   2.0000      -0.553243       -15.0545
 160   2.0000      -0.548614       -14.9286
 161   2.0000      -0.546343       -14.8667
 162   2.0000      -0.545735       -14.8502
 163   2.0000      -0.538954       -14.6657
 164   2.0000      -0.536759       -14.6060
 165   2.0000      -0.535612       -14.5747
 166   2.0000      -0.530870       -14.4457
 167   2.0000      -0.530129       -14.4256
 168   2.0000      -0.527742       -14.3606
 169   2.0000      -0.520915       -14.1748
 170   2.0000      -0.519160       -14.1271
 171   2.0000      -0.514758       -14.0073
 172   2.0000      -0.510999       -13.9050
 173   2.0000      -0.507903       -13.8208
 174   2.0000      -0.501932       -13.6583
 175   2.0000      -0.500972       -13.6321
 176   2.0000      -0.499770       -13.5994
 177   2.0000      -0.498326       -13.5601
 178   2.0000      -0.493405       -13.4262
 179   2.0000      -0.490646       -13.3511
 180   2.0000      -0.490114       -13.3367
 181   2.0000      -0.489096       -13.3090
 182   2.0000      -0.487906       -13.2766
 183   2.0000      -0.484292       -13.1782
 184   2.0000      -0.480443       -13.0735
 185   2.0000      -0.476257       -12.9596
 186   2.0000      -0.474382       -12.9086
 187   2.0000      -0.473500       -12.8846
 188   2.0000      -0.472690       -12.8625
 189   2.0000      -0.470541       -12.8041
 190   2.0000      -0.467330       -12.7167
 191   2.0000      -0.465084       -12.6556
 192   2.0000      -0.462791       -12.5932
 193   2.0000      -0.462095       -12.5743
 194   2.0000      -0.459151       -12.4941
 195   2.0000      -0.456196       -12.4137
 196   2.0000      -0.450446       -12.2573
 197   2.0000      -0.448751       -12.2111
 198   2.0000      -0.445476       -12.1220
 199   2.0000      -0.441681       -12.0188
 200   2.0000      -0.441126       -12.0036
 201   2.0000      -0.440450       -11.9853
 202   2.0000      -0.438971       -11.9450
 203   2.0000      -0.434009       -11.8100
 204   2.0000      -0.431845       -11.7511
 205   2.0000      -0.430283       -11.7086
 206   2.0000      -0.428786       -11.6679
 207   2.0000      -0.427507       -11.6330
 208   2.0000      -0.426159       -11.5964
 209   2.0000      -0.424838       -11.5604
 210   2.0000      -0.423687       -11.5291
 211   2.0000      -0.423265       -11.5176
 212   2.0000      -0.423011       -11.5107
 213   2.0000      -0.420808       -11.4508
 214   2.0000      -0.416836       -11.3427
 215   2.0000      -0.412922       -11.2362
 216   2.0000      -0.411284       -11.1916
 217   2.0000      -0.410843       -11.1796
 218   2.0000      -0.410299       -11.1648
 219   2.0000      -0.409436       -11.1413
 220   2.0000      -0.407640       -11.0924
 221   2.0000      -0.407005       -11.0752
 222   2.0000      -0.401840       -10.9346
 223   2.0000      -0.400065       -10.8863
 224   2.0000      -0.399278       -10.8649
 225   2.0000      -0.396570       -10.7912
 226   2.0000      -0.395299       -10.7566
 227   2.0000      -0.393991       -10.7210
 228   2.0000      -0.390656       -10.6303
 229   2.0000      -0.382264       -10.4019
 230   2.0000      -0.375003       -10.2043
 231   2.0000      -0.369246       -10.0477
 232   2.0000      -0.348811        -9.4916
 233   2.0000      -0.343150        -9.3376
 234   2.0000      -0.339726        -9.2444
 235   2.0000      -0.332773        -9.0552
 236   2.0000      -0.328749        -8.9457
 237   2.0000      -0.322067        -8.7639
 238   2.0000      -0.317107        -8.6289
 239   2.0000      -0.309731        -8.4282
 240   2.0000      -0.283594        -7.7170
 241   2.0000      -0.283196        -7.7062
 242   2.0000      -0.277889        -7.5618
 243   2.0000      -0.267811        -7.2875
 244   2.0000      -0.260632        -7.0921
 245   2.0000      -0.219545        -5.9741
 246   0.0000      -0.078471        -2.1353
 247   0.0000      -0.064817        -1.7637
 248   0.0000      -0.056256        -1.5308
 249   0.0000      -0.025131        -0.6838
 250   0.0000      -0.020877        -0.5681

MULLIKEN ATOMIC CHARGES
-----------------------
   0 C :    0.193308
   1 C :   -0.072317
   2 C :    0.256203
   3 C :   -0.346204
   4 C :   -0.163913
   5 N :    0.118155
   6 C :   -0.181290
   7 N :    0.126237
   8 C :   -0.155731
   9 C :    0.212814
  10 O :   -0.208628
  11 C :    0.079670
  12 C :   -0.097019
  13 C :    0.034189
  14 C :    0.103973
  15 C :   -0.047968
  16 C :   -0.006309
  17 C :    0.088448
  18 C :    0.051065
  19 C :   -0.129114
  20 C :    0.052932
  21 C :    0.031527
  22 C :    0.052683
  23 C :    0.032570
  24 C :   -0.122309
  25 C :    0.136201
  26 C :   -0.010732
  27 C :   -0.045803
  28 C :   -0.013190
  29 C :    0.018902
  30 C :   -0.014998
  31 C :   -0.017971
  32 C :    0.040867
  33 C :    0.029409
  34 C :   -0.044107
  35 S :    0.062711
  36 C :   -0.058126
  37 C :    0.029011
  38 C :    0.047677
  39 C :   -0.010623
  40 S :    0.078737
  41 C :   -0.104191
  42 C :   -0.065047
  43 C :    0.128229
  44 N :   -0.186254
  45 C :    0.102375
  46 C :    0.019076
  47 C :    0.123922
  48 C :    0.053537
  49 C :    0.068396
  50 C :   -0.046490
  51 C :    0.034051
  52 C :   -0.012766
  53 C :   -0.042534
  54 C :    0.033202
  55 C :   -0.044620
  56 C :    0.033910
  57 C :   -0.002346
  58 C :   -0.042390
  59 C :    0.221546
  60 C :   -0.130379
  61 C :    0.242487
  62 C :   -0.327899
  63 C :   -0.184632
  64 N :    0.124198
  65 C :   -0.177360
  66 N :    0.125215
  67 C :   -0.070934
  68 C :    0.187732
  69 O :   -0.215147
  70 H :    0.035955
  71 H :    0.035207
  72 H :    0.023174
  73 H :   -0.025580
  74 H :   -0.030521
  75 H :   -0.012153
  76 H :    0.006032
  77 H :    0.007679
  78 H :    0.011249
  79 H :    0.019226
  80 H :    0.017890
  81 H :    0.007856
  82 H :    0.006913
  83 H :    0.007269
  84 H :    0.016409
  85 H :    0.015986
  86 H :   -0.033475
  87 H :   -0.027363
  88 H :   -0.033450
  89 H :   -0.024518
  90 H :    0.002487
  91 H :   -0.016617
  92 H :   -0.011523
  93 H :   -0.014615
  94 H :   -0.011940
  95 H :   -0.014627
  96 H :    0.010760
  97 H :    0.025000
  98 H :    0.014340
  99 H :    0.024980
 100 H :    0.012277
 101 H :    0.024137
 102 H :   -0.034555
 103 H :   -0.021961
 104 H :   -0.026735
 105 H :   -0.029017
 106 H :   -0.021229
 107 H :   -0.023547
 108 H :    0.010052
 109 H :    0.007946
 110 H :    0.024053
 111 H :    0.035598
 112 H :    0.035132
Sum of atomic charges:   -0.0000000

LOEWDIN ATOMIC CHARGES
----------------------
   0 C :    0.100623
   1 C :   -0.053060
   2 C :    0.058934
   3 C :   -0.183550
   4 C :   -0.027942
   5 N :   -0.076822
   6 C :   -0.031049
   7 N :   -0.073273
   8 C :   -0.056858
   9 C :    0.103637
  10 O :    0.007203
  11 C :   -0.051679
  12 C :   -0.002827
  13 C :    0.007759
  14 C :    0.001687
  15 C :   -0.019812
  16 C :   -0.002953
  17 C :   -0.023034
  18 C :    0.008385
  19 C :   -0.032670
  20 C :   -0.013634
  21 C :   -0.058000
  22 C :   -0.014204
  23 C :   -0.057634
  24 C :   -0.020219
  25 C :   -0.020782
  26 C :   -0.012130
  27 C :   -0.013864
  28 C :   -0.014165
  29 C :   -0.028946
  30 C :   -0.050617
  31 C :   -0.145254
  32 C :   -0.029265
  33 C :   -0.033298
  34 C :   -0.174121
  35 S :    0.360754
  36 C :   -0.185453
  37 C :   -0.025023
  38 C :   -0.039703
  39 C :   -0.135793
  40 S :    0.375189
  41 C :   -0.063440
  42 C :   -0.070506
  43 C :    0.033032
  44 N :    0.022297
  45 C :    0.037613
  46 C :   -0.066817
  47 C :    0.042147
  48 C :   -0.039290
  49 C :   -0.041565
  50 C :   -0.010903
  51 C :   -0.042141
  52 C :   -0.011521
  53 C :   -0.001741
  54 C :   -0.045034
  55 C :   -0.007274
  56 C :   -0.064608
  57 C :    0.027656
  58 C :   -0.055590
  59 C :    0.092549
  60 C :   -0.056056
  61 C :    0.056259
  62 C :   -0.180126
  63 C :   -0.030530
  64 N :   -0.072969
  65 C :   -0.028948
  66 N :   -0.072495
  67 C :   -0.054090
  68 C :    0.098633
  69 O :   -0.000006
  70 H :    0.039009
  71 H :    0.051877
  72 H :    0.044810
  73 H :    0.028244
  74 H :    0.028995
  75 H :    0.029067
  76 H :    0.020320
  77 H :    0.028718
  78 H :    0.022863
  79 H :    0.031401
  80 H :    0.023675
  81 H :    0.020579
  82 H :    0.028051
  83 H :    0.021548
  84 H :    0.030096
  85 H :    0.023001
  86 H :    0.023813
  87 H :    0.027303
  88 H :    0.027743
  89 H :    0.027013
  90 H :    0.020615
  91 H :    0.032785
  92 H :    0.034168
  93 H :    0.031371
  94 H :    0.032433
  95 H :    0.032813
  96 H :    0.032770
  97 H :    0.032876
  98 H :    0.018333
  99 H :    0.015782
 100 H :    0.027612
 101 H :    0.024618
 102 H :    0.027040
 103 H :    0.026853
 104 H :    0.028691
 105 H :    0.029162
 106 H :    0.027914
 107 H :    0.027819
 108 H :    0.029186
 109 H :    0.039440
 110 H :    0.048519
 111 H :    0.051840
 112 H :    0.038162

  Mayer bond orders larger than 0.100000
B(  0-C ,  1-C ) :   1.6781 B(  0-C , 10-O ) :   1.1194 B(  0-C , 70-H ) :   0.9748
B(  1-C ,  2-C ) :   1.1312 B(  1-C , 71-H ) :   0.9610 B(  2-C ,  3-C ) :   1.5657
B(  2-C ,  8-C ) :   1.1257 B(  3-C ,  4-C ) :   1.1316 B(  3-C ,  6-C ) :   1.1279
B(  4-C ,  5-N ) :   2.9989 B(  6-C ,  7-N ) :   3.0151 B(  8-C ,  9-C ) :   1.5762
B(  8-C , 72-H ) :   0.9617 B(  9-C , 10-O ) :   1.1348 B(  9-C , 11-C ) :   1.0169
B( 11-C , 12-C ) :   1.3164 B( 11-C , 16-C ) :   1.3513 B( 12-C , 13-C ) :   1.4195
B( 12-C , 73-H ) :   0.9832 B( 13-C , 14-C ) :   1.3774 B( 13-C , 19-C ) :   0.9298
B( 14-C , 15-C ) :   1.3368 B( 14-C , 17-C ) :   1.0022 B( 15-C , 16-C ) :   1.3708
B( 15-C , 74-H ) :   0.9923 B( 16-C , 75-H ) :   0.9902 B( 17-C , 18-C ) :   1.3901
B( 17-C , 27-C ) :   1.3160 B( 18-C , 19-C ) :   0.9280 B( 18-C , 24-C ) :   1.3827
B( 19-C , 20-C ) :   1.0037 B( 19-C , 22-C ) :   1.0090 B( 20-C , 21-C ) :   1.1124
B( 20-C , 76-H ) :   0.9399 B( 20-C , 77-H ) :   0.9372 B( 21-C , 78-H ) :   0.9625
B( 21-C , 79-H ) :   0.9599 B( 21-C , 80-H ) :   0.9601 B( 22-C , 23-C ) :   1.1138
B( 22-C , 81-H ) :   0.9397 B( 22-C , 82-H ) :   0.9387 B( 23-C , 83-H ) :   0.9620
B( 23-C , 84-H ) :   0.9600 B( 23-C , 85-H ) :   0.9611 B( 24-C , 25-C ) :   1.2837
B( 24-C , 86-H ) :   1.0032 B( 25-C , 26-C ) :   1.3338 B( 25-C , 28-C ) :   1.0667
B( 26-C , 27-C ) :   1.4094 B( 26-C , 87-H ) :   0.9854 B( 27-C , 88-H ) :   0.9916
B( 28-C , 29-C ) :   1.6611 B( 28-C , 89-H ) :   0.9886 B( 29-C , 30-C ) :   1.1392
B( 29-C , 90-H ) :   0.9626 B( 30-C , 31-C ) :   1.5862 B( 30-C , 91-H ) :   0.9847
B( 31-C , 32-C ) :   1.1278 B( 31-C , 35-S ) :   1.0212 B( 32-C , 33-C ) :   1.6108
B( 32-C , 92-H ) :   0.9987 B( 33-C , 34-C ) :   1.1707 B( 33-C , 93-H ) :   0.9931
B( 34-C , 35-S ) :   1.0431 B( 34-C , 36-C ) :   1.5498 B( 36-C , 37-C ) :   1.1610
B( 36-C , 40-S ) :   1.0232 B( 37-C , 38-C ) :   1.6391 B( 37-C , 94-H ) :   0.9919
B( 38-C , 39-C ) :   1.0908 B( 38-C , 95-H ) :   1.0003 B( 39-C , 40-S ) :   1.0297
B( 39-C , 41-C ) :   1.7568 B( 41-C , 42-C ) :   0.9690 B( 41-C , 96-H ) :   0.9502
B( 42-C , 43-C ) :   1.3282 B( 42-C , 52-C ) :   1.4209 B( 43-C , 44-N ) :   1.1355
B( 43-C , 49-C ) :   1.2883 B( 44-N , 45-C ) :   0.9458 B( 44-N , 47-C ) :   1.1463
B( 45-C , 46-C ) :   1.1060 B( 45-C , 97-H ) :   0.9251 B( 45-C , 98-H ) :   0.9449
B( 46-C , 99-H ) :   0.9484 B( 46-C ,100-H ) :   0.9600 B( 46-C ,101-H ) :   0.9578
B( 47-C , 48-C ) :   1.2788 B( 47-C , 56-C ) :   1.2844 B( 48-C , 49-C ) :   1.0792
B( 48-C , 53-C ) :   1.3472 B( 49-C , 50-C ) :   1.3384 B( 50-C , 51-C ) :   1.3865
B( 50-C ,102-H ) :   0.9982 B( 51-C , 52-C ) :   1.3360 B( 51-C ,103-H ) :   0.9881
B( 52-C ,104-H ) :   0.9926 B( 53-C , 54-C ) :   1.3636 B( 53-C ,105-H ) :   1.0007
B( 54-C , 55-C ) :   1.3581 B( 54-C ,106-H ) :   0.9853 B( 55-C , 56-C ) :   1.3830
B( 55-C ,107-H ) :   0.9912 B( 56-C , 57-C ) :   1.0180 B( 57-C , 58-C ) :   1.6954
B( 57-C ,108-H ) :   0.9675 B( 58-C , 59-C ) :   1.1104 B( 58-C ,109-H ) :   0.9783
B( 59-C , 60-C ) :   1.5314 B( 59-C , 69-O ) :   1.1098 B( 60-C , 61-C ) :   1.1233
B( 60-C ,110-H ) :   0.9776 B( 61-C , 62-C ) :   1.5682 B( 61-C , 67-C ) :   1.1263
B( 62-C , 63-C ) :   1.1299 B( 62-C , 65-C ) :   1.1358 B( 63-C , 64-N ) :   3.0136
B( 65-C , 66-N ) :   3.0098 B( 67-C , 68-C ) :   1.6854 B( 67-C ,111-H ) :   0.9622
B( 68-C , 69-O ) :   1.1195 B( 68-C ,112-H ) :   0.9748

-----------------------------------------------------------------------------
         ABSORPTION SPECTRUM VIA TRANSITION ELECTRIC DIPOLE MOMENTS
-----------------------------------------------------------------------------
State   Energy  Wavelength   fosc         T2         TX        TY        TZ
        (cm-1)    (nm)                  (au**2)     (au)      (au)      (au)
-----------------------------------------------------------------------------
   0   17360.9    576.0   1.682059343  31.89669   3.15139   1.10026  -4.55575
   1   22138.2    451.7   0.011518273   0.17129  -0.20215   0.01383  -0.36087
   2   24779.1    403.6   0.221212611   2.93900   0.31590  -1.58182   0.58056
   3   25732.7    388.6   0.790269633  10.11034   1.68590   0.24951   2.68437
   4   26047.1    383.9   0.161720121   2.04400   0.84771   1.15124  -0.00536
   5   27409.6    364.8   0.482760885   5.79836  -0.76340  -1.89319   1.27727
   6   30039.3    332.9   0.368606823   4.03969   0.42774   1.34267  -1.43317
   7   30368.0    329.3   0.108727825   1.17869  -0.57176  -0.72737  -0.56809
   8   30606.9    326.7   0.104811411   1.12737   0.60179   0.28868   0.82576
   9   31117.1    321.4   0.171154800   1.81078   0.01017  -0.74960  -1.11748
  10   31774.8    314.7   0.391198769   4.05312  -0.30232   1.77182   0.90684
  11   32073.0    311.8   0.268429153   2.75528  -0.31816   0.14837  -1.62236
  12   33200.2    301.2   0.009169353   0.09092   0.14764   0.20211  -0.16816
  13   33402.1    299.4   0.013832719   0.13634  -0.00585  -0.19562  -0.31311
  14   33642.0    297.2   0.075364228   0.73749  -0.27925  -0.62250   0.52155
  15   33777.8    296.1   0.017440124   0.16998  -0.14393  -0.18170   0.34095
  16   34103.2    293.2   0.092401941   0.89199   0.40271   0.46122  -0.71909
  17   34920.0    286.4   0.068356403   0.64444   0.31912  -0.16754   0.71731
  18   35036.7    285.4   0.016513834   0.15517  -0.08178  -0.12152   0.36566
  19   35078.5    285.1   0.009819540   0.09216  -0.11327   0.12764  -0.25107
  20   35424.1    282.3   0.052307982   0.48612  -0.22777  -0.39698   0.52597
  21   36087.3    277.1   0.024064248   0.21953  -0.19121  -0.35157   0.24366
  22   36910.7    270.9   0.015813319   0.14104  -0.07906  -0.11889   0.34736
  23   37314.2    268.0   0.097448915   0.85976   0.35211   0.71730   0.47039
  24   37515.5    266.6   0.027492674   0.24126  -0.08169   0.19299   0.44423
  25   37681.8    265.4   0.185285243   1.61877   0.24602  -0.56695  -1.11212
  26   38375.8    260.6   0.026516700   0.22748  -0.01746   0.46193   0.11745
  27   39007.2    256.4   0.081438439   0.68732  -0.63389  -0.21690  -0.48832
  28   39181.8    255.2   0.147578566   1.23998  -0.97992  -0.24072  -0.47095
  29   39351.5    254.1   0.061950950   0.51828   0.12309  -0.53298  -0.46804
  30   39775.2    251.4   0.045388348   0.37567  -0.54216   0.06045  -0.27943
  31   39869.6    250.8   0.048226206   0.39821   0.27303   0.34626   0.45141
  32   40030.8    249.8   0.044209778   0.36358  -0.13416   0.55288  -0.19977

FINAL SINGLE POINT ENERGY     -3567.061319304267

DIPOLE MOMENT
-------------
                                X             Y             Z
Electronic contribution:     18.75798     -20.00817      -4.48826
Nuclear contribution   :    -18.91918      21.79429      -2.49351
                        -----------------------------------------
Total Dipole Moment    :     -0.16120       1.78612      -6.98176
                        -----------------------------------------
Magnitude (a.u.)       :      7.20841
Magnitude (Debye)      :     18.32233

Rotational constants in cm-1:     0.001012     0.000327     0.000300
Rotational constants in MHz :    30.348469     9.789781     8.989137

                             ****ORCA TERMINATED NORMALLY****
TOTAL RUN TIME: 0 days 0 hours 10 minutes 1 seconds 161 msec
