                         Program Version 4.2.0 -  RELEASE  -
|  1> # ORCA input file
|  2> # SCF done       -186.777146761119          0.000466958372
|  3> ! CAM-B3LYP def2-SVP def2/J RIJCOSX Grid4 TightSCF
|  4> %maxcore 5000
|  5> %tddft
|  6>     Mode sTDDFT
|  7>     Ethresh 5.0
|  8>     maxcore 5000
|  9> end
| 10>
| 11> %pal
| 12>   nprocs 6
| 13>   end
| 14> * xyz 0 1
| 15>    C       -0.56655        -1.04032        -3.73904
| 16>    C       -0.65621        -1.56330        -2.51541
| 17>    C        0.50467        -2.00176        -1.79225
| 18>    C        1.75864        -1.74418        -2.22666
| 19>    C        1.96850        -0.93167        -3.49180
| 20>    C        0.75649        -0.94567        -4.44990
| 21>    N        0.70125         0.19215        -5.33720
| 22>    C        1.26879         1.25938        -4.99358
| 23>    C        2.04292         1.38396        -3.74295
| 24>    N        2.36172         0.38920        -3.04518
| 25>    F        2.38690         2.60240        -3.34187
| 26>    F        1.19049         2.32421        -5.78349
| 27>    C        2.93377        -2.09940        -1.49103
| 28>    C        3.02204        -2.85091        -0.33313
| 29>    C        4.33861        -3.00006         0.10249
| 30>    C        5.26558        -2.34917        -0.72866
| 31>    S        4.51396        -1.56111        -2.03988
| 32>    C        6.56796        -2.56580        -0.20748
| 33>    C        6.46268        -3.35569         0.94875
| 34>    C        5.05758        -3.65241         1.18427
| 35>    C        4.52972        -4.38757         2.20469
| 36>    C        5.33688        -4.97550         3.20113
| 37>    N        5.98991        -5.45535         4.01237
| 38>    C        3.14202        -4.60848         2.32808
| 39>    N        2.01428        -4.78997         2.42968
| 40>    C        7.69852        -3.63417         1.53251
| 41>    C        8.74222        -3.05971         0.83113
| 42>    S        8.18611        -2.15956        -0.57345
| 43>    C       10.12693        -3.13683         1.12639
| 44>    C       11.17119        -2.53126         0.45268
| 45>    C       12.40674        -2.83499         1.02509
| 46>    C       12.29964        -3.68175         2.14089
| 47>    S       10.68114        -4.09966         2.49002
| 48>    C       13.60076        -3.93271         2.64557
| 49>    C       14.53049        -3.24065         1.85201
| 50>    C       13.81193        -2.52929         0.80610
| 51>    C       14.34383        -1.74551        -0.17498
| 52>    C       15.73273        -1.52465        -0.28758
| 53>    N       16.86126        -1.34523        -0.38186
| 54>    C       13.53992        -1.10802        -1.14335
| 55>    N       12.88779        -0.59105        -1.93215
| 56>    C       15.84793        -3.42646         2.27158
| 57>    C       15.92686        -4.25763         3.37352
| 58>    S       14.34587        -4.81639         3.90303
| 59>    C       17.09431        -4.67119         4.06416
| 60>    C       17.17872        -5.54614         5.13111
| 61>    C       18.49569        -5.72321         5.55608
| 62>    C       19.41823        -4.97351         4.80868
| 63>    S       18.66886        -4.05544         3.57988
| 64>    C       20.72274        -5.22313         5.31047
| 65>    C       20.61869        -6.13005         6.37951
| 66>    C       19.22057        -6.47867         6.56694
| 67>    C       18.69722        -7.33977         7.48670
| 68>    C       19.50829        -8.02721         8.41335
| 69>    N       20.16542        -8.59101         9.16539
| 70>    C       17.31365        -7.60209         7.56698
| 71>    N       16.18915        -7.81751         7.63103
| 72>    C       21.85413        -6.43630         6.94770
| 73>    C       22.89676        -5.76520         6.33135
| 74>    S       22.32984        -4.72918         5.03179
| 75>    C       24.29539        -5.88033         6.62490
| 76>    C       24.79331        -6.83893         7.43807
| 77>    C       26.19691        -6.96567         7.70890
| 78>    C       27.07757        -6.04845         7.30570
| 79>    C       26.63221        -4.79645         6.60209
| 80>    C       25.25840        -4.94234         5.90753
| 81>    N       24.59827        -3.67501         5.70138
| 82>    C       24.83458        -2.72515         6.49161
| 83>    C       25.85150        -2.81555         7.55551
| 84>    N       26.68965        -3.74928         7.60261
| 85>    F       25.87511        -1.85832         8.47613
| 86>    F       24.18945        -1.57564         6.33516
| 87>    H       -1.42363        -0.69736        -4.29530
| 88>    H       -1.61560        -1.66569        -2.03211
| 89>    H        0.34583        -2.52555        -0.86349
| 90>    H        2.84320        -1.33313        -4.02462
| 91>    H        0.83117        -1.82320        -5.10909
| 92>    H        2.17026        -3.27735         0.16254
| 93>    H        7.84739        -4.22163         2.42075
| 94>    H       11.02281        -1.90322        -0.40742
| 95>    H       16.71461        -2.98944         1.80894
| 96>    H       16.31727        -6.02303         5.56333
| 97>    H       21.98649        -7.10385         7.77846
| 98>    H       24.13032        -7.54758         7.90727
| 99>    H       26.52130        -7.83284         8.26321
|100>    H       28.12431        -6.10451         7.55243
|101>    H       27.38493        -4.51867         5.85078
|102>    H       25.41077        -5.35935         4.90129
|103> *
|104>
|105>                          ****END OF INPUT****

CARTESIAN COORDINATES (ANGSTROEM)
---------------------------------
  C     -0.566550   -1.040320   -3.739040
  C     -0.656210   -1.563300   -2.515410
  C      0.504670   -2.001760   -1.792250
  C      1.758640   -1.744180   -2.226660
  C      1.968500   -0.931670   -3.491800
  C      0.756490   -0.945670   -4.449900
  N      0.701250    0.192150   -5.337200
  C      1.268790    1.259380   -4.993580
  C      2.042920    1.383960   -3.742950
  N      2.361720    0.389200   -3.045180
  F      2.386900    2.602400   -3.341870
  F      1.190490    2.324210   -5.783490
  C      2.933770   -2.099400   -1.491030
  C      3.022040   -2.850910   -0.333130
  C      4.338610   -3.000060    0.102490
  C      5.265580   -2.349170   -0.728660
  S      4.513960   -1.561110   -2.039880
  C      6.567960   -2.565800   -0.207480
  C      6.462680   -3.355690    0.948750
  C      5.057580   -3.652410    1.184270
  C      4.529720   -4.387570    2.204690
  C      5.336880   -4.975500    3.201130
  N      5.989910   -5.455350    4.012370
  C      3.142020   -4.608480    2.328080
  N      2.014280   -4.789970    2.429680
  C      7.698520   -3.634170    1.532510
  C      8.742220   -3.059710    0.831130
  S      8.186110   -2.159560   -0.573450
  C     10.126930   -3.136830    1.126390
  C     11.171190   -2.531260    0.452680
  C     12.406740   -2.834990    1.025090
  C     12.299640   -3.681750    2.140890
  S     10.681140   -4.099660    2.490020
  C     13.600760   -3.932710    2.645570
  C     14.530490   -3.240650    1.852010
  C     13.811930   -2.529290    0.806100
  C     14.343830   -1.745510   -0.174980
  C     15.732730   -1.524650   -0.287580
  N     16.861260   -1.345230   -0.381860
  C     13.539920   -1.108020   -1.143350
  N     12.887790   -0.591050   -1.932150
  C     15.847930   -3.426460    2.271580
  C     15.926860   -4.257630    3.373520
  S     14.345870   -4.816390    3.903030
  C     17.094310   -4.671190    4.064160
  C     17.178720   -5.546140    5.131110
  C     18.495690   -5.723210    5.556080
  C     19.418230   -4.973510    4.808680
  S     18.668860   -4.055440    3.579880
  C     20.722740   -5.223130    5.310470
  C     20.618690   -6.130050    6.379510
  C     19.220570   -6.478670    6.566940
  C     18.697220   -7.339770    7.486700
  C     19.508290   -8.027210    8.413350
  N     20.165420   -8.591010    9.165390
  C     17.313650   -7.602090    7.566980
  N     16.189150   -7.817510    7.631030
  C     21.854130   -6.436300    6.947700
  C     22.896760   -5.765200    6.331350
  S     22.329840   -4.729180    5.031790
  C     24.295390   -5.880330    6.624900
  C     24.793310   -6.838930    7.438070
  C     26.196910   -6.965670    7.708900
  C     27.077570   -6.048450    7.305700
  C     26.632210   -4.796450    6.602090
  C     25.258400   -4.942340    5.907530
  N     24.598270   -3.675010    5.701380
  C     24.834580   -2.725150    6.491610
  C     25.851500   -2.815550    7.555510
  N     26.689650   -3.749280    7.602610
  F     25.875110   -1.858320    8.476130
  F     24.189450   -1.575640    6.335160
  H     -1.423630   -0.697360   -4.295300
  H     -1.615600   -1.665690   -2.032110
  H      0.345830   -2.525550   -0.863490
  H      2.843200   -1.333130   -4.024620
  H      0.831170   -1.823200   -5.109090
  H      2.170260   -3.277350    0.162540
  H      7.847390   -4.221630    2.420750
  H     11.022810   -1.903220   -0.407420
  H     16.714610   -2.989440    1.808940
  H     16.317270   -6.023030    5.563330
  H     21.986490   -7.103850    7.778460
  H     24.130320   -7.547580    7.907270
  H     26.521300   -7.832840    8.263210
  H     28.124310   -6.104510    7.552430
  H     27.384930   -4.518670    5.850780
  H     25.410770   -5.359350    4.901290

 Total Charge           Charge          ....    0
 Multiplicity           Mult            ....    1
 Number of Electrons    NEL             ....  530
 Basis Dimension        Dim             .... 1112

ORBITAL ENERGIES
----------------

  NO   OCC          E(Eh)            E(eV)
   0   2.0000     -88.992358     -2421.6052
   1   2.0000     -88.991987     -2421.5951
   2   2.0000     -88.991572     -2421.5838
   3   2.0000     -88.989703     -2421.5329
   4   2.0000     -88.987835     -2421.4821
   5   2.0000     -88.983376     -2421.3608
   6   2.0000     -24.816414      -675.2890
   7   2.0000     -24.808571      -675.0755
   8   2.0000     -24.808315      -675.0686
   9   2.0000     -24.807242      -675.0394
  10   2.0000     -14.443367      -393.0240
  11   2.0000     -14.438584      -392.8939
  12   2.0000     -14.437633      -392.8680
  13   2.0000     -14.435920      -392.8214
  14   2.0000     -14.432830      -392.7373
  15   2.0000     -14.432696      -392.7336
  16   2.0000     -14.430460      -392.6728
  17   2.0000     -14.430390      -392.6709
  18   2.0000     -14.428160      -392.6102
  19   2.0000     -14.428099      -392.6085
  20   2.0000     -10.431411      -283.8531
  21   2.0000     -10.423094      -283.6268
  22   2.0000     -10.423087      -283.6266
  23   2.0000     -10.421852      -283.5930
  24   2.0000     -10.366883      -282.0972
  25   2.0000     -10.363890      -282.0158
  26   2.0000     -10.360776      -281.9311
  27   2.0000     -10.354148      -281.7507
  28   2.0000     -10.351697      -281.6840
  29   2.0000     -10.349314      -281.6192
  30   2.0000     -10.340602      -281.3821
  31   2.0000     -10.337952      -281.3100
  32   2.0000     -10.334986      -281.2293
  33   2.0000     -10.333453      -281.1875
  34   2.0000     -10.333251      -281.1821
  35   2.0000     -10.333072      -281.1772
  36   2.0000     -10.332951      -281.1739
  37   2.0000     -10.332789      -281.1695
  38   2.0000     -10.332622      -281.1649
  39   2.0000     -10.331022      -281.1214
  40   2.0000     -10.330958      -281.1197
  41   2.0000     -10.330796      -281.1153
  42   2.0000     -10.330505      -281.1073
  43   2.0000     -10.330301      -281.1018
  44   2.0000     -10.329770      -281.0873
  45   2.0000     -10.328914      -281.0640
  46   2.0000     -10.328844      -281.0621
  47   2.0000     -10.328280      -281.0468
  48   2.0000     -10.328273      -281.0466
  49   2.0000     -10.321516      -280.8627
  50   2.0000     -10.320472      -280.8343
  51   2.0000     -10.317978      -280.7665
  52   2.0000     -10.305773      -280.4343
  53   2.0000     -10.304593      -280.4022
  54   2.0000     -10.304516      -280.4001
  55   2.0000     -10.303838      -280.3817
  56   2.0000     -10.303478      -280.3719
  57   2.0000     -10.303034      -280.3598
  58   2.0000     -10.302836      -280.3544
  59   2.0000     -10.302539      -280.3463
  60   2.0000     -10.301469      -280.3172
  61   2.0000     -10.300948      -280.3031
  62   2.0000     -10.300468      -280.2900
  63   2.0000     -10.297549      -280.2106
  64   2.0000     -10.296462      -280.1810
  65   2.0000     -10.295725      -280.1609
  66   2.0000     -10.288223      -279.9568
  67   2.0000     -10.286403      -279.9073
  68   2.0000     -10.285743      -279.8893
  69   2.0000     -10.285340      -279.8783
  70   2.0000     -10.284451      -279.8541
  71   2.0000     -10.284362      -279.8517
  72   2.0000      -8.086709      -220.0505
  73   2.0000      -8.086332      -220.0403
  74   2.0000      -8.085929      -220.0293
  75   2.0000      -8.084099      -219.9795
  76   2.0000      -8.081940      -219.9208
  77   2.0000      -8.076612      -219.7758
  78   2.0000      -6.055999      -164.7921
  79   2.0000      -6.055653      -164.7827
  80   2.0000      -6.055222      -164.7710
  81   2.0000      -6.053403      -164.7215
  82   2.0000      -6.051857      -164.6794
  83   2.0000      -6.051455      -164.6685
  84   2.0000      -6.051137      -164.6598
  85   2.0000      -6.051082      -164.6583
  86   2.0000      -6.049210      -164.6074
  87   2.0000      -6.048984      -164.6012
  88   2.0000      -6.048616      -164.5912
  89   2.0000      -6.048212      -164.5802
  90   2.0000      -6.046879      -164.5439
  91   2.0000      -6.046400      -164.5309
  92   2.0000      -6.045926      -164.5180
  93   2.0000      -6.044561      -164.4809
  94   2.0000      -6.041359      -164.3937
  95   2.0000      -6.039292      -164.3375
  96   2.0000      -1.343400       -36.5558
  97   2.0000      -1.337922       -36.4067
  98   2.0000      -1.326891       -36.1066
  99   2.0000      -1.323158       -36.0050
 100   2.0000      -1.093370       -29.7521
 101   2.0000      -1.088371       -29.6161
 102   2.0000      -1.047387       -28.5008
 103   2.0000      -1.043426       -28.3931
 104   2.0000      -1.040762       -28.3206
 105   2.0000      -1.026152       -27.9230
 106   2.0000      -1.024570       -27.8800
 107   2.0000      -1.022726       -27.8298
 108   2.0000      -1.020987       -27.7825
 109   2.0000      -1.019530       -27.7428
 110   2.0000      -1.010589       -27.4995
 111   2.0000      -1.008348       -27.4386
 112   2.0000      -1.006789       -27.3961
 113   2.0000      -1.005755       -27.3680
 114   2.0000      -0.996905       -27.1272
 115   2.0000      -0.987997       -26.8848
 116   2.0000      -0.967085       -26.3157
 117   2.0000      -0.960474       -26.1358
 118   2.0000      -0.955497       -26.0004
 119   2.0000      -0.947687       -25.7879
 120   2.0000      -0.946879       -25.7659
 121   2.0000      -0.921256       -25.0686
 122   2.0000      -0.910818       -24.7846
 123   2.0000      -0.901546       -24.5323
 124   2.0000      -0.876223       -23.8432
 125   2.0000      -0.874705       -23.8019
 126   2.0000      -0.871465       -23.7138
 127   2.0000      -0.868199       -23.6249
 128   2.0000      -0.866698       -23.5841
 129   2.0000      -0.865141       -23.5417
 130   2.0000      -0.859216       -23.3804
 131   2.0000      -0.857319       -23.3288
 132   2.0000      -0.850195       -23.1350
 133   2.0000      -0.847771       -23.0690
 134   2.0000      -0.831733       -22.6326
 135   2.0000      -0.806270       -21.9397
 136   2.0000      -0.783792       -21.3281
 137   2.0000      -0.781887       -21.2762
 138   2.0000      -0.780515       -21.2389
 139   2.0000      -0.778679       -21.1889
 140   2.0000      -0.775754       -21.1093
 141   2.0000      -0.773607       -21.0509
 142   2.0000      -0.767020       -20.8717
 143   2.0000      -0.757318       -20.6077
 144   2.0000      -0.746289       -20.3075
 145   2.0000      -0.728887       -19.8340
 146   2.0000      -0.713337       -19.4109
 147   2.0000      -0.706827       -19.2338
 148   2.0000      -0.698812       -19.0157
 149   2.0000      -0.694790       -18.9062
 150   2.0000      -0.688777       -18.7426
 151   2.0000      -0.686908       -18.6917
 152   2.0000      -0.681618       -18.5478
 153   2.0000      -0.677505       -18.4359
 154   2.0000      -0.675232       -18.3740
 155   2.0000      -0.671521       -18.2730
 156   2.0000      -0.669256       -18.2114
 157   2.0000      -0.669041       -18.2055
 158   2.0000      -0.656502       -17.8643
 159   2.0000      -0.652177       -17.7466
 160   2.0000      -0.638796       -17.3825
 161   2.0000      -0.637676       -17.3520
 162   2.0000      -0.631722       -17.1900
 163   2.0000      -0.631446       -17.1825
 164   2.0000      -0.627224       -17.0676
 165   2.0000      -0.624086       -16.9823
 166   2.0000      -0.621598       -16.9145
 167   2.0000      -0.620129       -16.8746
 168   2.0000      -0.618046       -16.8179
 169   2.0000      -0.612943       -16.6790
 170   2.0000      -0.609038       -16.5728
 171   2.0000      -0.607039       -16.5184
 172   2.0000      -0.598037       -16.2734
 173   2.0000      -0.592829       -16.1317
 174   2.0000      -0.589905       -16.0521
 175   2.0000      -0.585564       -15.9340
 176   2.0000      -0.576070       -15.6757
 177   2.0000      -0.571269       -15.5450
 178   2.0000      -0.566595       -15.4178
 179   2.0000      -0.563132       -15.3236
 180   2.0000      -0.559248       -15.2179
 181   2.0000      -0.552594       -15.0368
 182   2.0000      -0.551152       -14.9976
 183   2.0000      -0.550631       -14.9834
 184   2.0000      -0.546573       -14.8730
 185   2.0000      -0.545984       -14.8570
 186   2.0000      -0.544689       -14.8218
 187   2.0000      -0.542699       -14.7676
 188   2.0000      -0.539918       -14.6919
 189   2.0000      -0.535681       -14.5766
 190   2.0000      -0.530628       -14.4391
 191   2.0000      -0.525489       -14.2993
 192   2.0000      -0.520792       -14.1715
 193   2.0000      -0.516442       -14.0531
 194   2.0000      -0.513840       -13.9823
 195   2.0000      -0.513478       -13.9725
 196   2.0000      -0.510056       -13.8793
 197   2.0000      -0.508003       -13.8235
 198   2.0000      -0.506197       -13.7743
 199   2.0000      -0.505621       -13.7586
 200   2.0000      -0.503543       -13.7021
 201   2.0000      -0.500802       -13.6275
 202   2.0000      -0.499700       -13.5975
 203   2.0000      -0.496158       -13.5011
 204   2.0000      -0.495244       -13.4763
 205   2.0000      -0.492642       -13.4055
 206   2.0000      -0.489897       -13.3308
 207   2.0000      -0.487774       -13.2730
 208   2.0000      -0.482966       -13.1422
 209   2.0000      -0.482585       -13.1318
 210   2.0000      -0.479038       -13.0353
 211   2.0000      -0.473855       -12.8943
 212   2.0000      -0.470157       -12.7936
 213   2.0000      -0.467907       -12.7324
 214   2.0000      -0.464318       -12.6347
 215   2.0000      -0.464006       -12.6263
 216   2.0000      -0.461998       -12.5716
 217   2.0000      -0.460400       -12.5281
 218   2.0000      -0.459854       -12.5133
 219   2.0000      -0.458573       -12.4784
 220   2.0000      -0.457269       -12.4429
 221   2.0000      -0.456162       -12.4128
 222   2.0000      -0.454465       -12.3666
 223   2.0000      -0.452585       -12.3155
 224   2.0000      -0.445363       -12.1189
 225   2.0000      -0.443098       -12.0573
 226   2.0000      -0.442607       -12.0440
 227   2.0000      -0.440924       -11.9982
 228   2.0000      -0.440458       -11.9855
 229   2.0000      -0.438972       -11.9450
 230   2.0000      -0.438800       -11.9404
 231   2.0000      -0.438289       -11.9265
 232   2.0000      -0.436957       -11.8902
 233   2.0000      -0.435892       -11.8612
 234   2.0000      -0.435454       -11.8493
 235   2.0000      -0.434258       -11.8167
 236   2.0000      -0.428239       -11.6530
 237   2.0000      -0.426752       -11.6125
 238   2.0000      -0.425345       -11.5742
 239   2.0000      -0.424895       -11.5620
 240   2.0000      -0.423567       -11.5259
 241   2.0000      -0.422706       -11.5024
 242   2.0000      -0.415526       -11.3070
 243   2.0000      -0.407429       -11.0867
 244   2.0000      -0.406339       -11.0570
 245   2.0000      -0.401237       -10.9182
 246   2.0000      -0.395521       -10.7627
 247   2.0000      -0.390983       -10.6392
 248   2.0000      -0.379665       -10.3312
 249   2.0000      -0.367467        -9.9993
 250   2.0000      -0.365105        -9.9350
 251   2.0000      -0.360669        -9.8143
 252   2.0000      -0.356026        -9.6880
 253   2.0000      -0.354155        -9.6371
 254   2.0000      -0.351797        -9.5729
 255   2.0000      -0.345300        -9.3961
 256   2.0000      -0.341979        -9.3057
 257   2.0000      -0.333134        -9.0650
 258   2.0000      -0.325395        -8.8544
 259   2.0000      -0.321152        -8.7390
 260   2.0000      -0.316432        -8.6105
 261   2.0000      -0.309012        -8.4087
 262   2.0000      -0.282724        -7.6933
 263   2.0000      -0.255294        -6.9469
 264   2.0000      -0.233927        -6.3655
 265   0.0000      -0.108727        -2.9586
 266   0.0000      -0.102692        -2.7944
 267   0.0000      -0.100082        -2.7234
 268   0.0000      -0.055637        -1.5139
 269   0.0000      -0.050006        -1.3607

MULLIKEN ATOMIC CHARGES
-----------------------
   0 C :   -0.042401
   1 C :    0.065424
   2 C :   -0.070936
   3 C :    0.082479
   4 C :    0.023256
   5 C :    0.126853
   6 N :   -0.090211
   7 C :    0.100051
   8 C :    0.119416
   9 N :   -0.085461
  10 F :   -0.141474
  11 F :   -0.143042
  12 C :   -0.056329
  13 C :   -0.035771
  14 C :    0.005863
  15 C :   -0.098554
  16 S :    0.191515
  17 C :   -0.099655
  18 C :    0.014349
  19 C :    0.303453
  20 C :   -0.298846
  21 C :   -0.189650
  22 N :    0.172672
  23 C :   -0.184446
  24 N :    0.166657
  25 C :   -0.066469
  26 C :   -0.052620
  27 S :    0.193365
  28 C :   -0.051563
  29 C :   -0.067589
  30 C :    0.015554
  31 C :   -0.097972
  32 S :    0.195903
  33 C :   -0.098844
  34 C :    0.014293
  35 C :    0.299760
  36 C :   -0.296370
  37 C :   -0.187209
  38 N :    0.171186
  39 C :   -0.188907
  40 N :    0.173599
  41 C :   -0.067151
  42 C :   -0.050141
  43 S :    0.196914
  44 C :   -0.052134
  45 C :   -0.066266
  46 C :    0.011631
  47 C :   -0.101302
  48 S :    0.192630
  49 C :   -0.095904
  50 C :    0.010357
  51 C :    0.304521
  52 C :   -0.301783
  53 C :   -0.186917
  54 N :    0.167858
  55 C :   -0.188832
  56 N :    0.168517
  57 C :   -0.042621
  58 C :   -0.068686
  59 S :    0.218749
  60 C :    0.031752
  61 C :   -0.054568
  62 C :    0.038650
  63 C :    0.005367
  64 C :    0.096803
  65 C :    0.090555
  66 N :   -0.137848
  67 C :    0.136583
  68 C :    0.119152
  69 N :   -0.085652
  70 F :   -0.143215
  71 F :   -0.138149
  72 H :    0.014074
  73 H :   -0.004070
  74 H :   -0.008387
  75 H :    0.039832
  76 H :    0.041233
  77 H :    0.002146
  78 H :    0.011497
  79 H :    0.010725
  80 H :    0.010887
  81 H :    0.010467
  82 H :    0.003823
  83 H :   -0.010537
  84 H :   -0.004043
  85 H :    0.006832
  86 H :    0.031400
  87 H :    0.043924
Sum of atomic charges:   -0.0000000

LOEWDIN ATOMIC CHARGES
----------------------
   0 C :   -0.018537
   1 C :   -0.030482
   2 C :   -0.017171
   3 C :   -0.036222
   4 C :    0.007310
   5 C :    0.011548
   6 N :   -0.067595
   7 C :    0.045941
   8 C :    0.048463
   9 N :   -0.078688
  10 F :   -0.030378
  11 F :   -0.031663
  12 C :   -0.154727
  13 C :   -0.024497
  14 C :   -0.070606
  15 C :   -0.188151
  16 S :    0.497409
  17 C :   -0.176570
  18 C :   -0.070568
  19 C :    0.084353
  20 C :   -0.104504
  21 C :   -0.016537
  22 N :   -0.034529
  23 C :   -0.015210
  24 N :   -0.035857
  25 C :   -0.039564
  26 C :   -0.182015
  27 S :    0.482687
  28 C :   -0.179213
  29 C :   -0.040451
  30 C :   -0.070052
  31 C :   -0.179627
  32 S :    0.485543
  33 C :   -0.181295
  34 C :   -0.069312
  35 C :    0.084007
  36 C :   -0.102042
  37 C :   -0.016061
  38 N :   -0.033140
  39 C :   -0.016109
  40 N :   -0.033402
  41 C :   -0.040939
  42 C :   -0.178038
  43 S :    0.485675
  44 C :   -0.182938
  45 C :   -0.039237
  46 C :   -0.070632
  47 C :   -0.175625
  48 S :    0.483284
  49 C :   -0.193558
  50 C :   -0.074558
  51 C :    0.084735
  52 C :   -0.107847
  53 C :   -0.015446
  54 N :   -0.037969
  55 C :   -0.016511
  56 N :   -0.037165
  57 C :   -0.023874
  58 C :   -0.170032
  59 S :    0.519021
  60 C :   -0.043089
  61 C :   -0.025403
  62 C :   -0.025915
  63 C :   -0.013597
  64 C :    0.013818
  65 C :    0.014463
  66 N :   -0.096396
  67 C :    0.061867
  68 C :    0.041856
  69 N :   -0.059718
  70 F :   -0.031931
  71 F :   -0.026414
  72 H :    0.032621
  73 H :    0.035155
  74 H :    0.032983
  75 H :    0.028220
  76 H :    0.047999
  77 H :    0.038193
  78 H :    0.035241
  79 H :    0.035335
  80 H :    0.035245
  81 H :    0.035168
  82 H :    0.037699
  83 H :    0.032957
  84 H :    0.035199
  85 H :    0.031125
  86 H :    0.041310
  87 H :    0.045173

  Mayer bond orders larger than 0.100000
B(  0-C ,  1-C ) :   1.8029 B(  0-C ,  5-C ) :   0.9689 B(  0-C , 72-H ) :   0.9812
B(  1-C ,  2-C ) :   1.0694 B(  1-C , 73-H ) :   0.9799 B(  2-C ,  3-C ) :   1.7394
B(  2-C , 74-H ) :   0.9806 B(  3-C ,  4-C ) :   0.9751 B(  3-C , 12-C ) :   1.1067
B(  4-C ,  5-C ) :   0.9788 B(  4-C ,  9-N ) :   1.0200 B(  4-C , 75-H ) :   0.8961
B(  5-C ,  6-N ) :   1.0085 B(  5-C , 76-H ) :   0.8826 B(  6-N ,  7-C ) :   1.9573
B(  7-C ,  8-C ) :   0.9342 B(  7-C , 11-F ) :   1.1629 B(  8-C ,  9-N ) :   1.9593
B(  8-C , 10-F ) :   1.1678 B( 12-C , 13-C ) :   1.4788 B( 12-C , 16-S ) :   1.1101
B( 13-C , 14-C ) :   1.2972 B( 13-C , 77-H ) :   0.9900 B( 14-C , 15-C ) :   1.4338
B( 14-C , 19-C ) :   0.9970 B( 15-C , 16-S ) :   1.1331 B( 15-C , 17-C ) :   1.1816
B( 17-C , 18-C ) :   1.4502 B( 17-C , 27-S ) :   1.1210 B( 18-C , 19-C ) :   0.9947
B( 18-C , 25-C ) :   1.2979 B( 19-C , 20-C ) :   1.7104 B( 20-C , 21-C ) :   1.1331
B( 20-C , 23-C ) :   1.1335 B( 21-C , 22-N ) :   2.9922 B( 23-C , 24-N ) :   2.9884
B( 25-C , 26-C ) :   1.4625 B( 25-C , 78-H ) :   0.9861 B( 26-C , 27-S ) :   1.1051
B( 26-C , 28-C ) :   1.1681 B( 28-C , 29-C ) :   1.4609 B( 28-C , 32-S ) :   1.1072
B( 29-C , 30-C ) :   1.2982 B( 29-C , 79-H ) :   0.9873 B( 30-C , 31-C ) :   1.4484
B( 30-C , 35-C ) :   0.9953 B( 31-C , 32-S ) :   1.1200 B( 31-C , 33-C ) :   1.1847
B( 33-C , 34-C ) :   1.4489 B( 33-C , 43-S ) :   1.1181 B( 34-C , 35-C ) :   0.9941
B( 34-C , 41-C ) :   1.2975 B( 35-C , 36-C ) :   1.7142 B( 36-C , 37-C ) :   1.1320
B( 36-C , 39-C ) :   1.1337 B( 37-C , 38-N ) :   2.9919 B( 39-C , 40-N ) :   2.9928
B( 41-C , 42-C ) :   1.4603 B( 41-C , 80-H ) :   0.9874 B( 42-C , 43-S ) :   1.1094
B( 42-C , 44-C ) :   1.1669 B( 44-C , 45-C ) :   1.4615 B( 44-C , 48-S ) :   1.1056
B( 45-C , 46-C ) :   1.2967 B( 45-C , 81-H ) :   0.9872 B( 46-C , 47-C ) :   1.4508
B( 46-C , 51-C ) :   0.9937 B( 47-C , 48-S ) :   1.1220 B( 47-C , 49-C ) :   1.1841
B( 49-C , 50-C ) :   1.4185 B( 49-C , 59-S ) :   1.1165 B( 50-C , 51-C ) :   1.0023
B( 50-C , 57-C ) :   1.3055 B( 51-C , 52-C ) :   1.7063 B( 52-C , 53-C ) :   1.1359
B( 52-C , 55-C ) :   1.1320 B( 53-C , 54-N ) :   2.9897 B( 55-C , 56-N ) :   2.9918
B( 57-C , 58-C ) :   1.4669 B( 57-C , 82-H ) :   0.9908 B( 58-C , 59-S ) :   1.1157
B( 58-C , 60-C ) :   1.1032 B( 60-C , 61-C ) :   1.7515 B( 60-C , 65-C ) :   0.9359
B( 61-C , 62-C ) :   1.0765 B( 61-C , 83-H ) :   0.9795 B( 62-C , 63-C ) :   1.8112
B( 62-C , 84-H ) :   0.9789 B( 63-C , 64-C ) :   0.9969 B( 63-C , 85-H ) :   0.9750
B( 64-C , 65-C ) :   0.9861 B( 64-C , 69-N ) :   1.0025 B( 64-C , 86-H ) :   0.9033
B( 65-C , 66-N ) :   0.9925 B( 65-C , 87-H ) :   0.8826 B( 66-N , 67-C ) :   1.9101
B( 67-C , 68-C ) :   0.9371 B( 67-C , 71-F ) :   1.1752 B( 68-C , 69-N ) :   1.9560
B( 68-C , 70-F ) :   1.1640

-----------------------------------------------------------------------------
         ABSORPTION SPECTRUM VIA TRANSITION ELECTRIC DIPOLE MOMENTS
-----------------------------------------------------------------------------
State   Energy  Wavelength   fosc         T2         TX        TY        TZ
        (cm-1)    (nm)                  (au**2)     (au)      (au)      (au)
-----------------------------------------------------------------------------
   0   10407.1    960.9   0.295741712   9.35529  -2.80672   0.53256  -1.09270
   1   11639.7    859.1   0.106051417   2.99952   1.61158  -0.24153   0.58650
   2   12036.9    830.8   0.045643013   1.24835  -0.97649   0.28299  -0.46340
   3   19147.9    522.3   0.001771170   0.03045  -0.07237   0.10756  -0.11682
   4   20736.3    482.2   0.238588142   3.78785  -1.79558   0.31995  -0.67924
   5   21387.3    467.6   0.127711716   1.96585   1.30048  -0.19514   0.48634
   6   23571.4    424.2   1.888266794  26.37261  -4.72427   0.82637  -1.83602
   7   24648.6    405.7   0.020726372   0.27683  -0.40746   0.30138  -0.14132
   8   25619.1    390.3   0.745596673   9.58110  -2.85762   0.52821  -1.06589
   9   26450.3    378.1   0.097919580   1.21875  -0.87630   0.45793  -0.49106
  10   26558.4    376.5   0.026947875   0.33404  -0.53231   0.17750  -0.13850
  11   27120.1    368.7   0.010534398   0.12788   0.08371   0.25575  -0.23550
  12   27841.6    359.2   0.019259852   0.22774  -0.21342  -0.32890   0.27206
  13   30423.9    328.7   0.377683353   4.08685  -1.75895  -0.83655   0.54140
  14   30619.9    326.6   0.018737821   0.20146  -0.43630  -0.06625  -0.08194
  15   30681.4    325.9   0.099014820   1.06243  -0.76092   0.29983  -0.62733
  16   31121.9    321.3   0.195373276   2.06669   0.28132  -0.78179   1.17318
  17   31658.7    315.9   1.477435032  15.36355   1.47444   2.25821  -2.84431
  18   32205.8    310.5   0.219604990   2.24483   0.89767   0.75354  -0.93338
  19   32343.0    309.2   0.207901763   2.11618   0.56138   0.83252  -1.05259
  20   32535.0    307.4   0.295526104   2.99034  -1.50625   0.49217  -0.69232
  21   32602.8    306.7   0.050219715   0.50710   0.01108   0.54115  -0.46275
  22   33557.4    298.0   0.109962012   1.07877  -0.46291   0.52383  -0.76817
  23   33858.5    295.3   0.159069097   1.54665   1.23634   0.10336   0.08618
  24   33915.7    294.8   0.166104701   1.61234   1.16747  -0.12809   0.48265
  25   34151.2    292.8   0.081128216   0.78206   0.53311  -0.39167   0.58690
  26   34304.5    291.5   0.031684063   0.30406   0.03170  -0.35327   0.42221
  27   34434.8    290.4   0.001178168   0.01126  -0.06348  -0.03463  -0.07768
  28   35085.2    285.0   0.044492051   0.41748   0.50063  -0.21655   0.34634
  29   35615.6    280.8   0.021073702   0.19479  -0.42407   0.02869  -0.11891
  30   36048.1    277.4   0.001104122   0.01008   0.04624   0.05132   0.07288
  31   36253.7    275.8   0.052263559   0.47459  -0.55884   0.28649  -0.28322
  32   36275.2    275.7   0.023214798   0.21068   0.44723   0.08663  -0.05626
  33   37008.7    270.2   0.014232437   0.12661   0.34915  -0.06429   0.02385
  34   37604.4    265.9   0.004166345   0.03647   0.11732   0.10619  -0.10694
  35   38080.1    262.6   0.042455963   0.36704  -0.51285  -0.18659   0.26307
  36   38350.3    260.8   0.029613231   0.25421   0.27733   0.19593  -0.37270
  37   38474.9    259.9   0.003838714   0.03285   0.07381  -0.08895   0.13959
  38   38764.7    258.0   0.031296325   0.26579   0.39246  -0.20667   0.26277
  39   38812.1    257.7   0.001123330   0.00953   0.05542  -0.03461   0.07252
  40   39015.2    256.3   0.004472650   0.03774   0.18635  -0.02345  -0.04963
  41   39278.3    254.6   0.007898176   0.06620   0.06448   0.10542  -0.22567
  42   39535.5    252.9   0.006470995   0.05388  -0.18609  -0.12988   0.04883
  43   39619.5    252.4   0.012129679   0.10079   0.10326   0.21722  -0.20723

FINAL SINGLE POINT ENERGY     -5322.564797993064

DIPOLE MOMENT
-------------
                                X             Y             Z
Electronic contribution:      1.90458      23.63726      -3.41044
Nuclear contribution   :     -0.75447     -23.88774       1.91792
                        -----------------------------------------
Total Dipole Moment    :      1.15011      -0.25048      -1.49252
                        -----------------------------------------
Magnitude (a.u.)       :      1.90081
Magnitude (Debye)      :      4.83149

Rotational constants in cm-1:     0.002414     0.000182     0.000171
Rotational constants in MHz :    72.368589     5.447076     5.139163

                             ****ORCA TERMINATED NORMALLY****
TOTAL RUN TIME: 0 days 0 hours 8 minutes 29 seconds 289 msec
