                         Program Version 4.2.0 -  RELEASE  -
|  1> # ORCA input file
|  2> # SCF done       -202.160309205959          0.000415119313
|  3> ! CAM-B3LYP def2-SVP def2/J RIJCOSX Grid4 TightSCF
|  4> %maxcore 5000
|  5> %tddft
|  6>     Mode sTDDFT
|  7>     Ethresh 5.0
|  8>     maxcore 5000
|  9> end
| 10>
| 11> %pal
| 12>   nprocs 6
| 13>   end
| 14> * xyz 0 1
| 15>    C       -1.27296         0.99024         0.06547
| 16>    C       -0.85934         0.34242        -1.02374
| 17>    C        0.47434        -0.18559        -1.12872
| 18>    C        1.30753        -0.23741        -0.06843
| 19>    C        0.81892         0.22582         1.29140
| 20>    C       -0.33848         1.24445         1.21770
| 21>    N       -1.12822         1.31172         2.42565
| 22>    C       -1.17593         0.30061         3.17081
| 23>    C       -0.41241        -0.93157         2.89114
| 24>    N        0.49670        -0.98031         2.02584
| 25>    F       -0.73202        -2.02850         3.57000
| 26>    F       -1.92887         0.33147         4.26502
| 27>    C        2.62251        -0.81228        -0.12149
| 28>    C        3.26252        -1.37333        -1.19098
| 29>    C        4.56835        -1.83759        -0.90528
| 30>    C        5.49367        -2.42739        -1.79134
| 31>    C        5.20581        -2.54425        -3.20664
| 32>    C        4.62242        -1.61653        -4.02151
| 33>    C        4.49920        -2.06450        -5.35454
| 34>    C        4.97564        -3.32417        -5.57367
| 35>    S        5.60398        -3.98479        -4.10201
| 36>    C        5.00811        -4.10229        -6.83731
| 37>   Cl        3.80132        -1.08542        -6.58939
| 38>    C        6.69187        -2.86054        -1.23781
| 39>    C        7.02730        -2.68657         0.12883
| 40>    C        6.12612        -2.04711         1.00331
| 41>    C        4.90672        -1.65569         0.45780
| 42>    S        3.62367        -0.85546         1.31601
| 43>    C        6.44310        -1.77961         2.39112
| 44>    C        5.60852        -1.83531         3.47040
| 45>    C        6.24034        -1.44544         4.67127
| 46>    C        7.54657        -1.07747         4.53107
| 47>    S        8.02497        -1.22343         2.87403
| 48>    C        8.50343        -0.61495         5.56751
| 49>   Cl        5.41277        -1.43782         6.18151
| 50>    C        8.29991        -3.22668         0.42876
| 51>    C        8.93914        -3.75977        -0.65367
| 52>    S        7.98416        -3.63214        -2.11611
| 53>    C       10.22242        -4.37028        -0.68887
| 54>    C       10.88565        -4.87452        -1.78859
| 55>    C       12.13566        -5.39776        -1.44965
| 56>    C       12.41936        -5.29101        -0.07867
| 57>    S       11.15434        -4.54392         0.79104
| 58>    C       13.70451        -5.84158         0.16686
| 59>    C       14.22927        -6.29942        -1.05481
| 60>    C       13.26453        -6.03180        -2.11045
| 61>    C       13.39782        -6.30756        -3.43984
| 62>    C       12.39212        -5.99759        -4.37920
| 63>    N       11.57960        -5.74822        -5.14890
| 64>    C       14.55715        -6.91707        -3.96285
| 65>    N       15.50047        -7.40955        -4.39058
| 66>    C       15.49360        -6.86545        -0.92053
| 67>    C       15.93865        -6.85582         0.39341
| 68>    S       14.75609        -6.13525         1.47625
| 69>    C       17.20082        -7.31398         0.87801
| 70>    C       18.22483        -7.65914         0.05575
| 71>    C       19.49807        -8.06433         0.54055
| 72>    C       19.73201        -8.34374         1.84384
| 73>    C       18.57158        -8.28933         2.81682
| 74>    C       17.45473        -7.31749         2.37787
| 75>    N       16.21075        -7.57061         3.06593
| 76>    C       15.94385        -8.74838         3.42048
| 77>    C       16.90494        -9.85522         3.26040
| 78>    N       18.11633        -9.65288         2.99655
| 79>    F       16.45954       -11.09614         3.41451
| 80>    F       14.78188        -9.00211         4.00898
| 81>    C       21.01629        -8.79453         2.33072
| 82>    C       21.17470        -9.47059         3.53541
| 83>    N       22.33084        -9.89868         4.04875
| 84>    C       23.45223        -9.70467         3.41150
| 85>    C       23.46535        -9.05030         2.16638
| 86>    C       22.22289        -8.58377         1.60861
| 87>    N       22.41263        -7.97365         0.43748
| 88>    S       23.98082        -7.99885         0.08362
| 89>    N       24.50859        -8.77159         1.38290
| 90>    H       -2.26771         1.39276         0.16720
| 91>    H       -1.52312         0.19991        -1.86270
| 92>    H        0.78722        -0.56222        -2.08933
| 93>    H        1.66185         0.68267         1.82979
| 94>    H        0.07781         2.25374         1.08430
| 95>    H        2.81045        -1.48067        -2.15857
| 96>    H        4.33305        -0.63211        -3.70303
| 97>    H        4.55963        -3.52083        -7.63896
| 98>    H        4.45952        -5.03706        -6.72731
| 99>    H        6.03465        -4.34690        -7.10828
|100>    H        4.59069        -2.17560         3.43026
|101>    H        8.00861        -0.58749         6.53497
|102>    H        8.87456         0.38168         5.33044
|103>    H        9.35991        -1.28599         5.62632
|104>    H        8.73303        -3.23536         1.41219
|105>    H       10.46581        -4.85328        -2.77822
|106>    H       16.05994        -7.27821        -1.73418
|107>    H       18.09599        -7.60677        -1.01326
|108>    H       20.29986        -8.15979        -0.17392
|109>    H       18.94236        -7.96291         3.79871
|110>    H       17.74354        -6.29327         2.65525
|111>    H       20.31247        -9.72436         4.13335
|112>    H       24.36256       -10.06152         3.86976
|113> *
|114>
|115>                          ****END OF INPUT****

CARTESIAN COORDINATES (ANGSTROEM)
---------------------------------
  C     -1.272960    0.990240    0.065470
  C     -0.859340    0.342420   -1.023740
  C      0.474340   -0.185590   -1.128720
  C      1.307530   -0.237410   -0.068430
  C      0.818920    0.225820    1.291400
  C     -0.338480    1.244450    1.217700
  N     -1.128220    1.311720    2.425650
  C     -1.175930    0.300610    3.170810
  C     -0.412410   -0.931570    2.891140
  N      0.496700   -0.980310    2.025840
  F     -0.732020   -2.028500    3.570000
  F     -1.928870    0.331470    4.265020
  C      2.622510   -0.812280   -0.121490
  C      3.262520   -1.373330   -1.190980
  C      4.568350   -1.837590   -0.905280
  C      5.493670   -2.427390   -1.791340
  C      5.205810   -2.544250   -3.206640
  C      4.622420   -1.616530   -4.021510
  C      4.499200   -2.064500   -5.354540
  C      4.975640   -3.324170   -5.573670
  S      5.603980   -3.984790   -4.102010
  C      5.008110   -4.102290   -6.837310
  Cl     3.801320   -1.085420   -6.589390
  C      6.691870   -2.860540   -1.237810
  C      7.027300   -2.686570    0.128830
  C      6.126120   -2.047110    1.003310
  C      4.906720   -1.655690    0.457800
  S      3.623670   -0.855460    1.316010
  C      6.443100   -1.779610    2.391120
  C      5.608520   -1.835310    3.470400
  C      6.240340   -1.445440    4.671270
  C      7.546570   -1.077470    4.531070
  S      8.024970   -1.223430    2.874030
  C      8.503430   -0.614950    5.567510
  Cl     5.412770   -1.437820    6.181510
  C      8.299910   -3.226680    0.428760
  C      8.939140   -3.759770   -0.653670
  S      7.984160   -3.632140   -2.116110
  C     10.222420   -4.370280   -0.688870
  C     10.885650   -4.874520   -1.788590
  C     12.135660   -5.397760   -1.449650
  C     12.419360   -5.291010   -0.078670
  S     11.154340   -4.543920    0.791040
  C     13.704510   -5.841580    0.166860
  C     14.229270   -6.299420   -1.054810
  C     13.264530   -6.031800   -2.110450
  C     13.397820   -6.307560   -3.439840
  C     12.392120   -5.997590   -4.379200
  N     11.579600   -5.748220   -5.148900
  C     14.557150   -6.917070   -3.962850
  N     15.500470   -7.409550   -4.390580
  C     15.493600   -6.865450   -0.920530
  C     15.938650   -6.855820    0.393410
  S     14.756090   -6.135250    1.476250
  C     17.200820   -7.313980    0.878010
  C     18.224830   -7.659140    0.055750
  C     19.498070   -8.064330    0.540550
  C     19.732010   -8.343740    1.843840
  C     18.571580   -8.289330    2.816820
  C     17.454730   -7.317490    2.377870
  N     16.210750   -7.570610    3.065930
  C     15.943850   -8.748380    3.420480
  C     16.904940   -9.855220    3.260400
  N     18.116330   -9.652880    2.996550
  F     16.459540  -11.096140    3.414510
  F     14.781880   -9.002110    4.008980
  C     21.016290   -8.794530    2.330720
  C     21.174700   -9.470590    3.535410
  N     22.330840   -9.898680    4.048750
  C     23.452230   -9.704670    3.411500
  C     23.465350   -9.050300    2.166380
  C     22.222890   -8.583770    1.608610
  N     22.412630   -7.973650    0.437480
  S     23.980820   -7.998850    0.083620
  N     24.508590   -8.771590    1.382900
  H     -2.267710    1.392760    0.167200
  H     -1.523120    0.199910   -1.862700
  H      0.787220   -0.562220   -2.089330
  H      1.661850    0.682670    1.829790
  H      0.077810    2.253740    1.084300
  H      2.810450   -1.480670   -2.158570
  H      4.333050   -0.632110   -3.703030
  H      4.559630   -3.520830   -7.638960
  H      4.459520   -5.037060   -6.727310
  H      6.034650   -4.346900   -7.108280
  H      4.590690   -2.175600    3.430260
  H      8.008610   -0.587490    6.534970
  H      8.874560    0.381680    5.330440
  H      9.359910   -1.285990    5.626320
  H      8.733030   -3.235360    1.412190
  H     10.465810   -4.853280   -2.778220
  H     16.059940   -7.278210   -1.734180
  H     18.095990   -7.606770   -1.013260
  H     20.299860   -8.159790   -0.173920
  H     18.942360   -7.962910    3.798710
  H     17.743540   -6.293270    2.655250
  H     20.312470   -9.724360    4.133350
  H     24.362560  -10.061520    3.869760

 Total Charge           Charge          ....    0
 Multiplicity           Mult            ....    1
 Number of Electrons    NEL             ....  586
 Basis Dimension        Dim             .... 1201

ORBITAL ENERGIES
----------------

  NO   OCC          E(Eh)            E(eV)
   0   2.0000    -101.583063     -2764.2157
   1   2.0000    -101.582899     -2764.2112
   2   2.0000     -89.034596     -2422.7545
   3   2.0000     -88.985699     -2421.4240
   4   2.0000     -88.983269     -2421.3579
   5   2.0000     -88.958336     -2420.6794
   6   2.0000     -88.956244     -2420.6225
   7   2.0000     -88.954425     -2420.5730
   8   2.0000     -88.951383     -2420.4902
   9   2.0000     -24.818954      -675.3581
  10   2.0000     -24.812013      -675.1692
  11   2.0000     -24.801145      -674.8735
  12   2.0000     -24.800198      -674.8477
  13   2.0000     -14.449735      -393.1973
  14   2.0000     -14.445829      -393.0910
  15   2.0000     -14.445552      -393.0834
  16   2.0000     -14.440958      -392.9584
  17   2.0000     -14.428896      -392.6302
  18   2.0000     -14.428610      -392.6224
  19   2.0000     -14.427120      -392.5819
  20   2.0000     -14.426100      -392.5541
  21   2.0000     -14.414007      -392.2251
  22   2.0000     -10.433630      -283.9135
  23   2.0000     -10.426710      -283.7252
  24   2.0000     -10.415011      -283.4068
  25   2.0000     -10.414038      -283.3804
  26   2.0000     -10.359364      -281.8926
  27   2.0000     -10.347773      -281.5772
  28   2.0000     -10.342058      -281.4217
  29   2.0000     -10.337062      -281.2858
  30   2.0000     -10.333231      -281.1815
  31   2.0000     -10.328257      -281.0462
  32   2.0000     -10.328171      -281.0438
  33   2.0000     -10.327914      -281.0368
  34   2.0000     -10.326808      -281.0067
  35   2.0000     -10.326724      -281.0044
  36   2.0000     -10.325618      -280.9744
  37   2.0000     -10.322184      -280.8809
  38   2.0000     -10.321420      -280.8601
  39   2.0000     -10.320203      -280.8270
  40   2.0000     -10.318483      -280.7802
  41   2.0000     -10.318167      -280.7716
  42   2.0000     -10.317042      -280.7410
  43   2.0000     -10.314846      -280.6812
  44   2.0000     -10.309696      -280.5411
  45   2.0000     -10.307773      -280.4888
  46   2.0000     -10.306901      -280.4650
  47   2.0000     -10.306805      -280.4624
  48   2.0000     -10.306041      -280.4416
  49   2.0000     -10.305398      -280.4241
  50   2.0000     -10.304538      -280.4007
  51   2.0000     -10.303893      -280.3832
  52   2.0000     -10.302177      -280.3365
  53   2.0000     -10.301311      -280.3129
  54   2.0000     -10.298463      -280.2354
  55   2.0000     -10.298367      -280.2328
  56   2.0000     -10.297745      -280.2159
  57   2.0000     -10.296849      -280.1915
  58   2.0000     -10.296726      -280.1881
  59   2.0000     -10.296238      -280.1749
  60   2.0000     -10.295317      -280.1498
  61   2.0000     -10.294749      -280.1344
  62   2.0000     -10.290116      -280.0083
  63   2.0000     -10.287648      -279.9411
  64   2.0000     -10.285574      -279.8847
  65   2.0000     -10.282484      -279.8006
  66   2.0000     -10.282105      -279.7903
  67   2.0000     -10.280731      -279.7529
  68   2.0000     -10.279376      -279.7160
  69   2.0000     -10.279048      -279.7071
  70   2.0000     -10.278338      -279.6878
  71   2.0000     -10.278127      -279.6821
  72   2.0000     -10.277411      -279.6626
  73   2.0000     -10.273566      -279.5579
  74   2.0000     -10.273515      -279.5566
  75   2.0000      -9.537811      -259.5370
  76   2.0000      -9.537620      -259.5318
  77   2.0000      -8.126505      -221.1335
  78   2.0000      -8.080220      -219.8740
  79   2.0000      -8.076565      -219.7745
  80   2.0000      -8.053911      -219.1581
  81   2.0000      -8.051931      -219.1042
  82   2.0000      -8.049661      -219.0424
  83   2.0000      -8.046423      -218.9543
  84   2.0000      -7.308058      -198.8624
  85   2.0000      -7.307852      -198.8568
  86   2.0000      -7.297886      -198.5856
  87   2.0000      -7.297804      -198.5833
  88   2.0000      -7.297696      -198.5804
  89   2.0000      -7.297642      -198.5789
  90   2.0000      -6.097624      -165.9248
  91   2.0000      -6.089773      -165.7111
  92   2.0000      -6.089146      -165.6941
  93   2.0000      -6.049483      -164.6148
  94   2.0000      -6.045907      -164.5175
  95   2.0000      -6.045327      -164.5017
  96   2.0000      -6.042539      -164.4258
  97   2.0000      -6.041327      -164.3929
  98   2.0000      -6.039175      -164.3343
  99   2.0000      -6.023241      -163.9007
 100   2.0000      -6.021236      -163.8462
 101   2.0000      -6.019397      -163.7961
 102   2.0000      -6.019055      -163.7868
 103   2.0000      -6.016992      -163.7307
 104   2.0000      -6.016022      -163.7043
 105   2.0000      -6.015988      -163.7033
 106   2.0000      -6.015203      -163.6820
 107   2.0000      -6.014062      -163.6509
 108   2.0000      -6.011839      -163.5905
 109   2.0000      -6.010841      -163.5633
 110   2.0000      -6.007931      -163.4841
 111   2.0000      -1.346119       -36.6298
 112   2.0000      -1.330594       -36.2073
 113   2.0000      -1.330219       -36.1971
 114   2.0000      -1.315877       -35.8068
 115   2.0000      -1.134108       -30.8606
 116   2.0000      -1.096895       -29.8480
 117   2.0000      -1.080694       -29.4072
 118   2.0000      -1.044186       -28.4138
 119   2.0000      -1.039672       -28.2909
 120   2.0000      -1.028605       -27.9898
 121   2.0000      -1.018284       -27.7089
 122   2.0000      -1.014745       -27.6126
 123   2.0000      -1.011987       -27.5376
 124   2.0000      -1.004398       -27.3311
 125   2.0000      -1.001293       -27.2466
 126   2.0000      -0.997408       -27.1408
 127   2.0000      -0.992282       -27.0014
 128   2.0000      -0.987804       -26.8795
 129   2.0000      -0.979580       -26.6557
 130   2.0000      -0.961842       -26.1730
 131   2.0000      -0.950835       -25.8735
 132   2.0000      -0.946851       -25.7651
 133   2.0000      -0.943761       -25.6810
 134   2.0000      -0.938172       -25.5290
 135   2.0000      -0.919132       -25.0109
 136   2.0000      -0.911918       -24.8145
 137   2.0000      -0.899804       -24.4849
 138   2.0000      -0.898436       -24.4477
 139   2.0000      -0.882828       -24.0230
 140   2.0000      -0.869750       -23.6671
 141   2.0000      -0.866001       -23.5651
 142   2.0000      -0.862934       -23.4816
 143   2.0000      -0.858256       -23.3543
 144   2.0000      -0.857626       -23.3372
 145   2.0000      -0.852537       -23.1987
 146   2.0000      -0.847554       -23.0631
 147   2.0000      -0.845227       -22.9998
 148   2.0000      -0.836793       -22.7703
 149   2.0000      -0.818178       -22.2638
 150   2.0000      -0.809941       -22.0396
 151   2.0000      -0.806176       -21.9372
 152   2.0000      -0.796437       -21.6721
 153   2.0000      -0.786831       -21.4108
 154   2.0000      -0.785448       -21.3731
 155   2.0000      -0.780423       -21.2364
 156   2.0000      -0.777603       -21.1597
 157   2.0000      -0.771927       -21.0052
 158   2.0000      -0.768881       -20.9223
 159   2.0000      -0.762379       -20.7454
 160   2.0000      -0.755011       -20.5449
 161   2.0000      -0.744673       -20.2636
 162   2.0000      -0.741905       -20.1883
 163   2.0000      -0.721694       -19.6383
 164   2.0000      -0.718208       -19.5434
 165   2.0000      -0.702068       -19.1042
 166   2.0000      -0.697025       -18.9670
 167   2.0000      -0.694853       -18.9079
 168   2.0000      -0.688762       -18.7422
 169   2.0000      -0.679227       -18.4827
 170   2.0000      -0.677621       -18.4390
 171   2.0000      -0.672029       -18.2868
 172   2.0000      -0.669631       -18.2216
 173   2.0000      -0.666774       -18.1438
 174   2.0000      -0.659510       -17.9462
 175   2.0000      -0.652102       -17.7446
 176   2.0000      -0.650265       -17.6946
 177   2.0000      -0.646119       -17.5818
 178   2.0000      -0.641044       -17.4437
 179   2.0000      -0.637453       -17.3460
 180   2.0000      -0.630083       -17.1454
 181   2.0000      -0.628262       -17.0959
 182   2.0000      -0.626159       -17.0387
 183   2.0000      -0.618162       -16.8210
 184   2.0000      -0.614690       -16.7266
 185   2.0000      -0.612333       -16.6624
 186   2.0000      -0.609318       -16.5804
 187   2.0000      -0.606501       -16.5037
 188   2.0000      -0.605798       -16.4846
 189   2.0000      -0.601968       -16.3804
 190   2.0000      -0.596794       -16.2396
 191   2.0000      -0.591158       -16.0862
 192   2.0000      -0.586779       -15.9671
 193   2.0000      -0.584731       -15.9114
 194   2.0000      -0.581929       -15.8351
 195   2.0000      -0.575597       -15.6628
 196   2.0000      -0.574466       -15.6320
 197   2.0000      -0.570292       -15.5184
 198   2.0000      -0.563685       -15.3387
 199   2.0000      -0.560296       -15.2464
 200   2.0000      -0.558202       -15.1894
 201   2.0000      -0.557323       -15.1655
 202   2.0000      -0.555235       -15.1087
 203   2.0000      -0.548290       -14.9197
 204   2.0000      -0.544414       -14.8143
 205   2.0000      -0.543931       -14.8011
 206   2.0000      -0.542096       -14.7512
 207   2.0000      -0.539772       -14.6880
 208   2.0000      -0.538934       -14.6651
 209   2.0000      -0.531831       -14.4718
 210   2.0000      -0.529554       -14.4099
 211   2.0000      -0.524909       -14.2835
 212   2.0000      -0.522164       -14.2088
 213   2.0000      -0.520019       -14.1504
 214   2.0000      -0.517805       -14.0902
 215   2.0000      -0.516985       -14.0679
 216   2.0000      -0.512869       -13.9559
 217   2.0000      -0.510836       -13.9006
 218   2.0000      -0.510160       -13.8822
 219   2.0000      -0.507877       -13.8200
 220   2.0000      -0.505932       -13.7671
 221   2.0000      -0.501238       -13.6394
 222   2.0000      -0.500619       -13.6225
 223   2.0000      -0.495738       -13.4897
 224   2.0000      -0.495366       -13.4796
 225   2.0000      -0.494029       -13.4432
 226   2.0000      -0.493587       -13.4312
 227   2.0000      -0.488096       -13.2818
 228   2.0000      -0.486805       -13.2466
 229   2.0000      -0.483085       -13.1454
 230   2.0000      -0.478559       -13.0223
 231   2.0000      -0.478214       -13.0129
 232   2.0000      -0.475434       -12.9372
 233   2.0000      -0.474186       -12.9033
 234   2.0000      -0.472452       -12.8561
 235   2.0000      -0.468110       -12.7379
 236   2.0000      -0.466014       -12.6809
 237   2.0000      -0.465502       -12.6669
 238   2.0000      -0.464516       -12.6401
 239   2.0000      -0.463868       -12.6225
 240   2.0000      -0.458740       -12.4829
 241   2.0000      -0.458200       -12.4683
 242   2.0000      -0.457393       -12.4463
 243   2.0000      -0.455154       -12.3854
 244   2.0000      -0.452539       -12.3142
 245   2.0000      -0.447872       -12.1872
 246   2.0000      -0.443868       -12.0783
 247   2.0000      -0.443021       -12.0552
 248   2.0000      -0.441867       -12.0238
 249   2.0000      -0.437949       -11.9172
 250   2.0000      -0.437073       -11.8934
 251   2.0000      -0.435799       -11.8587
 252   2.0000      -0.434813       -11.8319
 253   2.0000      -0.429395       -11.6844
 254   2.0000      -0.427671       -11.6375
 255   2.0000      -0.425276       -11.5723
 256   2.0000      -0.423068       -11.5123
 257   2.0000      -0.420723       -11.4485
 258   2.0000      -0.416800       -11.3417
 259   2.0000      -0.415894       -11.3171
 260   2.0000      -0.414182       -11.2705
 261   2.0000      -0.412145       -11.2150
 262   2.0000      -0.407732       -11.0950
 263   2.0000      -0.407407       -11.0861
 264   2.0000      -0.405337       -11.0298
 265   2.0000      -0.398555       -10.8452
 266   2.0000      -0.396836       -10.7984
 267   2.0000      -0.393859       -10.7175
 268   2.0000      -0.388154       -10.5622
 269   2.0000      -0.380248       -10.3471
 270   2.0000      -0.378835       -10.3086
 271   2.0000      -0.376367       -10.2415
 272   2.0000      -0.375110       -10.2073
 273   2.0000      -0.370782       -10.0895
 274   2.0000      -0.368206       -10.0194
 275   2.0000      -0.357041        -9.7156
 276   2.0000      -0.356236        -9.6937
 277   2.0000      -0.355370        -9.6701
 278   2.0000      -0.346541        -9.4299
 279   2.0000      -0.342852        -9.3295
 280   2.0000      -0.339279        -9.2323
 281   2.0000      -0.335471        -9.1286
 282   2.0000      -0.330754        -9.0003
 283   2.0000      -0.321444        -8.7469
 284   2.0000      -0.315818        -8.5939
 285   2.0000      -0.315105        -8.5744
 286   2.0000      -0.313456        -8.5296
 287   2.0000      -0.300844        -8.1864
 288   2.0000      -0.296988        -8.0815
 289   2.0000      -0.285207        -7.7609
 290   2.0000      -0.270683        -7.3657
 291   2.0000      -0.251296        -6.8381
 292   2.0000      -0.233775        -6.3613
 293   0.0000      -0.100885        -2.7452
 294   0.0000      -0.078112        -2.1255
 295   0.0000      -0.058918        -1.6032
 296   0.0000      -0.050103        -1.3634
 297   0.0000      -0.041144        -1.1196

MULLIKEN ATOMIC CHARGES
-----------------------
   0 C :   -0.043322
   1 C :    0.068509
   2 C :   -0.073403
   3 C :    0.089413
   4 C :    0.023621
   5 C :    0.124278
   6 N :   -0.089816
   7 C :    0.097789
   8 C :    0.113136
   9 N :   -0.070663
  10 F :   -0.143909
  11 F :   -0.144217
  12 C :   -0.006846
  13 C :   -0.079344
  14 C :    0.098558
  15 C :    0.131259
  16 C :   -0.210560
  17 C :    0.031567
  18 C :    0.081432
  19 C :   -0.264265
  20 S :    0.147234
  21 C :    0.122904
  22 Cl:   -0.092341
  23 C :   -0.136621
  24 C :    0.081609
  25 C :    0.141073
  26 C :   -0.133718
  27 S :    0.102119
  28 C :   -0.211286
  29 C :    0.034491
  30 C :    0.084091
  31 C :   -0.264020
  32 S :    0.130901
  33 C :    0.122599
  34 Cl:   -0.089064
  35 C :   -0.098425
  36 C :   -0.009751
  37 S :    0.122200
  38 C :   -0.044711
  39 C :   -0.065319
  40 C :    0.015330
  41 C :   -0.099848
  42 S :    0.185454
  43 C :   -0.096629
  44 C :    0.012194
  45 C :    0.308074
  46 C :   -0.303267
  47 C :   -0.190561
  48 N :    0.170776
  49 C :   -0.186636
  50 N :    0.166373
  51 C :   -0.042770
  52 C :   -0.068743
  53 S :    0.213470
  54 C :    0.032838
  55 C :   -0.038179
  56 C :   -0.018377
  57 C :    0.018223
  58 C :    0.060379
  59 C :    0.112357
  60 N :   -0.136875
  61 C :    0.139225
  62 C :    0.124426
  63 N :   -0.080242
  64 F :   -0.139580
  65 F :   -0.136163
  66 C :    0.062369
  67 C :   -0.037373
  68 N :   -0.035812
  69 C :   -0.000852
  70 C :    0.011800
  71 C :    0.021153
  72 N :   -0.296092
  73 S :    0.519852
  74 N :   -0.257140
  75 H :    0.012036
  76 H :   -0.006478
  77 H :   -0.016631
  78 H :    0.044284
  79 H :    0.038405
  80 H :   -0.018616
  81 H :   -0.013213
  82 H :    0.023061
  83 H :    0.034209
  84 H :    0.040569
  85 H :   -0.003473
  86 H :    0.024577
  87 H :    0.034266
  88 H :    0.033115
  89 H :   -0.011557
  90 H :    0.014425
  91 H :    0.005196
  92 H :   -0.013190
  93 H :    0.001552
  94 H :    0.033929
  95 H :    0.042557
  96 H :    0.010102
  97 H :    0.004540
Sum of atomic charges:   -0.0000000

LOEWDIN ATOMIC CHARGES
----------------------
   0 C :   -0.018419
   1 C :   -0.031899
   2 C :   -0.014789
   3 C :   -0.032485
   4 C :    0.007492
   5 C :    0.010996
   6 N :   -0.069999
   7 C :    0.046135
   8 C :    0.045001
   9 N :   -0.069868
  10 F :   -0.033295
  11 F :   -0.033227
  12 C :   -0.142371
  13 C :   -0.051938
  14 C :   -0.034444
  15 C :   -0.056078
  16 C :   -0.174125
  17 C :   -0.069387
  18 C :   -0.179033
  19 C :   -0.196694
  20 S :    0.439839
  21 C :   -0.061149
  22 Cl:    0.124896
  23 C :   -0.148294
  24 C :   -0.040777
  25 C :   -0.055581
  26 C :   -0.144592
  27 S :    0.430710
  28 C :   -0.170992
  29 C :   -0.075083
  30 C :   -0.177215
  31 C :   -0.199410
  32 S :    0.443791
  33 C :   -0.061274
  34 Cl:    0.128400
  35 C :   -0.073454
  36 C :   -0.168778
  37 S :    0.407227
  38 C :   -0.176598
  39 C :   -0.033670
  40 C :   -0.071568
  41 C :   -0.176254
  42 S :    0.479807
  43 C :   -0.191564
  44 C :   -0.073183
  45 C :    0.084407
  46 C :   -0.107381
  47 C :   -0.017162
  48 N :   -0.035266
  49 C :   -0.015151
  50 N :   -0.039051
  51 C :   -0.020725
  52 C :   -0.172674
  53 S :    0.514003
  54 C :   -0.039002
  55 C :   -0.026677
  56 C :   -0.002325
  57 C :   -0.026151
  58 C :    0.020249
  59 C :    0.017679
  60 N :   -0.094913
  61 C :    0.062077
  62 C :    0.045559
  63 N :   -0.061521
  64 F :   -0.028741
  65 F :   -0.024855
  66 C :   -0.040749
  67 C :    0.012999
  68 N :   -0.058141
  69 C :    0.031803
  70 C :   -0.077765
  71 C :   -0.033203
  72 N :   -0.289973
  73 S :    0.658124
  74 N :   -0.270642
  75 H :    0.031546
  76 H :    0.033585
  77 H :    0.030377
  78 H :    0.028735
  79 H :    0.046757
  80 H :    0.028903
  81 H :    0.032877
  82 H :    0.033685
  83 H :    0.039079
  84 H :    0.041593
  85 H :    0.028056
  86 H :    0.034068
  87 H :    0.038890
  88 H :    0.038302
  89 H :    0.011621
  90 H :    0.037603
  91 H :    0.038103
  92 H :    0.034248
  93 H :    0.033477
  94 H :    0.039032
  95 H :    0.046629
  96 H :    0.022010
  97 H :    0.029185

  Mayer bond orders larger than 0.100000
B(  0-C ,  1-C ) :   1.8074 B(  0-C ,  5-C ) :   0.9642 B(  0-C , 75-H ) :   0.9802
B(  1-C ,  2-C ) :   1.0650 B(  1-C , 76-H ) :   0.9791 B(  2-C ,  3-C ) :   1.7523
B(  2-C , 77-H ) :   0.9801 B(  3-C ,  4-C ) :   0.9793 B(  3-C , 12-C ) :   1.0936
B(  4-C ,  5-C ) :   0.9784 B(  4-C ,  9-N ) :   1.0255 B(  4-C , 78-H ) :   0.8941
B(  5-C ,  6-N ) :   1.0051 B(  5-C , 79-H ) :   0.8845 B(  6-N ,  7-C ) :   1.9581
B(  7-C ,  8-C ) :   0.9339 B(  7-C , 11-F ) :   1.1622 B(  8-C ,  9-N ) :   1.9637
B(  8-C , 10-F ) :   1.1654 B( 12-C , 13-C ) :   1.5765 B( 12-C , 27-S ) :   1.0625
B( 13-C , 14-C ) :   1.1805 B( 13-C , 80-H ) :   0.9894 B( 14-C , 15-C ) :   1.3089
B( 14-C , 26-C ) :   1.2732 B( 15-C , 16-C ) :   0.9821 B( 15-C , 23-C ) :   1.4007
B( 16-C , 17-C ) :   1.5467 B( 16-C , 20-S ) :   1.1368 B( 17-C , 18-C ) :   1.2166
B( 17-C , 81-H ) :   1.0087 B( 18-C , 19-C ) :   1.6006 B( 18-C , 22-Cl) :   1.0028
B( 19-C , 20-S ) :   1.1304 B( 19-C , 21-C ) :   1.0836 B( 21-C , 82-H ) :   0.9444
B( 21-C , 83-H ) :   0.9483 B( 21-C , 84-H ) :   0.9476 B( 23-C , 24-C ) :   1.2730
B( 23-C , 37-S ) :   1.0553 B( 24-C , 25-C ) :   1.2991 B( 24-C , 35-C ) :   1.1870
B( 25-C , 26-C ) :   1.4111 B( 25-C , 28-C ) :   0.9887 B( 26-C , 27-S ) :   1.0662
B( 28-C , 29-C ) :   1.5523 B( 28-C , 32-S ) :   1.1282 B( 29-C , 30-C ) :   1.2206
B( 29-C , 85-H ) :   0.9951 B( 30-C , 31-C ) :   1.6052 B( 30-C , 34-Cl) :   1.0057
B( 31-C , 32-S ) :   1.1269 B( 31-C , 33-C ) :   1.0824 B( 33-C , 86-H ) :   0.9441
B( 33-C , 87-H ) :   0.9490 B( 33-C , 88-H ) :   0.9486 B( 35-C , 36-C ) :   1.5690
B( 35-C , 89-H ) :   0.9687 B( 36-C , 37-S ) :   1.0694 B( 36-C , 38-C ) :   1.1567
B( 38-C , 39-C ) :   1.4698 B( 38-C , 42-S ) :   1.1016 B( 39-C , 40-C ) :   1.2788
B( 39-C , 90-H ) :   0.9923 B( 40-C , 41-C ) :   1.4487 B( 40-C , 45-C ) :   0.9974
B( 41-C , 42-S ) :   1.1250 B( 41-C , 43-C ) :   1.1848 B( 43-C , 44-C ) :   1.4169
B( 43-C , 53-S ) :   1.1110 B( 44-C , 45-C ) :   0.9968 B( 44-C , 51-C ) :   1.3113
B( 45-C , 46-C ) :   1.7049 B( 46-C , 47-C ) :   1.1330 B( 46-C , 49-C ) :   1.1361
B( 47-C , 48-N ) :   2.9940 B( 49-C , 50-N ) :   2.9883 B( 51-C , 52-C ) :   1.4530
B( 51-C , 91-H ) :   0.9897 B( 52-C , 53-S ) :   1.1104 B( 52-C , 54-C ) :   1.1187
B( 54-C , 55-C ) :   1.7002 B( 54-C , 59-C ) :   0.9372 B( 55-C , 56-C ) :   1.1052
B( 55-C , 92-H ) :   0.9811 B( 56-C , 57-C ) :   1.7035 B( 56-C , 93-H ) :   0.9638
B( 57-C , 58-C ) :   0.9793 B( 57-C , 66-C ) :   1.0860 B( 58-C , 59-C ) :   0.9944
B( 58-C , 63-N ) :   1.0000 B( 58-C , 94-H ) :   0.8953 B( 59-C , 60-N ) :   0.9929
B( 59-C , 95-H ) :   0.8783 B( 60-N , 61-C ) :   1.9023 B( 61-C , 62-C ) :   0.9339
B( 61-C , 65-F ) :   1.1769 B( 62-C , 63-N ) :   1.9481 B( 62-C , 64-F ) :   1.1697
B( 66-C , 67-C ) :   1.4866 B( 66-C , 69-C ) :   0.1055 B( 66-C , 71-C ) :   1.1881
B( 67-C , 68-N ) :   1.4104 B( 67-C , 96-H ) :   0.9618 B( 68-N , 69-C ) :   1.7082
B( 69-C , 70-C ) :   1.1751 B( 69-C , 97-H ) :   0.9924 B( 70-C , 71-C ) :   1.1878
B( 70-C , 74-N ) :   1.4935 B( 71-C , 72-N ) :   1.5046 B( 72-N , 73-S ) :   1.2564
B( 72-N , 74-N ) :   0.1510 B( 73-S , 74-N ) :   1.3020

-----------------------------------------------------------------------------
         ABSORPTION SPECTRUM VIA TRANSITION ELECTRIC DIPOLE MOMENTS
-----------------------------------------------------------------------------
State   Energy  Wavelength   fosc         T2         TX        TY        TZ
        (cm-1)    (nm)                  (au**2)     (au)      (au)      (au)
-----------------------------------------------------------------------------
   0   11937.5    837.7   0.176104600   4.85660   2.00672  -0.87189   0.26356
   1   19019.8    525.8   0.071629096   1.23982  -0.93473   0.52364   0.30315
   2   20672.8    483.7   1.440435626  22.93878  -4.35430   1.78547  -0.88935
   3   22550.2    443.5   0.034533791   0.50416  -0.69948   0.08032   0.09187
   4   23712.6    421.7   0.513304090   7.12641   1.93833  -1.25354  -1.34087
   5   24254.3    412.3   0.376508058   5.11048  -1.75568   1.02648   0.98712
   6   26298.3    380.3   0.522672673   6.54300   2.12897  -0.66007   1.25491
   7   27540.5    363.1   0.010047956   0.12011  -0.23081   0.19035   0.17493
   8   27816.7    359.5   0.003230605   0.03823  -0.16908   0.09747  -0.01203
   9   28117.0    355.7   0.121461312   1.42215  -0.52023   0.03149  -1.07262
  10   28922.3    345.8   0.144914034   1.64950   0.88071  -0.22751   0.90669
  11   30036.0    332.9   0.001854597   0.02033   0.03176   0.13249  -0.04202
  12   30102.1    332.2   0.002475890   0.02708   0.00831  -0.02680   0.16214
  13   30583.8    327.0   0.103785934   1.11718  -1.00997   0.30294   0.07322
  14   31112.3    321.4   0.204770584   2.16676  -0.21051  -0.22494  -1.43939
  15   31490.5    317.6   0.009217103   0.09636  -0.05512   0.00307  -0.30547
  16   31726.8    315.2   0.278155889   2.88628   1.60158  -0.54613  -0.15154
  17   31933.0    313.2   0.248550374   2.56242   1.36435  -0.47244   0.69121
  18   32073.7    311.8   0.598469147   6.14282   1.02232  -0.09125   2.25596
  19   32647.3    306.3   0.089831415   0.90585  -0.44622   0.30886   0.78189
  20   33156.8    301.6   0.118813726   1.17969   0.32349  -0.38166  -0.96405
  21   33932.5    294.7   0.018766673   0.18207   0.42097  -0.03472   0.06043
  22   34143.5    292.9   0.100804470   0.97196   0.90247  -0.38408  -0.09989
  23   34571.9    289.3   0.011703346   0.11145  -0.21543   0.12710   0.22109
  24   34700.1    288.2   0.001052728   0.00999   0.03832   0.07826   0.04893
  25   34927.1    286.3   0.043539562   0.41039  -0.60197   0.21684  -0.03157
  26   35252.8    283.7   0.015285913   0.14275  -0.16183   0.03367  -0.33975
  27   35438.2    282.2   0.020346178   0.18901  -0.01575   0.06234   0.42997
  28   35825.0    279.1   0.032496241   0.29862  -0.03456  -0.28664  -0.46397
  29   36170.4    276.5   0.038982065   0.35480   0.54681  -0.22844  -0.06014
  30   36551.6    273.6   0.005972501   0.05379  -0.19958   0.02224  -0.11605
  31   36867.9    271.2   0.053662486   0.47918  -0.13351   0.15102   0.66223
  32   37132.2    269.3   0.044829680   0.39746  -0.02960  -0.22432  -0.58844
  33   37328.2    267.9   0.020372868   0.17968  -0.20564  -0.10858  -0.35440
  34   37678.5    265.4   0.020068404   0.17535  -0.18061  -0.00051  -0.37779
  35   38144.6    262.2   0.013135622   0.11337  -0.19563  -0.11064   0.25071
  36   38592.5    259.1   0.064036550   0.54626  -0.61274   0.41098  -0.04371
  37   38785.5    257.8   0.014127344   0.11991  -0.20004   0.07507  -0.27251
  38   38906.0    257.0   0.009985412   0.08449  -0.19172   0.02152  -0.21742
  39   39296.0    254.5   0.041515039   0.34780  -0.35798   0.34568  -0.31648
  40   39502.9    253.1   0.020042531   0.16703   0.31125  -0.26434   0.01663
  41   39756.2    251.5   0.007382598   0.06113  -0.11187  -0.09012   0.20124
  42   39834.1    251.0   0.003269532   0.02702   0.04487  -0.06838  -0.14259
  43   40290.0    248.2   0.018648623   0.15238   0.24737  -0.30197  -0.00168

FINAL SINGLE POINT ENERGY     -6628.490095113907

DIPOLE MOMENT
-------------
                                X             Y             Z
Electronic contribution:     -1.32947     -12.52815      17.42981
Nuclear contribution   :      2.23081      13.75265     -16.96016
                        -----------------------------------------
Total Dipole Moment    :      0.90134       1.22450       0.46966
                        -----------------------------------------
Magnitude (a.u.)       :      1.59135
Magnitude (Debye)      :      4.04488

Rotational constants in cm-1:     0.001344     0.000221     0.000196
Rotational constants in MHz :    40.281321     6.633455     5.884861

                             ****ORCA TERMINATED NORMALLY****
TOTAL RUN TIME: 0 days 0 hours 18 minutes 18 seconds 769 msec
