                         Program Version 4.2.0 -  RELEASE  -
|  1> # ORCA input file
|  2> # SCF done       -173.958820790233          0.000401799856
|  3> ! CAM-B3LYP def2-SVP def2/J RIJCOSX Grid4 TightSCF
|  4> %maxcore 5000
|  5> %tddft
|  6>     Mode sTDDFT
|  7>     Ethresh 5.0
|  8>     maxcore 5000
|  9> end
| 10>
| 11> %pal
| 12>   nprocs 6
| 13>   end
| 14> * xyz 0 1
| 15>    C        4.19697        -2.71161        -5.21879
| 16>    C        4.63097        -2.67556        -3.75190
| 17>    C        5.88186        -1.86975        -3.58517
| 18>    C        5.85095        -0.56552        -3.06798
| 19>    C        7.06359         0.08629        -3.07555
| 20>    C        7.42111         1.39429        -2.64926
| 21>    C        6.56075         2.31381        -2.15182
| 22>    C        6.90441         3.63789        -1.74108
| 23>    C        8.18150         4.13459        -1.67187
| 24>    C        8.52696         5.43524        -1.30249
| 25>    C        9.78996         6.04200        -1.20545
| 26>    C       11.07023         5.55201        -1.58272
| 27>    C       11.32676         4.55821        -2.46415
| 28>    C       12.62406         4.05824        -2.76574
| 29>    C       12.89825         3.02379        -3.61945
| 30>    C       14.27542         2.69337        -3.71731
| 31>    C       14.96337         1.71309        -4.45183
| 32>    O       14.47474         0.77055        -5.30606
| 33>    C       13.10137         0.48142        -5.36741
| 34>    C       16.34596         1.68427        -4.31918
| 35>    S       17.31210         0.50934        -5.15765
| 36>    C       18.76565         1.17307        -4.45124
| 37>    C       20.06360         0.64325        -4.77781
| 38>    C       21.20339         1.34407        -4.60057
| 39>    C       22.49698         0.80763        -4.92453
| 40>    C       22.66165        -0.47744        -5.23900
| 41>    C       21.49794        -1.42915        -5.21414
| 42>    N       21.57993        -2.13513        -3.94788
| 43>    C       20.51045        -2.51703        -3.41033
| 44>    F       20.55059        -3.14856        -2.23993
| 45>    C       19.19604        -2.31835        -4.04899
| 46>    F       18.17696        -3.05501        -3.61766
| 47>    N       19.02913        -1.54123        -5.02420
| 48>    C       20.14412        -0.72419        -5.44357
| 49>    C       18.49998         2.22303        -3.61465
| 50>    C       17.12243         2.54868        -3.50363
| 51>    C       16.43165         3.52018        -2.75551
| 52>    O       16.91471         4.46231        -1.89592
| 53>    C       18.28695         4.57809        -1.62734
| 54>    C       15.05115         3.55038        -2.89273
| 55>    S       14.07580         4.70218        -2.02628
| 56>    C        9.57958         7.34099        -0.62366
| 57>    C       10.34266         8.46550        -0.23795
| 58>    C        9.55537         9.45894         0.24984
| 59>    S        7.86441         9.07899         0.25832
| 60>    C        8.21415         7.53330        -0.41090
| 61>    C        7.50081         6.37563        -0.82109
| 62>    C        6.17769         6.10700        -0.79881
| 63>    S        5.50060         4.62312        -1.32985
| 64>    S        8.28655        -0.94413        -3.76115
| 65>    C        7.14451        -2.23844        -4.01128
| 66>    C        7.64027        -3.44033        -4.63972
| 67>    C        8.57563        -3.39089        -5.60850
| 68>    C        9.10597        -4.57356        -6.23102
| 69>    C        8.86297        -5.78660        -5.73538
| 70>    C        8.07885        -5.95528        -4.46177
| 71>    N        9.06908        -6.14571        -3.41959
| 72>    C        8.82835        -5.70003        -2.27042
| 73>    F        9.73287        -5.83651        -1.30582
| 74>    C        7.54700        -5.05234        -1.93249
| 75>    F        7.23345        -4.92276        -0.64714
| 76>    N        6.71815        -4.68914        -2.80526
| 77>    C        7.09724        -4.79174        -4.19796
| 78>    H        3.29049        -3.30203        -5.32897
| 79>    H        4.97512        -3.14645        -5.84263
| 80>    H        3.99856        -1.70439        -5.57945
| 81>    H        4.78461        -3.68622        -3.37878
| 82>    H        3.84067        -2.21340        -3.15796
| 83>    H        4.94897        -0.11323        -2.69630
| 84>    H        8.46886         1.63613        -2.75819
| 85>    H        5.51244         2.06095        -2.07285
| 86>    H        8.98230         3.44477        -1.88647
| 87>    H       11.91741         6.05456        -1.13080
| 88>    H       10.52287         4.09470        -3.01787
| 89>    H       12.10888         2.52937        -4.15321
| 90>    H       13.02746        -0.43619        -5.95092
| 91>    H       12.54702         1.27351        -5.88079
| 92>    H       12.67833         0.30905        -4.37395
| 93>    H       21.16552         2.34738        -4.20697
| 94>    H       23.34091         1.47990        -4.89086
| 95>    H       23.63124        -0.90937        -5.42129
| 96>    H       21.63848        -2.19630        -5.98876
| 97>    H       20.00023        -0.56011        -6.52102
| 98>    H       19.28628         2.72008        -3.08122
| 99>    H       18.85389         4.83023        -2.52879
|100>    H       18.68741         3.66772        -1.17110
|101>    H       18.36936         5.39845        -0.91442
|102>    H       11.41243         8.53889        -0.31377
|103>    H        9.85972        10.41996         0.61638
|104>    H        5.44560         6.81839        -0.45024
|105>    H        8.94169        -2.43246        -5.94574
|106>    H        9.71965        -4.44682        -7.10969
|107>    H        9.30194        -6.67968        -6.14688
|108>    H        7.51384        -6.89687        -4.50438
|109>    H        6.16942        -4.98164        -4.75333
|110> *
|111>
|112>                          ****END OF INPUT****

CARTESIAN COORDINATES (ANGSTROEM)
---------------------------------
  C      4.196970   -2.711610   -5.218790
  C      4.630970   -2.675560   -3.751900
  C      5.881860   -1.869750   -3.585170
  C      5.850950   -0.565520   -3.067980
  C      7.063590    0.086290   -3.075550
  C      7.421110    1.394290   -2.649260
  C      6.560750    2.313810   -2.151820
  C      6.904410    3.637890   -1.741080
  C      8.181500    4.134590   -1.671870
  C      8.526960    5.435240   -1.302490
  C      9.789960    6.042000   -1.205450
  C     11.070230    5.552010   -1.582720
  C     11.326760    4.558210   -2.464150
  C     12.624060    4.058240   -2.765740
  C     12.898250    3.023790   -3.619450
  C     14.275420    2.693370   -3.717310
  C     14.963370    1.713090   -4.451830
  O     14.474740    0.770550   -5.306060
  C     13.101370    0.481420   -5.367410
  C     16.345960    1.684270   -4.319180
  S     17.312100    0.509340   -5.157650
  C     18.765650    1.173070   -4.451240
  C     20.063600    0.643250   -4.777810
  C     21.203390    1.344070   -4.600570
  C     22.496980    0.807630   -4.924530
  C     22.661650   -0.477440   -5.239000
  C     21.497940   -1.429150   -5.214140
  N     21.579930   -2.135130   -3.947880
  C     20.510450   -2.517030   -3.410330
  F     20.550590   -3.148560   -2.239930
  C     19.196040   -2.318350   -4.048990
  F     18.176960   -3.055010   -3.617660
  N     19.029130   -1.541230   -5.024200
  C     20.144120   -0.724190   -5.443570
  C     18.499980    2.223030   -3.614650
  C     17.122430    2.548680   -3.503630
  C     16.431650    3.520180   -2.755510
  O     16.914710    4.462310   -1.895920
  C     18.286950    4.578090   -1.627340
  C     15.051150    3.550380   -2.892730
  S     14.075800    4.702180   -2.026280
  C      9.579580    7.340990   -0.623660
  C     10.342660    8.465500   -0.237950
  C      9.555370    9.458940    0.249840
  S      7.864410    9.078990    0.258320
  C      8.214150    7.533300   -0.410900
  C      7.500810    6.375630   -0.821090
  C      6.177690    6.107000   -0.798810
  S      5.500600    4.623120   -1.329850
  S      8.286550   -0.944130   -3.761150
  C      7.144510   -2.238440   -4.011280
  C      7.640270   -3.440330   -4.639720
  C      8.575630   -3.390890   -5.608500
  C      9.105970   -4.573560   -6.231020
  C      8.862970   -5.786600   -5.735380
  C      8.078850   -5.955280   -4.461770
  N      9.069080   -6.145710   -3.419590
  C      8.828350   -5.700030   -2.270420
  F      9.732870   -5.836510   -1.305820
  C      7.547000   -5.052340   -1.932490
  F      7.233450   -4.922760   -0.647140
  N      6.718150   -4.689140   -2.805260
  C      7.097240   -4.791740   -4.197960
  H      3.290490   -3.302030   -5.328970
  H      4.975120   -3.146450   -5.842630
  H      3.998560   -1.704390   -5.579450
  H      4.784610   -3.686220   -3.378780
  H      3.840670   -2.213400   -3.157960
  H      4.948970   -0.113230   -2.696300
  H      8.468860    1.636130   -2.758190
  H      5.512440    2.060950   -2.072850
  H      8.982300    3.444770   -1.886470
  H     11.917410    6.054560   -1.130800
  H     10.522870    4.094700   -3.017870
  H     12.108880    2.529370   -4.153210
  H     13.027460   -0.436190   -5.950920
  H     12.547020    1.273510   -5.880790
  H     12.678330    0.309050   -4.373950
  H     21.165520    2.347380   -4.206970
  H     23.340910    1.479900   -4.890860
  H     23.631240   -0.909370   -5.421290
  H     21.638480   -2.196300   -5.988760
  H     20.000230   -0.560110   -6.521020
  H     19.286280    2.720080   -3.081220
  H     18.853890    4.830230   -2.528790
  H     18.687410    3.667720   -1.171100
  H     18.369360    5.398450   -0.914420
  H     11.412430    8.538890   -0.313770
  H      9.859720   10.419960    0.616380
  H      5.445600    6.818390   -0.450240
  H      8.941690   -2.432460   -5.945740
  H      9.719650   -4.446820   -7.109690
  H      9.301940   -6.679680   -6.146880
  H      7.513840   -6.896870   -4.504380
  H      6.169420   -4.981640   -4.753330

 Total Charge           Charge          ....    0
 Multiplicity           Mult            ....    1
 Number of Electrons    NEL             ....  480
 Basis Dimension        Dim             .... 1062

ORBITAL ENERGIES
----------------

  NO   OCC          E(Eh)            E(eV)
   0   2.0000     -88.962884     -2420.8031
   1   2.0000     -88.949158     -2420.4296
   2   2.0000     -88.945855     -2420.3398
   3   2.0000     -88.929770     -2419.9021
   4   2.0000     -88.927854     -2419.8499
   5   2.0000     -24.801015      -674.8699
   6   2.0000     -24.798284      -674.7956
   7   2.0000     -24.796876      -674.7573
   8   2.0000     -24.795103      -674.7090
   9   2.0000     -19.237438      -523.4773
  10   2.0000     -19.235257      -523.4180
  11   2.0000     -14.428070      -392.6077
  12   2.0000     -14.427300      -392.5868
  13   2.0000     -14.423457      -392.4822
  14   2.0000     -14.422945      -392.4683
  15   2.0000     -10.415194      -283.4118
  16   2.0000     -10.412078      -283.3270
  17   2.0000     -10.410765      -283.2913
  18   2.0000     -10.408248      -283.2228
  19   2.0000     -10.327529      -281.0263
  20   2.0000     -10.324673      -280.9486
  21   2.0000     -10.322053      -280.8773
  22   2.0000     -10.322028      -280.8767
  23   2.0000     -10.320245      -280.8281
  24   2.0000     -10.320055      -280.8230
  25   2.0000     -10.318207      -280.7727
  26   2.0000     -10.316186      -280.7177
  27   2.0000     -10.315880      -280.7094
  28   2.0000     -10.309913      -280.5470
  29   2.0000     -10.296595      -280.1846
  30   2.0000     -10.293889      -280.1110
  31   2.0000     -10.293617      -280.1036
  32   2.0000     -10.289492      -279.9913
  33   2.0000     -10.288944      -279.9764
  34   2.0000     -10.286902      -279.9208
  35   2.0000     -10.286664      -279.9144
  36   2.0000     -10.285619      -279.8859
  37   2.0000     -10.284751      -279.8623
  38   2.0000     -10.283673      -279.8330
  39   2.0000     -10.281417      -279.7716
  40   2.0000     -10.277918      -279.6764
  41   2.0000     -10.277247      -279.6581
  42   2.0000     -10.276222      -279.6302
  43   2.0000     -10.276011      -279.6245
  44   2.0000     -10.275930      -279.6223
  45   2.0000     -10.274599      -279.5860
  46   2.0000     -10.273336      -279.5517
  47   2.0000     -10.273137      -279.5463
  48   2.0000     -10.273087      -279.5449
  49   2.0000     -10.272650      -279.5330
  50   2.0000     -10.272513      -279.5293
  51   2.0000     -10.271830      -279.5107
  52   2.0000     -10.271690      -279.5069
  53   2.0000     -10.266339      -279.3613
  54   2.0000     -10.265656      -279.3427
  55   2.0000     -10.264613      -279.3143
  56   2.0000     -10.264586      -279.3136
  57   2.0000     -10.264580      -279.3134
  58   2.0000     -10.261681      -279.2345
  59   2.0000     -10.261458      -279.2285
  60   2.0000     -10.260332      -279.1978
  61   2.0000     -10.258746      -279.1547
  62   2.0000     -10.254231      -279.0318
  63   2.0000      -8.058406      -219.2804
  64   2.0000      -8.044813      -218.9105
  65   2.0000      -8.041257      -218.8137
  66   2.0000      -8.024291      -218.3521
  67   2.0000      -8.022971      -218.3161
  68   2.0000      -6.027908      -164.0277
  69   2.0000      -6.023492      -163.9076
  70   2.0000      -6.020319      -163.8212
  71   2.0000      -6.013966      -163.6483
  72   2.0000      -6.010705      -163.5596
  73   2.0000      -6.010038      -163.5415
  74   2.0000      -6.007024      -163.4594
  75   2.0000      -6.006537      -163.4462
  76   2.0000      -6.003217      -163.3558
  77   2.0000      -5.993967      -163.1041
  78   2.0000      -5.992612      -163.0673
  79   2.0000      -5.989635      -162.9862
  80   2.0000      -5.988606      -162.9582
  81   2.0000      -5.985758      -162.8807
  82   2.0000      -5.984283      -162.8406
  83   2.0000      -1.329276       -36.1714
  84   2.0000      -1.325198       -36.0605
  85   2.0000      -1.314470       -35.7686
  86   2.0000      -1.310612       -35.6636
  87   2.0000      -1.140651       -31.0387
  88   2.0000      -1.138353       -30.9762
  89   2.0000      -1.079838       -29.3839
  90   2.0000      -1.076294       -29.2875
  91   2.0000      -1.012118       -27.5411
  92   2.0000      -1.008220       -27.4351
  93   2.0000      -0.993793       -27.0425
  94   2.0000      -0.981679       -26.7128
  95   2.0000      -0.978616       -26.6295
  96   2.0000      -0.961392       -26.1608
  97   2.0000      -0.961188       -26.1553
  98   2.0000      -0.941238       -25.6124
  99   2.0000      -0.936832       -25.4925
 100   2.0000      -0.918815       -25.0022
 101   2.0000      -0.903871       -24.5956
 102   2.0000      -0.895363       -24.3641
 103   2.0000      -0.878251       -23.8984
 104   2.0000      -0.869682       -23.6652
 105   2.0000      -0.865960       -23.5640
 106   2.0000      -0.860074       -23.4038
 107   2.0000      -0.851899       -23.1813
 108   2.0000      -0.850469       -23.1424
 109   2.0000      -0.847210       -23.0538
 110   2.0000      -0.842672       -22.9303
 111   2.0000      -0.829483       -22.5714
 112   2.0000      -0.825265       -22.4566
 113   2.0000      -0.805648       -21.9228
 114   2.0000      -0.804062       -21.8796
 115   2.0000      -0.797436       -21.6993
 116   2.0000      -0.791992       -21.5512
 117   2.0000      -0.784508       -21.3475
 118   2.0000      -0.779213       -21.2035
 119   2.0000      -0.770728       -20.9726
 120   2.0000      -0.766672       -20.8622
 121   2.0000      -0.756844       -20.5948
 122   2.0000      -0.752368       -20.4730
 123   2.0000      -0.746803       -20.3216
 124   2.0000      -0.730611       -19.8809
 125   2.0000      -0.726579       -19.7712
 126   2.0000      -0.722670       -19.6649
 127   2.0000      -0.709895       -19.3172
 128   2.0000      -0.702531       -19.1168
 129   2.0000      -0.687882       -18.7182
 130   2.0000      -0.675073       -18.3697
 131   2.0000      -0.665803       -18.1174
 132   2.0000      -0.662915       -18.0388
 133   2.0000      -0.662170       -18.0186
 134   2.0000      -0.659463       -17.9449
 135   2.0000      -0.655890       -17.8477
 136   2.0000      -0.654362       -17.8061
 137   2.0000      -0.650502       -17.7010
 138   2.0000      -0.643060       -17.4986
 139   2.0000      -0.639492       -17.4015
 140   2.0000      -0.632009       -17.1979
 141   2.0000      -0.624147       -16.9839
 142   2.0000      -0.620679       -16.8895
 143   2.0000      -0.614855       -16.7310
 144   2.0000      -0.612881       -16.6773
 145   2.0000      -0.611132       -16.6297
 146   2.0000      -0.607872       -16.5410
 147   2.0000      -0.600835       -16.3495
 148   2.0000      -0.596890       -16.2422
 149   2.0000      -0.590551       -16.0697
 150   2.0000      -0.587814       -15.9952
 151   2.0000      -0.584061       -15.8931
 152   2.0000      -0.580814       -15.8047
 153   2.0000      -0.573836       -15.6149
 154   2.0000      -0.570650       -15.5282
 155   2.0000      -0.568147       -15.4601
 156   2.0000      -0.561241       -15.2721
 157   2.0000      -0.558890       -15.2082
 158   2.0000      -0.555615       -15.1191
 159   2.0000      -0.552402       -15.0316
 160   2.0000      -0.550858       -14.9896
 161   2.0000      -0.550760       -14.9870
 162   2.0000      -0.545075       -14.8323
 163   2.0000      -0.544604       -14.8194
 164   2.0000      -0.542789       -14.7700
 165   2.0000      -0.538618       -14.6566
 166   2.0000      -0.534556       -14.5460
 167   2.0000      -0.531659       -14.4672
 168   2.0000      -0.528625       -14.3846
 169   2.0000      -0.526202       -14.3187
 170   2.0000      -0.524583       -14.2746
 171   2.0000      -0.518239       -14.1020
 172   2.0000      -0.516013       -14.0414
 173   2.0000      -0.514076       -13.9887
 174   2.0000      -0.509146       -13.8546
 175   2.0000      -0.507985       -13.8230
 176   2.0000      -0.505643       -13.7592
 177   2.0000      -0.502242       -13.6667
 178   2.0000      -0.501844       -13.6559
 179   2.0000      -0.497955       -13.5501
 180   2.0000      -0.493139       -13.4190
 181   2.0000      -0.492769       -13.4089
 182   2.0000      -0.489700       -13.3254
 183   2.0000      -0.486254       -13.2316
 184   2.0000      -0.485281       -13.2052
 185   2.0000      -0.482487       -13.1291
 186   2.0000      -0.473782       -12.8923
 187   2.0000      -0.472287       -12.8516
 188   2.0000      -0.465381       -12.6637
 189   2.0000      -0.463338       -12.6081
 190   2.0000      -0.459739       -12.5101
 191   2.0000      -0.454848       -12.3770
 192   2.0000      -0.453969       -12.3531
 193   2.0000      -0.453369       -12.3368
 194   2.0000      -0.451487       -12.2856
 195   2.0000      -0.447494       -12.1769
 196   2.0000      -0.443818       -12.0769
 197   2.0000      -0.443149       -12.0587
 198   2.0000      -0.439602       -11.9622
 199   2.0000      -0.437998       -11.9185
 200   2.0000      -0.437826       -11.9139
 201   2.0000      -0.433337       -11.7917
 202   2.0000      -0.428360       -11.6563
 203   2.0000      -0.424589       -11.5537
 204   2.0000      -0.423770       -11.5314
 205   2.0000      -0.422734       -11.5032
 206   2.0000      -0.415799       -11.3145
 207   2.0000      -0.414089       -11.2679
 208   2.0000      -0.411285       -11.1916
 209   2.0000      -0.409138       -11.1332
 210   2.0000      -0.407689       -11.0938
 211   2.0000      -0.407590       -11.0911
 212   2.0000      -0.406749       -11.0682
 213   2.0000      -0.401537       -10.9264
 214   2.0000      -0.400059       -10.8862
 215   2.0000      -0.398713       -10.8495
 216   2.0000      -0.397275       -10.8104
 217   2.0000      -0.394217       -10.7272
 218   2.0000      -0.392930       -10.6922
 219   2.0000      -0.385593       -10.4925
 220   2.0000      -0.384132       -10.4528
 221   2.0000      -0.373271       -10.1572
 222   2.0000      -0.361538        -9.8379
 223   2.0000      -0.357546        -9.7293
 224   2.0000      -0.352748        -9.5988
 225   2.0000      -0.351141        -9.5550
 226   2.0000      -0.342297        -9.3144
 227   2.0000      -0.341377        -9.2893
 228   2.0000      -0.333139        -9.0652
 229   2.0000      -0.324595        -8.8327
 230   2.0000      -0.316141        -8.6026
 231   2.0000      -0.311795        -8.4844
 232   2.0000      -0.310910        -8.4603
 233   2.0000      -0.308437        -8.3930
 234   2.0000      -0.288141        -7.8407
 235   2.0000      -0.274533        -7.4704
 236   2.0000      -0.261502        -7.1158
 237   2.0000      -0.249495        -6.7891
 238   2.0000      -0.224687        -6.1140
 239   2.0000      -0.207002        -5.6328
 240   0.0000      -0.060188        -1.6378
 241   0.0000      -0.036195        -0.9849
 242   0.0000      -0.030407        -0.8274
 243   0.0000      -0.028515        -0.7759
 244   0.0000      -0.025689        -0.6990

MULLIKEN ATOMIC CHARGES
-----------------------
   0 C :    0.013551
   1 C :    0.082712
   2 C :    0.011325
   3 C :   -0.049539
   4 C :   -0.063685
   5 C :    0.078980
   6 C :    0.032624
   7 C :   -0.078158
   8 C :   -0.047114
   9 C :    0.041014
  10 C :    0.074792
  11 C :   -0.029326
  12 C :   -0.013022
  13 C :    0.005196
  14 C :   -0.108132
  15 C :    0.078829
  16 C :    0.127613
  17 O :   -0.316727
  18 C :    0.187065
  19 C :   -0.146625
  20 S :    0.172428
  21 C :   -0.033467
  22 C :    0.027635
  23 C :   -0.042805
  24 C :    0.032055
  25 C :    0.008165
  26 C :    0.092564
  27 N :   -0.088863
  28 C :    0.115571
  29 F :   -0.147080
  30 C :    0.129412
  31 F :   -0.143135
  32 N :   -0.106749
  33 C :    0.079982
  34 C :   -0.100070
  35 C :    0.072210
  36 C :    0.132347
  37 O :   -0.316717
  38 C :    0.187781
  39 C :   -0.143736
  40 S :    0.112370
  41 C :    0.056110
  42 C :    0.005234
  43 C :   -0.068973
  44 S :    0.118316
  45 C :   -0.112962
  46 C :    0.059346
  47 C :   -0.135014
  48 S :    0.122799
  49 S :    0.112138
  50 C :   -0.140204
  51 C :   -0.036102
  52 C :   -0.025844
  53 C :    0.026948
  54 C :    0.007233
  55 C :    0.099514
  56 N :   -0.087603
  57 C :    0.117218
  58 F :   -0.145295
  59 C :    0.116961
  60 F :   -0.144306
  61 N :   -0.084656
  62 C :    0.110925
  63 H :    0.013053
  64 H :    0.014884
  65 H :    0.008889
  66 H :    0.023372
  67 H :   -0.010734
  68 H :   -0.029769
  69 H :   -0.021790
  70 H :   -0.016268
  71 H :   -0.021478
  72 H :   -0.013983
  73 H :   -0.021829
  74 H :   -0.050017
  75 H :    0.031532
  76 H :    0.028479
  77 H :    0.028221
  78 H :   -0.024848
  79 H :   -0.010257
  80 H :   -0.000134
  81 H :    0.026182
  82 H :    0.040812
  83 H :   -0.045912
  84 H :    0.024822
  85 H :    0.029638
  86 H :    0.033610
  87 H :   -0.016158
  88 H :    0.022680
  89 H :    0.031141
  90 H :   -0.014333
  91 H :   -0.006604
  92 H :    0.003116
  93 H :    0.025383
  94 H :    0.025247
Sum of atomic charges:   -0.0000000

LOEWDIN ATOMIC CHARGES
----------------------
   0 C :   -0.051047
   1 C :   -0.032501
   2 C :   -0.036313
   3 C :   -0.056867
   4 C :   -0.169748
   5 C :   -0.034145
   6 C :   -0.044024
   7 C :   -0.169343
   8 C :   -0.021480
   9 C :   -0.020838
  10 C :   -0.055877
  11 C :   -0.019857
  12 C :   -0.053255
  13 C :   -0.149492
  14 C :   -0.074312
  15 C :   -0.073565
  16 C :    0.018533
  17 O :   -0.111285
  18 C :    0.078336
  19 C :   -0.178492
  20 S :    0.448320
  21 C :   -0.166632
  22 C :   -0.035513
  23 C :   -0.032411
  24 C :   -0.027325
  25 C :   -0.017265
  26 C :    0.013339
  27 N :   -0.066835
  28 C :    0.042779
  29 F :   -0.036540
  30 C :    0.055613
  31 F :   -0.031031
  32 N :   -0.083588
  33 C :    0.012840
  34 C :   -0.060904
  35 C :   -0.076882
  36 C :    0.020377
  37 O :   -0.111132
  38 C :    0.077249
  39 C :   -0.173813
  40 S :    0.400063
  41 C :   -0.038097
  42 C :   -0.064193
  43 C :   -0.166872
  44 S :    0.412434
  45 C :   -0.206671
  46 C :   -0.047744
  47 C :   -0.146259
  48 S :    0.440105
  49 S :    0.431352
  50 C :   -0.180007
  51 C :   -0.043789
  52 C :   -0.040093
  53 C :   -0.027985
  54 C :   -0.014492
  55 C :    0.014168
  56 N :   -0.064541
  57 C :    0.042493
  58 F :   -0.034143
  59 C :    0.054652
  60 F :   -0.032324
  61 N :   -0.063843
  62 C :    0.019447
  63 H :    0.022922
  64 H :    0.020014
  65 H :    0.023543
  66 H :    0.027526
  67 H :    0.026650
  68 H :    0.024958
  69 H :    0.025042
  70 H :    0.024941
  71 H :    0.034242
  72 H :    0.023378
  73 H :    0.027008
  74 H :    0.020654
  75 H :    0.028106
  76 H :    0.014061
  77 H :    0.017106
  78 H :    0.027062
  79 H :    0.031587
  80 H :    0.028196
  81 H :    0.038301
  82 H :    0.044905
  83 H :    0.020463
  84 H :    0.014437
  85 H :    0.015854
  86 H :    0.029208
  87 H :    0.030645
  88 H :    0.021699
  89 H :    0.034343
  90 H :    0.023357
  91 H :    0.032720
  92 H :    0.029342
  93 H :    0.038833
  94 H :    0.040162

  Mayer bond orders larger than 0.100000
B(  0-C ,  1-C ) :   1.1023 B(  0-C , 63-H ) :   0.9682 B(  0-C , 64-H ) :   0.9697
B(  0-C , 65-H ) :   0.9654 B(  1-C ,  2-C ) :   1.0697 B(  1-C , 66-H ) :   0.9035
B(  1-C , 67-H ) :   0.9169 B(  2-C ,  3-C ) :   1.2815 B(  2-C , 50-C ) :   1.5262
B(  3-C ,  4-C ) :   1.4841 B(  3-C , 68-H ) :   0.9948 B(  4-C ,  5-C ) :   1.1212
B(  4-C , 49-S ) :   1.1203 B(  4-C , 50-C ) :   0.1004 B(  5-C ,  6-C ) :   1.7215
B(  5-C , 69-H ) :   0.9504 B(  6-C ,  7-C ) :   1.1009 B(  6-C , 70-H ) :   0.9625
B(  7-C ,  8-C ) :   1.5499 B(  7-C , 48-S ) :   1.0486 B(  8-C ,  9-C ) :   1.2366
B(  8-C , 71-H ) :   0.9604 B(  9-C , 10-C ) :   1.4042 B(  9-C , 46-C ) :   1.0465
B( 10-C , 11-C ) :   1.1397 B( 10-C , 41-C ) :   1.1073 B( 11-C , 12-C ) :   1.6342
B( 11-C , 72-H ) :   0.9598 B( 12-C , 13-C ) :   1.1441 B( 12-C , 73-H ) :   0.9752
B( 13-C , 14-C ) :   1.5477 B( 13-C , 40-S ) :   1.0534 B( 14-C , 15-C ) :   1.1317
B( 14-C , 74-H ) :   1.0036 B( 15-C , 16-C ) :   1.2213 B( 15-C , 39-C ) :   1.3202
B( 16-C , 17-O ) :   1.2441 B( 16-C , 19-C ) :   1.4077 B( 17-O , 18-C ) :   0.9571
B( 18-C , 75-H ) :   0.9749 B( 18-C , 76-H ) :   0.9693 B( 18-C , 77-H ) :   0.9680
B( 19-C , 20-S ) :   1.0348 B( 19-C , 35-C ) :   1.3227 B( 20-S , 21-C ) :   1.0787
B( 21-C , 22-C ) :   1.0685 B( 21-C , 34-C ) :   1.5850 B( 22-C , 23-C ) :   1.7704
B( 22-C , 33-C ) :   0.9316 B( 23-C , 24-C ) :   1.0757 B( 23-C , 78-H ) :   0.9762
B( 24-C , 25-C ) :   1.8156 B( 24-C , 79-H ) :   0.9798 B( 25-C , 26-C ) :   0.9945
B( 25-C , 80-H ) :   0.9751 B( 26-C , 27-N ) :   0.9963 B( 26-C , 33-C ) :   0.9934
B( 26-C , 81-H ) :   0.9049 B( 27-N , 28-C ) :   1.9576 B( 28-C , 29-F ) :   1.1612
B( 28-C , 30-C ) :   0.9366 B( 30-C , 31-F ) :   1.1671 B( 30-C , 32-N ) :   1.9208
B( 32-N , 33-C ) :   1.0049 B( 33-C , 82-H ) :   0.8833 B( 34-C , 35-C ) :   1.1580
B( 34-C , 83-H ) :   0.9938 B( 35-C , 36-C ) :   1.1984 B( 36-C , 37-O ) :   1.2413
B( 36-C , 39-C ) :   1.4333 B( 37-O , 38-C ) :   0.9597 B( 38-C , 84-H ) :   0.9678
B( 38-C , 85-H ) :   0.9681 B( 38-C , 86-H ) :   0.9740 B( 39-C , 40-S ) :   1.0319
B( 41-C , 42-C ) :   1.2173 B( 41-C , 45-C ) :   1.4384 B( 42-C , 43-C ) :   1.5868
B( 42-C , 87-H ) :   0.9986 B( 43-C , 44-S ) :   1.1520 B( 43-C , 88-H ) :   0.9660
B( 44-S , 45-C ) :   1.0688 B( 45-C , 46-C ) :   1.1827 B( 46-C , 47-C ) :   1.6139
B( 47-C , 48-S ) :   1.1350 B( 47-C , 89-H ) :   0.9400 B( 49-S , 50-C ) :   1.1180
B( 50-C , 51-C ) :   1.0697 B( 51-C , 52-C ) :   1.7554 B( 51-C , 62-C ) :   0.9484
B( 52-C , 53-C ) :   1.0692 B( 52-C , 90-H ) :   0.9781 B( 53-C , 54-C ) :   1.8178
B( 53-C , 91-H ) :   0.9826 B( 54-C , 55-C ) :   0.9958 B( 54-C , 92-H ) :   0.9770
B( 55-C , 56-N ) :   1.0011 B( 55-C , 62-C ) :   0.9886 B( 55-C , 93-H ) :   0.9034
B( 56-N , 57-C ) :   1.9557 B( 57-C , 58-F ) :   1.1619 B( 57-C , 59-C ) :   0.9317
B( 59-C , 60-F ) :   1.1649 B( 59-C , 61-N ) :   1.9388 B( 61-N , 62-C ) :   1.0056
B( 62-C , 94-H ) :   0.8739

-----------------------------------------------------------------------------
         ABSORPTION SPECTRUM VIA TRANSITION ELECTRIC DIPOLE MOMENTS
-----------------------------------------------------------------------------
State   Energy  Wavelength   fosc         T2         TX        TY        TZ
        (cm-1)    (nm)                  (au**2)     (au)      (au)      (au)
-----------------------------------------------------------------------------
   0   17257.6    579.5   0.597073946  11.38996   3.00424   1.53770  -0.00193
   1   20729.1    482.4   0.009792808   0.15553   0.39104   0.01136  -0.04986
   2   22030.9    453.9   0.477391916   7.13377   0.31463  -2.36850  -1.19373
   3   23660.2    422.7   0.025154322   0.35000   0.45043  -0.26439  -0.27787
   4   24266.5    412.1   0.248505501   3.37135   1.43608  -0.91598  -0.68558
   5   25330.3    394.8   0.150695341   1.95855  -0.89410   1.05599   0.20980
   6   26518.7    377.1   0.562987109   6.98911  -1.25325   2.09004   1.02479
   7   27437.2    364.5   1.139327885  13.67052   2.61425  -2.29703  -1.24895
   8   28723.0    348.2   0.079952528   0.91638   0.68370  -0.46813  -0.47937
   9   29202.4    342.4   0.013346539   0.15046   0.23597  -0.26305   0.15996
  10   29725.0    336.4   0.097912574   1.08441  -0.89215  -0.48818  -0.22396
  11   30118.5    332.0   0.025829339   0.28233   0.12543  -0.49479  -0.14759
  12   30544.4    327.4   0.080915490   0.87212  -0.68792  -0.54232  -0.32369
  13   31284.5    319.6   0.002600987   0.02737  -0.16381   0.00805   0.02171
  14   31931.8    313.2   0.070764895   0.72957   0.54428  -0.58906  -0.29385
  15   32416.2    308.5   0.241710544   2.45476   0.81116  -1.13647  -0.71079
  16   33150.5    301.7   0.076856792   0.76325  -0.65505  -0.57094  -0.09044
  17   33404.4    299.4   0.116424517   1.14740   0.42645   0.86976   0.45722
  18   33994.9    294.2   0.044930660   0.43511   0.42451   0.49148   0.11556
  19   34726.9    288.0   0.205442842   1.94760   1.33657  -0.36398  -0.16941
  20   35402.1    282.5   0.070757402   0.65799  -0.76720  -0.22788   0.13214
  21   36264.3    275.8   0.271545417   2.46513  -0.79692   1.16083   0.69463
  22   37247.3    268.5   0.120992700   1.06940  -1.01222  -0.03745   0.20837
  23   37315.5    268.0   0.005235869   0.04619   0.11344   0.18255   0.00008
  24   37725.9    265.1   0.041613454   0.36314  -0.22214  -0.55813  -0.04772
  25   37979.0    263.3   0.056664522   0.49118  -0.00232   0.67363   0.19339
  26   38504.6    259.7   0.008559855   0.07319  -0.07571   0.23854   0.10273
  27   38878.8    257.2   0.314482410   2.66292  -1.50874  -0.60621  -0.13838
  28   39201.1    255.1   0.038481890   0.32317  -0.44765   0.28223   0.20767
  29   39550.9    252.8   0.016279487   0.13551  -0.11799   0.34858  -0.00892
  30   39725.6    251.7   0.010670238   0.08843   0.01964  -0.28310   0.08884
  31   40029.6    249.8   0.090921158   0.74776   0.74389   0.38400   0.21661

FINAL SINGLE POINT ENERGY     -4604.161132410906

DIPOLE MOMENT
-------------
                                X             Y             Z
Electronic contribution:     19.46684     -14.03968      24.15454
Nuclear contribution   :    -20.08399      14.19223     -25.42637
                        -----------------------------------------
Total Dipole Moment    :     -0.61715       0.15255      -1.27183
                        -----------------------------------------
Magnitude (a.u.)       :      1.42186
Magnitude (Debye)      :      3.61409

Rotational constants in cm-1:     0.000894     0.000577     0.000371
Rotational constants in MHz :    26.811496    17.307285    11.121605

                             ****ORCA TERMINATED NORMALLY****
TOTAL RUN TIME: 0 days 0 hours 8 minutes 27 seconds 875 msec
