                         Program Version 4.2.0 -  RELEASE  -
|  1> # ORCA input file
|  2> # SCF done       -163.334358399679          0.000652614859
|  3> ! CAM-B3LYP def2-SVP def2/J RIJCOSX Grid4 TightSCF
|  4> %maxcore 5000
|  5> %tddft
|  6>     Mode sTDDFT
|  7>     Ethresh 5.0
|  8>     maxcore 5000
|  9> end
| 10>
| 11> %pal
| 12>   nprocs 6
| 13>   end
| 14> * xyz 0 1
| 15>    C       -6.06866         2.45220         7.84490
| 16>    C       -5.36814         2.47964         6.67124
| 17>    C       -4.66292         3.62778         6.29190
| 18>    C       -4.64263         4.76036         7.07609
| 19>    C       -5.37375         4.75659         8.29804
| 20>    C       -6.08928         3.58675         8.67873
| 21>    C       -6.80074         3.62360         9.89672
| 22>    C       -6.78818         4.76456        10.65014
| 23>    C       -6.06599         5.87080        10.16872
| 24>    N       -5.39425         5.87153         9.05355
| 25>    C       -3.89124         5.94753         6.65167
| 26>    C       -3.95095         6.35594         5.31504
| 27>    C       -3.24153         7.46277         4.90914
| 28>    C       -2.49496         8.20229         5.84238
| 29>    C       -2.42140         7.79583         7.16601
| 30>    C       -3.11204         6.66552         7.55889
| 31>    C       -1.94470         9.36438         5.17871
| 32>    C       -2.34608         9.34074         3.83194
| 33>    C       -3.14904         8.09068         3.53599
| 34>    C       -4.53157         8.41583         2.95260
| 35>    C       -5.32569         9.36381         3.84386
| 36>    C       -2.30593         7.23080         2.56556
| 37>    C       -2.84240         5.83477         2.27853
| 38>    C       -1.98136        10.35123         2.98029
| 39>    C       -1.21039        11.42987         3.45534
| 40>    C       -0.81840        11.43590         4.80456
| 41>    C       -1.17817        10.41676         5.65994
| 42>    C       -0.87175        12.47842         2.53581
| 43>    C       -0.15305        13.59991         2.80340
| 44>    C        0.11841        14.59574         1.84542
| 45>    C        0.80252        15.75215         2.11160
| 46>    C        1.12633        16.79787         1.21103
| 47>    C        1.81759        17.83020         1.76712
| 48>    C        2.08046        17.66466         3.14609
| 49>    S        1.41644        16.14574         3.71384
| 50>    C        2.74887        18.50648         4.00847
| 51>    C        3.37025        19.75146         3.76546
| 52>    C        3.95546        20.31589         4.85855
| 53>    C        3.83112        19.54945         6.04416
| 54>    S        2.92477        18.06833         5.69677
| 55>    C        4.28845        19.80531         7.30404
| 56>    N        4.04252        18.91204         8.30042
| 57>    C        4.35376        18.94544         9.60909
| 58>    S        5.19302        20.26776        10.34993
| 59>    C        5.03527        19.47213        11.89258
| 60>    N        5.58240        20.11266        12.99326
| 61>    O        5.48002        19.57124        14.08452
| 62>    O        6.13509        21.18737        12.78768
| 63>    C        4.37336        18.26937        11.82381
| 64>    C        3.97980        17.93973        10.52232
| 65>    C        3.27256        16.75650        10.09365
| 66>    C        2.56352        15.91495        10.85827
| 67>    C        1.86417        14.76490        10.29802
| 68>    C        1.92586        13.54875        10.94562
| 69>    C        1.38528        12.38991        10.37823
| 70>    C        0.77586        12.43376         9.15464
| 71>    C        0.62857        13.66394         8.48230
| 72>    C        1.14379        14.85430         9.07047
| 73>    C        0.83644        16.06638         8.41615
| 74>    C        0.15585        16.04495         7.22912
| 75>    C       -0.22973        14.80326         6.69888
| 76>    N       -0.02341        13.66709         7.30107
| 77>    H       -6.61258         1.56941         8.14966
| 78>    H       -5.34850         1.61225         6.02757
| 79>    H       -4.10121         3.61271         5.36889
| 80>    H       -7.34888         2.74615        10.21267
| 81>    H       -7.31978         4.83004        11.58698
| 82>    H       -6.04325         6.79639        10.73083
| 83>    H       -4.58729         5.81902         4.62722
| 84>    H       -1.84006         8.35779         7.88168
| 85>    H       -3.06025         6.33151         8.58246
| 86>    H       -5.09523         7.49026         2.82876
| 87>    H       -4.40246         8.86543         1.96541
| 88>    H       -5.47217         8.92753         4.82944
| 89>    H       -6.30134         9.56242         3.40582
| 90>    H       -4.80193        10.30952         3.96326
| 91>    H       -1.30128         7.13916         2.98728
| 92>    H       -2.21859         7.77994         1.62496
| 93>    H       -2.85600         5.23407         3.18365
| 94>    H       -2.19592         5.34151         1.55512
| 95>    H       -3.84593         5.87195         1.86246
| 96>    H       -2.28832        10.33946         1.94344
| 97>    H       -0.23472        12.25168         5.19886
| 98>    H       -0.87356        10.44982         6.69451
| 99>    H       -1.24558        12.35156         1.52582
|100>    H        0.24392        13.76741         3.79553
|101>    H       -0.23690        14.44858         0.83346
|102>    H        0.83729        16.74856         0.17572
|103>    H        2.14496        18.70257         1.23011
|104>    H        3.36973        20.19452         2.78559
|105>    H        4.47406        21.25772         4.85489
|106>    H        4.83929        20.69825         7.55133
|107>    H        3.52530        18.09035         8.00075
|108>    H        4.20864        17.65959        12.69286
|109>    H        3.33603        16.52774         9.03612
|110>    H        2.52470        16.03912        11.93152
|111>    H        2.44234        13.48222        11.89246
|112>    H        1.47501        11.45388        10.90948
|113>    H        0.38279        11.54778         8.68262
|114>    H        1.10383        17.00793         8.87422
|115>    H       -0.09764        16.95640         6.71123
|116>    H       -0.76195        14.75563         5.75691
|117> *
|118>
|119>                          ****END OF INPUT****

CARTESIAN COORDINATES (ANGSTROEM)
---------------------------------
  C     -6.068660    2.452200    7.844900
  C     -5.368140    2.479640    6.671240
  C     -4.662920    3.627780    6.291900
  C     -4.642630    4.760360    7.076090
  C     -5.373750    4.756590    8.298040
  C     -6.089280    3.586750    8.678730
  C     -6.800740    3.623600    9.896720
  C     -6.788180    4.764560   10.650140
  C     -6.065990    5.870800   10.168720
  N     -5.394250    5.871530    9.053550
  C     -3.891240    5.947530    6.651670
  C     -3.950950    6.355940    5.315040
  C     -3.241530    7.462770    4.909140
  C     -2.494960    8.202290    5.842380
  C     -2.421400    7.795830    7.166010
  C     -3.112040    6.665520    7.558890
  C     -1.944700    9.364380    5.178710
  C     -2.346080    9.340740    3.831940
  C     -3.149040    8.090680    3.535990
  C     -4.531570    8.415830    2.952600
  C     -5.325690    9.363810    3.843860
  C     -2.305930    7.230800    2.565560
  C     -2.842400    5.834770    2.278530
  C     -1.981360   10.351230    2.980290
  C     -1.210390   11.429870    3.455340
  C     -0.818400   11.435900    4.804560
  C     -1.178170   10.416760    5.659940
  C     -0.871750   12.478420    2.535810
  C     -0.153050   13.599910    2.803400
  C      0.118410   14.595740    1.845420
  C      0.802520   15.752150    2.111600
  C      1.126330   16.797870    1.211030
  C      1.817590   17.830200    1.767120
  C      2.080460   17.664660    3.146090
  S      1.416440   16.145740    3.713840
  C      2.748870   18.506480    4.008470
  C      3.370250   19.751460    3.765460
  C      3.955460   20.315890    4.858550
  C      3.831120   19.549450    6.044160
  S      2.924770   18.068330    5.696770
  C      4.288450   19.805310    7.304040
  N      4.042520   18.912040    8.300420
  C      4.353760   18.945440    9.609090
  S      5.193020   20.267760   10.349930
  C      5.035270   19.472130   11.892580
  N      5.582400   20.112660   12.993260
  O      5.480020   19.571240   14.084520
  O      6.135090   21.187370   12.787680
  C      4.373360   18.269370   11.823810
  C      3.979800   17.939730   10.522320
  C      3.272560   16.756500   10.093650
  C      2.563520   15.914950   10.858270
  C      1.864170   14.764900   10.298020
  C      1.925860   13.548750   10.945620
  C      1.385280   12.389910   10.378230
  C      0.775860   12.433760    9.154640
  C      0.628570   13.663940    8.482300
  C      1.143790   14.854300    9.070470
  C      0.836440   16.066380    8.416150
  C      0.155850   16.044950    7.229120
  C     -0.229730   14.803260    6.698880
  N     -0.023410   13.667090    7.301070
  H     -6.612580    1.569410    8.149660
  H     -5.348500    1.612250    6.027570
  H     -4.101210    3.612710    5.368890
  H     -7.348880    2.746150   10.212670
  H     -7.319780    4.830040   11.586980
  H     -6.043250    6.796390   10.730830
  H     -4.587290    5.819020    4.627220
  H     -1.840060    8.357790    7.881680
  H     -3.060250    6.331510    8.582460
  H     -5.095230    7.490260    2.828760
  H     -4.402460    8.865430    1.965410
  H     -5.472170    8.927530    4.829440
  H     -6.301340    9.562420    3.405820
  H     -4.801930   10.309520    3.963260
  H     -1.301280    7.139160    2.987280
  H     -2.218590    7.779940    1.624960
  H     -2.856000    5.234070    3.183650
  H     -2.195920    5.341510    1.555120
  H     -3.845930    5.871950    1.862460
  H     -2.288320   10.339460    1.943440
  H     -0.234720   12.251680    5.198860
  H     -0.873560   10.449820    6.694510
  H     -1.245580   12.351560    1.525820
  H      0.243920   13.767410    3.795530
  H     -0.236900   14.448580    0.833460
  H      0.837290   16.748560    0.175720
  H      2.144960   18.702570    1.230110
  H      3.369730   20.194520    2.785590
  H      4.474060   21.257720    4.854890
  H      4.839290   20.698250    7.551330
  H      3.525300   18.090350    8.000750
  H      4.208640   17.659590   12.692860
  H      3.336030   16.527740    9.036120
  H      2.524700   16.039120   11.931520
  H      2.442340   13.482220   11.892460
  H      1.475010   11.453880   10.909480
  H      0.382790   11.547780    8.682620
  H      1.103830   17.007930    8.874220
  H     -0.097640   16.956400    6.711230
  H     -0.761950   14.755630    5.756910

 Total Charge           Charge          ....    0
 Multiplicity           Mult            ....    1
 Number of Electrons    NEL             ....  450
 Basis Dimension        Dim             .... 1080

ORBITAL ENERGIES
----------------

  NO   OCC          E(Eh)            E(eV)
   0   2.0000     -88.977574     -2421.2029
   1   2.0000     -88.949236     -2420.4318
   2   2.0000     -88.941102     -2420.2104
   3   2.0000     -19.221616      -523.0468
   4   2.0000     -19.221005      -523.0301
   5   2.0000     -14.633553      -398.1992
   6   2.0000     -14.484025      -394.1303
   7   2.0000     -14.398465      -391.8021
   8   2.0000     -14.392923      -391.6513
   9   2.0000     -10.364902      -282.0433
  10   2.0000     -10.331850      -281.1439
  11   2.0000     -10.329861      -281.0898
  12   2.0000     -10.310086      -280.5517
  13   2.0000     -10.309595      -280.5384
  14   2.0000     -10.308197      -280.5003
  15   2.0000     -10.301804      -280.3263
  16   2.0000     -10.301756      -280.3250
  17   2.0000     -10.301048      -280.3058
  18   2.0000     -10.300098      -280.2799
  19   2.0000     -10.299189      -280.2552
  20   2.0000     -10.298874      -280.2466
  21   2.0000     -10.290869      -280.0288
  22   2.0000     -10.289092      -279.9804
  23   2.0000     -10.288719      -279.9703
  24   2.0000     -10.288090      -279.9531
  25   2.0000     -10.285789      -279.8905
  26   2.0000     -10.285120      -279.8723
  27   2.0000     -10.284889      -279.8661
  28   2.0000     -10.284479      -279.8549
  29   2.0000     -10.283706      -279.8339
  30   2.0000     -10.283063      -279.8164
  31   2.0000     -10.281959      -279.7863
  32   2.0000     -10.277362      -279.6612
  33   2.0000     -10.276300      -279.6323
  34   2.0000     -10.273697      -279.5615
  35   2.0000     -10.273156      -279.5468
  36   2.0000     -10.272945      -279.5410
  37   2.0000     -10.272613      -279.5320
  38   2.0000     -10.271567      -279.5036
  39   2.0000     -10.270495      -279.4744
  40   2.0000     -10.270061      -279.4626
  41   2.0000     -10.269464      -279.4463
  42   2.0000     -10.267592      -279.3954
  43   2.0000     -10.266924      -279.3772
  44   2.0000     -10.266357      -279.3618
  45   2.0000     -10.266212      -279.3578
  46   2.0000     -10.264849      -279.3207
  47   2.0000     -10.262364      -279.2531
  48   2.0000     -10.258073      -279.1364
  49   2.0000     -10.257320      -279.1159
  50   2.0000     -10.255691      -279.0716
  51   2.0000     -10.255558      -279.0679
  52   2.0000     -10.255442      -279.0648
  53   2.0000     -10.254972      -279.0520
  54   2.0000     -10.254287      -279.0333
  55   2.0000     -10.254058      -279.0271
  56   2.0000     -10.253853      -279.0215
  57   2.0000     -10.253480      -279.0114
  58   2.0000     -10.252410      -278.9823
  59   2.0000     -10.250943      -278.9423
  60   2.0000     -10.245425      -278.7922
  61   2.0000     -10.236712      -278.5551
  62   2.0000      -8.072981      -219.6770
  63   2.0000      -8.045410      -218.9267
  64   2.0000      -8.037002      -218.6979
  65   2.0000      -6.042730      -164.4310
  66   2.0000      -6.038348      -164.3118
  67   2.0000      -6.034256      -164.2005
  68   2.0000      -6.015285      -163.6842
  69   2.0000      -6.011324      -163.5764
  70   2.0000      -6.006742      -163.4518
  71   2.0000      -6.006065      -163.4333
  72   2.0000      -6.002823      -163.3451
  73   2.0000      -5.997895      -163.2110
  74   2.0000      -1.299824       -35.3700
  75   2.0000      -1.118513       -30.4363
  76   2.0000      -1.092813       -29.7370
  77   2.0000      -1.034529       -28.1510
  78   2.0000      -1.032229       -28.0884
  79   2.0000      -1.000199       -27.2168
  80   2.0000      -0.990366       -26.9492
  81   2.0000      -0.973613       -26.4934
  82   2.0000      -0.969251       -26.3747
  83   2.0000      -0.950252       -25.8577
  84   2.0000      -0.942110       -25.6361
  85   2.0000      -0.928840       -25.2750
  86   2.0000      -0.913060       -24.8456
  87   2.0000      -0.910085       -24.7647
  88   2.0000      -0.899004       -24.4631
  89   2.0000      -0.893459       -24.3122
  90   2.0000      -0.889781       -24.2122
  91   2.0000      -0.883477       -24.0406
  92   2.0000      -0.870082       -23.6761
  93   2.0000      -0.859942       -23.4002
  94   2.0000      -0.852818       -23.2064
  95   2.0000      -0.846431       -23.0326
  96   2.0000      -0.840442       -22.8696
  97   2.0000      -0.837295       -22.7840
  98   2.0000      -0.834417       -22.7056
  99   2.0000      -0.828160       -22.5354
 100   2.0000      -0.823490       -22.4083
 101   2.0000      -0.820449       -22.3256
 102   2.0000      -0.819165       -22.2906
 103   2.0000      -0.813707       -22.1421
 104   2.0000      -0.810203       -22.0467
 105   2.0000      -0.796275       -21.6677
 106   2.0000      -0.776620       -21.1329
 107   2.0000      -0.754693       -20.5362
 108   2.0000      -0.752342       -20.4723
 109   2.0000      -0.734801       -19.9949
 110   2.0000      -0.727834       -19.8054
 111   2.0000      -0.721860       -19.6428
 112   2.0000      -0.720966       -19.6185
 113   2.0000      -0.713862       -19.4252
 114   2.0000      -0.713696       -19.4207
 115   2.0000      -0.707500       -19.2520
 116   2.0000      -0.697199       -18.9718
 117   2.0000      -0.688867       -18.7450
 118   2.0000      -0.684511       -18.6265
 119   2.0000      -0.681209       -18.5366
 120   2.0000      -0.669037       -18.2054
 121   2.0000      -0.659860       -17.9557
 122   2.0000      -0.656007       -17.8509
 123   2.0000      -0.649989       -17.6871
 124   2.0000      -0.645968       -17.5777
 125   2.0000      -0.635746       -17.2995
 126   2.0000      -0.630855       -17.1664
 127   2.0000      -0.622177       -16.9303
 128   2.0000      -0.619468       -16.8566
 129   2.0000      -0.618082       -16.8189
 130   2.0000      -0.614659       -16.7257
 131   2.0000      -0.611454       -16.6385
 132   2.0000      -0.606146       -16.4941
 133   2.0000      -0.602633       -16.3985
 134   2.0000      -0.602247       -16.3880
 135   2.0000      -0.595188       -16.1959
 136   2.0000      -0.592253       -16.1160
 137   2.0000      -0.589621       -16.0444
 138   2.0000      -0.585839       -15.9415
 139   2.0000      -0.582679       -15.8555
 140   2.0000      -0.575562       -15.6618
 141   2.0000      -0.573409       -15.6032
 142   2.0000      -0.561053       -15.2670
 143   2.0000      -0.557048       -15.1580
 144   2.0000      -0.551381       -15.0038
 145   2.0000      -0.543800       -14.7975
 146   2.0000      -0.538505       -14.6535
 147   2.0000      -0.536185       -14.5903
 148   2.0000      -0.532715       -14.4959
 149   2.0000      -0.532277       -14.4840
 150   2.0000      -0.529835       -14.4175
 151   2.0000      -0.524549       -14.2737
 152   2.0000      -0.522000       -14.2044
 153   2.0000      -0.520155       -14.1541
 154   2.0000      -0.517476       -14.0812
 155   2.0000      -0.513252       -13.9663
 156   2.0000      -0.510851       -13.9010
 157   2.0000      -0.508002       -13.8234
 158   2.0000      -0.506000       -13.7690
 159   2.0000      -0.503713       -13.7067
 160   2.0000      -0.499366       -13.5884
 161   2.0000      -0.497700       -13.5431
 162   2.0000      -0.495942       -13.4953
 163   2.0000      -0.495472       -13.4825
 164   2.0000      -0.491467       -13.3735
 165   2.0000      -0.490121       -13.3369
 166   2.0000      -0.486976       -13.2513
 167   2.0000      -0.485442       -13.2096
 168   2.0000      -0.482063       -13.1176
 169   2.0000      -0.480511       -13.0754
 170   2.0000      -0.479027       -13.0350
 171   2.0000      -0.477572       -12.9954
 172   2.0000      -0.475356       -12.9351
 173   2.0000      -0.471106       -12.8195
 174   2.0000      -0.465727       -12.6731
 175   2.0000      -0.463427       -12.6105
 176   2.0000      -0.462241       -12.5782
 177   2.0000      -0.455530       -12.3956
 178   2.0000      -0.450742       -12.2653
 179   2.0000      -0.447039       -12.1646
 180   2.0000      -0.446259       -12.1433
 181   2.0000      -0.444664       -12.0999
 182   2.0000      -0.438778       -11.9397
 183   2.0000      -0.436037       -11.8652
 184   2.0000      -0.434619       -11.8266
 185   2.0000      -0.431914       -11.7530
 186   2.0000      -0.430856       -11.7242
 187   2.0000      -0.428877       -11.6703
 188   2.0000      -0.426652       -11.6098
 189   2.0000      -0.425199       -11.5702
 190   2.0000      -0.421669       -11.4742
 191   2.0000      -0.420151       -11.4329
 192   2.0000      -0.419909       -11.4263
 193   2.0000      -0.415631       -11.3099
 194   2.0000      -0.410280       -11.1643
 195   2.0000      -0.405313       -11.0291
 196   2.0000      -0.403285       -10.9739
 197   2.0000      -0.399602       -10.8737
 198   2.0000      -0.395484       -10.7617
 199   2.0000      -0.390168       -10.6170
 200   2.0000      -0.385209       -10.4821
 201   2.0000      -0.378055       -10.2874
 202   2.0000      -0.376829       -10.2540
 203   2.0000      -0.373691       -10.1686
 204   2.0000      -0.371132       -10.0990
 205   2.0000      -0.369323       -10.0498
 206   2.0000      -0.366535        -9.9739
 207   2.0000      -0.362087        -9.8529
 208   2.0000      -0.350527        -9.5383
 209   2.0000      -0.343078        -9.3356
 210   2.0000      -0.340594        -9.2680
 211   2.0000      -0.329207        -8.9582
 212   2.0000      -0.325243        -8.8503
 213   2.0000      -0.323663        -8.8073
 214   2.0000      -0.320393        -8.7183
 215   2.0000      -0.314688        -8.5631
 216   2.0000      -0.312537        -8.5046
 217   2.0000      -0.311900        -8.4872
 218   2.0000      -0.304593        -8.2884
 219   2.0000      -0.296251        -8.0614
 220   2.0000      -0.294568        -8.0156
 221   2.0000      -0.281817        -7.6686
 222   2.0000      -0.264204        -7.1894
 223   2.0000      -0.245918        -6.6918
 224   2.0000      -0.203010        -5.5242
 225   0.0000      -0.073968        -2.0128
 226   0.0000      -0.041429        -1.1273
 227   0.0000      -0.031131        -0.8471
 228   0.0000      -0.021829        -0.5940
 229   0.0000      -0.007104        -0.1933

MULLIKEN ATOMIC CHARGES
-----------------------
   0 C :   -0.025253
   1 C :    0.048073
   2 C :   -0.057702
   3 C :    0.096343
   4 C :   -0.045246
   5 C :    0.060543
   6 C :    0.030510
   7 C :    0.005301
   8 C :    0.022073
   9 N :   -0.040952
  10 C :    0.060779
  11 C :   -0.106409
  12 C :    0.016933
  13 C :    0.112141
  14 C :   -0.071112
  15 C :    0.051304
  16 C :    0.110299
  17 C :    0.017050
  18 C :   -0.128075
  19 C :    0.053846
  20 C :    0.026426
  21 C :    0.080991
  22 C :    0.030780
  23 C :   -0.113179
  24 C :    0.136981
  25 C :   -0.006174
  26 C :   -0.038992
  27 C :   -0.006503
  28 C :    0.010178
  29 C :   -0.002177
  30 C :   -0.025511
  31 C :    0.043526
  32 C :    0.017610
  33 C :   -0.034309
  34 S :    0.047097
  35 C :   -0.044128
  36 C :    0.027384
  37 C :    0.041864
  38 C :   -0.045708
  39 S :    0.001106
  40 C :    0.034882
  41 N :   -0.032475
  42 C :   -0.111893
  43 S :    0.156246
  44 C :   -0.026970
  45 N :    0.283990
  46 O :   -0.266386
  47 O :   -0.281741
  48 C :    0.012928
  49 C :    0.113736
  50 C :   -0.062167
  51 C :   -0.028479
  52 C :    0.065943
  53 C :   -0.015580
  54 C :    0.033895
  55 C :    0.023126
  56 C :   -0.017536
  57 C :    0.058980
  58 C :   -0.019107
  59 C :    0.021428
  60 C :    0.032498
  61 N :   -0.065043
  62 H :   -0.031225
  63 H :   -0.015558
  64 H :   -0.024054
  65 H :   -0.017072
  66 H :   -0.007069
  67 H :   -0.000145
  68 H :   -0.039134
  69 H :   -0.041509
  70 H :   -0.029441
  71 H :    0.004011
  72 H :   -0.007900
  73 H :    0.024086
  74 H :    0.003646
  75 H :    0.020993
  76 H :    0.003262
  77 H :   -0.008441
  78 H :    0.018235
  79 H :    0.009817
  80 H :    0.000646
  81 H :   -0.047044
  82 H :   -0.033741
  83 H :   -0.053021
  84 H :   -0.030282
  85 H :   -0.003975
  86 H :   -0.019915
  87 H :   -0.014135
  88 H :   -0.016191
  89 H :   -0.013433
  90 H :   -0.012659
  91 H :    0.019940
  92 H :    0.150261
  93 H :    0.006533
  94 H :    0.011873
  95 H :    0.002801
  96 H :   -0.024299
  97 H :   -0.011849
  98 H :   -0.037319
  99 H :   -0.002680
 100 H :   -0.006169
 101 H :    0.004172
Sum of atomic charges:   -0.0000000

LOEWDIN ATOMIC CHARGES
----------------------
   0 C :   -0.021763
   1 C :   -0.022167
   2 C :   -0.018837
   3 C :   -0.008925
   4 C :    0.008600
   5 C :   -0.033041
   6 C :    0.016435
   7 C :   -0.051666
   8 C :    0.020729
   9 N :   -0.059623
  10 C :   -0.014601
  11 C :   -0.023593
  12 C :   -0.001802
  13 C :   -0.017639
  14 C :   -0.024021
  15 C :    0.000683
  16 C :   -0.013065
  17 C :    0.000669
  18 C :   -0.034031
  19 C :   -0.016090
  20 C :   -0.056509
  21 C :   -0.009825
  22 C :   -0.060264
  23 C :   -0.021186
  24 C :   -0.034041
  25 C :   -0.004800
  26 C :   -0.014338
  27 C :   -0.000783
  28 C :   -0.044243
  29 C :   -0.042867
  30 C :   -0.154965
  31 C :   -0.029282
  32 C :   -0.040051
  33 C :   -0.177267
  34 S :    0.364395
  35 C :   -0.183677
  36 C :   -0.036881
  37 C :   -0.037870
  38 C :   -0.177313
  39 S :    0.338311
  40 C :   -0.016863
  41 N :    0.049369
  42 C :   -0.099987
  43 S :    0.446428
  44 C :   -0.218890
  45 N :    0.274752
  46 O :   -0.232110
  47 O :   -0.248128
  48 C :    0.007706
  49 C :   -0.112343
  50 C :   -0.029587
  51 C :   -0.013277
  52 C :   -0.018660
  53 C :   -0.019798
  54 C :   -0.018167
  55 C :   -0.014753
  56 C :    0.006127
  57 C :   -0.030164
  58 C :    0.006821
  59 C :   -0.049116
  60 C :    0.022809
  61 N :   -0.068823
  62 H :    0.026433
  63 H :    0.029429
  64 H :    0.028493
  65 H :    0.030960
  66 H :    0.031295
  67 H :    0.020296
  68 H :    0.022372
  69 H :    0.024318
  70 H :    0.025585
  71 H :    0.018649
  72 H :    0.017849
  73 H :    0.027199
  74 H :    0.021682
  75 H :    0.025255
  76 H :    0.026409
  77 H :    0.018187
  78 H :    0.022626
  79 H :    0.026093
  80 H :    0.019075
  81 H :    0.020630
  82 H :    0.024907
  83 H :    0.025025
  84 H :    0.025518
  85 H :    0.019648
  86 H :    0.032022
  87 H :    0.033154
  88 H :    0.030830
  89 H :    0.032796
  90 H :    0.033520
  91 H :    0.031706
  92 H :    0.076018
  93 H :    0.044447
  94 H :    0.026518
  95 H :    0.030587
  96 H :    0.028158
  97 H :    0.031058
  98 H :    0.031181
  99 H :    0.028456
 100 H :    0.028262
 101 H :    0.017213

  Mayer bond orders larger than 0.100000
B(  0-C ,  1-C ) :   1.4772 B(  0-C ,  5-C ) :   1.2299 B(  0-C , 62-H ) :   1.0010
B(  1-C ,  2-C ) :   1.2430 B(  1-C , 63-H ) :   0.9881 B(  2-C ,  3-C ) :   1.5006
B(  2-C , 64-H ) :   0.9939 B(  3-C ,  4-C ) :   1.2476 B(  3-C , 10-C ) :   0.9420
B(  4-C ,  5-C ) :   1.2430 B(  4-C ,  9-N ) :   1.4416 B(  5-C ,  6-C ) :   1.2569
B(  6-C ,  7-C ) :   1.5293 B(  6-C , 65-H ) :   0.9834 B(  7-C ,  8-C ) :   1.2368
B(  7-C , 66-H ) :   0.9745 B(  8-C ,  9-N ) :   1.6619 B(  8-C , 67-H ) :   0.9779
B( 10-C , 11-C ) :   1.3362 B( 10-C , 15-C ) :   1.3899 B( 11-C , 12-C ) :   1.3809
B( 11-C , 68-H ) :   0.9964 B( 12-C , 13-C ) :   1.3878 B( 12-C , 18-C ) :   0.9187
B( 13-C , 14-C ) :   1.3358 B( 13-C , 16-C ) :   0.9927 B( 14-C , 15-C ) :   1.3776
B( 14-C , 69-H ) :   0.9928 B( 15-C , 70-H ) :   0.9797 B( 16-C , 17-C ) :   1.3741
B( 16-C , 26-C ) :   1.3173 B( 17-C , 18-C ) :   0.9234 B( 17-C , 23-C ) :   1.3833
B( 18-C , 19-C ) :   1.0354 B( 18-C , 21-C ) :   1.0144 B( 19-C , 20-C ) :   1.1044
B( 19-C , 71-H ) :   0.9373 B( 19-C , 72-H ) :   0.9382 B( 20-C , 73-H ) :   0.9650
B( 20-C , 74-H ) :   0.9642 B( 20-C , 75-H ) :   0.9632 B( 21-C , 22-C ) :   1.1148
B( 21-C , 76-H ) :   0.9385 B( 21-C , 77-H ) :   0.9365 B( 22-C , 78-H ) :   0.9614
B( 22-C , 79-H ) :   0.9585 B( 22-C , 80-H ) :   0.9621 B( 23-C , 24-C ) :   1.2701
B( 23-C , 81-H ) :   1.0105 B( 24-C , 25-C ) :   1.3150 B( 24-C , 27-C ) :   1.0741
B( 25-C , 26-C ) :   1.4183 B( 25-C , 82-H ) :   0.9802 B( 26-C , 83-H ) :   0.9946
B( 27-C , 28-C ) :   1.6446 B( 27-C , 84-H ) :   0.9891 B( 28-C , 29-C ) :   1.1446
B( 28-C , 85-H ) :   0.9602 B( 29-C , 30-C ) :   1.5731 B( 29-C , 86-H ) :   0.9848
B( 30-C , 31-C ) :   1.1380 B( 30-C , 34-S ) :   1.0171 B( 31-C , 32-C ) :   1.5954
B( 31-C , 87-H ) :   0.9984 B( 32-C , 33-C ) :   1.1844 B( 32-C , 88-H ) :   0.9939
B( 33-C , 34-S ) :   1.0430 B( 33-C , 35-C ) :   1.5249 B( 35-C , 36-C ) :   1.1872
B( 35-C , 39-S ) :   1.0321 B( 36-C , 37-C ) :   1.6105 B( 36-C , 89-H ) :   0.9916
B( 37-C , 38-C ) :   1.1538 B( 37-C , 90-H ) :   0.9941 B( 38-C , 39-S ) :   1.0109
B( 38-C , 40-C ) :   1.6051 B( 40-C , 41-N ) :   1.1223 B( 40-C , 91-H ) :   0.9665
B( 41-N , 42-C ) :   1.2619 B( 41-N , 92-H ) :   0.8925 B( 42-C , 43-S ) :   1.1302
B( 42-C , 49-C ) :   1.3283 B( 43-S , 44-C ) :   1.0584 B( 44-C , 45-N ) :   1.0018
B( 44-C , 48-C ) :   1.4598 B( 45-N , 46-O ) :   1.5158 B( 45-N , 47-O ) :   1.4903
B( 46-O , 47-O ) :   0.2462 B( 48-C , 49-C ) :   1.2679 B( 48-C , 93-H ) :   1.0030
B( 49-C , 50-C ) :   1.0551 B( 50-C , 51-C ) :   1.7963 B( 50-C , 94-H ) :   0.9574
B( 51-C , 52-C ) :   1.0238 B( 51-C , 95-H ) :   0.9668 B( 52-C , 53-C ) :   1.4807
B( 52-C , 57-C ) :   1.2166 B( 53-C , 54-C ) :   1.2503 B( 53-C , 96-H ) :   0.9951
B( 54-C , 55-C ) :   1.4560 B( 54-C , 97-H ) :   0.9895 B( 55-C , 56-C ) :   1.2618
B( 55-C , 98-H ) :   1.0052 B( 56-C , 57-C ) :   1.2428 B( 56-C , 61-N ) :   1.3890
B( 57-C , 58-C ) :   1.2680 B( 58-C , 59-C ) :   1.5297 B( 58-C , 99-H ) :   0.9761
B( 59-C , 60-C ) :   1.2572 B( 59-C ,100-H ) :   0.9704 B( 60-C , 61-N ) :   1.6315
B( 60-C ,101-H ) :   0.9627

-----------------------------------------------------------------------------
         ABSORPTION SPECTRUM VIA TRANSITION ELECTRIC DIPOLE MOMENTS
-----------------------------------------------------------------------------
State   Energy  Wavelength   fosc         T2         TX        TY        TZ
        (cm-1)    (nm)                  (au**2)     (au)      (au)      (au)
-----------------------------------------------------------------------------
   0   14454.6    691.8   1.320443770  30.07383   2.71650   3.68560   3.01842
   1   22069.1    453.1   0.182119757   2.71674  -0.57810  -1.28121   0.86084
   2   22202.0    450.4   0.089051096   1.32045  -0.53946  -0.61389  -0.80782
   3   24144.0    414.2   0.934925300  12.74802   0.85231   2.34716  -2.55195
   4   27039.0    369.8   0.489465837   5.95946   0.83404   1.83429  -1.37812
   5   27974.1    357.5   0.000235713   0.00277  -0.03100  -0.04230   0.00484
   6   28778.7    347.5   0.111495220   1.27544   0.39012   0.80033  -0.69478
   7   29695.8    336.7   0.074903278   0.83039   0.23131   0.47942  -0.73962
   8   31147.4    321.1   0.156243201   1.65141  -0.73576  -0.86587  -0.60028
   9   31425.8    318.2   0.291079331   3.04931  -0.87662  -1.36743  -0.64107
  10   31863.4    313.8   0.065576158   0.67753   0.34146   0.13329   0.73700
  11   32632.5    306.4   0.050854725   0.51305  -0.21647   0.01199  -0.68267
  12   32923.6    303.7   0.014945877   0.14945   0.02059  -0.22154   0.31614
  13   34211.8    292.3   0.027371953   0.26339  -0.34301  -0.36318  -0.11764
  14   34606.6    289.0   0.046870349   0.44588   0.29331   0.40840  -0.43938
  15   34925.0    286.3   0.098091003   0.92463  -0.47386  -0.75225   0.36633
  16   35821.2    279.2   0.072348991   0.66492  -0.44087  -0.44736  -0.52002
  17   36008.1    277.7   0.011420388   0.10441  -0.00665  -0.13832   0.29195
  18   36087.6    277.1   0.109011389   0.99446   0.58267   0.80726   0.05738
  19   36167.0    276.5   0.188051481   1.71175  -0.61957  -1.14875   0.09086
  20   37070.0    269.8   0.042208755   0.37485   0.10212   0.25183  -0.54864
  21   37667.7    265.5   0.010580697   0.09247   0.08398   0.23416  -0.17490
  22   37948.6    263.5   0.007316652   0.06347   0.11134  -0.03709   0.22294
  23   38340.9    260.8   0.138529207   1.18947   0.65041   0.87485  -0.03269
  24   38565.1    259.3   0.005844266   0.04989   0.01517  -0.00806  -0.22270
  25   38689.8    258.5   0.003571880   0.03039  -0.03123  -0.15067  -0.08196
  26   39179.0    255.2   0.004682593   0.03935   0.11990   0.09036  -0.12963
  27   39229.9    254.9   0.006667210   0.05595  -0.01330  -0.03708   0.23323
  28   39700.6    251.9   0.032282654   0.26770  -0.22153  -0.29198   0.36520
  29   39915.9    250.5   0.001854498   0.01530   0.02747   0.02126  -0.11870
  30   40126.5    249.2   0.029129078   0.23899   0.24641   0.33572  -0.25605

FINAL SINGLE POINT ENERGY     -3604.195195594300

DIPOLE MOMENT
-------------
                                X             Y             Z
Electronic contribution:     49.57866      68.77272      37.44671
Nuclear contribution   :    -51.04375     -70.04946     -39.66489
                        -----------------------------------------
Total Dipole Moment    :     -1.46509      -1.27674      -2.21818
                        -----------------------------------------
Magnitude (a.u.)       :      2.94905
Magnitude (Debye)      :      7.49588

Rotational constants in cm-1:     0.001801     0.000428     0.000353
Rotational constants in MHz :    53.981939    12.837782    10.589864

                             ****ORCA TERMINATED NORMALLY****
TOTAL RUN TIME: 0 days 0 hours 9 minutes 41 seconds 761 msec
