                         Program Version 4.2.0 -  RELEASE  -
|  1> # ORCA input file
|  2> # SCF done       -161.899252191690          0.000329645027
|  3> ! CAM-B3LYP def2-SVP def2/J RIJCOSX Grid4 TightSCF
|  4> %maxcore 5000
|  5> %tddft
|  6>     Mode sTDDFT
|  7>     Ethresh 5.0
|  8>     maxcore 5000
|  9> end
| 10>
| 11> %pal
| 12>   nprocs 6
| 13>   end
| 14> * xyz 0 1
| 15>    C        2.58011       -13.71314        -4.45901
| 16>    S        1.03105       -13.37734        -3.83812
| 17>    C        1.62995       -12.12016        -2.76478
| 18>    C        3.03764       -12.04901        -2.86851
| 19>    C        3.55536       -12.94184        -3.86136
| 20>    C        4.94019       -12.97677        -4.13509
| 21>    C        5.81387       -12.19833        -3.42486
| 22>    O        7.15471       -12.14140        -3.67534
| 23>    C        7.67345       -12.89774        -4.74121
| 24>    C        5.31522       -11.38676        -2.35160
| 25>    O        6.07224       -10.60959        -1.53323
| 26>    C        7.45301       -10.85176        -1.35381
| 27>    C        3.96058       -11.33017        -2.10151
| 28>    C        0.63549       -11.42300        -2.07356
| 29>    C        0.61995       -10.20410        -1.42172
| 30>    C       -0.53525        -9.64314        -0.83408
| 31>    C       -0.36150        -8.38589        -0.31834
| 32>    C        0.94195        -7.89418        -0.47002
| 33>    S        1.94155        -9.06278        -1.29281
| 34>    C        1.49693        -6.68326        -0.05673
| 35>    C        0.88267        -5.58151         0.54951
| 36>    C        1.75097        -4.54995         0.81748
| 37>    C        3.07845        -4.81194         0.44491
| 38>    S        3.20445        -6.39371        -0.27264
| 39>    C        4.17136        -3.96526         0.62060
| 40>    C        5.47161        -4.30780         0.27948
| 41>    C        6.60817        -3.47923         0.46100
| 42>    O        7.87776        -3.91816         0.13742
| 43>    C        7.98066        -5.18070        -0.35173
| 44>    C        6.83745        -6.00611        -0.55482
| 45>    C        7.14014        -7.23197        -1.05071
| 46>    S        8.84005        -7.39532        -1.28053
| 47>    C        9.13827        -5.79891        -0.69992
| 48>    O        5.58717        -5.56773        -0.26292
| 49>    C        6.52222        -2.19075         0.96381
| 50>    C        7.59847        -1.33586         1.17684
| 51>    C        7.52135        -0.04328         1.66191
| 52>    C        6.39892         0.70975         2.01423
| 53>    C        6.42859         2.02197         2.51222
| 54>    C        5.19505         2.56795         2.77899
| 55>    C        4.13005         1.70504         2.49753
| 56>    S        4.73490         0.18408         1.89302
| 57>    C        2.75701         1.89708         2.62183
| 58>    C        2.04770         3.01859         3.07732
| 59>    C        0.68860         2.86106         3.04840
| 60>    C        0.26014         1.60509         2.56338
| 61>    S        1.65096         0.62143         2.15757
| 62>    C       -1.03925         1.18445         2.40270
| 63>    C       -1.46845        -0.05027         1.89765
| 64>    S       -0.41614        -1.36198         1.38199
| 65>    C       -1.71589        -2.39699         0.92226
| 66>    C       -2.92406        -1.78056         1.14709
| 67>    C       -2.77471        -0.47126         1.69542
| 68>    O       -3.97551         0.10816         1.90200
| 69>    C       -4.88999        -0.81275         1.49319
| 70>    N       -6.25495        -0.47430         1.59328
| 71>    O       -7.05258        -1.31698         1.21690
| 72>    O       -6.54553         0.61688         2.03986
| 73>    C       -4.32694        -1.97315         1.02754
| 74>    H        2.70417       -14.45648        -5.22099
| 75>    H        5.28046       -13.63024        -4.92147
| 76>    H        7.53765       -13.97138        -4.57682
| 77>    H        8.73773       -12.66940        -4.76821
| 78>    H        7.21644       -12.61361        -5.69414
| 79>    H        7.65991       -11.91331        -1.20759
| 80>    H        7.72575       -10.30280        -0.45240
| 81>    H        8.04197       -10.47877        -2.19416
| 82>    H        3.64563       -10.72358        -1.27198
| 83>    H       -0.34221       -11.89101        -2.13089
| 84>    H       -1.46666       -10.18110        -0.80752
| 85>    H       -1.13570        -7.81908         0.16690
| 86>    H       -0.16820        -5.56328         0.77798
| 87>    H        1.46558        -3.61766         1.27335
| 88>    H        3.96918        -3.00371         1.05987
| 89>    H        6.46988        -8.03287        -1.28569
| 90>    H       10.13474        -5.41346        -0.65123
| 91>    H        5.53566        -1.84339         1.20279
| 92>    H        8.58424        -1.71607         0.94775
| 93>    H        8.45956         0.48283         1.79106
| 94>    H        7.35769         2.54315         2.66570
| 95>    H        5.04475         3.56101         3.16277
| 96>    H        2.54614         3.91078         3.41223
| 97>    H       -0.01739         3.61170         3.35634
| 98>    H       -1.82802         1.87158         2.67849
| 99>    H       -1.50756        -3.36182         0.51164
|100>    H       -4.85928        -2.82450         0.65786
|101> *
|102>
|103>                          ****END OF INPUT****

CARTESIAN COORDINATES (ANGSTROEM)
---------------------------------
  C      2.580110  -13.713140   -4.459010
  S      1.031050  -13.377340   -3.838120
  C      1.629950  -12.120160   -2.764780
  C      3.037640  -12.049010   -2.868510
  C      3.555360  -12.941840   -3.861360
  C      4.940190  -12.976770   -4.135090
  C      5.813870  -12.198330   -3.424860
  O      7.154710  -12.141400   -3.675340
  C      7.673450  -12.897740   -4.741210
  C      5.315220  -11.386760   -2.351600
  O      6.072240  -10.609590   -1.533230
  C      7.453010  -10.851760   -1.353810
  C      3.960580  -11.330170   -2.101510
  C      0.635490  -11.423000   -2.073560
  C      0.619950  -10.204100   -1.421720
  C     -0.535250   -9.643140   -0.834080
  C     -0.361500   -8.385890   -0.318340
  C      0.941950   -7.894180   -0.470020
  S      1.941550   -9.062780   -1.292810
  C      1.496930   -6.683260   -0.056730
  C      0.882670   -5.581510    0.549510
  C      1.750970   -4.549950    0.817480
  C      3.078450   -4.811940    0.444910
  S      3.204450   -6.393710   -0.272640
  C      4.171360   -3.965260    0.620600
  C      5.471610   -4.307800    0.279480
  C      6.608170   -3.479230    0.461000
  O      7.877760   -3.918160    0.137420
  C      7.980660   -5.180700   -0.351730
  C      6.837450   -6.006110   -0.554820
  C      7.140140   -7.231970   -1.050710
  S      8.840050   -7.395320   -1.280530
  C      9.138270   -5.798910   -0.699920
  O      5.587170   -5.567730   -0.262920
  C      6.522220   -2.190750    0.963810
  C      7.598470   -1.335860    1.176840
  C      7.521350   -0.043280    1.661910
  C      6.398920    0.709750    2.014230
  C      6.428590    2.021970    2.512220
  C      5.195050    2.567950    2.778990
  C      4.130050    1.705040    2.497530
  S      4.734900    0.184080    1.893020
  C      2.757010    1.897080    2.621830
  C      2.047700    3.018590    3.077320
  C      0.688600    2.861060    3.048400
  C      0.260140    1.605090    2.563380
  S      1.650960    0.621430    2.157570
  C     -1.039250    1.184450    2.402700
  C     -1.468450   -0.050270    1.897650
  S     -0.416140   -1.361980    1.381990
  C     -1.715890   -2.396990    0.922260
  C     -2.924060   -1.780560    1.147090
  C     -2.774710   -0.471260    1.695420
  O     -3.975510    0.108160    1.902000
  C     -4.889990   -0.812750    1.493190
  N     -6.254950   -0.474300    1.593280
  O     -7.052580   -1.316980    1.216900
  O     -6.545530    0.616880    2.039860
  C     -4.326940   -1.973150    1.027540
  H      2.704170  -14.456480   -5.220990
  H      5.280460  -13.630240   -4.921470
  H      7.537650  -13.971380   -4.576820
  H      8.737730  -12.669400   -4.768210
  H      7.216440  -12.613610   -5.694140
  H      7.659910  -11.913310   -1.207590
  H      7.725750  -10.302800   -0.452400
  H      8.041970  -10.478770   -2.194160
  H      3.645630  -10.723580   -1.271980
  H     -0.342210  -11.891010   -2.130890
  H     -1.466660  -10.181100   -0.807520
  H     -1.135700   -7.819080    0.166900
  H     -0.168200   -5.563280    0.777980
  H      1.465580   -3.617660    1.273350
  H      3.969180   -3.003710    1.059870
  H      6.469880   -8.032870   -1.285690
  H     10.134740   -5.413460   -0.651230
  H      5.535660   -1.843390    1.202790
  H      8.584240   -1.716070    0.947750
  H      8.459560    0.482830    1.791060
  H      7.357690    2.543150    2.665700
  H      5.044750    3.561010    3.162770
  H      2.546140    3.910780    3.412230
  H     -0.017390    3.611700    3.356340
  H     -1.828020    1.871580    2.678490
  H     -1.507560   -3.361820    0.511640
  H     -4.859280   -2.824500    0.657860

 Total Charge           Charge          ....    0
 Multiplicity           Mult            ....    1
 Number of Electrons    NEL             ....  466
 Basis Dimension        Dim             ....  989

ORBITAL ENERGIES
----------------

  NO   OCC          E(Eh)            E(eV)
   0   2.0000     -88.965860     -2420.8841
   1   2.0000     -88.963238     -2420.8128
   2   2.0000     -88.954321     -2420.5701
   3   2.0000     -88.945005     -2420.3166
   4   2.0000     -88.941903     -2420.2322
   5   2.0000     -88.939185     -2420.1583
   6   2.0000     -88.938033     -2420.1269
   7   2.0000     -19.299608      -525.1690
   8   2.0000     -19.277148      -524.5579
   9   2.0000     -19.268157      -524.3132
  10   2.0000     -19.257412      -524.0208
  11   2.0000     -19.245607      -523.6996
  12   2.0000     -19.235460      -523.4235
  13   2.0000     -19.232921      -523.3544
  14   2.0000     -14.646671      -398.5562
  15   2.0000     -10.377849      -282.3956
  16   2.0000     -10.347971      -281.5826
  17   2.0000     -10.344399      -281.4854
  18   2.0000     -10.338917      -281.3362
  19   2.0000     -10.337370      -281.2941
  20   2.0000     -10.336785      -281.2782
  21   2.0000     -10.336519      -281.2710
  22   2.0000     -10.334074      -281.2044
  23   2.0000     -10.333010      -281.1755
  24   2.0000     -10.314332      -280.6672
  25   2.0000     -10.309036      -280.5231
  26   2.0000     -10.308094      -280.4975
  27   2.0000     -10.305038      -280.4143
  28   2.0000     -10.304984      -280.4129
  29   2.0000     -10.304573      -280.4017
  30   2.0000     -10.303405      -280.3699
  31   2.0000     -10.303212      -280.3646
  32   2.0000     -10.300275      -280.2847
  33   2.0000     -10.298911      -280.2476
  34   2.0000     -10.298515      -280.2368
  35   2.0000     -10.297912      -280.2204
  36   2.0000     -10.295814      -280.1633
  37   2.0000     -10.293622      -280.1037
  38   2.0000     -10.293528      -280.1011
  39   2.0000     -10.288749      -279.9711
  40   2.0000     -10.288023      -279.9513
  41   2.0000     -10.287944      -279.9492
  42   2.0000     -10.284521      -279.8560
  43   2.0000     -10.284507      -279.8557
  44   2.0000     -10.283041      -279.8158
  45   2.0000     -10.282442      -279.7995
  46   2.0000     -10.281542      -279.7750
  47   2.0000     -10.277597      -279.6676
  48   2.0000     -10.276962      -279.6504
  49   2.0000     -10.276659      -279.6421
  50   2.0000     -10.276018      -279.6247
  51   2.0000     -10.275682      -279.6155
  52   2.0000     -10.275654      -279.6148
  53   2.0000     -10.273207      -279.5482
  54   2.0000     -10.272583      -279.5312
  55   2.0000     -10.272470      -279.5281
  56   2.0000     -10.270718      -279.4805
  57   2.0000     -10.265862      -279.3483
  58   2.0000     -10.262669      -279.2614
  59   2.0000      -8.059840      -219.3194
  60   2.0000      -8.058771      -219.2903
  61   2.0000      -8.049821      -219.0468
  62   2.0000      -8.040926      -218.8047
  63   2.0000      -8.037399      -218.7088
  64   2.0000      -8.035475      -218.6564
  65   2.0000      -8.033545      -218.6039
  66   2.0000      -6.029220      -164.0634
  67   2.0000      -6.027781      -164.0243
  68   2.0000      -6.024870      -163.9451
  69   2.0000      -6.023630      -163.9113
  70   2.0000      -6.022222      -163.8730
  71   2.0000      -6.021543      -163.8545
  72   2.0000      -6.019308      -163.7937
  73   2.0000      -6.015122      -163.6798
  74   2.0000      -6.011640      -163.5850
  75   2.0000      -6.010604      -163.5569
  76   2.0000      -6.007020      -163.4593
  77   2.0000      -6.006407      -163.4426
  78   2.0000      -6.005211      -163.4101
  79   2.0000      -6.003291      -163.3579
  80   2.0000      -6.002976      -163.3493
  81   2.0000      -6.002106      -163.3256
  82   2.0000      -6.001070      -163.2974
  83   2.0000      -5.998888      -163.2380
  84   2.0000      -5.998750      -163.2343
  85   2.0000      -5.996469      -163.1722
  86   2.0000      -5.994755      -163.1256
  87   2.0000      -1.316840       -35.8330
  88   2.0000      -1.219153       -33.1748
  89   2.0000      -1.200664       -32.6717
  90   2.0000      -1.165796       -31.7229
  91   2.0000      -1.162927       -31.6449
  92   2.0000      -1.141218       -31.0541
  93   2.0000      -1.132755       -30.8238
  94   2.0000      -0.995406       -27.0864
  95   2.0000      -0.990210       -26.9450
  96   2.0000      -0.989764       -26.9328
  97   2.0000      -0.982873       -26.7453
  98   2.0000      -0.982132       -26.7252
  99   2.0000      -0.968711       -26.3600
 100   2.0000      -0.963811       -26.2266
 101   2.0000      -0.928882       -25.2762
 102   2.0000      -0.926531       -25.2122
 103   2.0000      -0.916678       -24.9441
 104   2.0000      -0.896621       -24.3983
 105   2.0000      -0.890236       -24.2246
 106   2.0000      -0.884425       -24.0664
 107   2.0000      -0.870649       -23.6916
 108   2.0000      -0.861352       -23.4386
 109   2.0000      -0.854035       -23.2395
 110   2.0000      -0.845516       -23.0077
 111   2.0000      -0.841457       -22.8972
 112   2.0000      -0.840111       -22.8606
 113   2.0000      -0.829879       -22.5822
 114   2.0000      -0.824525       -22.4365
 115   2.0000      -0.819504       -22.2998
 116   2.0000      -0.815377       -22.1875
 117   2.0000      -0.814274       -22.1575
 118   2.0000      -0.809889       -22.0382
 119   2.0000      -0.802260       -21.8306
 120   2.0000      -0.792346       -21.5608
 121   2.0000      -0.778661       -21.1885
 122   2.0000      -0.772409       -21.0183
 123   2.0000      -0.766272       -20.8513
 124   2.0000      -0.753389       -20.5007
 125   2.0000      -0.737928       -20.0800
 126   2.0000      -0.724044       -19.7022
 127   2.0000      -0.707517       -19.2525
 128   2.0000      -0.703321       -19.1383
 129   2.0000      -0.697593       -18.9825
 130   2.0000      -0.690946       -18.8016
 131   2.0000      -0.684423       -18.6241
 132   2.0000      -0.677497       -18.4356
 133   2.0000      -0.671075       -18.2609
 134   2.0000      -0.667462       -18.1626
 135   2.0000      -0.664374       -18.0785
 136   2.0000      -0.656307       -17.8590
 137   2.0000      -0.650248       -17.6941
 138   2.0000      -0.634610       -17.2686
 139   2.0000      -0.632660       -17.2155
 140   2.0000      -0.631457       -17.1828
 141   2.0000      -0.626163       -17.0388
 142   2.0000      -0.621625       -16.9153
 143   2.0000      -0.615936       -16.7605
 144   2.0000      -0.614752       -16.7283
 145   2.0000      -0.612674       -16.6717
 146   2.0000      -0.611219       -16.6321
 147   2.0000      -0.601175       -16.3588
 148   2.0000      -0.599011       -16.2999
 149   2.0000      -0.595857       -16.2141
 150   2.0000      -0.588463       -16.0129
 151   2.0000      -0.581186       -15.8149
 152   2.0000      -0.577885       -15.7251
 153   2.0000      -0.575606       -15.6630
 154   2.0000      -0.569656       -15.5011
 155   2.0000      -0.568571       -15.4716
 156   2.0000      -0.564970       -15.3736
 157   2.0000      -0.562604       -15.3092
 158   2.0000      -0.555905       -15.1269
 159   2.0000      -0.552813       -15.0428
 160   2.0000      -0.549025       -14.9397
 161   2.0000      -0.543207       -14.7814
 162   2.0000      -0.541951       -14.7472
 163   2.0000      -0.535755       -14.5786
 164   2.0000      -0.532818       -14.4987
 165   2.0000      -0.531947       -14.4750
 166   2.0000      -0.524442       -14.2708
 167   2.0000      -0.521036       -14.1781
 168   2.0000      -0.515369       -14.0239
 169   2.0000      -0.511393       -13.9157
 170   2.0000      -0.507396       -13.8069
 171   2.0000      -0.502626       -13.6772
 172   2.0000      -0.502435       -13.6720
 173   2.0000      -0.499744       -13.5987
 174   2.0000      -0.497332       -13.5331
 175   2.0000      -0.494698       -13.4614
 176   2.0000      -0.493106       -13.4181
 177   2.0000      -0.489824       -13.3288
 178   2.0000      -0.488848       -13.3022
 179   2.0000      -0.488360       -13.2890
 180   2.0000      -0.486300       -13.2329
 181   2.0000      -0.482714       -13.1353
 182   2.0000      -0.480443       -13.0735
 183   2.0000      -0.475528       -12.9398
 184   2.0000      -0.474047       -12.8995
 185   2.0000      -0.468322       -12.7437
 186   2.0000      -0.466228       -12.6867
 187   2.0000      -0.463713       -12.6183
 188   2.0000      -0.459939       -12.5156
 189   2.0000      -0.456501       -12.4220
 190   2.0000      -0.455444       -12.3933
 191   2.0000      -0.448249       -12.1975
 192   2.0000      -0.446994       -12.1633
 193   2.0000      -0.445465       -12.1217
 194   2.0000      -0.443294       -12.0627
 195   2.0000      -0.439060       -11.9474
 196   2.0000      -0.435138       -11.8407
 197   2.0000      -0.431365       -11.7380
 198   2.0000      -0.427938       -11.6448
 199   2.0000      -0.425769       -11.5858
 200   2.0000      -0.423266       -11.5176
 201   2.0000      -0.421304       -11.4643
 202   2.0000      -0.418398       -11.3852
 203   2.0000      -0.415015       -11.2931
 204   2.0000      -0.407706       -11.0942
 205   2.0000      -0.407267       -11.0823
 206   2.0000      -0.407036       -11.0760
 207   2.0000      -0.398368       -10.8401
 208   2.0000      -0.391702       -10.6588
 209   2.0000      -0.390298       -10.6205
 210   2.0000      -0.383969       -10.4483
 211   2.0000      -0.380079       -10.3425
 212   2.0000      -0.378066       -10.2877
 213   2.0000      -0.375979       -10.2309
 214   2.0000      -0.371566       -10.1108
 215   2.0000      -0.365959        -9.9583
 216   2.0000      -0.362574        -9.8661
 217   2.0000      -0.358782        -9.7630
 218   2.0000      -0.343773        -9.3545
 219   2.0000      -0.331545        -9.0218
 220   2.0000      -0.329907        -8.9772
 221   2.0000      -0.326494        -8.8843
 222   2.0000      -0.319694        -8.6993
 223   2.0000      -0.315555        -8.5867
 224   2.0000      -0.308119        -8.3843
 225   2.0000      -0.301640        -8.2080
 226   2.0000      -0.297910        -8.1066
 227   2.0000      -0.283851        -7.7240
 228   2.0000      -0.278066        -7.5666
 229   2.0000      -0.271579        -7.3900
 230   2.0000      -0.244641        -6.6570
 231   2.0000      -0.214522        -5.8374
 232   2.0000      -0.175105        -4.7648
 233   0.0000      -0.098956        -2.6927
 234   0.0000      -0.064807        -1.7635
 235   0.0000      -0.051323        -1.3966
 236   0.0000      -0.026935        -0.7329
 237   0.0000      -0.003289        -0.0895

MULLIKEN ATOMIC CHARGES
-----------------------
   0 C :   -0.121128
   1 S :    0.139051
   2 C :   -0.168844
   3 C :    0.187767
   4 C :    0.090262
   5 C :   -0.145691
   6 C :    0.188214
   7 O :   -0.327460
   8 C :    0.179262
   9 C :    0.167524
  10 O :   -0.314594
  11 C :    0.195322
  12 C :   -0.112468
  13 C :    0.017743
  14 C :   -0.037047
  15 C :    0.030441
  16 C :    0.022711
  17 C :   -0.042644
  18 S :    0.086344
  19 C :   -0.044620
  20 C :    0.024688
  21 C :    0.012238
  22 C :   -0.005238
  23 S :    0.115992
  24 C :   -0.084387
  25 C :    0.193051
  26 C :    0.178049
  27 O :   -0.248930
  28 C :    0.226774
  29 C :    0.224739
  30 C :   -0.177210
  31 S :    0.094140
  32 C :   -0.176519
  33 O :   -0.275152
  34 C :   -0.078561
  35 C :    0.023900
  36 C :    0.014056
  37 C :   -0.027054
  38 C :    0.032859
  39 C :    0.010692
  40 C :   -0.009591
  41 S :    0.017120
  42 C :   -0.034318
  43 C :    0.027158
  44 C :    0.026139
  45 C :   -0.020058
  46 S :    0.044027
  47 C :   -0.016848
  48 C :   -0.164674
  49 S :    0.109940
  50 C :   -0.136286
  51 C :    0.132706
  52 C :    0.180839
  53 O :   -0.185159
  54 C :    0.230342
  55 N :    0.277299
  56 O :   -0.257112
  57 O :   -0.233505
  58 C :   -0.073781
  59 H :    0.017308
  60 H :   -0.041100
  61 H :    0.026116
  62 H :    0.039821
  63 H :    0.027127
  64 H :    0.020159
  65 H :    0.031156
  66 H :    0.026854
  67 H :   -0.020000
  68 H :   -0.013074
  69 H :   -0.012535
  70 H :   -0.017186
  71 H :   -0.018506
  72 H :   -0.020831
  73 H :   -0.008656
  74 H :    0.032106
  75 H :    0.021888
  76 H :    0.007123
  77 H :   -0.013285
  78 H :   -0.018215
  79 H :   -0.016843
  80 H :   -0.020072
  81 H :   -0.016887
  82 H :   -0.014853
  83 H :   -0.001107
  84 H :    0.012922
  85 H :    0.008059
Sum of atomic charges:    0.0000000

LOEWDIN ATOMIC CHARGES
----------------------
   0 C :   -0.192713
   1 S :    0.469503
   2 C :   -0.184243
   3 C :   -0.044192
   4 C :   -0.051679
   5 C :   -0.072621
   6 C :    0.033360
   7 O :   -0.099208
   8 C :    0.077987
   9 C :    0.045444
  10 O :   -0.101163
  11 C :    0.072868
  12 C :   -0.050914
  13 C :   -0.061642
  14 C :   -0.168387
  15 C :   -0.025836
  16 C :   -0.049400
  17 C :   -0.166940
  18 S :    0.414612
  19 C :   -0.202020
  20 C :   -0.034230
  21 C :   -0.050203
  22 C :   -0.135186
  23 S :    0.414463
  24 C :   -0.083333
  25 C :    0.041210
  26 C :    0.018335
  27 O :   -0.050463
  28 C :   -0.005391
  29 C :   -0.010645
  30 C :   -0.205471
  31 S :    0.431549
  32 C :   -0.215843
  33 O :   -0.050103
  34 C :   -0.042298
  35 C :   -0.049176
  36 C :   -0.043513
  37 C :   -0.165355
  38 C :   -0.028253
  39 C :   -0.058609
  40 C :   -0.169262
  41 S :    0.394403
  42 C :   -0.191874
  43 C :   -0.034376
  44 C :   -0.045283
  45 C :   -0.148750
  46 S :    0.361506
  47 C :   -0.085331
  48 C :   -0.195896
  49 S :    0.462534
  50 C :   -0.206304
  51 C :   -0.083488
  52 C :    0.013573
  53 O :    0.001564
  54 C :    0.022541
  55 N :    0.273565
  56 O :   -0.216987
  57 O :   -0.195838
  58 C :   -0.011173
  59 H :    0.023267
  60 H :    0.029934
  61 H :    0.016260
  62 H :    0.029949
  63 H :    0.017776
  64 H :    0.015529
  65 H :    0.019137
  66 H :    0.011969
  67 H :    0.015577
  68 H :    0.033966
  69 H :    0.032389
  70 H :    0.030926
  71 H :    0.025929
  72 H :    0.023620
  73 H :    0.039769
  74 H :    0.029957
  75 H :    0.027982
  76 H :    0.010340
  77 H :    0.030191
  78 H :    0.034854
  79 H :    0.031866
  80 H :    0.029471
  81 H :    0.031645
  82 H :    0.032288
  83 H :    0.043927
  84 H :    0.021303
  85 H :    0.044752

  Mayer bond orders larger than 0.100000
B(  0-C ,  1-S ) :   1.1968 B(  0-C ,  4-C ) :   1.4088 B(  0-C , 59-H ) :   0.9706
B(  1-S ,  2-C ) :   1.1410 B(  2-C ,  3-C ) :   1.2842 B(  2-C , 13-C ) :   1.2235
B(  3-C ,  4-C ) :   1.2132 B(  3-C , 12-C ) :   1.1822 B(  4-C ,  5-C ) :   1.1336
B(  5-C ,  6-C ) :   1.4561 B(  5-C , 60-H ) :   1.0068 B(  6-C ,  7-O ) :   1.1288
B(  6-C ,  9-C ) :   1.1696 B(  7-O ,  8-C ) :   0.9619 B(  8-C , 61-H ) :   0.9687
B(  8-C , 62-H ) :   0.9779 B(  8-C , 63-H ) :   0.9682 B(  9-C , 10-O ) :   1.1534
B(  9-C , 12-C ) :   1.5308 B( 10-O , 11-C ) :   0.9223 B( 11-C , 64-H ) :   0.9741
B( 11-C , 65-H ) :   0.9743 B( 11-C , 66-H ) :   0.9737 B( 12-C , 67-H ) :   0.9785
B( 13-C , 14-C ) :   1.5545 B( 13-C , 68-H ) :   0.9365 B( 14-C , 15-C ) :   1.1836
B( 14-C , 18-S ) :   1.0292 B( 15-C , 16-C ) :   1.5323 B( 15-C , 69-H ) :   0.9980
B( 16-C , 17-C ) :   1.2382 B( 16-C , 70-H ) :   0.9937 B( 17-C , 18-S ) :   1.0722
B( 17-C , 19-C ) :   1.4045 B( 19-C , 20-C ) :   1.2634 B( 19-C , 23-S ) :   1.0322
B( 20-C , 21-C ) :   1.4944 B( 20-C , 71-H ) :   0.9904 B( 21-C , 22-C ) :   1.2267
B( 21-C , 72-H ) :   0.9954 B( 22-C , 23-S ) :   1.0769 B( 22-C , 24-C ) :   1.4324
B( 24-C , 25-C ) :   1.3335 B( 24-C , 73-H ) :   0.9534 B( 25-C , 26-C ) :   1.2420
B( 25-C , 33-O ) :   1.0396 B( 26-C , 27-O ) :   1.0577 B( 26-C , 34-C ) :   1.4040
B( 27-O , 28-C ) :   1.0677 B( 28-C , 29-C ) :   1.2074 B( 28-C , 32-C ) :   1.5643
B( 29-C , 30-C ) :   1.5715 B( 29-C , 33-O ) :   1.0271 B( 30-C , 31-S ) :   1.1370
B( 30-C , 74-H ) :   0.9646 B( 31-S , 32-C ) :   1.1360 B( 32-C , 75-H ) :   0.9730
B( 34-C , 35-C ) :   1.4141 B( 34-C , 76-H ) :   0.9282 B( 35-C , 36-C ) :   1.3195
B( 35-C , 77-H ) :   0.9754 B( 36-C , 37-C ) :   1.4230 B( 36-C , 78-H ) :   0.9648
B( 37-C , 38-C ) :   1.2367 B( 37-C , 41-S ) :   1.0422 B( 38-C , 39-C ) :   1.4955
B( 38-C , 79-H ) :   0.9993 B( 39-C , 40-C ) :   1.2573 B( 39-C , 80-H ) :   0.9933
B( 40-C , 41-S ) :   1.0657 B( 40-C , 42-C ) :   1.4192 B( 42-C , 43-C ) :   1.2409
B( 42-C , 46-S ) :   1.0389 B( 43-C , 44-C ) :   1.5390 B( 43-C , 81-H ) :   0.9931
B( 44-C , 45-C ) :   1.1738 B( 44-C , 82-H ) :   1.0000 B( 45-C , 46-S ) :   1.0458
B( 45-C , 47-C ) :   1.5196 B( 47-C , 48-C ) :   1.1965 B( 47-C , 83-H ) :   0.9736
B( 48-C , 49-S ) :   1.1004 B( 48-C , 50-C ) :   0.1045 B( 48-C , 52-C ) :   1.4276
B( 49-S , 50-C ) :   1.1662 B( 50-C , 51-C ) :   1.4168 B( 50-C , 84-H ) :   0.9734
B( 51-C , 52-C ) :   1.2309 B( 51-C , 58-C ) :   1.0629 B( 52-C , 53-O ) :   1.1198
B( 53-O , 54-C ) :   1.1252 B( 54-C , 55-N ) :   0.9248 B( 54-C , 58-C ) :   1.5677
B( 55-N , 56-O ) :   1.5256 B( 55-N , 57-O ) :   1.5107 B( 56-O , 57-O ) :   0.2779
B( 58-C , 85-H ) :   1.0246

-----------------------------------------------------------------------------
         ABSORPTION SPECTRUM VIA TRANSITION ELECTRIC DIPOLE MOMENTS
-----------------------------------------------------------------------------
State   Energy  Wavelength   fosc         T2         TX        TY        TZ
        (cm-1)    (nm)                  (au**2)     (au)      (au)      (au)
-----------------------------------------------------------------------------
   0    4386.9   2279.5   0.357536258  26.83127  -0.78957   4.80263   1.77273
   1   10044.3    995.6   0.015294604   0.50129   0.69266   0.13859   0.04806
   2   13185.1    758.4   0.634366491  15.83918  -2.76476  -2.61036  -1.17529
   3   14893.5    671.4   0.149746898   3.31007  -1.58687  -0.76334  -0.45743
   4   17203.6    581.3   0.008050779   0.15406  -0.35890   0.09180   0.12970
   5   19982.4    500.4   0.019251378   0.31717   0.21183  -0.48678  -0.18799
   6   20969.0    476.9   0.622643652   9.77548  -3.07587  -0.50429   0.24539
   7   22597.5    442.5   0.221076248   3.22076   1.78293   0.15657  -0.13188
   8   23405.6    427.2   0.526212543   7.40147  -2.70464  -0.11461   0.27063
   9   24862.6    402.2   0.252010417   3.33694  -1.70137  -0.66488  -0.01469
  10   25440.3    393.1   0.089524435   1.15850  -0.69192  -0.77765  -0.27388
  11   26271.4    380.6   0.135854340   1.70242  -0.62095   1.01171   0.54155
  12   27148.5    368.3   0.141596261   1.71705   0.02732   1.06909   0.75720
  13   27549.5    363.0   0.011156894   0.13332   0.26544   0.17862  -0.17595
  14   27646.7    361.7   0.002646317   0.03151  -0.16834  -0.01576   0.05408
  15   28489.2    351.0   0.333532536   3.85419   0.42588  -1.65059  -0.97385
  16   29200.3    342.5   0.034905354   0.39353   0.60472   0.16418   0.02986
  17   29685.3    336.9   0.001353076   0.01501  -0.08760  -0.06863  -0.05120
  18   29775.9    335.8   0.001614871   0.01785  -0.11706  -0.04916   0.04166
  19   29894.4    334.5   0.011114400   0.12240   0.34468  -0.05635   0.02037
  20   30111.5    332.1   0.036197624   0.39575   0.53044  -0.32969  -0.07541
  21   30797.2    324.7   0.071787820   0.76739  -0.85942   0.12284   0.11706
  22   31417.1    318.3   0.002515728   0.02636  -0.13153  -0.09167  -0.02565
  23   32310.0    309.5   0.031659016   0.32258   0.49574   0.27430   0.03975
  24   32873.4    304.2   0.069498127   0.69599   0.08214  -0.79607  -0.23560
  25   32980.5    303.2   0.010984102   0.10964  -0.15801   0.24389   0.15872
  26   33123.9    301.9   0.014940225   0.14849  -0.17416  -0.33352  -0.08320
  27   33693.2    296.8   0.016302922   0.15929   0.25712   0.30131   0.04892
  28   34193.7    292.5   0.099507706   0.95805   0.16165   0.86570   0.42718
  29   34245.5    292.0   0.359858560   3.45942   1.42419  -1.07461  -0.52567
  30   34527.7    289.6   0.016822822   0.16040  -0.38392   0.05945   0.09733
  31   35224.6    283.9   0.101126103   0.94513   0.93608  -0.25311  -0.06941
  32   35642.0    280.6   0.013543750   0.12510  -0.28150   0.19753   0.08269
  33   36043.6    277.4   0.078941549   0.72103   0.79142   0.26716   0.15267
  34   36202.3    276.2   0.000288619   0.00262   0.05104   0.00413   0.00164
  35   36597.0    273.2   0.026376850   0.23728   0.21508  -0.36540  -0.23978
  36   36919.7    270.9   0.055687472   0.49656   0.54105  -0.37909  -0.24519
  37   36979.5    270.4   0.187581496   1.66995  -1.27536   0.20813   0.00987
  38   37374.0    267.6   0.003699769   0.03259   0.13894  -0.11499   0.00789
  39   37502.3    266.7   0.023935777   0.21012   0.44414  -0.09941  -0.05458
  40   37603.4    265.9   0.089751635   0.78576   0.87114  -0.15272   0.05965
  41   38343.8    260.8   0.004158041   0.03570   0.13781  -0.10381  -0.07702
  42   38633.6    258.8   0.025262158   0.21527  -0.36326   0.26544   0.11338
  43   38760.9    258.0   0.049189702   0.41779  -0.50355  -0.39136  -0.10517
  44   39182.1    255.2   0.005250609   0.04412   0.17905   0.10698   0.02477
  45   39461.1    253.4   0.048175248   0.40191   0.61902  -0.12018  -0.06543
  46   39756.5    251.5   0.020723759   0.17161   0.06412   0.30203   0.27618
  47   39886.7    250.7   0.008473079   0.06993  -0.26298  -0.01937  -0.01995
  48   40120.0    249.3   0.002195139   0.01801   0.09094   0.09781  -0.01330

FINAL SINGLE POINT ENERGY     -5057.621912169896

DIPOLE MOMENT
-------------
                                X             Y             Z
Electronic contribution:    -29.07473      20.40978       8.07894
Nuclear contribution   :     32.08855     -23.45791      -9.45892
                        -----------------------------------------
Total Dipole Moment    :      3.01382      -3.04813      -1.37998
                        -----------------------------------------
Magnitude (a.u.)       :      4.50317
Magnitude (Debye)      :     11.44616

Rotational constants in cm-1:     0.001316     0.000559     0.000396
Rotational constants in MHz :    39.457132    16.761378    11.861481

                             ****ORCA TERMINATED NORMALLY****
TOTAL RUN TIME: 0 days 0 hours 7 minutes 49 seconds 76 msec
