                         Program Version 4.2.0 -  RELEASE  -
|  1> # ORCA input file
|  2> # SCF done       -158.605036183320          0.000623179914
|  3> ! CAM-B3LYP def2-SVP def2/J RIJCOSX Grid4 TightSCF
|  4> %maxcore 5000
|  5> %tddft
|  6>     Mode sTDDFT
|  7>     Ethresh 5.0
|  8>     maxcore 5000
|  9> end
| 10>
| 11> %pal
| 12>   nprocs 6
| 13>   end
| 14> * xyz 0 1
| 15>    C       15.40129        -2.97023         5.45550
| 16>    S       15.02514        -4.60004         5.77317
| 17>    C       13.34760        -4.39995         5.29809
| 18>    C       13.11412        -3.05746         4.95626
| 19>    C       14.30111        -2.25864         5.03080
| 20>    C       14.26180        -0.88162         4.70178
| 21>    C       13.08177        -0.30674         4.33184
| 22>    O       12.90705         0.99123         3.98339
| 23>    C       14.03207         1.83358         3.97168
| 24>    C       11.87458        -1.09509         4.30437
| 25>    O       10.76959        -0.40493         3.94739
| 26>    C        9.54961        -1.09669         3.83237
| 27>    C       11.90119        -2.42592         4.62685
| 28>    C       12.59112        -5.58483         5.32189
| 29>    C       11.39720        -5.97082         4.76639
| 30>    C       10.88158        -7.28853         4.90114
| 31>    C        9.73215        -7.53125         4.21856
| 32>    C        9.24938        -6.41525         3.49621
| 33>    S       10.32141        -5.04806         3.72282
| 34>    C        8.11968        -6.33562         2.71436
| 35>    C        7.20187        -7.37284         2.42089
| 36>    C        6.18364        -6.99778         1.60761
| 37>    C        6.21416        -5.62844         1.20789
| 38>    S        7.63011        -4.84710         1.91677
| 39>    C        5.33350        -5.05286         0.34526
| 40>    C        5.30230        -3.69585        -0.14518
| 41>    C        5.53070        -2.54921         0.69436
| 42>    C        5.61010        -1.29812         0.10717
| 43>    C        5.41959        -1.11911        -1.26851
| 44>    C        5.09105        -2.24532        -2.07985
| 45>    C        5.03186        -3.51379        -1.48780
| 46>    N        4.85438        -2.09976        -3.40152
| 47>    C        4.94620        -0.89126        -3.88979
| 48>    C        5.27608         0.22232        -3.08895
| 49>    N        5.50713         0.11669        -1.80772
| 50>    C        5.54847        -2.71038         2.12160
| 51>    C        5.91862        -1.77113         3.03154
| 52>    C        5.90021        -1.99134         4.41994
| 53>    C        6.20306        -1.03543         5.35641
| 54>    C        6.24731        -1.19605         6.76259
| 55>    C        6.56557        -0.06232         7.44763
| 56>    C        6.78181         1.06394         6.62377
| 57>    S        6.57747         0.63297         4.94193
| 58>    C        7.09098         2.35398         7.01422
| 59>    C        7.26430         2.84477         8.32590
| 60>    C        7.54177         4.17737         8.38153
| 61>    C        7.60168         4.81441         7.11852
| 62>    S        7.30089         3.64453         5.84901
| 63>    C        7.84562         6.15160         6.90904
| 64>    C        7.89939         6.83944         5.69326
| 65>    S        7.66975         6.06488         4.13034
| 66>    C        7.87971         7.56528         3.33130
| 67>    C        8.11611         8.61155         4.22922
| 68>    C        8.13059         8.21547         5.55007
| 69>    C        8.27393         9.84825         3.42254
| 70>    O        8.48977        10.97266         3.80660
| 71>    C        8.10573         9.39282         2.00054
| 72>    C        7.87526         8.04252         1.99133
| 73>    C        8.19376        10.32793         0.91845
| 74>    C        8.07029        10.03626        -0.37805
| 75>    H       16.40211        -2.61364         5.59646
| 76>    H       15.17940        -0.31911         4.75797
| 77>    H       14.47176         1.93059         4.97007
| 78>    H       13.66908         2.80521         3.64127
| 79>    H       14.79574         1.47427         3.27397
| 80>    H        8.83475        -0.36374         3.46416
| 81>    H        9.21074        -1.47824         4.80129
| 82>    H        9.61744        -1.92895         3.12482
| 83>    H       10.99167        -2.99579         4.64472
| 84>    H       13.09960        -6.39696         5.83305
| 85>    H       11.39103        -8.02056         5.50344
| 86>    H        9.21823        -8.47553         4.21568
| 87>    H        7.32719        -8.36563         2.81484
| 88>    H        5.39554        -7.65093         1.27620
| 89>    H        4.62874        -5.72970        -0.12345
| 90>    H        5.77586        -0.41287         0.69960
| 91>    H        4.81356        -4.35892        -2.12355
| 92>    H        4.75774        -0.78112        -4.94972
| 93>    H        5.35044         1.21417        -3.51532
| 94>    H        5.19590        -3.66113         2.49811
| 95>    H        6.26477        -0.80026         2.70485
| 96>    H        5.63228        -2.97565         4.78114
| 97>    H        6.04560        -2.14787         7.22192
| 98>    H        6.64645        -0.00577         8.51839
| 99>    H        7.17792         2.20909         9.18868
|100>    H        7.70212         4.72772         9.29197
|101>    H        8.00958         6.75403         7.79392
|102>    H        8.29406         8.86443         6.39132
|103>    H        7.71415         7.42571         1.12623
|104>    H        8.37590        11.34876         1.23099
|105>    H        7.88615         9.03295        -0.72256
|106>    H        8.14495        10.79778        -1.13425
|107> *
|108>
|109>                          ****END OF INPUT****

CARTESIAN COORDINATES (ANGSTROEM)
---------------------------------
  C     15.401290   -2.970230    5.455500
  S     15.025140   -4.600040    5.773170
  C     13.347600   -4.399950    5.298090
  C     13.114120   -3.057460    4.956260
  C     14.301110   -2.258640    5.030800
  C     14.261800   -0.881620    4.701780
  C     13.081770   -0.306740    4.331840
  O     12.907050    0.991230    3.983390
  C     14.032070    1.833580    3.971680
  C     11.874580   -1.095090    4.304370
  O     10.769590   -0.404930    3.947390
  C      9.549610   -1.096690    3.832370
  C     11.901190   -2.425920    4.626850
  C     12.591120   -5.584830    5.321890
  C     11.397200   -5.970820    4.766390
  C     10.881580   -7.288530    4.901140
  C      9.732150   -7.531250    4.218560
  C      9.249380   -6.415250    3.496210
  S     10.321410   -5.048060    3.722820
  C      8.119680   -6.335620    2.714360
  C      7.201870   -7.372840    2.420890
  C      6.183640   -6.997780    1.607610
  C      6.214160   -5.628440    1.207890
  S      7.630110   -4.847100    1.916770
  C      5.333500   -5.052860    0.345260
  C      5.302300   -3.695850   -0.145180
  C      5.530700   -2.549210    0.694360
  C      5.610100   -1.298120    0.107170
  C      5.419590   -1.119110   -1.268510
  C      5.091050   -2.245320   -2.079850
  C      5.031860   -3.513790   -1.487800
  N      4.854380   -2.099760   -3.401520
  C      4.946200   -0.891260   -3.889790
  C      5.276080    0.222320   -3.088950
  N      5.507130    0.116690   -1.807720
  C      5.548470   -2.710380    2.121600
  C      5.918620   -1.771130    3.031540
  C      5.900210   -1.991340    4.419940
  C      6.203060   -1.035430    5.356410
  C      6.247310   -1.196050    6.762590
  C      6.565570   -0.062320    7.447630
  C      6.781810    1.063940    6.623770
  S      6.577470    0.632970    4.941930
  C      7.090980    2.353980    7.014220
  C      7.264300    2.844770    8.325900
  C      7.541770    4.177370    8.381530
  C      7.601680    4.814410    7.118520
  S      7.300890    3.644530    5.849010
  C      7.845620    6.151600    6.909040
  C      7.899390    6.839440    5.693260
  S      7.669750    6.064880    4.130340
  C      7.879710    7.565280    3.331300
  C      8.116110    8.611550    4.229220
  C      8.130590    8.215470    5.550070
  C      8.273930    9.848250    3.422540
  O      8.489770   10.972660    3.806600
  C      8.105730    9.392820    2.000540
  C      7.875260    8.042520    1.991330
  C      8.193760   10.327930    0.918450
  C      8.070290   10.036260   -0.378050
  H     16.402110   -2.613640    5.596460
  H     15.179400   -0.319110    4.757970
  H     14.471760    1.930590    4.970070
  H     13.669080    2.805210    3.641270
  H     14.795740    1.474270    3.273970
  H      8.834750   -0.363740    3.464160
  H      9.210740   -1.478240    4.801290
  H      9.617440   -1.928950    3.124820
  H     10.991670   -2.995790    4.644720
  H     13.099600   -6.396960    5.833050
  H     11.391030   -8.020560    5.503440
  H      9.218230   -8.475530    4.215680
  H      7.327190   -8.365630    2.814840
  H      5.395540   -7.650930    1.276200
  H      4.628740   -5.729700   -0.123450
  H      5.775860   -0.412870    0.699600
  H      4.813560   -4.358920   -2.123550
  H      4.757740   -0.781120   -4.949720
  H      5.350440    1.214170   -3.515320
  H      5.195900   -3.661130    2.498110
  H      6.264770   -0.800260    2.704850
  H      5.632280   -2.975650    4.781140
  H      6.045600   -2.147870    7.221920
  H      6.646450   -0.005770    8.518390
  H      7.177920    2.209090    9.188680
  H      7.702120    4.727720    9.291970
  H      8.009580    6.754030    7.793920
  H      8.294060    8.864430    6.391320
  H      7.714150    7.425710    1.126230
  H      8.375900   11.348760    1.230990
  H      7.886150    9.032950   -0.722560
  H      8.144950   10.797780   -1.134250

 Total Charge           Charge          ....    0
 Multiplicity           Mult            ....    1
 Number of Electrons    NEL             ....  460
 Basis Dimension        Dim             .... 1024

ORBITAL ENERGIES
----------------

  NO   OCC          E(Eh)            E(eV)
   0   2.0000     -88.966201     -2420.8934
   1   2.0000     -88.951483     -2420.4929
   2   2.0000     -88.944003     -2420.2894
   3   2.0000     -88.942382     -2420.2453
   4   2.0000     -88.940125     -2420.1838
   5   2.0000     -88.935874     -2420.0682
   6   2.0000     -19.237095      -523.4680
   7   2.0000     -19.233504      -523.3703
   8   2.0000     -19.216156      -522.8982
   9   2.0000     -14.409035      -392.0898
  10   2.0000     -14.408839      -392.0844
  11   2.0000     -10.357254      -281.8352
  12   2.0000     -10.326605      -281.0012
  13   2.0000     -10.326362      -280.9946
  14   2.0000     -10.315172      -280.6901
  15   2.0000     -10.308082      -280.4972
  16   2.0000     -10.306600      -280.4568
  17   2.0000     -10.304613      -280.4028
  18   2.0000     -10.303972      -280.3853
  19   2.0000     -10.303898      -280.3833
  20   2.0000     -10.303572      -280.3745
  21   2.0000     -10.303498      -280.3724
  22   2.0000     -10.303204      -280.3644
  23   2.0000     -10.302686      -280.3503
  24   2.0000     -10.302576      -280.3473
  25   2.0000     -10.299950      -280.2759
  26   2.0000     -10.299719      -280.2696
  27   2.0000     -10.299641      -280.2675
  28   2.0000     -10.298240      -280.2294
  29   2.0000     -10.298125      -280.2262
  30   2.0000     -10.292824      -280.0820
  31   2.0000     -10.292798      -280.0813
  32   2.0000     -10.286688      -279.9150
  33   2.0000     -10.286144      -279.9002
  34   2.0000     -10.285363      -279.8790
  35   2.0000     -10.283832      -279.8373
  36   2.0000     -10.283043      -279.8158
  37   2.0000     -10.282692      -279.8063
  38   2.0000     -10.282528      -279.8018
  39   2.0000     -10.282186      -279.7925
  40   2.0000     -10.281447      -279.7724
  41   2.0000     -10.281253      -279.7671
  42   2.0000     -10.280670      -279.7513
  43   2.0000     -10.280259      -279.7401
  44   2.0000     -10.277368      -279.6614
  45   2.0000     -10.275884      -279.6210
  46   2.0000     -10.275251      -279.6038
  47   2.0000     -10.274438      -279.5817
  48   2.0000     -10.272463      -279.5279
  49   2.0000     -10.271398      -279.4990
  50   2.0000     -10.271232      -279.4944
  51   2.0000     -10.270057      -279.4624
  52   2.0000     -10.269792      -279.4552
  53   2.0000     -10.267182      -279.3842
  54   2.0000     -10.265790      -279.3464
  55   2.0000     -10.265770      -279.3458
  56   2.0000     -10.265737      -279.3449
  57   2.0000     -10.261636      -279.2333
  58   2.0000     -10.258919      -279.1594
  59   2.0000     -10.256010      -279.0802
  60   2.0000      -8.060631      -219.3409
  61   2.0000      -8.047089      -218.9724
  62   2.0000      -8.040060      -218.7812
  63   2.0000      -8.038326      -218.7340
  64   2.0000      -8.035748      -218.6638
  65   2.0000      -8.031523      -218.5489
  66   2.0000      -6.029776      -164.0785
  67   2.0000      -6.025690      -163.9673
  68   2.0000      -6.023128      -163.8976
  69   2.0000      -6.016133      -163.7073
  70   2.0000      -6.012014      -163.5952
  71   2.0000      -6.009822      -163.5356
  72   2.0000      -6.009771      -163.5342
  73   2.0000      -6.008053      -163.4874
  74   2.0000      -6.005711      -163.4237
  75   2.0000      -6.005537      -163.4190
  76   2.0000      -6.004111      -163.3802
  77   2.0000      -6.001461      -163.3081
  78   2.0000      -6.001381      -163.3059
  79   2.0000      -6.000999      -163.2955
  80   2.0000      -5.999235      -163.2475
  81   2.0000      -5.997342      -163.1960
  82   2.0000      -5.996672      -163.1778
  83   2.0000      -5.992256      -163.0576
  84   2.0000      -1.152069       -31.3494
  85   2.0000      -1.129730       -30.7415
  86   2.0000      -1.125578       -30.6285
  87   2.0000      -1.063071       -28.9276
  88   2.0000      -0.997828       -27.1523
  89   2.0000      -0.990993       -26.9663
  90   2.0000      -0.987639       -26.8750
  91   2.0000      -0.986520       -26.8446
  92   2.0000      -0.980953       -26.6931
  93   2.0000      -0.970588       -26.4110
  94   2.0000      -0.965267       -26.2662
  95   2.0000      -0.948685       -25.8150
  96   2.0000      -0.932630       -25.3782
  97   2.0000      -0.915631       -24.9156
  98   2.0000      -0.902663       -24.5627
  99   2.0000      -0.887821       -24.1588
 100   2.0000      -0.881455       -23.9856
 101   2.0000      -0.871680       -23.7196
 102   2.0000      -0.862644       -23.4737
 103   2.0000      -0.851281       -23.1645
 104   2.0000      -0.848259       -23.0823
 105   2.0000      -0.842215       -22.9178
 106   2.0000      -0.840727       -22.8773
 107   2.0000      -0.837791       -22.7975
 108   2.0000      -0.833767       -22.6880
 109   2.0000      -0.826778       -22.4978
 110   2.0000      -0.821081       -22.3428
 111   2.0000      -0.817726       -22.2515
 112   2.0000      -0.815718       -22.1968
 113   2.0000      -0.798344       -21.7240
 114   2.0000      -0.792162       -21.5558
 115   2.0000      -0.781246       -21.2588
 116   2.0000      -0.771042       -20.9811
 117   2.0000      -0.764702       -20.8086
 118   2.0000      -0.760560       -20.6959
 119   2.0000      -0.745170       -20.2771
 120   2.0000      -0.741335       -20.1728
 121   2.0000      -0.732708       -19.9380
 122   2.0000      -0.714399       -19.4398
 123   2.0000      -0.703301       -19.1378
 124   2.0000      -0.695956       -18.9379
 125   2.0000      -0.687099       -18.6969
 126   2.0000      -0.679891       -18.5008
 127   2.0000      -0.672697       -18.3050
 128   2.0000      -0.666436       -18.1347
 129   2.0000      -0.657816       -17.9001
 130   2.0000      -0.654181       -17.8012
 131   2.0000      -0.649878       -17.6841
 132   2.0000      -0.644246       -17.5308
 133   2.0000      -0.630831       -17.1658
 134   2.0000      -0.628134       -17.0924
 135   2.0000      -0.621717       -16.9178
 136   2.0000      -0.617945       -16.8151
 137   2.0000      -0.617216       -16.7953
 138   2.0000      -0.615746       -16.7553
 139   2.0000      -0.608224       -16.5506
 140   2.0000      -0.607809       -16.5393
 141   2.0000      -0.599340       -16.3089
 142   2.0000      -0.597242       -16.2518
 143   2.0000      -0.594892       -16.1878
 144   2.0000      -0.592138       -16.1129
 145   2.0000      -0.588752       -16.0208
 146   2.0000      -0.587686       -15.9917
 147   2.0000      -0.576777       -15.6949
 148   2.0000      -0.566743       -15.4219
 149   2.0000      -0.558786       -15.2053
 150   2.0000      -0.554910       -15.0999
 151   2.0000      -0.551941       -15.0191
 152   2.0000      -0.545257       -14.8372
 153   2.0000      -0.537262       -14.6196
 154   2.0000      -0.535401       -14.5690
 155   2.0000      -0.533060       -14.5053
 156   2.0000      -0.531838       -14.4720
 157   2.0000      -0.529734       -14.4148
 158   2.0000      -0.525594       -14.3021
 159   2.0000      -0.523608       -14.2481
 160   2.0000      -0.518537       -14.1101
 161   2.0000      -0.514623       -14.0036
 162   2.0000      -0.514511       -14.0006
 163   2.0000      -0.512532       -13.9467
 164   2.0000      -0.510347       -13.8873
 165   2.0000      -0.505835       -13.7645
 166   2.0000      -0.502165       -13.6646
 167   2.0000      -0.497303       -13.5323
 168   2.0000      -0.496435       -13.5087
 169   2.0000      -0.494745       -13.4627
 170   2.0000      -0.491005       -13.3609
 171   2.0000      -0.489401       -13.3173
 172   2.0000      -0.485963       -13.2237
 173   2.0000      -0.482988       -13.1428
 174   2.0000      -0.482014       -13.1163
 175   2.0000      -0.479975       -13.0608
 176   2.0000      -0.479048       -13.0356
 177   2.0000      -0.476383       -12.9630
 178   2.0000      -0.474809       -12.9202
 179   2.0000      -0.472150       -12.8478
 180   2.0000      -0.469777       -12.7833
 181   2.0000      -0.464453       -12.6384
 182   2.0000      -0.459588       -12.5060
 183   2.0000      -0.459318       -12.4987
 184   2.0000      -0.459118       -12.4932
 185   2.0000      -0.453452       -12.3390
 186   2.0000      -0.452784       -12.3209
 187   2.0000      -0.452029       -12.3003
 188   2.0000      -0.444999       -12.1090
 189   2.0000      -0.440046       -11.9743
 190   2.0000      -0.438324       -11.9274
 191   2.0000      -0.436424       -11.8757
 192   2.0000      -0.432954       -11.7813
 193   2.0000      -0.427159       -11.6236
 194   2.0000      -0.425561       -11.5801
 195   2.0000      -0.423073       -11.5124
 196   2.0000      -0.421187       -11.4611
 197   2.0000      -0.414669       -11.2837
 198   2.0000      -0.411173       -11.1886
 199   2.0000      -0.410415       -11.1680
 200   2.0000      -0.408963       -11.1285
 201   2.0000      -0.407916       -11.1000
 202   2.0000      -0.400293       -10.8925
 203   2.0000      -0.397841       -10.8258
 204   2.0000      -0.395529       -10.7629
 205   2.0000      -0.390847       -10.6355
 206   2.0000      -0.388592       -10.5741
 207   2.0000      -0.387871       -10.5545
 208   2.0000      -0.387045       -10.5320
 209   2.0000      -0.373080       -10.1520
 210   2.0000      -0.372334       -10.1317
 211   2.0000      -0.361015        -9.8237
 212   2.0000      -0.352436        -9.5903
 213   2.0000      -0.347531        -9.4568
 214   2.0000      -0.337660        -9.1882
 215   2.0000      -0.331249        -9.0138
 216   2.0000      -0.329915        -8.9774
 217   2.0000      -0.327807        -8.9201
 218   2.0000      -0.324564        -8.8318
 219   2.0000      -0.321369        -8.7449
 220   2.0000      -0.316180        -8.6037
 221   2.0000      -0.313480        -8.5302
 222   2.0000      -0.307752        -8.3744
 223   2.0000      -0.295169        -8.0320
 224   2.0000      -0.286082        -7.7847
 225   2.0000      -0.268717        -7.3121
 226   2.0000      -0.255903        -6.9635
 227   2.0000      -0.251258        -6.8371
 228   2.0000      -0.201642        -5.4870
 229   2.0000      -0.199258        -5.4221
 230   0.0000      -0.085554        -2.3280
 231   0.0000      -0.066600        -1.8123
 232   0.0000      -0.058205        -1.5838
 233   0.0000      -0.031895        -0.8679
 234   0.0000      -0.017917        -0.4875

MULLIKEN ATOMIC CHARGES
-----------------------
   0 C :   -0.125267
   1 S :    0.125926
   2 C :   -0.173455
   3 C :    0.184256
   4 C :    0.095742
   5 C :   -0.161950
   6 C :    0.215326
   7 O :   -0.289543
   8 C :    0.180091
   9 C :    0.215893
  10 O :   -0.290274
  11 C :    0.177652
  12 C :   -0.191297
  13 C :    0.007214
  14 C :   -0.031410
  15 C :    0.033328
  16 C :    0.021508
  17 C :   -0.039645
  18 S :    0.063785
  19 C :   -0.069692
  20 C :    0.032893
  21 C :    0.027667
  22 C :   -0.022142
  23 S :    0.082547
  24 C :   -0.092853
  25 C :    0.106803
  26 C :    0.127365
  27 C :   -0.070031
  28 C :   -0.006593
  29 C :   -0.000296
  30 C :   -0.069854
  31 N :   -0.017598
  32 C :    0.017961
  33 C :    0.017644
  34 N :   -0.014728
  35 C :   -0.038405
  36 C :    0.012769
  37 C :   -0.008021
  38 C :   -0.029050
  39 C :    0.041532
  40 C :    0.020379
  41 C :   -0.042883
  42 S :    0.066345
  43 C :   -0.032912
  44 C :    0.026296
  45 C :    0.032222
  46 C :   -0.036546
  47 S :    0.063655
  48 C :   -0.004702
  49 C :   -0.073511
  50 S :    0.149306
  51 C :   -0.059739
  52 C :    0.026642
  53 C :   -0.030998
  54 C :    0.153230
  55 O :   -0.118133
  56 C :   -0.059492
  57 C :   -0.016224
  58 C :    0.012640
  59 C :   -0.011469
  60 H :    0.012518
  61 H :   -0.046732
  62 H :    0.019037
  63 H :    0.039102
  64 H :    0.020170
  65 H :    0.033722
  66 H :    0.029446
  67 H :    0.023685
  68 H :   -0.037615
  69 H :   -0.014896
  70 H :   -0.014216
  71 H :   -0.018575
  72 H :   -0.017199
  73 H :   -0.016037
  74 H :   -0.003713
  75 H :   -0.038961
  76 H :   -0.036536
  77 H :    0.006679
  78 H :    0.005345
  79 H :    0.009604
  80 H :    0.003124
  81 H :   -0.014780
  82 H :   -0.012582
  83 H :   -0.012797
  84 H :   -0.015639
  85 H :   -0.014144
  86 H :   -0.011552
  87 H :   -0.010012
  88 H :   -0.010074
  89 H :    0.000259
  90 H :    0.008268
  91 H :    0.025195
Sum of atomic charges:    0.0000000

LOEWDIN ATOMIC CHARGES
----------------------
   0 C :   -0.196352
   1 S :    0.457477
   2 C :   -0.192072
   3 C :   -0.038004
   4 C :   -0.051369
   5 C :   -0.083402
   6 C :    0.045210
   7 O :   -0.086740
   8 C :    0.077233
   9 C :    0.052908
  10 O :   -0.081087
  11 C :    0.073777
  12 C :   -0.091266
  13 C :   -0.063565
  14 C :   -0.167611
  15 C :   -0.024138
  16 C :   -0.050692
  17 C :   -0.171247
  18 S :    0.388138
  19 C :   -0.194864
  20 C :   -0.029156
  21 C :   -0.043545
  22 C :   -0.137298
  23 S :    0.374790
  24 C :   -0.073929
  25 C :   -0.015971
  26 C :   -0.025178
  27 C :   -0.002042
  28 C :   -0.017879
  29 C :   -0.016459
  30 C :   -0.008581
  31 N :   -0.043907
  32 C :   -0.003935
  33 C :   -0.004948
  34 N :   -0.043306
  35 C :   -0.023796
  36 C :   -0.029192
  37 C :   -0.048775
  38 C :   -0.148127
  39 C :   -0.033540
  40 C :   -0.033127
  41 C :   -0.176864
  42 S :    0.377786
  43 C :   -0.178889
  44 C :   -0.038808
  45 C :   -0.032856
  46 C :   -0.158894
  47 S :    0.368316
  48 C :   -0.071962
  49 C :   -0.171086
  50 S :    0.459779
  51 C :   -0.184766
  52 C :   -0.102426
  53 C :   -0.021334
  54 C :    0.098388
  55 O :   -0.108643
  56 C :   -0.070069
  57 C :    0.012176
  58 C :   -0.024371
  59 C :   -0.035559
  60 H :    0.021670
  61 H :    0.027833
  62 H :    0.013855
  63 H :    0.029624
  64 H :    0.014277
  65 H :    0.017319
  66 H :    0.016440
  67 H :    0.013933
  68 H :    0.008027
  69 H :    0.033107
  70 H :    0.032042
  71 H :    0.029627
  72 H :    0.030851
  73 H :    0.031362
  74 H :    0.035036
  75 H :    0.032015
  76 H :    0.033003
  77 H :    0.023592
  78 H :    0.023244
  79 H :    0.029177
  80 H :    0.018694
  81 H :    0.034228
  82 H :    0.033888
  83 H :    0.032096
  84 H :    0.031163
  85 H :    0.032789
  86 H :    0.041102
  87 H :    0.036514
  88 H :    0.031130
  89 H :    0.034228
  90 H :    0.018119
  91 H :    0.025664

  Mayer bond orders larger than 0.100000
B(  0-C ,  1-S ) :   1.1885 B(  0-C ,  4-C ) :   1.4291 B(  0-C , 60-H ) :   0.9690
B(  1-S ,  2-C ) :   1.1392 B(  2-C ,  3-C ) :   1.3340 B(  2-C , 13-C ) :   1.1790
B(  3-C ,  4-C ) :   1.2099 B(  3-C , 12-C ) :   1.1555 B(  4-C ,  5-C ) :   1.1095
B(  5-C ,  6-C ) :   1.4920 B(  5-C , 61-H ) :   1.0159 B(  6-C ,  7-O ) :   1.1916
B(  6-C ,  9-C ) :   1.1794 B(  7-O ,  8-C ) :   0.9719 B(  8-C , 62-H ) :   0.9680
B(  8-C , 63-H ) :   0.9790 B(  8-C , 64-H ) :   0.9674 B(  9-C , 10-O ) :   1.2031
B(  9-C , 12-C ) :   1.4908 B( 10-O , 11-C ) :   0.9510 B( 11-C , 65-H ) :   0.9713
B( 11-C , 66-H ) :   0.9663 B( 11-C , 67-H ) :   0.9631 B( 12-C , 68-H ) :   0.9801
B( 13-C , 14-C ) :   1.6200 B( 13-C , 69-H ) :   0.9335 B( 14-C , 15-C ) :   1.1423
B( 14-C , 18-S ) :   1.0096 B( 15-C , 16-C ) :   1.5963 B( 15-C , 70-H ) :   0.9975
B( 16-C , 17-C ) :   1.1736 B( 16-C , 71-H ) :   0.9918 B( 17-C , 18-S ) :   1.0448
B( 17-C , 19-C ) :   1.5342 B( 19-C , 20-C ) :   1.1714 B( 19-C , 23-S ) :   1.0251
B( 20-C , 21-C ) :   1.6145 B( 20-C , 72-H ) :   0.9930 B( 21-C , 22-C ) :   1.1125
B( 21-C , 73-H ) :   0.9990 B( 22-C , 23-S ) :   1.0382 B( 22-C , 24-C ) :   1.6604
B( 24-C , 25-C ) :   1.0384 B( 24-C , 74-H ) :   0.9623 B( 25-C , 26-C ) :   1.1959
B( 25-C , 30-C ) :   1.3957 B( 26-C , 27-C ) :   1.3845 B( 26-C , 35-C ) :   1.0659
B( 27-C , 28-C ) :   1.2431 B( 27-C , 75-H ) :   1.0056 B( 28-C , 29-C ) :   1.2260
B( 28-C , 34-N ) :   1.4413 B( 29-C , 30-C ) :   1.2330 B( 29-C , 31-N ) :   1.4221
B( 30-C , 76-H ) :   1.0149 B( 31-N , 32-C ) :   1.6717 B( 32-C , 33-C ) :   1.2226
B( 32-C , 77-H ) :   0.9738 B( 33-C , 34-N ) :   1.6729 B( 33-C , 78-H ) :   0.9738
B( 35-C , 36-C ) :   1.6580 B( 35-C , 79-H ) :   0.9763 B( 36-C , 37-C ) :   1.1504
B( 36-C , 80-H ) :   0.9652 B( 37-C , 38-C ) :   1.5531 B( 37-C , 81-H ) :   0.9859
B( 38-C , 39-C ) :   1.1412 B( 38-C , 42-S ) :   1.0282 B( 39-C , 40-C ) :   1.5826
B( 39-C , 82-H ) :   0.9996 B( 40-C , 41-C ) :   1.1933 B( 40-C , 83-H ) :   0.9941
B( 41-C , 42-S ) :   1.0480 B( 41-C , 43-C ) :   1.5019 B( 43-C , 44-C ) :   1.1939
B( 43-C , 47-S ) :   1.0418 B( 44-C , 45-C ) :   1.5805 B( 44-C , 84-H ) :   0.9929
B( 45-C , 46-C ) :   1.1551 B( 45-C , 85-H ) :   1.0001 B( 46-C , 47-S ) :   1.0346
B( 46-C , 48-C ) :   1.5397 B( 48-C , 49-C ) :   1.2182 B( 48-C , 86-H ) :   0.9692
B( 49-C , 50-S ) :   1.0967 B( 49-C , 53-C ) :   1.3684 B( 50-S , 51-C ) :   1.1297
B( 51-C , 52-C ) :   1.4218 B( 51-C , 57-C ) :   1.0761 B( 52-C , 53-C ) :   1.3419
B( 52-C , 54-C ) :   0.9030 B( 53-C , 87-H ) :   1.0119 B( 54-C , 55-O ) :   2.2736
B( 54-C , 56-C ) :   0.9365 B( 56-C , 57-C ) :   1.6345 B( 56-C , 58-C ) :   1.1193
B( 57-C , 88-H ) :   1.0150 B( 58-C , 59-C ) :   1.9030 B( 58-C , 89-H ) :   0.9596
B( 59-C , 90-H ) :   0.9527 B( 59-C , 91-H ) :   0.9513

-----------------------------------------------------------------------------
         ABSORPTION SPECTRUM VIA TRANSITION ELECTRIC DIPOLE MOMENTS
-----------------------------------------------------------------------------
State   Energy  Wavelength   fosc         T2         TX        TY        TZ
        (cm-1)    (nm)                  (au**2)     (au)      (au)      (au)
-----------------------------------------------------------------------------
   0   11511.0    868.7   0.665834597  19.04268   0.14674   4.35390  -0.25443
   1   12906.4    774.8   0.066168074   1.68779  -0.84622  -0.98460   0.04766
   2   15311.7    653.1   0.460919673   9.91012   3.07151  -0.20979   0.65721
   3   16575.5    603.3   1.127007207  22.38388  -2.69019  -2.63456  -2.86459
   4   16996.8    588.3   0.038498209   0.74567  -0.29893  -0.51622  -0.62436
   5   20650.6    484.2   0.017501467   0.27901   0.26354   0.43431   0.14467
   6   20984.9    476.5   0.261174361   4.09731   0.42566   0.74340   1.83398
   7   23217.1    430.7   0.187961881   2.66524   0.39196   1.27368  -0.94305
   8   23460.1    426.3   0.204433136   2.86878   0.25584  -0.60206   1.56232
   9   24811.6    403.0   0.005689016   0.07548  -0.07833   0.24360  -0.10003
  10   25059.4    399.1   0.162968627   2.14096   0.02560  -1.33536   0.59759
  11   26150.7    382.4   0.030607180   0.38531  -0.02500  -0.59224  -0.18423
  12   26446.1    378.1   0.000059741   0.00074  -0.02429   0.00465  -0.01149
  13   27105.5    368.9   0.204903100   2.48867   0.18188  -0.75735  -1.37186
  14   27426.3    364.6   0.979557333  11.75813   0.61150  -1.98301   2.72981
  15   27935.1    358.0   0.022389071   0.26385  -0.37547   0.10131  -0.33558
  16   28705.3    348.4   0.161604553   1.85339  -0.92149   0.57125  -0.82336
  17   29009.3    344.7   0.038646629   0.43858  -0.33962  -0.00766   0.56849
  18   29587.0    338.0   0.005755168   0.06404   0.23950   0.01803  -0.07971
  19   29818.4    335.4   0.083038040   0.91679  -0.03935  -0.64290   0.70847
  20   30140.0    331.8   0.175620902   1.91827  -0.00591   0.81811  -1.11755
  21   30676.9    326.0   0.076876273   0.82500  -0.09165   0.06513  -0.90131
  22   30808.5    324.6   0.009665947   0.10329   0.06374  -0.09607   0.29999
  23   31994.7    312.6   0.011871611   0.12215  -0.02960  -0.22059  -0.26948
  24   32277.3    309.8   0.043403078   0.44269  -0.11649  -0.06728  -0.65161
  25   32682.7    306.0   0.027261085   0.27460   0.50665  -0.05535   0.12181
  26   33378.4    299.6   0.001051082   0.01037  -0.05561   0.08418   0.01370
  27   33635.7    297.3   0.057829639   0.56601   0.26086   0.66011   0.24944
  28   33973.4    294.3   0.030058935   0.29128   0.21624   0.45604  -0.19118
  29   34334.2    291.3   0.006645602   0.06372   0.15195  -0.15830   0.12480
  30   34631.0    288.8   0.015798468   0.15018   0.10463   0.13686   0.34714
  31   34702.6    288.2   0.004570287   0.04336   0.04780  -0.18998   0.07057
  32   35384.5    282.6   0.005706680   0.05309  -0.13630  -0.18133  -0.04044
  33   35505.7    281.6   0.001889409   0.01752  -0.04389  -0.10432   0.06863
  34   35595.4    280.9   0.036969008   0.34192   0.01577   0.54817  -0.20291
  35   35885.9    278.7   0.076784459   0.70441  -0.02049  -0.71727   0.43533
  36   36003.3    277.8   0.005377846   0.04917   0.09639   0.09155  -0.17749
  37   36337.4    275.2   0.019857243   0.17990   0.16418   0.31442  -0.23256
  38   36425.8    274.5   0.095575773   0.86380   0.21357  -0.64406   0.63512
  39   36780.0    271.9   0.085881278   0.76871   0.03140   0.86698  -0.12677
  40   37279.6    268.2   0.101058336   0.89243  -0.14064  -0.92956   0.09261
  41   37830.7    264.3   0.051267556   0.44614  -0.13672  -0.65372   0.00997
  42   37951.5    263.5   0.029717943   0.25779   0.13646   0.15541   0.46370
  43   38257.6    261.4   0.076072253   0.65461  -0.24977  -0.73225  -0.23671
  44   38457.2    260.0   0.054859144   0.46962  -0.24990  -0.62051   0.14877
  45   38658.3    258.7   0.051115060   0.43529   0.05410   0.52666  -0.39370
  46   39172.3    255.3   0.127773191   1.07383   0.68393  -0.66681   0.40180
  47   39355.0    254.1   0.055777151   0.46659   0.52479  -0.24702   0.36078
  48   39394.3    253.8   0.048958269   0.40914  -0.04821  -0.43445   0.46697
  49   39530.5    253.0   0.030960450   0.25784  -0.15071   0.40081   0.27291
  50   40060.8    249.6   0.003021138   0.02483  -0.13515  -0.08058  -0.00838
  51   40268.8    248.3   0.003426352   0.02801   0.06665   0.09231  -0.12267

FINAL SINGLE POINT ENERGY     -4607.083720846937

DIPOLE MOMENT
-------------
                                X             Y             Z
Electronic contribution:     -2.06405      -2.22855       5.02295
Nuclear contribution   :      2.54506       0.44157      -3.60442
                        -----------------------------------------
Total Dipole Moment    :      0.48100      -1.78697       1.41853
                        -----------------------------------------
Magnitude (a.u.)       :      2.33171
Magnitude (Debye)      :      5.92674

Rotational constants in cm-1:     0.001175     0.000627     0.000498
Rotational constants in MHz :    35.220672    18.803895    14.937424

                             ****ORCA TERMINATED NORMALLY****
TOTAL RUN TIME: 0 days 0 hours 8 minutes 10 seconds 3 msec
