                         Program Version 4.2.0 -  RELEASE  -
|  1> # ORCA input file
|  2> # SCF done       -162.058285237085          0.000302733839
|  3> ! CAM-B3LYP def2-SVP def2/J RIJCOSX Grid4 TightSCF
|  4> %maxcore 5000
|  5> %tddft
|  6>     Mode sTDDFT
|  7>     Ethresh 5.0
|  8>     maxcore 5000
|  9> end
| 10>
| 11> %pal
| 12>   nprocs 6
| 13>   end
| 14> * xyz 0 1
| 15>    C       -4.83425         2.54320        -5.35640
| 16>    S       -4.45216         2.17000        -6.97323
| 17>    C       -3.16433         1.06376        -6.51501
| 18>    C       -3.11224         0.97196        -5.10808
| 19>    C       -4.05040         1.83928        -4.46377
| 20>    C       -4.10135         1.88856        -3.05767
| 21>    C       -3.28916         1.09565        -2.28587
| 22>    O       -3.45184         1.25567        -0.94572
| 23>    C       -2.56830         0.68254        -0.00757
| 24>    C       -2.40283         0.17018        -2.93258
| 25>    O       -1.65704        -0.64674        -2.13316
| 26>    C       -0.74444        -1.53798        -2.72990
| 27>    C       -2.34214         0.12036        -4.30557
| 28>    C       -2.43934         0.53207        -7.58543
| 29>    C       -1.21395        -0.09901        -7.69255
| 30>    C       -0.65914        -0.51006        -8.92379
| 31>    C        0.60160        -1.03932        -8.84047
| 32>    C        1.11137        -1.07735        -7.53661
| 33>    S       -0.05374        -0.41743        -6.41591
| 34>    C        2.34552        -1.55099        -7.09285
| 35>    C        3.41657        -2.03102        -7.85150
| 36>    C        4.50665        -2.40050        -7.09628
| 37>    C        4.33342        -2.23710        -5.71958
| 38>    S        2.74115        -1.59101        -5.38943
| 39>    C        5.25980        -2.51310        -4.71173
| 40>    C        5.01361        -2.38582        -3.36879
| 41>    C        5.94916        -2.61502        -2.35762
| 42>    C        5.73462        -2.53960        -0.97929
| 43>    C        6.85596        -2.78971        -0.22113
| 44>    C        7.99728        -3.06175        -0.97766
| 45>    S        7.62059        -3.01959        -2.68488
| 46>    C        9.29246        -3.30155        -0.51920
| 47>    C       10.44592        -3.50231        -1.28545
| 48>    C       11.58446        -3.65355        -0.53701
| 49>    C       11.37074        -3.58594         0.85188
| 50>    S        9.67412        -3.32763         1.18758
| 51>    C       12.34865        -3.68972         1.82583
| 52>    C       12.11510        -3.59276         3.20128
| 53>    C       13.10461        -3.65953         4.17732
| 54>    O       12.85754        -3.29657         5.49217
| 55>    C       11.57385        -2.97721         5.79593
| 56>    C       10.53817        -3.01692         4.81752
| 57>    C        9.32272        -2.69015         5.32005
| 58>    S        9.42280        -2.32519         7.00287
| 59>    C       11.12170        -2.61863         7.02453
| 60>    O       10.79281        -3.34062         3.52341
| 61>    C       14.46551        -4.01209         3.99243
| 62>    C       14.98523        -4.83200         3.04196
| 63>    C       16.36789        -5.10728         2.85074
| 64>    S       16.77373        -6.59177         2.01835
| 65>    C       18.45023        -6.27675         2.17789
| 66>    C       18.69801        -5.09338         2.80453
| 67>    C       17.51574        -4.40652         3.18647
| 68>    C       17.57544        -3.05209         3.81461
| 69>    S       16.45914        -1.84993         2.95954
| 70>    C       18.99281        -2.48204         3.82985
| 71>    C       20.00423        -3.54990         4.22611
| 72>    C       20.08686        -4.59388         3.10744
| 73>    O       20.97823        -5.64301         3.40645
| 74>    H       -5.60848         3.25008        -5.13578
| 75>    H       -4.78994         2.55571        -2.56511
| 76>    H       -2.65643        -0.40523         0.02285
| 77>    H       -2.87286         1.09828         0.95307
| 78>    H       -1.53048         0.95636        -0.20864
| 79>    H       -1.25600        -2.28895        -3.33928
| 80>    H       -0.24067        -2.03160        -1.90011
| 81>    H       -0.00693        -1.01327        -3.34486
| 82>    H       -1.71098        -0.60544        -4.78094
| 83>    H       -2.90027         0.71936        -8.55028
| 84>    H       -1.20584        -0.40334        -9.84429
| 85>    H        1.16032        -1.40165        -9.68460
| 86>    H        3.37900        -2.08944        -8.92443
| 87>    H        5.42236        -2.78665        -7.50845
| 88>    H        6.23740        -2.85080        -5.03228
| 89>    H        4.02402        -2.08204        -3.04946
| 90>    H        4.76818        -2.30309        -0.56981
| 91>    H        6.88661        -2.77380         0.85418
| 92>    H       10.41214        -3.52207        -2.36106
| 93>    H       12.56624        -3.81115        -0.94701
| 94>    H       13.36740        -3.78409         1.49240
| 95>    H        8.38765        -2.64364         4.80321
| 96>    H       11.68210        -2.51154         7.92922
| 97>    H       15.10554        -3.63603         4.77699
| 98>    H       14.31751        -5.39178         2.40218
| 99>    H       19.17069        -6.97770         1.80663
|100>    H       17.18117        -3.08104         4.83440
|101>    H       16.99634        -2.01404         1.75250
|102>    H       19.02925        -1.63817         4.51996
|103>    H       19.24674        -2.10920         2.83417
|104>    H       19.69400        -4.03605         5.15556
|105>    H       20.98802        -3.10680         4.38395
|106>    H       20.51218        -4.12761         2.20849
|107>    H       20.64588        -6.12402         4.17363
|108> *
|109>
|110>                          ****END OF INPUT****

CARTESIAN COORDINATES (ANGSTROEM)
---------------------------------
  C     -4.834250    2.543200   -5.356400
  S     -4.452160    2.170000   -6.973230
  C     -3.164330    1.063760   -6.515010
  C     -3.112240    0.971960   -5.108080
  C     -4.050400    1.839280   -4.463770
  C     -4.101350    1.888560   -3.057670
  C     -3.289160    1.095650   -2.285870
  O     -3.451840    1.255670   -0.945720
  C     -2.568300    0.682540   -0.007570
  C     -2.402830    0.170180   -2.932580
  O     -1.657040   -0.646740   -2.133160
  C     -0.744440   -1.537980   -2.729900
  C     -2.342140    0.120360   -4.305570
  C     -2.439340    0.532070   -7.585430
  C     -1.213950   -0.099010   -7.692550
  C     -0.659140   -0.510060   -8.923790
  C      0.601600   -1.039320   -8.840470
  C      1.111370   -1.077350   -7.536610
  S     -0.053740   -0.417430   -6.415910
  C      2.345520   -1.550990   -7.092850
  C      3.416570   -2.031020   -7.851500
  C      4.506650   -2.400500   -7.096280
  C      4.333420   -2.237100   -5.719580
  S      2.741150   -1.591010   -5.389430
  C      5.259800   -2.513100   -4.711730
  C      5.013610   -2.385820   -3.368790
  C      5.949160   -2.615020   -2.357620
  C      5.734620   -2.539600   -0.979290
  C      6.855960   -2.789710   -0.221130
  C      7.997280   -3.061750   -0.977660
  S      7.620590   -3.019590   -2.684880
  C      9.292460   -3.301550   -0.519200
  C     10.445920   -3.502310   -1.285450
  C     11.584460   -3.653550   -0.537010
  C     11.370740   -3.585940    0.851880
  S      9.674120   -3.327630    1.187580
  C     12.348650   -3.689720    1.825830
  C     12.115100   -3.592760    3.201280
  C     13.104610   -3.659530    4.177320
  O     12.857540   -3.296570    5.492170
  C     11.573850   -2.977210    5.795930
  C     10.538170   -3.016920    4.817520
  C      9.322720   -2.690150    5.320050
  S      9.422800   -2.325190    7.002870
  C     11.121700   -2.618630    7.024530
  O     10.792810   -3.340620    3.523410
  C     14.465510   -4.012090    3.992430
  C     14.985230   -4.832000    3.041960
  C     16.367890   -5.107280    2.850740
  S     16.773730   -6.591770    2.018350
  C     18.450230   -6.276750    2.177890
  C     18.698010   -5.093380    2.804530
  C     17.515740   -4.406520    3.186470
  C     17.575440   -3.052090    3.814610
  S     16.459140   -1.849930    2.959540
  C     18.992810   -2.482040    3.829850
  C     20.004230   -3.549900    4.226110
  C     20.086860   -4.593880    3.107440
  O     20.978230   -5.643010    3.406450
  H     -5.608480    3.250080   -5.135780
  H     -4.789940    2.555710   -2.565110
  H     -2.656430   -0.405230    0.022850
  H     -2.872860    1.098280    0.953070
  H     -1.530480    0.956360   -0.208640
  H     -1.256000   -2.288950   -3.339280
  H     -0.240670   -2.031600   -1.900110
  H     -0.006930   -1.013270   -3.344860
  H     -1.710980   -0.605440   -4.780940
  H     -2.900270    0.719360   -8.550280
  H     -1.205840   -0.403340   -9.844290
  H      1.160320   -1.401650   -9.684600
  H      3.379000   -2.089440   -8.924430
  H      5.422360   -2.786650   -7.508450
  H      6.237400   -2.850800   -5.032280
  H      4.024020   -2.082040   -3.049460
  H      4.768180   -2.303090   -0.569810
  H      6.886610   -2.773800    0.854180
  H     10.412140   -3.522070   -2.361060
  H     12.566240   -3.811150   -0.947010
  H     13.367400   -3.784090    1.492400
  H      8.387650   -2.643640    4.803210
  H     11.682100   -2.511540    7.929220
  H     15.105540   -3.636030    4.776990
  H     14.317510   -5.391780    2.402180
  H     19.170690   -6.977700    1.806630
  H     17.181170   -3.081040    4.834400
  H     16.996340   -2.014040    1.752500
  H     19.029250   -1.638170    4.519960
  H     19.246740   -2.109200    2.834170
  H     19.694000   -4.036050    5.155560
  H     20.988020   -3.106800    4.383950
  H     20.512180   -4.127610    2.208490
  H     20.645880   -6.124020    4.173630

 Total Charge           Charge          ....    0
 Multiplicity           Mult            ....    1
 Number of Electrons    NEL             ....  478
 Basis Dimension        Dim             .... 1028

ORBITAL ENERGIES
----------------

  NO   OCC          E(Eh)            E(eV)
   0   2.0000     -88.955567     -2420.6040
   1   2.0000     -88.949387     -2420.4359
   2   2.0000     -88.946863     -2420.3672
   3   2.0000     -88.943776     -2420.2832
   4   2.0000     -88.940205     -2420.1860
   5   2.0000     -88.935832     -2420.0670
   6   2.0000     -88.931408     -2419.9466
   7   2.0000     -88.905789     -2419.2495
   8   2.0000     -19.267858      -524.3051
   9   2.0000     -19.263370      -524.1829
  10   2.0000     -19.247736      -523.7575
  11   2.0000     -19.231982      -523.3288
  12   2.0000     -19.206297      -522.6299
  13   2.0000     -10.337385      -281.2946
  14   2.0000     -10.335964      -281.2559
  15   2.0000     -10.332903      -281.1726
  16   2.0000     -10.332246      -281.1547
  17   2.0000     -10.331566      -281.1362
  18   2.0000     -10.329078      -281.0685
  19   2.0000     -10.320323      -280.8303
  20   2.0000     -10.316814      -280.7348
  21   2.0000     -10.305436      -280.4252
  22   2.0000     -10.304458      -280.3986
  23   2.0000     -10.304044      -280.3873
  24   2.0000     -10.301451      -280.3167
  25   2.0000     -10.300440      -280.2892
  26   2.0000     -10.298002      -280.2229
  27   2.0000     -10.297613      -280.2123
  28   2.0000     -10.297557      -280.2108
  29   2.0000     -10.297549      -280.2106
  30   2.0000     -10.294633      -280.1312
  31   2.0000     -10.293246      -280.0935
  32   2.0000     -10.291412      -280.0436
  33   2.0000     -10.289262      -279.9851
  34   2.0000     -10.287309      -279.9319
  35   2.0000     -10.285937      -279.8946
  36   2.0000     -10.285287      -279.8769
  37   2.0000     -10.283287      -279.8225
  38   2.0000     -10.278712      -279.6980
  39   2.0000     -10.277216      -279.6573
  40   2.0000     -10.277092      -279.6539
  41   2.0000     -10.276594      -279.6403
  42   2.0000     -10.274748      -279.5901
  43   2.0000     -10.274265      -279.5770
  44   2.0000     -10.274058      -279.5713
  45   2.0000     -10.273647      -279.5601
  46   2.0000     -10.272974      -279.5418
  47   2.0000     -10.272949      -279.5412
  48   2.0000     -10.272486      -279.5286
  49   2.0000     -10.271949      -279.5139
  50   2.0000     -10.271629      -279.5052
  51   2.0000     -10.271507      -279.5019
  52   2.0000     -10.270531      -279.4753
  53   2.0000     -10.269897      -279.4581
  54   2.0000     -10.268785      -279.4278
  55   2.0000     -10.266936      -279.3775
  56   2.0000     -10.263455      -279.2828
  57   2.0000     -10.262369      -279.2532
  58   2.0000     -10.258639      -279.1518
  59   2.0000      -8.051010      -219.0791
  60   2.0000      -8.045148      -218.9196
  61   2.0000      -8.042910      -218.8587
  62   2.0000      -8.039505      -218.7660
  63   2.0000      -8.036336      -218.6798
  64   2.0000      -8.032008      -218.5620
  65   2.0000      -8.026801      -218.4204
  66   2.0000      -8.000988      -217.7180
  67   2.0000      -6.020043      -163.8137
  68   2.0000      -6.015869      -163.7001
  69   2.0000      -6.014686      -163.6679
  70   2.0000      -6.013797      -163.6437
  71   2.0000      -6.012082      -163.5971
  72   2.0000      -6.010505      -163.5542
  73   2.0000      -6.009194      -163.5185
  74   2.0000      -6.007933      -163.4842
  75   2.0000      -6.006795      -163.4532
  76   2.0000      -6.005919      -163.4294
  77   2.0000      -6.005251      -163.4112
  78   2.0000      -6.005064      -163.4061
  79   2.0000      -6.001993      -163.3225
  80   2.0000      -6.001595      -163.3117
  81   2.0000      -6.000679      -163.2868
  82   2.0000      -5.997711      -163.2060
  83   2.0000      -5.997554      -163.2017
  84   2.0000      -5.996608      -163.1760
  85   2.0000      -5.993144      -163.0817
  86   2.0000      -5.992374      -163.0608
  87   2.0000      -5.987795      -162.9362
  88   2.0000      -5.971654      -162.4970
  89   2.0000      -5.967454      -162.3827
  90   2.0000      -5.960454      -162.1922
  91   2.0000      -1.192646       -32.4535
  92   2.0000      -1.155686       -31.4478
  93   2.0000      -1.154939       -31.4275
  94   2.0000      -1.129797       -30.7433
  95   2.0000      -1.097887       -29.8750
  96   2.0000      -0.990201       -26.9447
  97   2.0000      -0.984034       -26.7769
  98   2.0000      -0.983071       -26.7507
  99   2.0000      -0.980649       -26.6848
 100   2.0000      -0.977346       -26.5949
 101   2.0000      -0.966462       -26.2988
 102   2.0000      -0.961240       -26.1567
 103   2.0000      -0.919898       -25.0317
 104   2.0000      -0.918848       -25.0031
 105   2.0000      -0.912278       -24.8244
 106   2.0000      -0.896440       -24.3934
 107   2.0000      -0.883478       -24.0407
 108   2.0000      -0.877467       -23.8771
 109   2.0000      -0.860299       -23.4099
 110   2.0000      -0.853371       -23.2214
 111   2.0000      -0.843911       -22.9640
 112   2.0000      -0.837531       -22.7904
 113   2.0000      -0.835216       -22.7274
 114   2.0000      -0.833782       -22.6884
 115   2.0000      -0.828023       -22.5316
 116   2.0000      -0.820845       -22.3363
 117   2.0000      -0.818630       -22.2760
 118   2.0000      -0.816071       -22.2064
 119   2.0000      -0.813733       -22.1428
 120   2.0000      -0.807295       -21.9676
 121   2.0000      -0.802269       -21.8308
 122   2.0000      -0.791795       -21.5458
 123   2.0000      -0.784104       -21.3366
 124   2.0000      -0.771538       -20.9946
 125   2.0000      -0.764115       -20.7926
 126   2.0000      -0.757910       -20.6238
 127   2.0000      -0.746249       -20.3065
 128   2.0000      -0.733670       -19.9642
 129   2.0000      -0.719489       -19.5783
 130   2.0000      -0.704690       -19.1756
 131   2.0000      -0.700419       -19.0594
 132   2.0000      -0.694171       -18.8893
 133   2.0000      -0.689967       -18.7750
 134   2.0000      -0.679485       -18.4897
 135   2.0000      -0.674880       -18.3644
 136   2.0000      -0.671719       -18.2784
 137   2.0000      -0.660280       -17.9671
 138   2.0000      -0.656560       -17.8659
 139   2.0000      -0.651833       -17.7373
 140   2.0000      -0.649112       -17.6632
 141   2.0000      -0.643389       -17.5075
 142   2.0000      -0.631289       -17.1783
 143   2.0000      -0.624568       -16.9954
 144   2.0000      -0.617618       -16.8062
 145   2.0000      -0.611987       -16.6530
 146   2.0000      -0.608342       -16.5538
 147   2.0000      -0.604405       -16.4467
 148   2.0000      -0.602417       -16.3926
 149   2.0000      -0.597438       -16.2571
 150   2.0000      -0.593705       -16.1555
 151   2.0000      -0.590429       -16.0664
 152   2.0000      -0.589265       -16.0347
 153   2.0000      -0.585731       -15.9386
 154   2.0000      -0.575500       -15.6602
 155   2.0000      -0.571585       -15.5536
 156   2.0000      -0.566049       -15.4030
 157   2.0000      -0.558512       -15.1979
 158   2.0000      -0.557876       -15.1806
 159   2.0000      -0.549761       -14.9598
 160   2.0000      -0.544039       -14.8041
 161   2.0000      -0.540093       -14.6967
 162   2.0000      -0.533461       -14.5162
 163   2.0000      -0.531793       -14.4708
 164   2.0000      -0.526324       -14.3220
 165   2.0000      -0.525777       -14.3071
 166   2.0000      -0.524766       -14.2796
 167   2.0000      -0.520324       -14.1587
 168   2.0000      -0.518026       -14.0962
 169   2.0000      -0.515142       -14.0177
 170   2.0000      -0.509198       -13.8560
 171   2.0000      -0.505629       -13.7589
 172   2.0000      -0.504282       -13.7222
 173   2.0000      -0.500586       -13.6217
 174   2.0000      -0.496479       -13.5099
 175   2.0000      -0.493254       -13.4221
 176   2.0000      -0.492595       -13.4042
 177   2.0000      -0.490862       -13.3570
 178   2.0000      -0.489943       -13.3320
 179   2.0000      -0.487834       -13.2746
 180   2.0000      -0.485384       -13.2080
 181   2.0000      -0.485017       -13.1980
 182   2.0000      -0.482666       -13.1340
 183   2.0000      -0.481259       -13.0957
 184   2.0000      -0.478831       -13.0297
 185   2.0000      -0.473199       -12.8764
 186   2.0000      -0.468537       -12.7496
 187   2.0000      -0.464093       -12.6286
 188   2.0000      -0.463077       -12.6010
 189   2.0000      -0.462060       -12.5733
 190   2.0000      -0.459039       -12.4911
 191   2.0000      -0.456888       -12.4326
 192   2.0000      -0.455649       -12.3988
 193   2.0000      -0.454814       -12.3761
 194   2.0000      -0.450855       -12.2684
 195   2.0000      -0.450191       -12.2503
 196   2.0000      -0.444998       -12.1090
 197   2.0000      -0.441428       -12.0119
 198   2.0000      -0.438514       -11.9326
 199   2.0000      -0.434055       -11.8112
 200   2.0000      -0.431308       -11.7365
 201   2.0000      -0.427366       -11.6292
 202   2.0000      -0.426149       -11.5961
 203   2.0000      -0.422720       -11.5028
 204   2.0000      -0.419850       -11.4247
 205   2.0000      -0.418934       -11.3998
 206   2.0000      -0.418282       -11.3820
 207   2.0000      -0.414649       -11.2832
 208   2.0000      -0.413492       -11.2517
 209   2.0000      -0.409069       -11.1313
 210   2.0000      -0.407303       -11.0833
 211   2.0000      -0.402239       -10.9455
 212   2.0000      -0.401255       -10.9187
 213   2.0000      -0.397949       -10.8288
 214   2.0000      -0.390513       -10.6264
 215   2.0000      -0.385127       -10.4798
 216   2.0000      -0.380282       -10.3480
 217   2.0000      -0.378207       -10.2915
 218   2.0000      -0.377688       -10.2774
 219   2.0000      -0.374839       -10.1999
 220   2.0000      -0.362331        -9.8595
 221   2.0000      -0.359759        -9.7895
 222   2.0000      -0.345723        -9.4076
 223   2.0000      -0.341006        -9.2792
 224   2.0000      -0.329776        -8.9737
 225   2.0000      -0.324442        -8.8285
 226   2.0000      -0.320307        -8.7160
 227   2.0000      -0.315580        -8.5874
 228   2.0000      -0.313410        -8.5283
 229   2.0000      -0.307197        -8.3593
 230   2.0000      -0.301913        -8.2155
 231   2.0000      -0.293263        -7.9801
 232   2.0000      -0.288412        -7.8481
 233   2.0000      -0.274553        -7.4710
 234   2.0000      -0.273499        -7.4423
 235   2.0000      -0.266094        -7.2408
 236   2.0000      -0.244785        -6.6609
 237   2.0000      -0.214805        -5.8451
 238   2.0000      -0.167628        -4.5614
 239   0.0000      -0.097285        -2.6473
 240   0.0000      -0.051514        -1.4018
 241   0.0000      -0.023789        -0.6473
 242   0.0000      -0.004172        -0.1135
 243   0.0000       0.017896         0.4870

MULLIKEN ATOMIC CHARGES
-----------------------
   0 C :   -0.123614
   1 S :    0.132975
   2 C :   -0.161285
   3 C :    0.177172
   4 C :    0.110163
   5 C :   -0.095315
   6 C :    0.174049
   7 O :   -0.313221
   8 C :    0.206362
   9 C :    0.177054
  10 O :   -0.328957
  11 C :    0.184062
  12 C :   -0.169725
  13 C :    0.008595
  14 C :   -0.032570
  15 C :    0.025593
  16 C :    0.022701
  17 C :   -0.038915
  18 S :    0.059979
  19 C :   -0.043737
  20 C :    0.009183
  21 C :    0.022146
  22 C :   -0.023261
  23 S :    0.060999
  24 C :   -0.007808
  25 C :   -0.006459
  26 C :   -0.029621
  27 C :    0.031390
  28 C :    0.002973
  29 C :   -0.043884
  30 S :    0.066755
  31 C :   -0.042821
  32 C :    0.013163
  33 C :    0.023457
  34 C :   -0.010906
  35 S :    0.100534
  36 C :   -0.091331
  37 C :    0.169809
  38 C :    0.141353
  39 O :   -0.245153
  40 C :    0.219200
  41 C :    0.228242
  42 C :   -0.174864
  43 S :    0.101697
  44 C :   -0.176265
  45 O :   -0.279644
  46 C :    0.013457
  47 C :    0.026531
  48 C :   -0.154246
  49 S :    0.116827
  50 C :   -0.124793
  51 C :   -0.088082
  52 C :    0.061096
  53 C :   -0.193751
  54 S :   -0.029851
  55 C :    0.102915
  56 C :    0.051069
  57 C :    0.233655
  58 O :   -0.298875
  59 H :    0.017613
  60 H :   -0.031989
  61 H :    0.022655
  62 H :    0.022705
  63 H :    0.013270
  64 H :    0.030659
  65 H :    0.031590
  66 H :    0.029184
  67 H :   -0.037066
  68 H :   -0.014926
  69 H :   -0.014984
  70 H :   -0.017957
  71 H :   -0.016923
  72 H :   -0.017416
  73 H :   -0.011898
  74 H :   -0.016195
  75 H :   -0.019666
  76 H :   -0.008650
  77 H :   -0.007457
  78 H :   -0.017569
  79 H :   -0.004017
  80 H :    0.022144
  81 H :    0.021475
  82 H :   -0.007266
  83 H :   -0.004045
  84 H :    0.016957
  85 H :    0.056984
  86 H :    0.046894
  87 H :    0.008603
  88 H :   -0.000897
  89 H :   -0.011580
  90 H :    0.008086
  91 H :    0.005081
  92 H :    0.160400
Sum of atomic charges:   -0.0000000

LOEWDIN ATOMIC CHARGES
----------------------
   0 C :   -0.193006
   1 S :    0.464835
   2 C :   -0.184691
   3 C :   -0.043684
   4 C :   -0.053273
   5 C :   -0.045146
   6 C :    0.043287
   7 O :   -0.106709
   8 C :    0.075861
   9 C :    0.038202
  10 O :   -0.098209
  11 C :    0.077453
  12 C :   -0.080442
  13 C :   -0.066588
  14 C :   -0.167802
  15 C :   -0.031977
  16 C :   -0.048916
  17 C :   -0.177889
  18 S :    0.399186
  19 C :   -0.188553
  20 C :   -0.040096
  21 C :   -0.046614
  22 C :   -0.148411
  23 S :    0.371170
  24 C :   -0.068074
  25 C :   -0.061880
  26 C :   -0.155049
  27 C :   -0.036914
  28 C :   -0.049886
  29 C :   -0.175265
  30 S :    0.379631
  31 C :   -0.189814
  32 C :   -0.041189
  33 C :   -0.039684
  34 C :   -0.143618
  35 S :    0.399666
  36 C :   -0.079443
  37 C :    0.028342
  38 C :    0.015250
  39 O :   -0.054850
  40 C :   -0.008284
  41 C :   -0.006747
  42 C :   -0.211439
  43 S :    0.429919
  44 C :   -0.214428
  45 O :   -0.061383
  46 C :   -0.028965
  47 C :   -0.054939
  48 C :   -0.170753
  49 S :    0.434932
  50 C :   -0.188222
  51 C :   -0.089086
  52 C :   -0.086449
  53 C :   -0.118210
  54 S :    0.178471
  55 C :   -0.037902
  56 C :   -0.043081
  57 C :    0.063884
  58 O :   -0.123755
  59 H :    0.023660
  60 H :    0.033626
  61 H :    0.012990
  62 H :    0.020569
  63 H :    0.012443
  64 H :    0.019118
  65 H :    0.027507
  66 H :    0.013820
  67 H :    0.007850
  68 H :    0.033627
  69 H :    0.031516
  70 H :    0.030602
  71 H :    0.030229
  72 H :    0.031704
  73 H :    0.026855
  74 H :    0.024763
  75 H :    0.030730
  76 H :    0.027848
  77 H :    0.027767
  78 H :    0.030684
  79 H :    0.040497
  80 H :    0.028074
  81 H :    0.027642
  82 H :    0.029808
  83 H :    0.026614
  84 H :    0.023417
  85 H :    0.029280
  86 H :   -0.037001
  87 H :    0.028725
  88 H :    0.020294
  89 H :    0.017869
  90 H :    0.027312
  91 H :    0.027832
  92 H :    0.072959

  Mayer bond orders larger than 0.100000
B(  0-C ,  1-S ) :   1.1956 B(  0-C ,  4-C ) :   1.3945 B(  0-C , 59-H ) :   0.9706
B(  1-S ,  2-C ) :   1.1385 B(  2-C ,  3-C ) :   1.2980 B(  2-C , 13-C ) :   1.2218
B(  3-C ,  4-C ) :   1.2105 B(  3-C , 12-C ) :   1.1850 B(  4-C ,  5-C ) :   1.1400
B(  5-C ,  6-C ) :   1.5386 B(  5-C , 60-H ) :   1.0129 B(  6-C ,  7-O ) :   1.1649
B(  6-C ,  9-C ) :   1.1602 B(  7-O ,  8-C ) :   0.9430 B(  8-C , 61-H ) :   0.9741
B(  8-C , 62-H ) :   0.9776 B(  8-C , 63-H ) :   0.9751 B(  9-C , 10-O ) :   1.1305
B(  9-C , 12-C ) :   1.4563 B( 10-O , 11-C ) :   0.9537 B( 11-C , 64-H ) :   0.9668
B( 11-C , 65-H ) :   0.9760 B( 11-C , 66-H ) :   0.9673 B( 12-C , 67-H ) :   0.9668
B( 13-C , 14-C ) :   1.5533 B( 13-C , 68-H ) :   0.9347 B( 14-C , 15-C ) :   1.1876
B( 14-C , 18-S ) :   1.0221 B( 15-C , 16-C ) :   1.5285 B( 15-C , 69-H ) :   0.9980
B( 16-C , 17-C ) :   1.2440 B( 16-C , 70-H ) :   0.9930 B( 17-C , 18-S ) :   1.0578
B( 17-C , 19-C ) :   1.4017 B( 19-C , 20-C ) :   1.2722 B( 19-C , 23-S ) :   1.0498
B( 20-C , 21-C ) :   1.4804 B( 20-C , 71-H ) :   0.9961 B( 21-C , 22-C ) :   1.2432
B( 21-C , 72-H ) :   0.9997 B( 22-C , 23-S ) :   1.0547 B( 22-C , 24-C ) :   1.4269
B( 24-C , 25-C ) :   1.3029 B( 24-C , 73-H ) :   0.9716 B( 25-C , 26-C ) :   1.4248
B( 25-C , 74-H ) :   0.9702 B( 26-C , 27-C ) :   1.2453 B( 26-C , 30-S ) :   1.0556
B( 27-C , 28-C ) :   1.4791 B( 27-C , 75-H ) :   1.0007 B( 28-C , 29-C ) :   1.2532
B( 28-C , 76-H ) :   0.9940 B( 29-C , 30-S ) :   1.0590 B( 29-C , 31-C ) :   1.4388
B( 31-C , 32-C ) :   1.2298 B( 31-C , 35-S ) :   1.0335 B( 32-C , 33-C ) :   1.5218
B( 32-C , 77-H ) :   0.9938 B( 33-C , 34-C ) :   1.1942 B( 33-C , 78-H ) :   1.0021
B( 34-C , 35-S ) :   1.0569 B( 34-C , 36-C ) :   1.4887 B( 36-C , 37-C ) :   1.2507
B( 36-C , 79-H ) :   0.9553 B( 37-C , 38-C ) :   1.4138 B( 37-C , 45-O ) :   1.0293
B( 38-C , 39-O ) :   1.0418 B( 38-C , 46-C ) :   1.1879 B( 39-O , 40-C ) :   1.0710
B( 40-C , 41-C ) :   1.2065 B( 40-C , 44-C ) :   1.5681 B( 41-C , 42-C ) :   1.5706
B( 41-C , 45-O ) :   1.0383 B( 42-C , 43-S ) :   1.1381 B( 42-C , 80-H ) :   0.9737
B( 43-S , 44-C ) :   1.1383 B( 44-C , 81-H ) :   0.9722 B( 46-C , 47-C ) :   1.6359
B( 46-C , 82-H ) :   0.9465 B( 47-C , 48-C ) :   1.1432 B( 47-C , 83-H ) :   0.9477
B( 48-C , 49-S ) :   1.1375 B( 48-C , 52-C ) :   1.4877 B( 49-S , 50-C ) :   1.1563
B( 50-C , 51-C ) :   1.5725 B( 50-C , 84-H ) :   0.9678 B( 51-C , 52-C ) :   1.3078
B( 51-C , 57-C ) :   0.9477 B( 52-C , 53-C ) :   0.9646 B( 53-C , 54-S ) :   1.0492
B( 53-C , 55-C ) :   1.0258 B( 53-C , 85-H ) :   0.8986 B( 54-S , 86-H ) :   0.9551
B( 55-C , 56-C ) :   1.0497 B( 55-C , 87-H ) :   0.9268 B( 55-C , 88-H ) :   0.9357
B( 56-C , 57-C ) :   1.0727 B( 56-C , 89-H ) :   0.9316 B( 56-C , 90-H ) :   0.9291
B( 57-C , 58-O ) :   1.0582 B( 57-C , 91-H ) :   0.8942 B( 58-O , 92-H ) :   0.9786

-----------------------------------------------------------------------------
         ABSORPTION SPECTRUM VIA TRANSITION ELECTRIC DIPOLE MOMENTS
-----------------------------------------------------------------------------
State   Energy  Wavelength   fosc         T2         TX        TY        TZ
        (cm-1)    (nm)                  (au**2)     (au)      (au)      (au)
-----------------------------------------------------------------------------
   0    4384.0   2281.0   0.736778605  55.32714  -6.27514   1.86099  -3.53361
   1   11868.7    842.6   0.001814751   0.05034   0.19403  -0.05448  -0.09861
   2   15219.8    657.0   0.248077388   5.36604   0.02901   0.73238   2.19746
   3   17779.6    562.4   0.012429542   0.23015   0.45212  -0.14571   0.06713
   4   21362.3    468.1   0.407157247   6.27465   1.78702  -0.93534  -1.48537
   5   21831.1    458.1   0.010048236   0.15153   0.32718  -0.16102  -0.13622
   6   24189.2    413.4   0.120321175   1.63756  -0.13214   0.20627   1.25600
   7   25173.5    397.2   0.023085378   0.30190  -0.35649   0.39609   0.13392
   8   25885.1    386.3   0.088632607   1.12725  -0.07234   0.06708  -1.05713
   9   26394.4    378.9   0.132443912   1.65195   1.05099  -0.30940  -0.67204
  10   26953.5    371.0   0.120380764   1.47034  -1.04369   0.58878  -0.18545
  11   29165.8    342.9   0.013583992   0.15333  -0.33557   0.20143  -0.01219
  12   29576.5    338.1   0.036305402   0.40411   0.63334   0.03138   0.04485
  13   29864.5    334.8   0.022475774   0.24776  -0.45622   0.12832  -0.15217
  14   29992.6    333.4   0.010369265   0.11382   0.22438  -0.00484   0.25189
  15   30398.6    329.0   0.025573648   0.27696   0.08399  -0.11215  -0.50727
  16   30576.5    327.0   0.000488741   0.00526  -0.04383   0.05173   0.02580
  17   30733.5    325.4   0.028068801   0.30067  -0.04581   0.13964   0.52827
  18   31237.7    320.1   0.047852685   0.50432   0.12150   0.02697   0.69916
  19   31577.8    316.7   0.007386751   0.07701   0.24409  -0.09806  -0.08841
  20   32220.0    310.4   0.006210350   0.06346   0.23317  -0.08530   0.04255
  21   33122.0    301.9   0.025006324   0.24855  -0.33234   0.36451   0.07233
  22   33819.7    295.7   0.024481517   0.23831  -0.12456  -0.11639   0.45744
  23   34190.4    292.5   0.077586812   0.74707  -0.75834   0.30174   0.28449
  24   34476.3    290.1   0.003817453   0.03645   0.17315  -0.02407  -0.07677
  25   34839.6    287.0   0.024410049   0.23066  -0.03290   0.31961  -0.35697
  26   35229.6    283.9   0.133215707   1.24487  -0.15259  -0.03920  -1.10456
  27   35736.6    279.8   0.022952614   0.21144   0.28570  -0.28005   0.22669
  28   35872.5    278.8   0.068102509   0.62500  -0.45682   0.40445  -0.50272
  29   36520.7    273.8   0.050528606   0.45549   0.50084  -0.41714  -0.17503
  30   36625.2    273.0   0.003716910   0.03341   0.17396  -0.00509  -0.05589
  31   37246.6    268.5   0.011551052   0.10210   0.29993  -0.06339  -0.09010
  32   37827.7    264.4   0.239419298   2.08365  -0.54254   0.48846   1.24527
  33   38244.6    261.5   0.027666579   0.23816  -0.21447   0.05108  -0.43537
  34   38485.6    259.8   0.019837443   0.16969   0.12656  -0.05760   0.38776
  35   38870.2    257.3   0.010300710   0.08724  -0.14439  -0.25736  -0.01264
  36   39128.2    255.6   0.175917008   1.48011  -0.89016   0.08480   0.82494
  37   40128.9    249.2   0.001255931   0.01030   0.00101   0.02831  -0.09747
  38   40295.9    248.2   0.027728703   0.22654  -0.10159   0.09946   0.45423

FINAL SINGLE POINT ENERGY     -5331.167918840806

DIPOLE MOMENT
-------------
                                X             Y             Z
Electronic contribution:    -22.46412       0.17612      -6.46807
Nuclear contribution   :     22.35434      -0.38205       6.04618
                        -----------------------------------------
Total Dipole Moment    :     -0.10978      -0.20592      -0.42189
                        -----------------------------------------
Magnitude (a.u.)       :      0.48213
Magnitude (Debye)      :      1.22548

Rotational constants in cm-1:     0.002267     0.000233     0.000215
Rotational constants in MHz :    67.953254     6.971916     6.454838

                             ****ORCA TERMINATED NORMALLY****
TOTAL RUN TIME: 0 days 0 hours 8 minutes 50 seconds 205 msec
