                         Program Version 4.2.0 -  RELEASE  -
|  1> # ORCA input file
|  2> # SCF done       -159.888773479753          0.003719503037
|  3> ! CAM-B3LYP def2-SVP def2/J RIJCOSX Grid4 TightSCF
|  4> %maxcore 5000
|  5> %tddft
|  6>     Mode sTDDFT
|  7>     Ethresh 5.0
|  8>     maxcore 5000
|  9> end
| 10>
| 11> %pal
| 12>   nprocs 6
| 13>   end
| 14> * xyz 0 1
| 15>    C        2.15627        -0.11117         5.44468
| 16>    S        2.46711        -1.27653         4.23758
| 17>    C        1.00879        -2.16339         4.60588
| 18>    C        0.30955        -1.52110         5.65257
| 19>    C        0.97475        -0.35017         6.12151
| 20>    C        0.38257         0.41639         7.14307
| 21>    C       -0.82157         0.05302         7.69260
| 22>    O       -1.27282         0.86945         8.68260
| 23>    C       -2.64425         0.94198         9.00859
| 24>    C       -1.47662        -1.13976         7.23439
| 25>    O       -2.64750        -1.47528         7.85195
| 26>    C       -3.33300        -2.63071         7.43365
| 27>    C       -0.91152        -1.89209         6.23074
| 28>    C        0.63355        -3.32953         3.94471
| 29>    C        1.22730        -3.92447         2.84941
| 30>    C        0.78332        -5.11136         2.22874
| 31>    C        1.48997        -5.45697         1.11050
| 32>    C        2.52186        -4.55702         0.79419
| 33>    S        2.60252        -3.27540         1.97904
| 34>    C        3.35698        -4.58227        -0.31970
| 35>    C        3.35285        -5.51444        -1.36890
| 36>    C        4.24842        -5.22419        -2.36349
| 37>    C        5.00373        -4.05915        -2.13766
| 38>    S        4.54851        -3.34127        -0.61130
| 39>    C        5.94116        -3.54259        -3.02348
| 40>    C        6.75473        -2.43379        -2.87877
| 41>    C        7.65761        -1.93690        -3.84042
| 42>    C        8.35246        -0.83608        -3.31417
| 43>    C        7.80154        -0.57928        -1.98271
| 44>    O        7.99327         0.31171        -1.17934
| 45>    N        6.87046        -1.59092        -1.79460
| 46>    C        9.24695        -0.39940        -4.30783
| 47>    O        9.03852        -1.16844        -5.43717
| 48>    C        8.09477        -2.15082        -5.19748
| 49>    O        7.77955        -2.95867        -6.03427
| 50>    C       10.26637         0.53152        -4.39780
| 51>    C       10.89001         1.22068        -3.36433
| 52>    C       11.96259         2.12392        -3.51437
| 53>    C       12.48769         2.56966        -2.32977
| 54>    C       11.83742         2.03195        -1.20718
| 55>    S       10.54225         0.96347        -1.68327
| 56>    C       12.05177         2.24112         0.15306
| 57>    C       13.05851         2.94423         0.83801
| 58>    C       12.91701         2.91072         2.19895
| 59>    C       11.78178         2.19142         2.64648
| 60>    S       10.92665         1.52750         1.27002
| 61>    C       11.33100         2.09143         3.94394
| 62>    C       10.14020         1.46450         4.35650
| 63>    S        9.42944         1.85710         5.92103
| 64>    C        8.00034         0.93566         5.65496
| 65>    C        8.05117         0.32073         4.42598
| 66>    C        9.26427         0.59814         3.71919
| 67>    O        9.30240        -0.09367         2.56408
| 68>    C        8.11601        -0.74414         2.48236
| 69>    N        7.89493        -1.53757         1.34105
| 70>    O        6.74415        -1.90740         1.14415
| 71>    O        8.83848        -1.82066         0.63608
| 72>    C        7.30900        -0.54210         3.57114
| 73>    H        2.84332         0.69628         5.59464
| 74>    H        0.86686         1.30839         7.50434
| 75>    H       -3.26842         1.02120         8.11485
| 76>    H       -2.74596         1.85146         9.60196
| 77>    H       -2.96790         0.08330         9.60084
| 78>    H       -2.73271        -3.53277         7.58758
| 79>    H       -3.63059        -2.56210         6.38300
| 80>    H       -4.22413        -2.68031         8.05688
| 81>    H       -1.40328        -2.78389         5.87978
| 82>    H       -0.24871        -3.82936         4.32376
| 83>    H       -0.04842        -5.67269         2.61720
| 84>    H        1.28227        -6.32495         0.51054
| 85>    H        2.69582        -6.36430        -1.37972
| 86>    H        4.38304        -5.81564        -3.25095
| 87>    H        6.05797        -4.06922        -3.96161
| 88>    H        6.40180        -1.72267        -0.90618
| 89>    H       10.67648         0.66126        -5.39078
| 90>    H       12.32199         2.41596        -4.48562
| 91>    H       13.30493         3.26452        -2.24922
| 92>    H       13.85828         3.44692         0.32340
| 93>    H       13.58583         3.39064         2.89210
| 94>    H       11.88949         2.61140         4.71023
| 95>    H        7.23570         0.90442         6.40195
| 96>    H        6.33815        -0.96577         3.72539
| 97> *
| 98>
| 99>                          ****END OF INPUT****

CARTESIAN COORDINATES (ANGSTROEM)
---------------------------------
  C      2.156270   -0.111170    5.444680
  S      2.467110   -1.276530    4.237580
  C      1.008790   -2.163390    4.605880
  C      0.309550   -1.521100    5.652570
  C      0.974750   -0.350170    6.121510
  C      0.382570    0.416390    7.143070
  C     -0.821570    0.053020    7.692600
  O     -1.272820    0.869450    8.682600
  C     -2.644250    0.941980    9.008590
  C     -1.476620   -1.139760    7.234390
  O     -2.647500   -1.475280    7.851950
  C     -3.333000   -2.630710    7.433650
  C     -0.911520   -1.892090    6.230740
  C      0.633550   -3.329530    3.944710
  C      1.227300   -3.924470    2.849410
  C      0.783320   -5.111360    2.228740
  C      1.489970   -5.456970    1.110500
  C      2.521860   -4.557020    0.794190
  S      2.602520   -3.275400    1.979040
  C      3.356980   -4.582270   -0.319700
  C      3.352850   -5.514440   -1.368900
  C      4.248420   -5.224190   -2.363490
  C      5.003730   -4.059150   -2.137660
  S      4.548510   -3.341270   -0.611300
  C      5.941160   -3.542590   -3.023480
  C      6.754730   -2.433790   -2.878770
  C      7.657610   -1.936900   -3.840420
  C      8.352460   -0.836080   -3.314170
  C      7.801540   -0.579280   -1.982710
  O      7.993270    0.311710   -1.179340
  N      6.870460   -1.590920   -1.794600
  C      9.246950   -0.399400   -4.307830
  O      9.038520   -1.168440   -5.437170
  C      8.094770   -2.150820   -5.197480
  O      7.779550   -2.958670   -6.034270
  C     10.266370    0.531520   -4.397800
  C     10.890010    1.220680   -3.364330
  C     11.962590    2.123920   -3.514370
  C     12.487690    2.569660   -2.329770
  C     11.837420    2.031950   -1.207180
  S     10.542250    0.963470   -1.683270
  C     12.051770    2.241120    0.153060
  C     13.058510    2.944230    0.838010
  C     12.917010    2.910720    2.198950
  C     11.781780    2.191420    2.646480
  S     10.926650    1.527500    1.270020
  C     11.331000    2.091430    3.943940
  C     10.140200    1.464500    4.356500
  S      9.429440    1.857100    5.921030
  C      8.000340    0.935660    5.654960
  C      8.051170    0.320730    4.425980
  C      9.264270    0.598140    3.719190
  O      9.302400   -0.093670    2.564080
  C      8.116010   -0.744140    2.482360
  N      7.894930   -1.537570    1.341050
  O      6.744150   -1.907400    1.144150
  O      8.838480   -1.820660    0.636080
  C      7.309000   -0.542100    3.571140
  H      2.843320    0.696280    5.594640
  H      0.866860    1.308390    7.504340
  H     -3.268420    1.021200    8.114850
  H     -2.745960    1.851460    9.601960
  H     -2.967900    0.083300    9.600840
  H     -2.732710   -3.532770    7.587580
  H     -3.630590   -2.562100    6.383000
  H     -4.224130   -2.680310    8.056880
  H     -1.403280   -2.783890    5.879780
  H     -0.248710   -3.829360    4.323760
  H     -0.048420   -5.672690    2.617200
  H      1.282270   -6.324950    0.510540
  H      2.695820   -6.364300   -1.379720
  H      4.383040   -5.815640   -3.250950
  H      6.057970   -4.069220   -3.961610
  H      6.401800   -1.722670   -0.906180
  H     10.676480    0.661260   -5.390780
  H     12.321990    2.415960   -4.485620
  H     13.304930    3.264520   -2.249220
  H     13.858280    3.446920    0.323400
  H     13.585830    3.390640    2.892100
  H     11.889490    2.611400    4.710230
  H      7.235700    0.904420    6.401950
  H      6.338150   -0.965770    3.725390

 Total Charge           Charge          ....    0
 Multiplicity           Mult            ....    1
 Number of Electrons    NEL             ....  450
 Basis Dimension        Dim             ....  956

ORBITAL ENERGIES
----------------

  NO   OCC          E(Eh)            E(eV)
   0   2.0000     -88.974434     -2421.1174
   1   2.0000     -88.964607     -2420.8500
   2   2.0000     -88.948152     -2420.4023
   3   2.0000     -88.944601     -2420.3056
   4   2.0000     -88.936311     -2420.0801
   5   2.0000     -88.932521     -2419.9769
   6   2.0000     -19.306927      -525.3682
   7   2.0000     -19.257922      -524.0347
   8   2.0000     -19.250553      -523.8342
   9   2.0000     -19.246225      -523.7164
  10   2.0000     -19.244012      -523.6562
  11   2.0000     -19.236337      -523.4473
  12   2.0000     -19.169370      -521.6251
  13   2.0000     -19.165832      -521.5288
  14   2.0000     -14.657828      -398.8598
  15   2.0000     -14.425774      -392.5453
  16   2.0000     -10.388283      -282.6796
  17   2.0000     -10.370133      -282.1857
  18   2.0000     -10.357478      -281.8413
  19   2.0000     -10.346583      -281.5448
  20   2.0000     -10.344547      -281.4894
  21   2.0000     -10.334791      -281.2240
  22   2.0000     -10.333988      -281.2021
  23   2.0000     -10.332339      -281.1572
  24   2.0000     -10.318948      -280.7928
  25   2.0000     -10.314871      -280.6819
  26   2.0000     -10.313303      -280.6392
  27   2.0000     -10.312527      -280.6181
  28   2.0000     -10.311833      -280.5992
  29   2.0000     -10.311201      -280.5820
  30   2.0000     -10.307957      -280.4938
  31   2.0000     -10.306442      -280.4525
  32   2.0000     -10.305913      -280.4382
  33   2.0000     -10.304928      -280.4114
  34   2.0000     -10.304727      -280.4059
  35   2.0000     -10.301475      -280.3174
  36   2.0000     -10.301204      -280.3100
  37   2.0000     -10.299576      -280.2657
  38   2.0000     -10.299324      -280.2588
  39   2.0000     -10.293871      -280.1105
  40   2.0000     -10.291361      -280.0422
  41   2.0000     -10.290922      -280.0302
  42   2.0000     -10.285459      -279.8816
  43   2.0000     -10.285055      -279.8706
  44   2.0000     -10.283860      -279.8381
  45   2.0000     -10.282975      -279.8140
  46   2.0000     -10.282617      -279.8042
  47   2.0000     -10.281693      -279.7791
  48   2.0000     -10.279064      -279.7076
  49   2.0000     -10.278357      -279.6883
  50   2.0000     -10.276437      -279.6361
  51   2.0000     -10.276073      -279.6262
  52   2.0000     -10.275287      -279.6048
  53   2.0000     -10.270806      -279.4828
  54   2.0000     -10.270288      -279.4687
  55   2.0000     -10.266426      -279.3636
  56   2.0000     -10.255037      -279.0538
  57   2.0000     -10.247232      -278.8414
  58   2.0000      -8.069455      -219.5810
  59   2.0000      -8.059329      -219.3055
  60   2.0000      -8.044098      -218.8910
  61   2.0000      -8.040668      -218.7977
  62   2.0000      -8.032813      -218.5840
  63   2.0000      -8.028371      -218.4631
  64   2.0000      -6.038796      -164.3240
  65   2.0000      -6.034518      -164.2076
  66   2.0000      -6.031708      -164.1311
  67   2.0000      -6.028399      -164.0411
  68   2.0000      -6.024116      -163.9245
  69   2.0000      -6.022237      -163.8734
  70   2.0000      -6.013821      -163.6444
  71   2.0000      -6.010329      -163.5494
  72   2.0000      -6.009668      -163.5314
  73   2.0000      -6.006182      -163.4365
  74   2.0000      -6.005183      -163.4093
  75   2.0000      -6.002516      -163.3368
  76   2.0000      -6.001830      -163.3181
  77   2.0000      -5.998224      -163.2200
  78   2.0000      -5.997894      -163.2110
  79   2.0000      -5.993708      -163.0971
  80   2.0000      -5.993704      -163.0970
  81   2.0000      -5.989589      -162.9850
  82   2.0000      -1.329029       -36.1647
  83   2.0000      -1.231320       -33.5059
  84   2.0000      -1.173426       -31.9305
  85   2.0000      -1.164326       -31.6829
  86   2.0000      -1.143811       -31.1247
  87   2.0000      -1.135338       -30.8941
  88   2.0000      -1.105705       -30.0878
  89   2.0000      -1.076899       -29.3039
  90   2.0000      -1.031180       -28.0598
  91   2.0000      -0.997032       -27.1306
  92   2.0000      -0.996473       -27.1154
  93   2.0000      -0.989503       -26.9258
  94   2.0000      -0.989167       -26.9166
  95   2.0000      -0.970767       -26.4159
  96   2.0000      -0.967322       -26.3222
  97   2.0000      -0.937257       -25.5041
  98   2.0000      -0.926890       -25.2219
  99   2.0000      -0.901130       -24.5210
 100   2.0000      -0.894388       -24.3375
 101   2.0000      -0.888097       -24.1663
 102   2.0000      -0.880427       -23.9576
 103   2.0000      -0.875029       -23.8108
 104   2.0000      -0.868543       -23.6343
 105   2.0000      -0.853557       -23.2265
 106   2.0000      -0.846378       -23.0311
 107   2.0000      -0.845551       -23.0086
 108   2.0000      -0.840931       -22.8829
 109   2.0000      -0.825538       -22.4640
 110   2.0000      -0.822141       -22.3716
 111   2.0000      -0.821372       -22.3507
 112   2.0000      -0.814020       -22.1506
 113   2.0000      -0.804800       -21.8997
 114   2.0000      -0.800496       -21.7826
 115   2.0000      -0.787322       -21.4241
 116   2.0000      -0.783049       -21.3078
 117   2.0000      -0.763747       -20.7826
 118   2.0000      -0.754643       -20.5349
 119   2.0000      -0.745372       -20.2826
 120   2.0000      -0.727164       -19.7871
 121   2.0000      -0.719108       -19.5679
 122   2.0000      -0.710166       -19.3246
 123   2.0000      -0.707888       -19.2626
 124   2.0000      -0.701121       -19.0785
 125   2.0000      -0.684279       -18.6202
 126   2.0000      -0.679419       -18.4879
 127   2.0000      -0.667062       -18.1517
 128   2.0000      -0.666000       -18.1228
 129   2.0000      -0.660938       -17.9850
 130   2.0000      -0.657724       -17.8976
 131   2.0000      -0.652846       -17.7649
 132   2.0000      -0.641258       -17.4495
 133   2.0000      -0.636637       -17.3238
 134   2.0000      -0.631574       -17.1860
 135   2.0000      -0.627109       -17.0645
 136   2.0000      -0.624101       -16.9827
 137   2.0000      -0.616234       -16.7686
 138   2.0000      -0.613188       -16.6857
 139   2.0000      -0.612600       -16.6697
 140   2.0000      -0.610280       -16.6066
 141   2.0000      -0.602912       -16.4061
 142   2.0000      -0.595312       -16.1993
 143   2.0000      -0.593307       -16.1447
 144   2.0000      -0.590820       -16.0770
 145   2.0000      -0.584120       -15.8947
 146   2.0000      -0.575903       -15.6711
 147   2.0000      -0.569005       -15.4834
 148   2.0000      -0.568519       -15.4702
 149   2.0000      -0.566108       -15.4046
 150   2.0000      -0.562736       -15.3128
 151   2.0000      -0.555150       -15.1064
 152   2.0000      -0.551295       -15.0015
 153   2.0000      -0.550533       -14.9808
 154   2.0000      -0.543434       -14.7876
 155   2.0000      -0.541255       -14.7283
 156   2.0000      -0.539859       -14.6903
 157   2.0000      -0.532523       -14.4907
 158   2.0000      -0.527042       -14.3415
 159   2.0000      -0.522880       -14.2283
 160   2.0000      -0.520957       -14.1760
 161   2.0000      -0.514919       -14.0117
 162   2.0000      -0.512336       -13.9414
 163   2.0000      -0.507890       -13.8204
 164   2.0000      -0.502551       -13.6751
 165   2.0000      -0.499883       -13.6025
 166   2.0000      -0.498502       -13.5649
 167   2.0000      -0.496450       -13.5091
 168   2.0000      -0.494824       -13.4648
 169   2.0000      -0.492776       -13.4091
 170   2.0000      -0.491647       -13.3784
 171   2.0000      -0.488800       -13.3009
 172   2.0000      -0.487870       -13.2756
 173   2.0000      -0.485832       -13.2202
 174   2.0000      -0.481076       -13.0908
 175   2.0000      -0.477681       -12.9984
 176   2.0000      -0.474125       -12.9016
 177   2.0000      -0.471598       -12.8328
 178   2.0000      -0.469376       -12.7724
 179   2.0000      -0.464356       -12.6358
 180   2.0000      -0.462702       -12.5908
 181   2.0000      -0.461011       -12.5447
 182   2.0000      -0.456285       -12.4162
 183   2.0000      -0.450261       -12.2522
 184   2.0000      -0.447457       -12.1759
 185   2.0000      -0.442688       -12.0462
 186   2.0000      -0.438137       -11.9223
 187   2.0000      -0.436634       -11.8814
 188   2.0000      -0.434846       -11.8327
 189   2.0000      -0.434334       -11.8188
 190   2.0000      -0.431741       -11.7483
 191   2.0000      -0.427665       -11.6374
 192   2.0000      -0.424935       -11.5631
 193   2.0000      -0.422935       -11.5086
 194   2.0000      -0.416726       -11.3397
 195   2.0000      -0.415950       -11.3186
 196   2.0000      -0.414404       -11.2765
 197   2.0000      -0.405785       -11.0420
 198   2.0000      -0.403094       -10.9688
 199   2.0000      -0.397510       -10.8168
 200   2.0000      -0.392042       -10.6680
 201   2.0000      -0.390569       -10.6279
 202   2.0000      -0.383661       -10.4399
 203   2.0000      -0.382885       -10.4188
 204   2.0000      -0.378093       -10.2884
 205   2.0000      -0.375996       -10.2314
 206   2.0000      -0.371998       -10.1226
 207   2.0000      -0.370051       -10.0696
 208   2.0000      -0.352978        -9.6050
 209   2.0000      -0.343945        -9.3592
 210   2.0000      -0.335269        -9.1231
 211   2.0000      -0.333506        -9.0751
 212   2.0000      -0.328287        -8.9332
 213   2.0000      -0.324618        -8.8333
 214   2.0000      -0.322298        -8.7702
 215   2.0000      -0.318588        -8.6692
 216   2.0000      -0.316693        -8.6177
 217   2.0000      -0.314969        -8.5707
 218   2.0000      -0.302144        -8.2218
 219   2.0000      -0.286261        -7.7896
 220   2.0000      -0.283429        -7.7125
 221   2.0000      -0.270218        -7.3530
 222   2.0000      -0.244577        -6.6553
 223   2.0000      -0.219484        -5.9725
 224   2.0000      -0.181049        -4.9266
 225   0.0000      -0.101690        -2.7671
 226   0.0000      -0.073656        -2.0043
 227   0.0000      -0.062149        -1.6912
 228   0.0000      -0.029582        -0.8050
 229   0.0000      -0.008378        -0.2280

MULLIKEN ATOMIC CHARGES
-----------------------
   0 C :   -0.120795
   1 S :    0.133002
   2 C :   -0.122872
   3 C :    0.158836
   4 C :    0.120787
   5 C :   -0.093268
   6 C :    0.171990
   7 O :   -0.317259
   8 C :    0.204070
   9 C :    0.194058
  10 O :   -0.325841
  11 C :    0.183977
  12 C :   -0.165325
  13 C :   -0.013581
  14 C :   -0.049926
  15 C :    0.028699
  16 C :    0.021944
  17 C :   -0.031408
  18 S :    0.081773
  19 C :   -0.044270
  20 C :    0.026492
  21 C :    0.022608
  22 C :   -0.005738
  23 S :    0.090419
  24 C :   -0.061976
  25 C :    0.091499
  26 C :   -0.114631
  27 C :   -0.046003
  28 C :    0.139042
  29 O :   -0.209980
  30 N :   -0.121034
  31 C :    0.129457
  32 O :   -0.261286
  33 C :    0.201370
  34 O :   -0.170340
  35 C :   -0.039798
  36 C :   -0.026294
  37 C :    0.026108
  38 C :    0.026592
  39 C :   -0.045228
  40 S :    0.159621
  41 C :   -0.032476
  42 C :    0.034261
  43 C :    0.032817
  44 C :   -0.034315
  45 S :    0.100280
  46 C :    0.049828
  47 C :   -0.227991
  48 S :    0.146678
  49 C :   -0.141292
  50 C :    0.124311
  51 C :    0.196040
  52 O :   -0.189706
  53 C :    0.262192
  54 N :    0.296426
  55 O :   -0.271206
  56 O :   -0.203594
  57 C :   -0.072866
  58 H :    0.012820
  59 H :   -0.033192
  60 H :    0.011192
  61 H :    0.024691
  62 H :    0.024482
  63 H :    0.025819
  64 H :    0.026623
  65 H :    0.037670
  66 H :   -0.048770
  67 H :   -0.019853
  68 H :   -0.015436
  69 H :   -0.015882
  70 H :   -0.013882
  71 H :   -0.006133
  72 H :    0.001072
  73 H :    0.131842
  74 H :   -0.004462
  75 H :   -0.012619
  76 H :   -0.014976
  77 H :   -0.013234
  78 H :   -0.012995
  79 H :   -0.020232
  80 H :    0.032625
  81 H :    0.007949
Sum of atomic charges:   -0.0000000

LOEWDIN ATOMIC CHARGES
----------------------
   0 C :   -0.198733
   1 S :    0.464853
   2 C :   -0.192456
   3 C :   -0.039236
   4 C :   -0.054482
   5 C :   -0.041118
   6 C :    0.040374
   7 O :   -0.109531
   8 C :    0.076150
   9 C :    0.039260
  10 O :   -0.097324
  11 C :    0.077939
  12 C :   -0.076510
  13 C :   -0.057421
  14 C :   -0.168823
  15 C :   -0.028915
  16 C :   -0.047122
  17 C :   -0.168010
  18 S :    0.379361
  19 C :   -0.187573
  20 C :   -0.030366
  21 C :   -0.037509
  22 C :   -0.136351
  23 S :    0.409370
  24 C :   -0.072786
  25 C :    0.053994
  26 C :   -0.120427
  27 C :   -0.116931
  28 C :    0.063197
  29 O :   -0.217828
  30 N :    0.028349
  31 C :    0.077620
  32 O :   -0.061120
  33 C :    0.085852
  34 O :   -0.175860
  35 C :   -0.079427
  36 C :   -0.139128
  37 C :   -0.035710
  38 C :   -0.035697
  39 C :   -0.182162
  40 S :    0.472663
  41 C :   -0.173009
  42 C :   -0.033628
  43 C :   -0.033249
  44 C :   -0.144868
  45 S :    0.423043
  46 C :   -0.082431
  47 C :   -0.198555
  48 S :    0.469260
  49 C :   -0.188630
  50 C :   -0.079526
  51 C :    0.006707
  52 O :    0.005301
  53 C :    0.034182
  54 N :    0.285706
  55 O :   -0.219759
  56 O :   -0.163490
  57 C :   -0.007133
  58 H :    0.021802
  59 H :    0.033686
  60 H :    0.012385
  61 H :    0.021183
  62 H :    0.012691
  63 H :    0.016955
  64 H :    0.016801
  65 H :    0.029767
  66 H :    0.025482
  67 H :    0.036943
  68 H :    0.031883
  69 H :    0.031266
  70 H :    0.031793
  71 H :    0.035895
  72 H :    0.049361
  73 H :    0.053139
  74 H :    0.044058
  75 H :    0.032505
  76 H :    0.030666
  77 H :    0.032304
  78 H :    0.032167
  79 H :    0.033412
  80 H :    0.028082
  81 H :    0.045424

  Mayer bond orders larger than 0.100000
B(  0-C ,  1-S ) :   1.1908 B(  0-C ,  4-C ) :   1.3952 B(  0-C , 58-H ) :   0.9682
B(  1-S ,  2-C ) :   1.1207 B(  2-C ,  3-C ) :   1.2886 B(  2-C , 13-C ) :   1.2490
B(  3-C ,  4-C ) :   1.2238 B(  3-C , 12-C ) :   1.1836 B(  4-C ,  5-C ) :   1.1283
B(  5-C ,  6-C ) :   1.5437 B(  5-C , 59-H ) :   1.0142 B(  6-C ,  7-O ) :   1.1567
B(  6-C ,  9-C ) :   1.1651 B(  7-O ,  8-C ) :   0.9437 B(  8-C , 60-H ) :   0.9735
B(  8-C , 61-H ) :   0.9784 B(  8-C , 62-H ) :   0.9739 B(  9-C , 10-O ) :   1.1279
B(  9-C , 12-C ) :   1.4402 B( 10-O , 11-C ) :   0.9632 B( 11-C , 63-H ) :   0.9677
B( 11-C , 64-H ) :   0.9679 B( 11-C , 65-H ) :   0.9765 B( 12-C , 66-H ) :   0.9893
B( 13-C , 14-C ) :   1.5224 B( 13-C , 67-H ) :   0.9584 B( 14-C , 15-C ) :   1.1780
B( 14-C , 18-S ) :   1.0332 B( 15-C , 16-C ) :   1.5420 B( 15-C , 68-H ) :   0.9997
B( 16-C , 17-C ) :   1.2277 B( 16-C , 69-H ) :   0.9936 B( 17-C , 18-S ) :   1.0624
B( 17-C , 19-C ) :   1.4318 B( 19-C , 20-C ) :   1.2364 B( 19-C , 23-S ) :   1.0684
B( 20-C , 21-C ) :   1.5216 B( 20-C , 70-H ) :   0.9942 B( 21-C , 22-C ) :   1.2006
B( 21-C , 71-H ) :   1.0032 B( 22-C , 23-S ) :   1.0614 B( 22-C , 24-C ) :   1.4224
B( 24-C , 25-C ) :   1.2993 B( 24-C , 72-H ) :   0.9515 B( 25-C , 26-C ) :   1.2556
B( 25-C , 30-N ) :   1.1894 B( 26-C , 27-C ) :   1.2750 B( 26-C , 33-C ) :   1.0035
B( 27-C , 28-C ) :   0.9467 B( 27-C , 31-C ) :   1.2702 B( 28-C , 29-O ) :   2.1094
B( 28-C , 30-N ) :   1.1082 B( 30-N , 73-H ) :   0.8873 B( 31-C , 32-O ) :   1.0848
B( 31-C , 35-C ) :   1.3335 B( 32-O , 33-C ) :   1.0365 B( 33-C , 34-O ) :   2.2053
B( 35-C , 36-C ) :   1.4041 B( 35-C , 74-H ) :   0.9518 B( 36-C , 37-C ) :   1.1995
B( 36-C , 40-S ) :   1.1032 B( 37-C , 38-C ) :   1.5292 B( 37-C , 75-H ) :   1.0000
B( 38-C , 39-C ) :   1.2261 B( 38-C , 76-H ) :   0.9962 B( 39-C , 40-S ) :   1.0792
B( 39-C , 41-C ) :   1.4232 B( 41-C , 42-C ) :   1.2180 B( 41-C , 45-S ) :   1.0679
B( 42-C , 43-C ) :   1.5613 B( 42-C , 77-H ) :   0.9942 B( 43-C , 44-C ) :   1.1605
B( 43-C , 78-H ) :   0.9983 B( 44-C , 45-S ) :   1.0576 B( 44-C , 46-C ) :   1.5691
B( 46-C , 47-C ) :   1.1643 B( 46-C , 79-H ) :   0.9488 B( 47-C , 48-S ) :   1.1229
B( 47-C , 49-C ) :   0.1040 B( 47-C , 51-C ) :   1.4173 B( 48-S , 49-C ) :   1.1825
B( 49-C , 50-C ) :   1.4282 B( 49-C , 80-H ) :   0.9759 B( 50-C , 51-C ) :   1.2301
B( 50-C , 57-C ) :   1.0693 B( 51-C , 52-O ) :   1.0914 B( 52-O , 53-C ) :   1.1166
B( 53-C , 54-N ) :   0.9194 B( 53-C , 57-C ) :   1.5766 B( 54-N , 55-O ) :   1.4690
B( 54-N , 56-O ) :   1.5347 B( 55-O , 56-O ) :   0.2680 B( 57-C , 81-H ) :   1.0248

-----------------------------------------------------------------------------
         ABSORPTION SPECTRUM VIA TRANSITION ELECTRIC DIPOLE MOMENTS
-----------------------------------------------------------------------------
State   Energy  Wavelength   fosc         T2         TX        TY        TZ
        (cm-1)    (nm)                  (au**2)     (au)      (au)      (au)
-----------------------------------------------------------------------------
   0    4771.6   2095.7   0.251603782  17.35906   3.80093   1.64024  -0.47078
   1    8320.1   1201.9   0.116810571   4.62201  -1.70677  -0.47631   1.21741
   2   11267.0    887.5   0.004307785   0.12587   0.06520   0.15226   0.31375
   3   14210.5    703.7   1.609583767  37.28894   1.79677  -1.23863  -5.70319
   4   16850.2    593.5   0.037432958   0.73135  -0.25226  -0.67939  -0.45403
   5   17047.1    586.6   0.074854971   1.44559  -0.41402  -0.30759   1.08608
   6   20173.4    495.7   0.112972855   1.84362  -0.56067  -0.51968   1.12214
   7   21273.3    470.1   0.361690830   5.59730  -1.15208  -2.00178   0.51274
   8   21972.8    455.1   0.034147496   0.51162   0.09938   0.70655  -0.05029
   9   22389.5    446.6   0.122444921   1.80041  -0.74894  -0.96813   0.54976
  10   23391.2    427.5   0.126549627   1.78108   0.89397   0.95087  -0.27880
  11   24753.0    404.0   0.036504556   0.48551   0.43563   0.54381  -0.00316
  12   25157.3    397.5   0.029940706   0.39181   0.10123  -0.37158  -0.49345
  13   26834.0    372.7   0.054775078   0.67200  -0.60727   0.16140   0.52648
  14   26975.2    370.7   0.049513589   0.60428  -0.04543  -0.70715  -0.31961
  15   28064.9    356.3   0.022508116   0.26403  -0.26638  -0.42014  -0.12866
  16   28371.0    352.5   0.036282904   0.42102   0.37322   0.45022   0.28113
  17   28520.6    350.6   0.062350085   0.71970   0.81186   0.24589  -0.01125
  18   28811.9    347.1   0.006307851   0.07208  -0.22347  -0.00596   0.14866
  19   29233.4    342.1   0.079394211   0.89410  -0.83125  -0.35789   0.27392
  20   30082.7    332.4   0.007230960   0.07913  -0.18920   0.12918   0.16325
  21   30351.2    329.5   0.080584305   0.87408  -0.41860  -0.61471  -0.56655
  22   30840.3    324.3   0.011942575   0.12748  -0.04298  -0.14334  -0.32418
  23   31230.5    320.2   0.046051349   0.48544   0.48204   0.44029   0.24337
  24   31383.9    318.6   0.021809176   0.22877   0.03295   0.19353   0.43616
  25   31484.2    317.6   0.024686497   0.25813  -0.15508  -0.43793  -0.20567
  26   31951.6    313.0   0.075680670   0.77977   0.73683   0.32971  -0.35797
  27   32416.6    308.5   0.036848413   0.37422  -0.26355   0.30632   0.45927
  28   32482.0    307.9   0.062845622   0.63695   0.66849   0.40674   0.15699
  29   32736.5    305.5   0.073591812   0.74007  -0.74828  -0.41029  -0.10869
  30   33226.0    301.0   0.013963697   0.13836  -0.35894  -0.01471  -0.09646
  31   33387.3    299.5   0.003321845   0.03275   0.08545  -0.07612  -0.14021
  32   33705.4    296.7   0.075182838   0.73434   0.36043   0.42145   0.65330
  33   33871.4    295.2   0.079399186   0.77172   0.21831  -0.00142  -0.85092
  34   34024.1    293.9   0.010030142   0.09705  -0.26678   0.12639   0.09952
  35   34121.0    293.1   0.021391717   0.20640  -0.25541  -0.36544   0.08727
  36   34570.8    289.3   0.062919639   0.59917  -0.06785   0.47405   0.60815
  37   34916.8    286.4   0.004401424   0.04150  -0.01980   0.20022  -0.03194
  38   35605.1    280.9   0.083022992   0.76765  -0.10811   0.50703   0.70631
  39   35703.6    280.1   0.134240292   1.23779   0.60410   0.76133   0.54150
  40   35931.9    278.3   0.099617053   0.91270  -0.20192   0.49015   0.79478
  41   36073.9    277.2   0.019720922   0.17997  -0.04072   0.15828   0.39149
  42   36414.2    274.6   0.253895843   2.29541   0.38392   0.88446   1.16865
  43   36875.3    271.2   0.119047034   1.06282   0.21617   0.48229   0.88515
  44   37339.8    267.8   0.124824108   1.10053   0.47498   0.59188   0.72430
  45   37740.7    265.0   0.013269223   0.11575  -0.05771  -0.07484  -0.32683
  46   37826.4    264.4   0.058180321   0.50636   0.18723   0.57396   0.37665
  47   37964.9    263.4   0.024906815   0.21598  -0.30928   0.11471   0.32736
  48   38022.7    263.0   0.023435418   0.20291   0.34991   0.23791   0.15451
  49   38390.4    260.5   0.043845151   0.37599   0.17766  -0.12625  -0.57314
  50   38510.1    259.7   0.011226602   0.09597  -0.22720   0.09228  -0.18931
  51   38777.5    257.9   0.026580495   0.22566  -0.24222   0.02811   0.40768
  52   39462.0    253.4   0.001544835   0.01289   0.02715  -0.02377   0.10764
  53   39596.7    252.5   0.033743723   0.28055   0.01166   0.23639   0.47385
  54   39898.2    250.6   0.001087776   0.00898   0.01048   0.09215  -0.01935
  55   39981.5    250.1   0.002775896   0.02286   0.00894   0.02986  -0.14794
  56   40298.0    248.2   0.006205652   0.05070   0.15499   0.15411  -0.05410

FINAL SINGLE POINT ENERGY     -4711.538767334127

DIPOLE MOMENT
-------------
                                X             Y             Z
Electronic contribution:     45.63921       3.35730     -28.71343
Nuclear contribution   :    -47.74339      -3.08064      33.04080
                        -----------------------------------------
Total Dipole Moment    :     -2.10418       0.27666       4.32737
                        -----------------------------------------
Magnitude (a.u.)       :      4.81978
Magnitude (Debye)      :     12.25091

Rotational constants in cm-1:     0.001592     0.000637     0.000478
Rotational constants in MHz :    47.730840    19.088458    14.333090

                             ****ORCA TERMINATED NORMALLY****
TOTAL RUN TIME: 0 days 0 hours 10 minutes 5 seconds 976 msec
