                         Program Version 4.2.0 -  RELEASE  -
|  1> # ORCA input file
|  2> # SCF done       -185.145558975623          0.000344633464
|  3> ! CAM-B3LYP def2-SVP def2/J RIJCOSX Grid4 TightSCF
|  4> %maxcore 5000
|  5> %tddft
|  6>     Mode sTDDFT
|  7>     Ethresh 5.0
|  8>     maxcore 5000
|  9> end
| 10>
| 11> %pal
| 12>   nprocs 6
| 13>   end
| 14> * xyz 0 1
| 15>    C        0.12637         0.72485         2.96331
| 16>    S       -0.69929        -0.09558         1.72608
| 17>    C       -0.95261        -1.51861         2.71243
| 18>    C       -0.38925        -1.31031         3.99200
| 19>    C        0.22141        -0.02357         4.11896
| 20>    C        0.83473         0.34615         5.33062
| 21>    C        0.84954        -0.50130         6.41011
| 22>    O        1.47843        -0.00820         7.50480
| 23>    C        1.64746        -0.75548         8.69054
| 24>    C        0.20517        -1.78277         6.29727
| 25>    O        0.20398        -2.57326         7.39723
| 26>    C       -0.43581        -3.83201         7.35453
| 27>    C       -0.38663        -2.15606         5.11049
| 28>    C       -1.58951        -2.65923         2.19791
| 29>    S       -1.51048        -4.16945         3.04963
| 30>    C       -2.42635        -5.02812         1.84338
| 31>    C       -2.78946        -4.16998         0.79066
| 32>    C       -2.32128        -2.82736         0.99108
| 33>    C       -2.65955        -1.87341         0.03910
| 34>    C       -3.39717        -2.20618        -1.08640
| 35>    N       -3.69098        -1.14845        -1.98816
| 36>    O       -3.29036        -0.03199        -1.71644
| 37>    O       -4.33388        -1.39179        -3.00281
| 38>    C       -3.84451        -3.55005        -1.31105
| 39>    N       -4.54704        -3.91251        -2.39659
| 40>    C       -3.52434        -4.49884        -0.34354
| 41>    C       -2.70747        -6.37861         2.06410
| 42>    S       -3.65830        -7.40964         1.00888
| 43>    C       -3.54464        -8.83254         2.04103
| 44>    C       -2.76523        -8.49510         3.16372
| 45>    C       -2.32459        -7.14872         3.15201
| 46>    O       -1.59838        -6.86088         4.25044
| 47>    C       -1.56802        -8.01900         4.96775
| 48>    N       -0.87061        -8.00698         6.18420
| 49>    O       -0.85226        -9.04507         6.82427
| 50>    O       -0.33570        -6.96389         6.52233
| 51>    C       -2.25773        -9.04468         4.36022
| 52>    C       -4.17226       -10.03759         1.74817
| 53>    S       -4.02379       -11.38691         2.82772
| 54>    C       -5.03715       -12.42107         1.86079
| 55>    C       -5.51618       -11.72975         0.74191
| 56>    C       -5.01387       -10.38579         0.66013
| 57>    C       -5.39592        -9.58591        -0.40247
| 58>    C       -6.27514       -10.04693        -1.37181
| 59>    N       -6.60413        -9.14397        -2.40747
| 60>    O       -6.09068        -8.03462        -2.39511
| 61>    O       -7.39308        -9.49010        -3.28289
| 62>    C       -6.83190       -11.36483        -1.27757
| 63>    N       -7.69753       -11.83851        -2.19984
| 64>    C       -6.44627       -12.16231        -0.20929
| 65>    C       -5.24439       -13.76590         2.31757
| 66>    C       -5.24427       -14.04826         3.67693
| 67>    C       -5.41640       -15.33657         4.15801
| 68>    C       -5.60132       -16.43342         3.32821
| 69>    C       -5.59481       -16.18914         1.92466
| 70>    C       -5.37645       -14.87273         1.42768
| 71>    N       -5.21990       -14.67938         0.10744
| 72>    C       -5.36066       -15.67714        -0.72429
| 73>    C       -5.07494       -15.38586        -2.16693
| 74>    C       -3.63102       -15.75941        -2.50969
| 75>    C       -5.74896       -16.95981        -0.24096
| 76>    C       -6.10514       -18.07325        -1.18361
| 77>    C       -6.44375       -19.37905        -0.47867
| 78>    N       -5.82296       -17.18340         1.04427
| 79>    C       -5.78112       -17.73264         3.94827
| 80>    C       -5.84345       -18.91561         3.34409
| 81>    H        0.50074         1.71379         2.78933
| 82>    H        1.30347         1.31186         5.42572
| 83>    H        0.69167        -0.98520         9.16525
| 84>    H        2.23085        -0.10788         9.34502
| 85>    H        2.19624        -1.68198         8.51249
| 86>    H        0.02226        -4.50484         6.62672
| 87>    H       -1.50285        -3.72890         7.13926
| 88>    H       -0.30848        -4.25297         8.34973
| 89>    H       -0.86564        -3.11604         5.05464
| 90>    H       -2.37123        -0.84051         0.14711
| 91>    H       -4.79697        -3.21263        -3.08076
| 92>    H       -4.86718        -4.86143        -2.48631
| 93>    H       -3.86674        -5.50917        -0.49440
| 94>    H       -2.36343       -10.03823         4.74361
| 95>    H       -5.02814        -8.57940        -0.51034
| 96>    H       -8.00571       -11.22665        -2.94151
| 97>    H       -8.11246       -12.74182        -2.06504
| 98>    H       -6.87358       -13.14645        -0.12335
| 99>    H       -5.12399       -13.23587         4.37967
|100>    H       -5.41269       -15.48992         5.22790
|101>    H       -5.21037       -14.31509        -2.32713
|102>    H       -5.76359       -15.93348        -2.81208
|103>    H       -3.42517       -15.53981        -3.55422
|104>    H       -3.44746       -16.81752        -2.33589
|105>    H       -2.94423       -15.18657        -1.89151
|106>    H       -5.27460       -18.23316        -1.87567
|107>    H       -6.96341       -17.74613        -1.78005
|108>    H       -5.57513       -19.75616         0.05446
|109>    H       -6.75481       -20.12535        -1.20596
|110>    H       -7.24866       -19.22577         0.23494
|111>    H       -5.84892       -17.69037         5.03004
|112>    H       -5.77229       -19.00403         2.27695
|113>    H       -5.97085       -19.82120         3.91354
|114> *
|115>
|116>                          ****END OF INPUT****

CARTESIAN COORDINATES (ANGSTROEM)
---------------------------------
  C      0.126370    0.724850    2.963310
  S     -0.699290   -0.095580    1.726080
  C     -0.952610   -1.518610    2.712430
  C     -0.389250   -1.310310    3.992000
  C      0.221410   -0.023570    4.118960
  C      0.834730    0.346150    5.330620
  C      0.849540   -0.501300    6.410110
  O      1.478430   -0.008200    7.504800
  C      1.647460   -0.755480    8.690540
  C      0.205170   -1.782770    6.297270
  O      0.203980   -2.573260    7.397230
  C     -0.435810   -3.832010    7.354530
  C     -0.386630   -2.156060    5.110490
  C     -1.589510   -2.659230    2.197910
  S     -1.510480   -4.169450    3.049630
  C     -2.426350   -5.028120    1.843380
  C     -2.789460   -4.169980    0.790660
  C     -2.321280   -2.827360    0.991080
  C     -2.659550   -1.873410    0.039100
  C     -3.397170   -2.206180   -1.086400
  N     -3.690980   -1.148450   -1.988160
  O     -3.290360   -0.031990   -1.716440
  O     -4.333880   -1.391790   -3.002810
  C     -3.844510   -3.550050   -1.311050
  N     -4.547040   -3.912510   -2.396590
  C     -3.524340   -4.498840   -0.343540
  C     -2.707470   -6.378610    2.064100
  S     -3.658300   -7.409640    1.008880
  C     -3.544640   -8.832540    2.041030
  C     -2.765230   -8.495100    3.163720
  C     -2.324590   -7.148720    3.152010
  O     -1.598380   -6.860880    4.250440
  C     -1.568020   -8.019000    4.967750
  N     -0.870610   -8.006980    6.184200
  O     -0.852260   -9.045070    6.824270
  O     -0.335700   -6.963890    6.522330
  C     -2.257730   -9.044680    4.360220
  C     -4.172260  -10.037590    1.748170
  S     -4.023790  -11.386910    2.827720
  C     -5.037150  -12.421070    1.860790
  C     -5.516180  -11.729750    0.741910
  C     -5.013870  -10.385790    0.660130
  C     -5.395920   -9.585910   -0.402470
  C     -6.275140  -10.046930   -1.371810
  N     -6.604130   -9.143970   -2.407470
  O     -6.090680   -8.034620   -2.395110
  O     -7.393080   -9.490100   -3.282890
  C     -6.831900  -11.364830   -1.277570
  N     -7.697530  -11.838510   -2.199840
  C     -6.446270  -12.162310   -0.209290
  C     -5.244390  -13.765900    2.317570
  C     -5.244270  -14.048260    3.676930
  C     -5.416400  -15.336570    4.158010
  C     -5.601320  -16.433420    3.328210
  C     -5.594810  -16.189140    1.924660
  C     -5.376450  -14.872730    1.427680
  N     -5.219900  -14.679380    0.107440
  C     -5.360660  -15.677140   -0.724290
  C     -5.074940  -15.385860   -2.166930
  C     -3.631020  -15.759410   -2.509690
  C     -5.748960  -16.959810   -0.240960
  C     -6.105140  -18.073250   -1.183610
  C     -6.443750  -19.379050   -0.478670
  N     -5.822960  -17.183400    1.044270
  C     -5.781120  -17.732640    3.948270
  C     -5.843450  -18.915610    3.344090
  H      0.500740    1.713790    2.789330
  H      1.303470    1.311860    5.425720
  H      0.691670   -0.985200    9.165250
  H      2.230850   -0.107880    9.345020
  H      2.196240   -1.681980    8.512490
  H      0.022260   -4.504840    6.626720
  H     -1.502850   -3.728900    7.139260
  H     -0.308480   -4.252970    8.349730
  H     -0.865640   -3.116040    5.054640
  H     -2.371230   -0.840510    0.147110
  H     -4.796970   -3.212630   -3.080760
  H     -4.867180   -4.861430   -2.486310
  H     -3.866740   -5.509170   -0.494400
  H     -2.363430  -10.038230    4.743610
  H     -5.028140   -8.579400   -0.510340
  H     -8.005710  -11.226650   -2.941510
  H     -8.112460  -12.741820   -2.065040
  H     -6.873580  -13.146450   -0.123350
  H     -5.123990  -13.235870    4.379670
  H     -5.412690  -15.489920    5.227900
  H     -5.210370  -14.315090   -2.327130
  H     -5.763590  -15.933480   -2.812080
  H     -3.425170  -15.539810   -3.554220
  H     -3.447460  -16.817520   -2.335890
  H     -2.944230  -15.186570   -1.891510
  H     -5.274600  -18.233160   -1.875670
  H     -6.963410  -17.746130   -1.780050
  H     -5.575130  -19.756160    0.054460
  H     -6.754810  -20.125350   -1.205960
  H     -7.248660  -19.225770    0.234940
  H     -5.848920  -17.690370    5.030040
  H     -5.772290  -19.004030    2.276950
  H     -5.970850  -19.821200    3.913540

 Total Charge           Charge          ....    0
 Multiplicity           Mult            ....    1
 Number of Electrons    NEL             ....  494
 Basis Dimension        Dim             .... 1105

ORBITAL ENERGIES
----------------

  NO   OCC          E(Eh)            E(eV)
   0   2.0000     -88.978241     -2421.2210
   1   2.0000     -88.973550     -2421.0934
   2   2.0000     -88.972825     -2421.0737
   3   2.0000     -88.968489     -2420.9557
   4   2.0000     -19.318320      -525.6782
   5   2.0000     -19.256602      -523.9988
   6   2.0000     -19.250645      -523.8367
   7   2.0000     -19.249719      -523.8115
   8   2.0000     -19.240483      -523.5602
   9   2.0000     -19.237596      -523.4816
  10   2.0000     -19.237402      -523.4763
  11   2.0000     -19.234100      -523.3865
  12   2.0000     -19.233553      -523.3716
  13   2.0000     -14.662550      -398.9883
  14   2.0000     -14.644110      -398.4865
  15   2.0000     -14.643380      -398.4666
  16   2.0000     -14.422272      -392.4500
  17   2.0000     -14.413560      -392.2129
  18   2.0000     -14.410193      -392.1213
  19   2.0000     -14.409648      -392.1064
  20   2.0000     -10.392499      -282.7943
  21   2.0000     -10.350060      -281.6394
  22   2.0000     -10.348661      -281.6014
  23   2.0000     -10.340769      -281.3866
  24   2.0000     -10.339611      -281.3551
  25   2.0000     -10.333736      -281.1953
  26   2.0000     -10.329216      -281.0722
  27   2.0000     -10.328821      -281.0615
  28   2.0000     -10.323639      -280.9205
  29   2.0000     -10.323339      -280.9123
  30   2.0000     -10.322340      -280.8851
  31   2.0000     -10.320186      -280.8265
  32   2.0000     -10.319531      -280.8087
  33   2.0000     -10.319240      -280.8008
  34   2.0000     -10.316139      -280.7164
  35   2.0000     -10.313073      -280.6330
  36   2.0000     -10.312843      -280.6267
  37   2.0000     -10.311264      -280.5838
  38   2.0000     -10.307134      -280.4714
  39   2.0000     -10.306816      -280.4627
  40   2.0000     -10.306317      -280.4491
  41   2.0000     -10.305137      -280.4170
  42   2.0000     -10.303967      -280.3852
  43   2.0000     -10.303467      -280.3716
  44   2.0000     -10.296437      -280.1803
  45   2.0000     -10.296078      -280.1705
  46   2.0000     -10.294959      -280.1401
  47   2.0000     -10.291817      -280.0546
  48   2.0000     -10.291660      -280.0503
  49   2.0000     -10.287802      -279.9453
  50   2.0000     -10.285206      -279.8747
  51   2.0000     -10.284838      -279.8647
  52   2.0000     -10.284786      -279.8633
  53   2.0000     -10.276102      -279.6270
  54   2.0000     -10.274781      -279.5910
  55   2.0000     -10.273798      -279.5642
  56   2.0000     -10.273758      -279.5632
  57   2.0000     -10.272719      -279.5349
  58   2.0000     -10.270032      -279.4618
  59   2.0000     -10.269754      -279.4542
  60   2.0000     -10.268525      -279.4208
  61   2.0000     -10.262046      -279.2445
  62   2.0000     -10.261467      -279.2287
  63   2.0000     -10.256681      -279.0985
  64   2.0000     -10.253609      -279.0149
  65   2.0000     -10.246665      -278.8259
  66   2.0000      -8.071311      -219.6315
  67   2.0000      -8.067751      -219.5347
  68   2.0000      -8.067522      -219.5284
  69   2.0000      -8.063013      -219.4057
  70   2.0000      -6.041057      -164.3855
  71   2.0000      -6.037153      -164.2793
  72   2.0000      -6.036828      -164.2704
  73   2.0000      -6.036692      -164.2667
  74   2.0000      -6.032943      -164.1647
  75   2.0000      -6.032689      -164.1578
  76   2.0000      -6.032262      -164.1462
  77   2.0000      -6.032231      -164.1454
  78   2.0000      -6.030336      -164.0938
  79   2.0000      -6.030062      -164.0863
  80   2.0000      -6.027984      -164.0298
  81   2.0000      -6.025625      -163.9656
  82   2.0000      -1.331100       -36.2211
  83   2.0000      -1.314649       -35.7734
  84   2.0000      -1.311563       -35.6894
  85   2.0000      -1.236906       -33.6579
  86   2.0000      -1.165026       -31.7020
  87   2.0000      -1.146869       -31.2079
  88   2.0000      -1.138823       -30.9890
  89   2.0000      -1.131690       -30.7949
  90   2.0000      -1.128284       -30.7022
  91   2.0000      -1.072993       -29.1976
  92   2.0000      -1.028501       -27.9869
  93   2.0000      -1.019925       -27.7536
  94   2.0000      -1.012303       -27.5462
  95   2.0000      -1.005177       -27.3523
  96   2.0000      -0.996682       -27.1211
  97   2.0000      -0.991256       -26.9734
  98   2.0000      -0.981543       -26.7092
  99   2.0000      -0.952645       -25.9228
 100   2.0000      -0.947774       -25.7902
 101   2.0000      -0.940137       -25.5824
 102   2.0000      -0.936946       -25.4956
 103   2.0000      -0.930569       -25.3221
 104   2.0000      -0.904796       -24.6207
 105   2.0000      -0.896527       -24.3957
 106   2.0000      -0.891869       -24.2690
 107   2.0000      -0.890784       -24.2395
 108   2.0000      -0.883790       -24.0491
 109   2.0000      -0.877183       -23.8694
 110   2.0000      -0.862382       -23.4666
 111   2.0000      -0.856794       -23.3145
 112   2.0000      -0.851990       -23.1838
 113   2.0000      -0.844135       -22.9701
 114   2.0000      -0.831206       -22.6183
 115   2.0000      -0.826063       -22.4783
 116   2.0000      -0.822098       -22.3704
 117   2.0000      -0.815087       -22.1796
 118   2.0000      -0.803159       -21.8551
 119   2.0000      -0.799444       -21.7540
 120   2.0000      -0.788795       -21.4642
 121   2.0000      -0.781816       -21.2743
 122   2.0000      -0.774281       -21.0693
 123   2.0000      -0.767054       -20.8726
 124   2.0000      -0.758491       -20.6396
 125   2.0000      -0.750847       -20.4316
 126   2.0000      -0.741874       -20.1874
 127   2.0000      -0.725072       -19.7302
 128   2.0000      -0.720168       -19.5968
 129   2.0000      -0.717700       -19.5296
 130   2.0000      -0.710560       -19.3353
 131   2.0000      -0.701562       -19.0905
 132   2.0000      -0.696309       -18.9475
 133   2.0000      -0.691080       -18.8053
 134   2.0000      -0.689862       -18.7721
 135   2.0000      -0.681156       -18.5352
 136   2.0000      -0.672427       -18.2977
 137   2.0000      -0.664490       -18.0817
 138   2.0000      -0.662051       -18.0153
 139   2.0000      -0.658040       -17.9062
 140   2.0000      -0.649389       -17.6708
 141   2.0000      -0.646857       -17.6019
 142   2.0000      -0.645592       -17.5675
 143   2.0000      -0.641794       -17.4641
 144   2.0000      -0.634797       -17.2737
 145   2.0000      -0.628257       -17.0958
 146   2.0000      -0.624844       -17.0029
 147   2.0000      -0.622958       -16.9515
 148   2.0000      -0.621744       -16.9185
 149   2.0000      -0.617643       -16.8069
 150   2.0000      -0.615685       -16.7536
 151   2.0000      -0.609859       -16.5951
 152   2.0000      -0.606458       -16.5026
 153   2.0000      -0.602540       -16.3959
 154   2.0000      -0.600214       -16.3326
 155   2.0000      -0.597555       -16.2603
 156   2.0000      -0.595184       -16.1958
 157   2.0000      -0.591908       -16.1066
 158   2.0000      -0.586746       -15.9662
 159   2.0000      -0.585833       -15.9413
 160   2.0000      -0.581093       -15.8123
 161   2.0000      -0.573843       -15.6151
 162   2.0000      -0.572534       -15.5795
 163   2.0000      -0.564424       -15.3587
 164   2.0000      -0.562005       -15.2929
 165   2.0000      -0.557285       -15.1645
 166   2.0000      -0.554607       -15.0916
 167   2.0000      -0.550968       -14.9926
 168   2.0000      -0.542577       -14.7643
 169   2.0000      -0.537260       -14.6196
 170   2.0000      -0.536492       -14.5987
 171   2.0000      -0.533884       -14.5277
 172   2.0000      -0.532855       -14.4997
 173   2.0000      -0.529550       -14.4098
 174   2.0000      -0.528395       -14.3784
 175   2.0000      -0.525081       -14.2882
 176   2.0000      -0.524252       -14.2656
 177   2.0000      -0.518993       -14.1225
 178   2.0000      -0.518514       -14.1095
 179   2.0000      -0.517752       -14.0888
 180   2.0000      -0.515989       -14.0408
 181   2.0000      -0.514016       -13.9871
 182   2.0000      -0.510497       -13.8913
 183   2.0000      -0.506552       -13.7840
 184   2.0000      -0.505003       -13.7418
 185   2.0000      -0.502521       -13.6743
 186   2.0000      -0.497992       -13.5510
 187   2.0000      -0.495576       -13.4853
 188   2.0000      -0.493197       -13.4206
 189   2.0000      -0.491595       -13.3770
 190   2.0000      -0.483917       -13.1681
 191   2.0000      -0.476585       -12.9685
 192   2.0000      -0.473644       -12.8885
 193   2.0000      -0.465879       -12.6772
 194   2.0000      -0.464187       -12.6312
 195   2.0000      -0.461182       -12.5494
 196   2.0000      -0.457566       -12.4510
 197   2.0000      -0.455959       -12.4073
 198   2.0000      -0.453949       -12.3526
 199   2.0000      -0.450104       -12.2479
 200   2.0000      -0.447482       -12.1766
 201   2.0000      -0.445215       -12.1149
 202   2.0000      -0.444111       -12.0849
 203   2.0000      -0.439020       -11.9463
 204   2.0000      -0.437435       -11.9032
 205   2.0000      -0.434894       -11.8341
 206   2.0000      -0.431084       -11.7304
 207   2.0000      -0.429937       -11.6992
 208   2.0000      -0.424768       -11.5585
 209   2.0000      -0.421877       -11.4799
 210   2.0000      -0.419688       -11.4203
 211   2.0000      -0.419342       -11.4109
 212   2.0000      -0.418801       -11.3962
 213   2.0000      -0.415959       -11.3188
 214   2.0000      -0.415489       -11.3060
 215   2.0000      -0.412254       -11.2180
 216   2.0000      -0.409497       -11.1430
 217   2.0000      -0.407555       -11.0901
 218   2.0000      -0.397010       -10.8032
 219   2.0000      -0.391498       -10.6532
 220   2.0000      -0.388438       -10.5699
 221   2.0000      -0.388052       -10.5594
 222   2.0000      -0.385960       -10.5025
 223   2.0000      -0.384482       -10.4623
 224   2.0000      -0.383667       -10.4401
 225   2.0000      -0.378591       -10.3020
 226   2.0000      -0.378378       -10.2962
 227   2.0000      -0.374852       -10.2002
 228   2.0000      -0.374306       -10.1854
 229   2.0000      -0.371816       -10.1176
 230   2.0000      -0.370120       -10.0715
 231   2.0000      -0.362790        -9.8720
 232   2.0000      -0.362184        -9.8555
 233   2.0000      -0.360803        -9.8180
 234   2.0000      -0.346089        -9.4176
 235   2.0000      -0.341997        -9.3062
 236   2.0000      -0.330928        -9.0050
 237   2.0000      -0.322001        -8.7621
 238   2.0000      -0.312060        -8.4916
 239   2.0000      -0.311152        -8.4669
 240   2.0000      -0.304834        -8.2950
 241   2.0000      -0.288970        -7.8633
 242   2.0000      -0.282341        -7.6829
 243   2.0000      -0.278305        -7.5731
 244   2.0000      -0.266868        -7.2619
 245   2.0000      -0.241646        -6.5755
 246   2.0000      -0.199418        -5.4264
 247   0.0000      -0.101106        -2.7512
 248   0.0000      -0.075578        -2.0566
 249   0.0000      -0.053251        -1.4490
 250   0.0000      -0.043809        -1.1921
 251   0.0000      -0.030709        -0.8356

MULLIKEN ATOMIC CHARGES
-----------------------
   0 C :   -0.098352
   1 S :    0.148080
   2 C :   -0.147753
   3 C :    0.157803
   4 C :    0.107083
   5 C :   -0.092428
   6 C :    0.173690
   7 O :   -0.308877
   8 C :    0.204523
   9 C :    0.190346
  10 O :   -0.320561
  11 C :    0.174837
  12 C :   -0.182026
  13 C :   -0.054362
  14 S :    0.136710
  15 C :   -0.102513
  16 C :    0.157331
  17 C :    0.106674
  18 C :   -0.122436
  19 C :    0.119932
  20 N :    0.268356
  21 O :   -0.240722
  22 O :   -0.277965
  23 C :   -0.029132
  24 N :    0.016237
  25 C :   -0.168709
  26 C :   -0.109531
  27 S :    0.071594
  28 C :   -0.099160
  29 C :    0.101072
  30 C :    0.141152
  31 O :   -0.194283
  32 C :    0.235325
  33 N :    0.285495
  34 O :   -0.246244
  35 O :   -0.251758
  36 C :   -0.100333
  37 C :   -0.061077
  38 S :    0.129050
  39 C :   -0.174579
  40 C :    0.202283
  41 C :    0.095336
  42 C :   -0.132336
  43 C :    0.131313
  44 N :    0.277797
  45 O :   -0.264730
  46 O :   -0.280953
  47 C :   -0.046636
  48 N :   -0.006896
  49 C :   -0.114113
  50 C :    0.107281
  51 C :   -0.058842
  52 C :   -0.040783
  53 C :    0.096949
  54 C :   -0.026713
  55 C :   -0.059599
  56 N :    0.004520
  57 C :   -0.163331
  58 C :    0.108780
  59 C :    0.002739
  60 C :   -0.125172
  61 C :    0.022990
  62 C :    0.056881
  63 N :   -0.006212
  64 C :   -0.047340
  65 C :    0.012609
  66 H :    0.025863
  67 H :   -0.028195
  68 H :    0.020767
  69 H :    0.026698
  70 H :    0.021036
  71 H :    0.049219
  72 H :    0.024851
  73 H :    0.037770
  74 H :   -0.019677
  75 H :    0.012170
  76 H :    0.134764
  77 H :    0.126120
  78 H :   -0.042728
  79 H :    0.019115
  80 H :    0.004607
  81 H :    0.128179
  82 H :    0.106647
  83 H :   -0.063796
  84 H :   -0.020199
  85 H :   -0.023034
  86 H :    0.016866
  87 H :   -0.000784
  88 H :    0.023610
  89 H :    0.009890
  90 H :    0.026455
  91 H :    0.017456
  92 H :    0.024272
  93 H :    0.028568
  94 H :    0.001646
  95 H :    0.025372
  96 H :   -0.026284
  97 H :    0.015518
  98 H :    0.008924
Sum of atomic charges:   -0.0000000

LOEWDIN ATOMIC CHARGES
----------------------
   0 C :   -0.174851
   1 S :    0.501627
   2 C :   -0.215370
   3 C :   -0.034520
   4 C :   -0.054581
   5 C :   -0.040169
   6 C :    0.044005
   7 O :   -0.102606
   8 C :    0.077401
   9 C :    0.051334
  10 O :   -0.087552
  11 C :    0.078639
  12 C :   -0.091997
  13 C :   -0.140442
  14 S :    0.504626
  15 C :   -0.233035
  16 C :   -0.013886
  17 C :   -0.081840
  18 C :    0.033429
  19 C :   -0.074066
  20 N :    0.294926
  21 O :   -0.209915
  22 O :   -0.223201
  23 C :    0.055125
  24 N :    0.021236
  25 C :   -0.099441
  26 C :   -0.190816
  27 S :    0.479292
  28 C :   -0.202263
  29 C :   -0.074743
  30 C :   -0.001348
  31 O :   -0.000600
  32 C :    0.020761
  33 N :    0.277532
  34 O :   -0.207377
  35 O :   -0.212067
  36 C :   -0.008366
  37 C :   -0.166272
  38 S :    0.480134
  39 C :   -0.192348
  40 C :   -0.011497
  41 C :   -0.074281
  42 C :    0.019657
  43 C :   -0.072469
  44 N :    0.298774
  45 O :   -0.233482
  46 O :   -0.225970
  47 C :    0.036946
  48 N :   -0.001877
  49 C :   -0.073753
  50 C :   -0.041502
  51 C :   -0.032823
  52 C :   -0.012894
  53 C :   -0.026106
  54 C :   -0.002381
  55 C :   -0.012816
  56 N :   -0.033803
  57 C :   -0.002489
  58 C :   -0.038298
  59 C :   -0.046175
  60 C :    0.002313
  61 C :   -0.044254
  62 C :   -0.048851
  63 N :   -0.038775
  64 C :   -0.031386
  65 C :   -0.034641
  66 H :    0.028778
  67 H :    0.035734
  68 H :    0.013766
  69 H :    0.022176
  70 H :    0.014542
  71 H :    0.021478
  72 H :    0.018039
  73 H :    0.031729
  74 H :    0.011879
  75 H :    0.022475
  76 H :    0.064976
  77 H :    0.084744
  78 H :    0.012112
  79 H :    0.041187
  80 H :    0.016526
  81 H :    0.059405
  82 H :    0.073184
  83 H :    0.022052
  84 H :    0.021096
  85 H :    0.029691
  86 H :    0.036689
  87 H :    0.024127
  88 H :    0.027555
  89 H :    0.019999
  90 H :    0.029519
  91 H :    0.033246
  92 H :    0.035544
  93 H :    0.026966
  94 H :    0.023726
  95 H :    0.028771
  96 H :    0.025535
  97 H :    0.019432
  98 H :    0.019759

  Mayer bond orders larger than 0.100000
B(  0-C ,  1-S ) :   1.2103 B(  0-C ,  4-C ) :   1.3993 B(  0-C , 66-H ) :   0.9692
B(  1-S ,  2-C ) :   1.1311 B(  2-C ,  3-C ) :   1.3069 B(  2-C , 13-C ) :   1.2627
B(  3-C ,  4-C ) :   1.2115 B(  3-C , 12-C ) :   1.1664 B(  4-C ,  5-C ) :   1.1353
B(  5-C ,  6-C ) :   1.5370 B(  5-C , 67-H ) :   1.0125 B(  6-C ,  7-O ) :   1.1754
B(  6-C ,  9-C ) :   1.1561 B(  7-O ,  8-C ) :   0.9369 B(  8-C , 68-H ) :   0.9751
B(  8-C , 69-H ) :   0.9775 B(  8-C , 70-H ) :   0.9754 B(  9-C , 10-O ) :   1.1617
B(  9-C , 12-C ) :   1.4514 B( 10-O , 11-C ) :   0.9346 B( 11-C , 71-H ) :   0.9641
B( 11-C , 72-H ) :   0.9666 B( 11-C , 73-H ) :   0.9746 B( 12-C , 74-H ) :   0.9681
B( 13-C , 14-S ) :   1.1826 B( 13-C , 17-C ) :   1.2555 B( 14-S , 15-C ) :   1.0728
B( 15-C , 16-C ) :   1.2984 B( 15-C , 26-C ) :   1.2667 B( 16-C , 17-C ) :   1.1693
B( 16-C , 25-C ) :   1.2516 B( 17-C , 18-C ) :   1.1874 B( 18-C , 19-C ) :   1.4684
B( 18-C , 75-H ) :   0.9661 B( 19-C , 20-N ) :   0.9308 B( 19-C , 23-C ) :   1.1620
B( 20-N , 21-O ) :   1.5553 B( 20-N , 22-O ) :   1.4699 B( 21-O , 22-O ) :   0.2429
B( 23-C , 24-N ) :   1.4312 B( 23-C , 25-C ) :   1.3655 B( 24-N , 76-H ) :   0.9013
B( 24-N , 77-H ) :   0.9167 B( 25-C , 78-H ) :   0.9828 B( 26-C , 27-S ) :   1.1022
B( 26-C , 30-C ) :   1.3909 B( 27-S , 28-C ) :   1.0841 B( 28-C , 29-C ) :   1.2894
B( 28-C , 37-C ) :   1.3084 B( 29-C , 30-C ) :   1.2636 B( 29-C , 36-C ) :   1.1144
B( 30-C , 31-O ) :   1.1023 B( 31-O , 32-C ) :   1.1264 B( 32-C , 33-N ) :   0.9378
B( 32-C , 36-C ) :   1.5233 B( 33-N , 34-O ) :   1.5297 B( 33-N , 35-O ) :   1.4690
B( 34-O , 35-O ) :   0.2706 B( 36-C , 79-H ) :   1.0180 B( 37-C , 38-S ) :   1.1718
B( 37-C , 39-C ) :   0.1047 B( 37-C , 41-C ) :   1.2489 B( 38-S , 39-C ) :   1.1024
B( 39-C , 40-C ) :   1.3718 B( 39-C , 50-C ) :   1.0566 B( 40-C , 41-C ) :   1.1565
B( 40-C , 49-C ) :   1.2343 B( 41-C , 42-C ) :   1.2044 B( 42-C , 43-C ) :   1.4483
B( 42-C , 80-H ) :   0.9687 B( 43-C , 44-N ) :   0.9497 B( 43-C , 47-C ) :   1.1677
B( 44-N , 45-O ) :   1.5291 B( 44-N , 46-O ) :   1.4662 B( 45-O , 46-O ) :   0.2350
B( 47-C , 48-N ) :   1.3727 B( 47-C , 49-C ) :   1.4015 B( 48-N , 81-H ) :   0.9025
B( 48-N , 82-H ) :   0.9264 B( 49-C , 83-H ) :   0.9825 B( 50-C , 51-C ) :   1.4000
B( 50-C , 53-C ) :   0.1077 B( 50-C , 55-C ) :   1.2287 B( 51-C , 52-C ) :   1.2761
B( 51-C , 84-H ) :   0.9899 B( 52-C , 53-C ) :   1.3990 B( 52-C , 85-H ) :   0.9978
B( 53-C , 54-C ) :   1.2015 B( 53-C , 64-C ) :   1.0943 B( 54-C , 55-C ) :   1.2481
B( 54-C , 63-N ) :   1.4171 B( 55-C , 56-N ) :   1.4560 B( 56-N , 57-C ) :   1.6654
B( 57-C , 58-C ) :   1.0676 B( 57-C , 60-C ) :   1.1830 B( 58-C , 59-C ) :   1.1070
B( 58-C , 86-H ) :   0.9147 B( 58-C , 87-H ) :   0.9149 B( 59-C , 88-H ) :   0.9696
B( 59-C , 89-H ) :   0.9705 B( 59-C , 90-H ) :   0.9650 B( 60-C , 61-C ) :   1.0315
B( 60-C , 63-N ) :   1.7002 B( 61-C , 62-C ) :   1.1355 B( 61-C , 91-H ) :   0.9132
B( 61-C , 92-H ) :   0.9224 B( 62-C , 93-H ) :   0.9612 B( 62-C , 94-H ) :   0.9527
B( 62-C , 95-H ) :   0.9603 B( 64-C , 65-C ) :   1.9399 B( 64-C , 96-H ) :   0.9615
B( 65-C , 97-H ) :   0.9251 B( 65-C , 98-H ) :   0.9424

-----------------------------------------------------------------------------
         ABSORPTION SPECTRUM VIA TRANSITION ELECTRIC DIPOLE MOMENTS
-----------------------------------------------------------------------------
State   Energy  Wavelength   fosc         T2         TX        TY        TZ
        (cm-1)    (nm)                  (au**2)     (au)      (au)      (au)
-----------------------------------------------------------------------------
   0    7233.5   1382.5   0.596449877  27.14558  -2.03485  -4.71052  -0.90328
   1   12497.1    800.2   0.095659198   2.51995  -0.68792  -1.24605  -0.70292
   2   15254.0    655.6   0.009469539   0.20437   0.30875   0.31086   0.11139
   3   15859.4    630.5   0.022504578   0.46715   0.14454   0.66710  -0.03517
   4   18514.7    540.1   0.418261512   7.43717  -0.18218  -2.60015   0.80199
   5   20825.3    480.2   0.149886513   2.36945   0.83310   0.42119   1.22393
   6   21334.4    468.7   0.097849058   1.50991  -0.43842  -1.14143  -0.12180
   7   23010.5    434.6   0.139867571   2.00109  -0.79012  -0.33198  -1.12543
   8   23483.9    425.8   0.062715987   0.87919   0.34084  -0.56197   0.66873
   9   25166.6    397.4   0.184237049   2.41006  -0.49093   0.43656  -1.40658
  10   25341.1    394.6   0.183875947   2.38878  -0.13057   1.32082  -0.79194
  11   25564.8    391.2   0.027638520   0.35592  -0.03030   0.26563  -0.53333
  12   25996.1    384.7   0.242612282   3.07242   0.71540  -0.62638   1.47250
  13   26821.1    372.8   0.005690451   0.06985   0.19209  -0.01659   0.18075
  14   28381.9    352.3   0.033931200   0.39358   0.24179   0.53313   0.22560
  15   28534.0    350.5   0.011761175   0.13569   0.26271  -0.00135   0.25822
  16   29376.9    340.4   0.013126194   0.14710   0.13262   0.16474   0.31995
  17   29463.4    339.4   0.023424069   0.26173  -0.29118   0.28079  -0.31321
  18   29691.6    336.8   0.035999056   0.39915  -0.04921  -0.43066   0.45963
  19   30522.5    327.6   0.222284933   2.39754  -0.60580   0.40721  -1.36555
  20   31113.1    321.4   0.017279120   0.18283   0.07361  -0.36260   0.21433
  21   31547.2    317.0   0.005043109   0.05263   0.16354   0.12041   0.10670
  22   32078.8    311.7   0.188781755   1.93739   0.02249   1.31496  -0.45581
  23   32179.2    310.8   0.097818856   1.00074   0.45457   0.83287   0.31691
  24   32538.5    307.3   0.077475264   0.78387  -0.14649   0.01830  -0.87297
  25   33153.8    301.6   0.027401974   0.27210   0.31564  -0.11592   0.39879
  26   33192.7    301.3   0.035395860   0.35106  -0.35777  -0.45849  -0.11335
  27   33507.8    298.4   0.036917864   0.36272  -0.50340   0.05972  -0.32517
  28   33766.8    296.1   0.435065741   4.24171   0.67340  -1.07463   1.62278
  29   34239.3    292.1   0.005826488   0.05602  -0.11016   0.06701  -0.19848
  30   34620.6    288.8   0.006242115   0.05936  -0.10081  -0.20770  -0.07783
  31   34910.1    286.5   0.022214506   0.20949  -0.21426  -0.39057   0.10505
  32   35225.0    283.9   0.052692205   0.49246   0.26108  -0.45418   0.46693
  33   35698.0    280.1   0.000628138   0.00579   0.03698   0.05730  -0.03379
  34   36152.6    276.6   0.200436220   1.82521   0.45604  -0.69276   1.06645
  35   36385.9    274.8   0.166276731   1.50444   0.28137   1.19384   0.00451
  36   36518.3    273.8   0.007468272   0.06733   0.04571  -0.16475   0.19517
  37   36928.8    270.8   0.012248657   0.10919   0.07751  -0.28873   0.14079
  38   37373.7    267.6   0.044925314   0.39573   0.16391   0.36766   0.48342
  39   37643.6    265.6   0.002719123   0.02378  -0.14989  -0.03479   0.01016
  40   37780.5    264.7   0.018456257   0.16082   0.00333   0.37356   0.14583
  41   37951.5    263.5   0.070430204   0.61095   0.01328  -0.18330  -0.75972
  42   38231.0    261.6   0.078280151   0.67408   0.54676  -0.04402   0.61090
  43   38319.8    261.0   0.018089971   0.15541  -0.02800  -0.20110   0.33792
  44   38712.5    258.3   0.008717469   0.07413   0.00528  -0.22230   0.15712
  45   38929.2    256.9   0.186979043   1.58122  -0.42770  -0.14371  -1.17373
  46   39060.6    256.0   0.190526962   1.60580   0.34599  -0.52420   1.10060
  47   39760.8    251.5   0.017837943   0.14769   0.26425  -0.04998   0.27453
  48   39997.9    250.0   0.018665102   0.15363   0.22408  -0.08748   0.30945
  49   40175.6    248.9   0.258029197   2.11438   0.65653  -0.16491   1.28691

FINAL SINGLE POINT ENERGY     -4421.533003965340

DIPOLE MOMENT
-------------
                                X             Y             Z
Electronic contribution:     12.59599      76.47330       3.67554
Nuclear contribution   :    -12.67316     -77.95266      -3.03807
                        -----------------------------------------
Total Dipole Moment    :     -0.07718      -1.47935       0.63747
                        -----------------------------------------
Magnitude (a.u.)       :      1.61270
Magnitude (Debye)      :      4.09917

Rotational constants in cm-1:     0.001721     0.000452     0.000365
Rotational constants in MHz :    51.587242    13.540437    10.952842

                             ****ORCA TERMINATED NORMALLY****
TOTAL RUN TIME: 0 days 0 hours 9 minutes 6 seconds 646 msec
