                         Program Version 4.2.0 -  RELEASE  -
|  1> # ORCA input file
|  2> # SCF done       -168.308407331782          0.000414795024
|  3> ! CAM-B3LYP def2-SVP def2/J RIJCOSX Grid4 TightSCF
|  4> %maxcore 5000
|  5> %tddft
|  6>     Mode sTDDFT
|  7>     Ethresh 5.0
|  8>     maxcore 5000
|  9> end
| 10>
| 11> %pal
| 12>   nprocs 6
| 13>   end
| 14> * xyz 0 1
| 15>    C        5.33991         0.47846         8.98118
| 16>    S        5.21787        -0.93227         8.02335
| 17>    C        4.63046        -1.88291         9.36502
| 18>    C        4.54091        -1.07841        10.52180
| 19>    C        4.95063         0.26774        10.28794
| 20>    C        4.92436         1.20971        11.34415
| 21>    C        4.50136         0.82419        12.58385
| 22>    O        4.42662         1.62431        13.67872
| 23>    C        4.81314         2.96875        13.54545
| 24>    C        4.08358        -0.53302        12.81861
| 25>    O        3.68384        -0.77769        14.09274
| 26>    C        3.24478        -2.07154        14.42015
| 27>    C        4.10835        -1.45526        11.80428
| 28>    C        4.31400        -3.23533         9.26212
| 29>    C        4.38021        -4.04979         8.14947
| 30>    C        4.04710        -5.41934         8.11881
| 31>    C        4.18975        -6.00582         6.89086
| 32>    C        4.64046        -5.12724         5.89346
| 33>    S        4.88769        -3.52739         6.55519
| 34>    C        4.87125        -5.41078         4.54928
| 35>    C        4.70704        -6.63553         3.88929
| 36>    C        5.00373        -6.58272         2.55067
| 37>    C        5.41326        -5.31852         2.10101
| 38>    S        5.42203        -4.18394         3.42991
| 39>    C        5.75096        -4.99986         0.78915
| 40>    C        6.15470        -3.78197         0.28883
| 41>    S        6.35726        -2.35702         1.26842
| 42>    C        6.93142        -1.37902        -0.07824
| 43>    C        6.85020        -2.13356        -1.28532
| 44>    C        6.45225        -3.47772        -1.07522
| 45>    C        6.33940        -4.35393        -2.15835
| 46>    C        6.57049        -3.91102        -3.44192
| 47>    C        6.46063        -4.83181        -4.61753
| 48>    C        6.88644        -2.55979        -3.64776
| 49>    C        7.01890        -1.68425        -2.60003
| 50>    C        7.35891        -0.10703         0.25420
| 51>    C        8.14094         0.84150        -0.39949
| 52>    C        8.43131         2.10694         0.14156
| 53>    C        9.29645         2.86676        -0.60271
| 54>    C        9.74523         2.22716        -1.76670
| 55>    S        9.03045         0.63650        -1.89303
| 56>    C       10.61270         2.70491        -2.74149
| 57>    C       11.25629         3.95289        -2.80145
| 58>    C       12.03902         4.11754        -3.90787
| 59>    C       12.06448         3.00818        -4.78959
| 60>    S       11.04158         1.73747        -4.13371
| 61>    C       12.77168         2.97202        -5.96501
| 62>    C       12.89409         1.94901        -6.93745
| 63>    C       12.33109         0.67523        -6.85366
| 64>    C       12.50042        -0.27400        -7.84774
| 65>    C       13.23382        -0.02600        -8.99957
| 66>    C       13.82194         1.26484        -9.13153
| 67>    C       13.66337         2.23890        -8.11367
| 68>    N       14.22974         3.44815        -8.25091
| 69>    C       14.92521         3.71927        -9.33089
| 70>    C       15.47955         5.11145        -9.42155
| 71>    C       14.47978         6.03439       -10.12233
| 72>    C       15.08045         2.74712       -10.35231
| 73>    C       15.89679         2.97304       -11.59203
| 74>    C       17.35576         2.58464       -11.34193
| 75>    N       14.53721         1.56041       -10.23347
| 76>    C       13.43631        -0.98941       -10.06098
| 77>    C       13.00262        -2.24792       -10.08527
| 78>    H        5.68970         1.38970         8.53894
| 79>    H        5.24226         2.21857        11.13846
| 80>    H        5.86582         3.05754        13.25703
| 81>    H        4.66919         3.41504        14.52786
| 82>    H        4.19197         3.49499        12.81311
| 83>    H        2.37049        -2.36187        13.82778
| 84>    H        2.96914        -2.03098        15.47259
| 85>    H        4.03876        -2.81331        14.28228
| 86>    H        3.79741        -2.47230        11.97698
| 87>    H        3.97089        -3.71461        10.16990
| 88>    H        3.71112        -5.93563         9.00109
| 89>    H        3.97924        -7.04079         6.68972
| 90>    H        4.37720        -7.52347         4.39774
| 91>    H        4.93391        -7.42399         1.88333
| 92>    H        5.68244        -5.81848         0.08485
| 93>    H        6.05423        -5.38171        -1.98993
| 94>    H        6.22024        -5.84391        -4.30216
| 95>    H        7.39975        -4.85143        -5.16910
| 96>    H        5.68399        -4.48498        -5.29848
| 97>    H        7.02193        -2.20333        -4.65826
| 98>    H        7.22496        -0.64696        -2.79578
| 99>    H        7.09579         0.19125         1.26470
|100>    H        7.99016         2.43357         1.06720
|101>    H        9.61348         3.85826        -0.33380
|102>    H       11.12655         4.69750        -2.03635
|103>    H       12.60308         5.00796        -4.12286
|104>    H       13.32369         3.87225        -6.20511
|105>    H       11.74911         0.40868        -5.98601
|106>    H       12.03927        -1.24066        -7.71419
|107>    H       15.64646         5.47508        -8.40653
|108>    H       16.42929         5.11599        -9.95641
|109>    H       14.87250         7.04732       -10.17244
|110>    H       13.54218         6.05018        -9.57197
|111>    H       14.27581         5.69061       -11.13445
|112>    H       15.83712         4.01341       -11.91137
|113>    H       15.49187         2.33895       -12.38217
|114>    H       17.78585         3.18100       -10.53955
|115>    H       17.94592         2.73737       -12.24258
|116>    H       17.41593         1.53661       -11.05866
|117>    H       14.00913        -0.60277       -10.89294
|118>    H       12.43621        -2.68841        -9.28224
|119>    H       13.20920        -2.89172       -10.92296
|120> *
|121>
|122>                          ****END OF INPUT****

CARTESIAN COORDINATES (ANGSTROEM)
---------------------------------
  C      5.339910    0.478460    8.981180
  S      5.217870   -0.932270    8.023350
  C      4.630460   -1.882910    9.365020
  C      4.540910   -1.078410   10.521800
  C      4.950630    0.267740   10.287940
  C      4.924360    1.209710   11.344150
  C      4.501360    0.824190   12.583850
  O      4.426620    1.624310   13.678720
  C      4.813140    2.968750   13.545450
  C      4.083580   -0.533020   12.818610
  O      3.683840   -0.777690   14.092740
  C      3.244780   -2.071540   14.420150
  C      4.108350   -1.455260   11.804280
  C      4.314000   -3.235330    9.262120
  C      4.380210   -4.049790    8.149470
  C      4.047100   -5.419340    8.118810
  C      4.189750   -6.005820    6.890860
  C      4.640460   -5.127240    5.893460
  S      4.887690   -3.527390    6.555190
  C      4.871250   -5.410780    4.549280
  C      4.707040   -6.635530    3.889290
  C      5.003730   -6.582720    2.550670
  C      5.413260   -5.318520    2.101010
  S      5.422030   -4.183940    3.429910
  C      5.750960   -4.999860    0.789150
  C      6.154700   -3.781970    0.288830
  S      6.357260   -2.357020    1.268420
  C      6.931420   -1.379020   -0.078240
  C      6.850200   -2.133560   -1.285320
  C      6.452250   -3.477720   -1.075220
  C      6.339400   -4.353930   -2.158350
  C      6.570490   -3.911020   -3.441920
  C      6.460630   -4.831810   -4.617530
  C      6.886440   -2.559790   -3.647760
  C      7.018900   -1.684250   -2.600030
  C      7.358910   -0.107030    0.254200
  C      8.140940    0.841500   -0.399490
  C      8.431310    2.106940    0.141560
  C      9.296450    2.866760   -0.602710
  C      9.745230    2.227160   -1.766700
  S      9.030450    0.636500   -1.893030
  C     10.612700    2.704910   -2.741490
  C     11.256290    3.952890   -2.801450
  C     12.039020    4.117540   -3.907870
  C     12.064480    3.008180   -4.789590
  S     11.041580    1.737470   -4.133710
  C     12.771680    2.972020   -5.965010
  C     12.894090    1.949010   -6.937450
  C     12.331090    0.675230   -6.853660
  C     12.500420   -0.274000   -7.847740
  C     13.233820   -0.026000   -8.999570
  C     13.821940    1.264840   -9.131530
  C     13.663370    2.238900   -8.113670
  N     14.229740    3.448150   -8.250910
  C     14.925210    3.719270   -9.330890
  C     15.479550    5.111450   -9.421550
  C     14.479780    6.034390  -10.122330
  C     15.080450    2.747120  -10.352310
  C     15.896790    2.973040  -11.592030
  C     17.355760    2.584640  -11.341930
  N     14.537210    1.560410  -10.233470
  C     13.436310   -0.989410  -10.060980
  C     13.002620   -2.247920  -10.085270
  H      5.689700    1.389700    8.538940
  H      5.242260    2.218570   11.138460
  H      5.865820    3.057540   13.257030
  H      4.669190    3.415040   14.527860
  H      4.191970    3.494990   12.813110
  H      2.370490   -2.361870   13.827780
  H      2.969140   -2.030980   15.472590
  H      4.038760   -2.813310   14.282280
  H      3.797410   -2.472300   11.976980
  H      3.970890   -3.714610   10.169900
  H      3.711120   -5.935630    9.001090
  H      3.979240   -7.040790    6.689720
  H      4.377200   -7.523470    4.397740
  H      4.933910   -7.423990    1.883330
  H      5.682440   -5.818480    0.084850
  H      6.054230   -5.381710   -1.989930
  H      6.220240   -5.843910   -4.302160
  H      7.399750   -4.851430   -5.169100
  H      5.683990   -4.484980   -5.298480
  H      7.021930   -2.203330   -4.658260
  H      7.224960   -0.646960   -2.795780
  H      7.095790    0.191250    1.264700
  H      7.990160    2.433570    1.067200
  H      9.613480    3.858260   -0.333800
  H     11.126550    4.697500   -2.036350
  H     12.603080    5.007960   -4.122860
  H     13.323690    3.872250   -6.205110
  H     11.749110    0.408680   -5.986010
  H     12.039270   -1.240660   -7.714190
  H     15.646460    5.475080   -8.406530
  H     16.429290    5.115990   -9.956410
  H     14.872500    7.047320  -10.172440
  H     13.542180    6.050180   -9.571970
  H     14.275810    5.690610  -11.134450
  H     15.837120    4.013410  -11.911370
  H     15.491870    2.338950  -12.382170
  H     17.785850    3.181000  -10.539550
  H     17.945920    2.737370  -12.242580
  H     17.415930    1.536610  -11.058660
  H     14.009130   -0.602770  -10.892940
  H     12.436210   -2.688410   -9.282240
  H     13.209200   -2.891720  -10.922960

 Total Charge           Charge          ....    0
 Multiplicity           Mult            ....    1
 Number of Electrons    NEL             ....  486
 Basis Dimension        Dim             .... 1116

ORBITAL ENERGIES
----------------

  NO   OCC          E(Eh)            E(eV)
   0   2.0000     -88.953382     -2420.5446
   1   2.0000     -88.947051     -2420.3723
   2   2.0000     -88.941028     -2420.2084
   3   2.0000     -88.940840     -2420.2033
   4   2.0000     -88.934890     -2420.0414
   5   2.0000     -88.930940     -2419.9339
   6   2.0000     -19.243463      -523.6412
   7   2.0000     -19.240662      -523.5650
   8   2.0000     -14.400995      -391.8710
   9   2.0000     -14.399704      -391.8359
  10   2.0000     -10.332576      -281.1637
  11   2.0000     -10.330354      -281.1032
  12   2.0000     -10.321111      -280.8517
  13   2.0000     -10.318924      -280.7922
  14   2.0000     -10.303295      -280.3669
  15   2.0000     -10.302287      -280.3395
  16   2.0000     -10.302029      -280.3325
  17   2.0000     -10.298960      -280.2489
  18   2.0000     -10.297763      -280.2164
  19   2.0000     -10.297495      -280.2091
  20   2.0000     -10.296285      -280.1762
  21   2.0000     -10.296246      -280.1751
  22   2.0000     -10.294177      -280.1188
  23   2.0000     -10.293834      -280.1095
  24   2.0000     -10.293135      -280.0904
  25   2.0000     -10.292776      -280.0807
  26   2.0000     -10.292367      -280.0696
  27   2.0000     -10.292027      -280.0603
  28   2.0000     -10.290169      -280.0097
  29   2.0000     -10.285486      -279.8823
  30   2.0000     -10.282731      -279.8073
  31   2.0000     -10.277852      -279.6746
  32   2.0000     -10.277684      -279.6700
  33   2.0000     -10.275559      -279.6122
  34   2.0000     -10.275108      -279.5999
  35   2.0000     -10.274658      -279.5877
  36   2.0000     -10.273950      -279.5684
  37   2.0000     -10.272776      -279.5364
  38   2.0000     -10.272310      -279.5238
  39   2.0000     -10.271138      -279.4919
  40   2.0000     -10.270983      -279.4877
  41   2.0000     -10.270714      -279.4803
  42   2.0000     -10.270029      -279.4617
  43   2.0000     -10.269378      -279.4440
  44   2.0000     -10.267644      -279.3968
  45   2.0000     -10.267214      -279.3851
  46   2.0000     -10.267055      -279.3808
  47   2.0000     -10.265729      -279.3447
  48   2.0000     -10.265381      -279.3352
  49   2.0000     -10.262019      -279.2437
  50   2.0000     -10.260815      -279.2110
  51   2.0000     -10.260341      -279.1981
  52   2.0000     -10.260261      -279.1959
  53   2.0000     -10.260189      -279.1939
  54   2.0000     -10.260069      -279.1907
  55   2.0000     -10.258753      -279.1549
  56   2.0000     -10.257662      -279.1252
  57   2.0000     -10.256551      -279.0949
  58   2.0000     -10.254074      -279.0275
  59   2.0000     -10.253669      -279.0165
  60   2.0000     -10.253174      -279.0030
  61   2.0000     -10.249847      -278.9125
  62   2.0000     -10.245773      -278.8016
  63   2.0000      -8.048393      -219.0079
  64   2.0000      -8.042162      -218.8384
  65   2.0000      -8.036893      -218.6950
  66   2.0000      -8.036741      -218.6909
  67   2.0000      -8.030834      -218.5301
  68   2.0000      -8.026701      -218.4176
  69   2.0000      -6.017501      -163.7445
  70   2.0000      -6.013218      -163.6280
  71   2.0000      -6.011343      -163.5770
  72   2.0000      -6.011132      -163.5712
  73   2.0000      -6.007334      -163.4679
  74   2.0000      -6.006526      -163.4459
  75   2.0000      -6.006435      -163.4434
  76   2.0000      -6.004384      -163.3876
  77   2.0000      -6.002382      -163.3331
  78   2.0000      -6.002324      -163.3315
  79   2.0000      -6.000511      -163.2822
  80   2.0000      -5.998164      -163.2183
  81   2.0000      -5.997869      -163.2103
  82   2.0000      -5.996409      -163.1706
  83   2.0000      -5.996319      -163.1681
  84   2.0000      -5.992354      -163.0603
  85   2.0000      -5.992014      -163.0510
  86   2.0000      -5.987791      -162.9361
  87   2.0000      -1.157899       -31.5080
  88   2.0000      -1.135863       -30.9084
  89   2.0000      -1.060295       -28.8521
  90   2.0000      -0.990293       -26.9472
  91   2.0000      -0.984889       -26.8002
  92   2.0000      -0.984002       -26.7761
  93   2.0000      -0.981216       -26.7002
  94   2.0000      -0.977560       -26.6008
  95   2.0000      -0.963931       -26.2299
  96   2.0000      -0.957498       -26.0549
  97   2.0000      -0.937880       -25.5210
  98   2.0000      -0.923275       -25.1236
  99   2.0000      -0.919232       -25.0136
 100   2.0000      -0.894978       -24.3536
 101   2.0000      -0.883518       -24.0417
 102   2.0000      -0.880896       -23.9704
 103   2.0000      -0.879019       -23.9193
 104   2.0000      -0.863045       -23.4847
 105   2.0000      -0.852403       -23.1951
 106   2.0000      -0.846277       -23.0284
 107   2.0000      -0.843800       -22.9610
 108   2.0000      -0.842806       -22.9339
 109   2.0000      -0.836000       -22.7487
 110   2.0000      -0.834657       -22.7122
 111   2.0000      -0.829352       -22.5678
 112   2.0000      -0.826001       -22.4766
 113   2.0000      -0.814840       -22.1729
 114   2.0000      -0.811688       -22.0871
 115   2.0000      -0.808605       -22.0033
 116   2.0000      -0.805575       -21.9208
 117   2.0000      -0.801419       -21.8077
 118   2.0000      -0.789999       -21.4970
 119   2.0000      -0.779776       -21.2188
 120   2.0000      -0.775996       -21.1159
 121   2.0000      -0.767046       -20.8724
 122   2.0000      -0.762615       -20.7518
 123   2.0000      -0.744948       -20.2711
 124   2.0000      -0.737964       -20.0810
 125   2.0000      -0.731581       -19.9073
 126   2.0000      -0.724715       -19.7205
 127   2.0000      -0.705439       -19.1960
 128   2.0000      -0.689715       -18.7681
 129   2.0000      -0.688872       -18.7452
 130   2.0000      -0.684570       -18.6281
 131   2.0000      -0.680294       -18.5118
 132   2.0000      -0.676283       -18.4026
 133   2.0000      -0.672764       -18.3068
 134   2.0000      -0.663634       -18.0584
 135   2.0000      -0.660860       -17.9829
 136   2.0000      -0.651803       -17.7365
 137   2.0000      -0.647066       -17.6076
 138   2.0000      -0.638788       -17.3823
 139   2.0000      -0.635210       -17.2849
 140   2.0000      -0.625391       -17.0178
 141   2.0000      -0.624250       -16.9867
 142   2.0000      -0.614679       -16.7263
 143   2.0000      -0.609429       -16.5834
 144   2.0000      -0.606863       -16.5136
 145   2.0000      -0.605243       -16.4695
 146   2.0000      -0.599952       -16.3255
 147   2.0000      -0.594622       -16.1805
 148   2.0000      -0.589393       -16.0382
 149   2.0000      -0.584332       -15.9005
 150   2.0000      -0.579530       -15.7698
 151   2.0000      -0.578101       -15.7309
 152   2.0000      -0.575463       -15.6592
 153   2.0000      -0.568035       -15.4570
 154   2.0000      -0.559115       -15.2143
 155   2.0000      -0.558427       -15.1956
 156   2.0000      -0.546781       -14.8787
 157   2.0000      -0.545463       -14.8428
 158   2.0000      -0.542741       -14.7687
 159   2.0000      -0.540711       -14.7135
 160   2.0000      -0.539881       -14.6909
 161   2.0000      -0.535420       -14.5695
 162   2.0000      -0.529169       -14.3994
 163   2.0000      -0.527279       -14.3480
 164   2.0000      -0.523257       -14.2386
 165   2.0000      -0.520537       -14.1645
 166   2.0000      -0.514699       -14.0057
 167   2.0000      -0.512269       -13.9396
 168   2.0000      -0.508691       -13.8422
 169   2.0000      -0.505969       -13.7681
 170   2.0000      -0.505156       -13.7460
 171   2.0000      -0.502966       -13.6864
 172   2.0000      -0.499729       -13.5983
 173   2.0000      -0.498674       -13.5696
 174   2.0000      -0.496392       -13.5075
 175   2.0000      -0.493425       -13.4268
 176   2.0000      -0.489064       -13.3081
 177   2.0000      -0.488480       -13.2922
 178   2.0000      -0.485998       -13.2247
 179   2.0000      -0.483305       -13.1514
 180   2.0000      -0.482700       -13.1349
 181   2.0000      -0.481769       -13.1096
 182   2.0000      -0.480353       -13.0711
 183   2.0000      -0.475639       -12.9428
 184   2.0000      -0.473386       -12.8815
 185   2.0000      -0.472068       -12.8456
 186   2.0000      -0.469533       -12.7766
 187   2.0000      -0.466567       -12.6959
 188   2.0000      -0.462139       -12.5754
 189   2.0000      -0.460528       -12.5316
 190   2.0000      -0.460071       -12.5192
 191   2.0000      -0.457538       -12.4502
 192   2.0000      -0.453832       -12.3494
 193   2.0000      -0.452321       -12.3083
 194   2.0000      -0.447962       -12.1897
 195   2.0000      -0.447270       -12.1708
 196   2.0000      -0.445505       -12.1228
 197   2.0000      -0.443280       -12.0623
 198   2.0000      -0.439071       -11.9477
 199   2.0000      -0.435961       -11.8631
 200   2.0000      -0.434590       -11.8258
 201   2.0000      -0.429426       -11.6853
 202   2.0000      -0.424287       -11.5454
 203   2.0000      -0.422304       -11.4915
 204   2.0000      -0.419072       -11.4035
 205   2.0000      -0.415394       -11.3034
 206   2.0000      -0.413421       -11.2497
 207   2.0000      -0.412898       -11.2355
 208   2.0000      -0.411113       -11.1869
 209   2.0000      -0.408941       -11.1279
 210   2.0000      -0.408348       -11.1117
 211   2.0000      -0.407511       -11.0889
 212   2.0000      -0.406899       -11.0723
 213   2.0000      -0.405122       -11.0239
 214   2.0000      -0.401726       -10.9315
 215   2.0000      -0.400718       -10.9041
 216   2.0000      -0.398469       -10.8429
 217   2.0000      -0.397319       -10.8116
 218   2.0000      -0.394253       -10.7282
 219   2.0000      -0.392427       -10.6785
 220   2.0000      -0.380576       -10.3560
 221   2.0000      -0.377632       -10.2759
 222   2.0000      -0.376728       -10.2513
 223   2.0000      -0.364287        -9.9128
 224   2.0000      -0.361097        -9.8260
 225   2.0000      -0.356140        -9.6911
 226   2.0000      -0.347199        -9.4478
 227   2.0000      -0.339785        -9.2460
 228   2.0000      -0.327943        -8.9238
 229   2.0000      -0.321716        -8.7543
 230   2.0000      -0.318641        -8.6707
 231   2.0000      -0.314595        -8.5606
 232   2.0000      -0.311243        -8.4693
 233   2.0000      -0.306230        -8.3329
 234   2.0000      -0.300620        -8.1803
 235   2.0000      -0.299568        -8.1517
 236   2.0000      -0.297698        -8.1008
 237   2.0000      -0.280613        -7.6359
 238   2.0000      -0.272789        -7.4230
 239   2.0000      -0.264612        -7.2005
 240   2.0000      -0.239754        -6.5240
 241   2.0000      -0.209786        -5.7086
 242   2.0000      -0.167525        -4.5586
 243   0.0000      -0.094439        -2.5698
 244   0.0000      -0.054086        -1.4718
 245   0.0000      -0.028577        -0.7776
 246   0.0000      -0.009868        -0.2685
 247   0.0000       0.004960         0.1350

MULLIKEN ATOMIC CHARGES
-----------------------
   0 C :   -0.121978
   1 S :    0.127844
   2 C :   -0.121118
   3 C :    0.158374
   4 C :    0.106935
   5 C :   -0.157280
   6 C :    0.208950
   7 O :   -0.293974
   8 C :    0.179971
   9 C :    0.218703
  10 O :   -0.292179
  11 C :    0.179551
  12 C :   -0.174519
  13 C :   -0.018485
  14 C :   -0.046911
  15 C :    0.028820
  16 C :    0.016482
  17 C :   -0.032931
  18 S :    0.073809
  19 C :   -0.037739
  20 C :    0.019745
  21 C :    0.019689
  22 C :   -0.040778
  23 S :    0.077624
  24 C :   -0.024689
  25 C :   -0.069548
  26 S :    0.106254
  27 C :   -0.107421
  28 C :    0.114731
  29 C :    0.123719
  30 C :   -0.082412
  31 C :   -0.038581
  32 C :    0.091572
  33 C :   -0.011256
  34 C :   -0.040103
  35 C :    0.002792
  36 C :   -0.043221
  37 C :    0.028129
  38 C :    0.018891
  39 C :   -0.044714
  40 S :    0.085109
  41 C :   -0.038057
  42 C :    0.024877
  43 C :    0.026159
  44 C :    0.005119
  45 S :    0.046424
  46 C :   -0.062892
  47 C :    0.093678
  48 C :   -0.056054
  49 C :   -0.041566
  50 C :    0.067089
  51 C :   -0.031348
  52 C :   -0.032499
  53 N :    0.000762
  54 C :   -0.145270
  55 C :    0.104791
  56 C :    0.010383
  57 C :   -0.149406
  58 C :    0.106999
  59 C :    0.006700
  60 N :   -0.002515
  61 C :   -0.008092
  62 C :   -0.014266
  63 H :    0.011323
  64 H :   -0.045073
  65 H :    0.020493
  66 H :    0.037175
  67 H :    0.020911
  68 H :    0.021352
  69 H :    0.038505
  70 H :    0.021651
  71 H :   -0.048966
  72 H :   -0.021863
  73 H :   -0.018674
  74 H :   -0.018993
  75 H :   -0.020570
  76 H :   -0.017606
  77 H :   -0.020347
  78 H :   -0.044789
  79 H :    0.005024
  80 H :    0.026838
  81 H :    0.027708
  82 H :   -0.029754
  83 H :   -0.019364
  84 H :   -0.013727
  85 H :   -0.018303
  86 H :   -0.020793
  87 H :   -0.019417
  88 H :   -0.017563
  89 H :   -0.014373
  90 H :   -0.017936
  91 H :   -0.035647
  92 H :    0.010283
  93 H :   -0.001557
  94 H :    0.018242
  95 H :    0.021564
  96 H :    0.008797
  97 H :   -0.001918
  98 H :    0.012004
  99 H :    0.009811
 100 H :    0.019043
 101 H :    0.022925
 102 H :   -0.007293
 103 H :    0.005353
 104 H :    0.016652
Sum of atomic charges:   -0.0000000

LOEWDIN ATOMIC CHARGES
----------------------
   0 C :   -0.199632
   1 S :    0.459474
   2 C :   -0.191887
   3 C :   -0.039667
   4 C :   -0.052705
   5 C :   -0.079205
   6 C :    0.043509
   7 O :   -0.090967
   8 C :    0.076818
   9 C :    0.048991
  10 O :   -0.087160
  11 C :    0.075852
  12 C :   -0.081402
  13 C :   -0.060155
  14 C :   -0.168440
  15 C :   -0.032876
  16 C :   -0.049036
  17 C :   -0.173339
  18 S :    0.374885
  19 C :   -0.187384
  20 C :   -0.044056
  21 C :   -0.043415
  22 C :   -0.158580
  23 S :    0.384183
  24 C :   -0.079098
  25 C :   -0.167733
  26 S :    0.439014
  27 C :   -0.170134
  28 C :   -0.047740
  29 C :   -0.035531
  30 C :   -0.028199
  31 C :   -0.022676
  32 C :   -0.044640
  33 C :   -0.024458
  34 C :   -0.017111
  35 C :   -0.075840
  36 C :   -0.169089
  37 C :   -0.034065
  38 C :   -0.051703
  39 C :   -0.176871
  40 S :    0.405351
  41 C :   -0.189754
  42 C :   -0.040438
  43 C :   -0.037899
  44 C :   -0.141883
  45 S :    0.377864
  46 C :   -0.054426
  47 C :   -0.030727
  48 C :   -0.027671
  49 C :   -0.005338
  50 C :   -0.034745
  51 C :   -0.007033
  52 C :   -0.004471
  53 N :   -0.042379
  54 C :   -0.001872
  55 C :   -0.037047
  56 C :   -0.047405
  57 C :   -0.000845
  58 C :   -0.036947
  59 C :   -0.047721
  60 N :   -0.044126
  61 C :   -0.018207
  62 C :   -0.048358
  63 H :    0.021184
  64 H :    0.028363
  65 H :    0.014462
  66 H :    0.028900
  67 H :    0.014368
  68 H :    0.014610
  69 H :    0.029737
  70 H :    0.014610
  71 H :    0.024984
  72 H :    0.036323
  73 H :    0.030718
  74 H :    0.029900
  75 H :    0.029303
  76 H :    0.030941
  77 H :    0.036796
  78 H :    0.022163
  79 H :    0.027145
  80 H :    0.035511
  81 H :    0.035563
  82 H :    0.026830
  83 H :    0.011256
  84 H :    0.033658
  85 H :    0.030544
  86 H :    0.028996
  87 H :    0.029675
  88 H :    0.031324
  89 H :    0.031854
  90 H :    0.012445
  91 H :    0.027750
  92 H :    0.033887
  93 H :    0.023125
  94 H :    0.025142
  95 H :    0.027930
  96 H :    0.020443
  97 H :    0.022836
  98 H :    0.034683
  99 H :    0.020488
 100 H :    0.025362
 101 H :    0.028414
 102 H :    0.027900
 103 H :    0.015135
 104 H :    0.022886

  Mayer bond orders larger than 0.100000
B(  0-C ,  1-S ) :   1.1810 B(  0-C ,  4-C ) :   1.4186 B(  0-C , 63-H ) :   0.9684
B(  1-S ,  2-C ) :   1.1163 B(  2-C ,  3-C ) :   1.2966 B(  2-C , 13-C ) :   1.2517
B(  3-C ,  4-C ) :   1.2250 B(  3-C , 12-C ) :   1.1685 B(  4-C ,  5-C ) :   1.1113
B(  5-C ,  6-C ) :   1.4898 B(  5-C , 64-H ) :   1.0132 B(  6-C ,  7-O ) :   1.1885
B(  6-C ,  9-C ) :   1.1916 B(  7-O ,  8-C ) :   0.9718 B(  8-C , 65-H ) :   0.9681
B(  8-C , 66-H ) :   0.9790 B(  8-C , 67-H ) :   0.9675 B(  9-C , 10-O ) :   1.1839
B(  9-C , 12-C ) :   1.4745 B( 10-O , 11-C ) :   0.9723 B( 11-C , 68-H ) :   0.9669
B( 11-C , 69-H ) :   0.9777 B( 11-C , 70-H ) :   0.9673 B( 12-C , 71-H ) :   0.9960
B( 13-C , 14-C ) :   1.5139 B( 13-C , 72-H ) :   0.9592 B( 14-C , 15-C ) :   1.1854
B( 14-C , 18-S ) :   1.0351 B( 15-C , 16-C ) :   1.5332 B( 15-C , 73-H ) :   0.9987
B( 16-C , 17-C ) :   1.2370 B( 16-C , 74-H ) :   0.9931 B( 17-C , 18-S ) :   1.0580
B( 17-C , 19-C ) :   1.4228 B( 19-C , 20-C ) :   1.2513 B( 19-C , 23-S ) :   1.0496
B( 20-C , 21-C ) :   1.5043 B( 20-C , 75-H ) :   0.9931 B( 21-C , 22-C ) :   1.2226
B( 21-C , 76-H ) :   1.0000 B( 22-C , 23-S ) :   1.0587 B( 22-C , 24-C ) :   1.4256
B( 24-C , 25-C ) :   1.3429 B( 24-C , 77-H ) :   0.9610 B( 25-C , 26-S ) :   1.1030
B( 25-C , 29-C ) :   1.1933 B( 26-S , 27-C ) :   1.1023 B( 27-C , 28-C ) :   1.2105
B( 27-C , 35-C ) :   1.3127 B( 28-C , 29-C ) :   1.2685 B( 28-C , 34-C ) :   1.2451
B( 29-C , 30-C ) :   1.2541 B( 30-C , 31-C ) :   1.4918 B( 30-C , 78-H ) :   0.9879
B( 31-C , 32-C ) :   1.0501 B( 31-C , 33-C ) :   1.2687 B( 32-C , 79-H ) :   0.9609
B( 32-C , 80-H ) :   0.9555 B( 32-C , 81-H ) :   0.9554 B( 33-C , 34-C ) :   1.5051
B( 33-C , 82-H ) :   0.9921 B( 34-C , 83-H ) :   0.9731 B( 35-C , 36-C ) :   1.4786
B( 35-C , 84-H ) :   0.9336 B( 36-C , 37-C ) :   1.2138 B( 36-C , 40-S ) :   1.0373
B( 37-C , 38-C ) :   1.5151 B( 37-C , 85-H ) :   0.9984 B( 38-C , 39-C ) :   1.2363
B( 38-C , 86-H ) :   0.9927 B( 39-C , 40-S ) :   1.0579 B( 39-C , 41-C ) :   1.4391
B( 41-C , 42-C ) :   1.2215 B( 41-C , 45-S ) :   1.0394 B( 42-C , 43-C ) :   1.5526
B( 42-C , 87-H ) :   0.9930 B( 43-C , 44-C ) :   1.1640 B( 43-C , 88-H ) :   0.9999
B( 44-C , 45-S ) :   1.0352 B( 44-C , 46-C ) :   1.5134 B( 46-C , 47-C ) :   1.1835
B( 46-C , 89-H ) :   0.9597 B( 47-C , 48-C ) :   1.3421 B( 47-C , 50-C ) :   0.1087
B( 47-C , 52-C ) :   1.1705 B( 48-C , 49-C ) :   1.3219 B( 48-C , 90-H ) :   0.9792
B( 49-C , 50-C ) :   1.3952 B( 49-C , 91-H ) :   0.9921 B( 50-C , 51-C ) :   1.2024
B( 50-C , 61-C ) :   1.1121 B( 51-C , 52-C ) :   1.2532 B( 51-C , 60-N ) :   1.4578
B( 52-C , 53-N ) :   1.4717 B( 53-N , 54-C ) :   1.6573 B( 54-C , 55-C ) :   1.0590
B( 54-C , 57-C ) :   1.2009 B( 55-C , 56-C ) :   1.1096 B( 55-C , 92-H ) :   0.9147
B( 55-C , 93-H ) :   0.9189 B( 56-C , 94-H ) :   0.9696 B( 56-C , 95-H ) :   0.9640
B( 56-C , 96-H ) :   0.9698 B( 57-C , 58-C ) :   1.0584 B( 57-C , 60-N ) :   1.6683
B( 58-C , 59-C ) :   1.1085 B( 58-C , 97-H ) :   0.9191 B( 58-C , 98-H ) :   0.9145
B( 59-C , 99-H ) :   0.9699 B( 59-C ,100-H ) :   0.9700 B( 59-C ,101-H ) :   0.9646
B( 61-C , 62-C ) :   1.9138 B( 61-C ,102-H ) :   0.9566 B( 62-C ,103-H ) :   0.9470
B( 62-C ,104-H ) :   0.9504

-----------------------------------------------------------------------------
         ABSORPTION SPECTRUM VIA TRANSITION ELECTRIC DIPOLE MOMENTS
-----------------------------------------------------------------------------
State   Energy  Wavelength   fosc         T2         TX        TY        TZ
        (cm-1)    (nm)                  (au**2)     (au)      (au)      (au)
-----------------------------------------------------------------------------
   0    4872.0   2052.6   0.768403652  51.92289  -3.17332  -1.96378   6.16413
   1   11531.5    867.2   0.007215727   0.20600  -0.33824  -0.11993   0.27787
   2   14346.9    697.0   0.380762111   8.73717  -1.91170  -2.19790  -0.50183
   3   17092.9    585.0   0.064998904   1.25189  -0.18687  -0.79059  -0.76938
   4   20051.9    498.7   0.790738996  12.98237  -0.10916   2.73743   2.34028
   5   21847.6    457.7   0.083065062   1.25167   0.52436  -0.48444  -0.86141
   6   22888.3    436.9   0.658551364   9.47223   0.01820   2.67547   1.52110
   7   23365.2    428.0   0.020066523   0.28273  -0.26992   0.36111   0.28192
   8   25759.7    388.2   0.160752145   2.05443  -0.27198  -0.36441   1.35929
   9   26329.0    379.8   0.018092165   0.22622  -0.29923  -0.04306   0.36719
  10   27196.4    367.7   0.017595669   0.21300   0.04546   0.44599  -0.10966
  11   27323.4    366.0   0.030475641   0.36719   0.08181   0.31851  -0.50897
  12   27758.6    360.2   0.054270852   0.64364  -0.34416  -0.34560   0.63699
  13   28316.7    353.1   0.037471551   0.43565   0.09200   0.59809   0.26358
  14   28697.1    348.5   0.340731529   3.90886  -0.18295   0.94892   1.72480
  15   29064.4    344.1   0.021443927   0.24289   0.14267   0.03590  -0.47037
  16   29509.7    338.9   0.006962419   0.07767  -0.01774  -0.23863  -0.14289
  17   30127.6    331.9   0.178774749   1.95352   0.14157  -0.49086  -1.30097
  18   30905.8    323.6   0.016725111   0.17816  -0.04664   0.16148   0.38718
  19   31199.9    320.5   0.079620895   0.84014  -0.30383   0.03513   0.86405
  20   31737.7    315.1   0.002715074   0.02816   0.09987   0.04562   0.12692
  21   31793.2    314.5   0.041278544   0.42743  -0.10382  -0.58112  -0.28099
  22   32196.9    310.6   0.000954348   0.00976  -0.05921  -0.04276   0.06652
  23   32951.1    303.5   0.002858028   0.02855  -0.07192  -0.11287   0.10316
  24   33637.9    297.3   0.000845424   0.00827  -0.02755  -0.04569   0.07367
  25   33677.8    296.9   0.023410764   0.22885   0.21901   0.26859  -0.32976
  26   33821.1    295.7   0.022217278   0.21626  -0.08665  -0.44287  -0.11235
  27   33973.4    294.3   0.045974378   0.44550   0.11342   0.52049   0.40216
  28   34299.8    291.5   0.007430478   0.07132   0.10779  -0.03221   0.24220
  29   34350.8    291.1   0.167930535   1.60942  -0.49705  -1.12044   0.32707
  30   34741.9    287.8   0.015842358   0.15012   0.17066  -0.23275  -0.25850
  31   35719.9    280.0   0.016525088   0.15230  -0.13578  -0.03275   0.36441
  32   35901.5    278.5   0.006046763   0.05545   0.11980   0.20268  -0.00410
  33   36207.1    276.2   0.112049063   1.01880   0.45482   0.68430  -0.58624
  34   36681.0    272.6   0.070848729   0.63587  -0.24649  -0.13450   0.74634
  35   37356.1    267.7   0.071501588   0.63013   0.06155  -0.32564  -0.72132
  36   37704.2    265.2   0.032634196   0.28494   0.12055   0.48225  -0.19455
  37   38055.0    262.8   0.008285823   0.07168   0.10731   0.19492  -0.14891
  38   38380.0    260.6   0.002460986   0.02111  -0.03619   0.01427   0.13999
  39   38562.6    259.3   0.004062969   0.03469  -0.03229  -0.11563  -0.14239
  40   38828.4    257.5   0.003479644   0.02950  -0.05675  -0.01703   0.16122
  41   38967.5    256.6   0.043772065   0.36980   0.18656   0.57532   0.06332
  42   39081.0    255.9   0.006270764   0.05282  -0.15966  -0.09514   0.13521
  43   39924.6    250.5   0.001888381   0.01557   0.08722  -0.00856   0.08883
  44   39981.8    250.1   0.022524629   0.18547  -0.09413  -0.30588  -0.28818
  45   40324.2    248.0   0.026249582   0.21431  -0.10749  -0.45001  -0.01544

FINAL SINGLE POINT ENERGY     -4690.255093432234

DIPOLE MOMENT
-------------
                                X             Y             Z
Electronic contribution:    -40.68385     -23.77852      60.67561
Nuclear contribution   :     39.87848      23.82520     -58.67946
                        -----------------------------------------
Total Dipole Moment    :     -0.80537       0.04668       1.99614
                        -----------------------------------------
Magnitude (a.u.)       :      2.15299
Magnitude (Debye)      :      5.47248

Rotational constants in cm-1:     0.001836     0.000245     0.000220
Rotational constants in MHz :    55.028367     7.351674     6.583459

                             ****ORCA TERMINATED NORMALLY****
TOTAL RUN TIME: 0 days 0 hours 10 minutes 30 seconds 939 msec
