                         Program Version 4.2.0 -  RELEASE  -
|  1> # ORCA input file
|  2> # SCF done       -173.146579410993          0.003622196085
|  3> ! CAM-B3LYP def2-SVP def2/J RIJCOSX Grid4 TightSCF
|  4> %maxcore 5000
|  5> %tddft
|  6>     Mode sTDDFT
|  7>     Ethresh 5.0
|  8>     maxcore 5000
|  9> end
| 10>
| 11> %pal
| 12>   nprocs 6
| 13>   end
| 14> * xyz 0 1
| 15>    C       -3.66691        -2.40862        -3.64854
| 16>    S       -3.83424        -3.97834        -3.01945
| 17>    C       -2.36044        -3.85601        -2.06447
| 18>    C       -1.81527        -2.56180        -2.21881
| 19>    C       -2.55400        -1.76111        -3.14585
| 20>    C       -2.11449        -0.45917        -3.44953
| 21>    C       -1.00212         0.07574        -2.84760
| 22>    O       -0.69120         1.33652        -3.24168
| 23>    C        0.56170         1.92065        -2.95696
| 24>    C       -0.31379        -0.69456        -1.85046
| 25>    O        0.73272        -0.10002        -1.21564
| 26>    C        1.45657        -0.83075        -0.25114
| 27>    C       -0.73274        -1.97260        -1.55627
| 28>    C       -1.99657        -5.02953        -1.40280
| 29>    C       -0.83442        -5.47300        -0.79522
| 30>    C       -0.69871        -6.76761        -0.25033
| 31>    C        0.55202        -7.06379         0.22492
| 32>    C        1.46879        -6.01427         0.08614
| 33>    S        0.70348        -4.64163        -0.66440
| 34>    C        2.81993        -5.98384         0.43934
| 35>    C        3.61077        -7.03615         0.90840
| 36>    C        4.93166        -6.69295         1.08867
| 37>    C        5.21416        -5.35674         0.79734
| 38>    S        3.77448        -4.52857         0.27811
| 39>    C        6.46457        -4.73790         0.90335
| 40>    C        6.70176        -3.39148         0.86556
| 41>    C        7.97878        -2.83771         1.03216
| 42>    C        8.32431        -1.50919         1.27301
| 43>    C        9.67277        -1.31043         1.49382
| 44>    C       10.42719        -2.48038         1.41352
| 45>    S        9.40979        -3.84104         1.03645
| 46>    C       11.79079        -2.68212         1.66729
| 47>    C       12.74712        -1.79689         2.16328
| 48>    C       13.93917        -2.40982         2.48312
| 49>    C       13.94855        -3.79397         2.27149
| 50>    S       12.45809        -4.28877         1.52828
| 51>    C       14.99655        -4.65583         2.60663
| 52>    C       15.08315        -6.03609         2.66991
| 53>    C       14.06100        -7.02316         2.73214
| 54>    O       14.32472        -8.32850         2.34292
| 55>    C       15.62416        -8.66514         2.15829
| 56>    C       16.67484        -7.72870         2.37908
| 57>    C       17.90746        -8.26489         2.19343
| 58>    S       17.80130        -9.92493         1.74086
| 59>    C       16.07865        -9.89366         1.80229
| 60>    O       16.41997        -6.43412         2.69232
| 61>    C       12.75318        -6.87760         3.17770
| 62>    C       12.20564        -5.77894         3.82086
| 63>    C       10.83353        -5.60111         3.96411
| 64>    C       10.25291        -4.40312         4.35937
| 65>    C        8.85773        -4.06979         4.31737
| 66>    C        7.79580        -4.90442         4.03952
| 67>    C        6.44912        -4.49928         4.02662
| 68>    N        5.32663        -4.25000         4.00621
| 69>    C        7.87946        -6.26764         3.70705
| 70>    N        7.82380        -7.37504         3.39881
| 71>    C        8.73322        -2.63103         4.56989
| 72>    C       10.01372        -2.10619         4.79890
| 73>    C       11.01091        -3.19238         4.71714
| 74>    O       12.21015        -3.06872         4.90245
| 75>    C       10.21231        -0.75961         5.01755
| 76>    C        9.10678         0.07767         5.00471
| 77>    C        7.82753        -0.42179         4.78241
| 78>    C        7.63791        -1.78630         4.56402
| 79>    C        6.64824         0.50190         4.79601
| 80>    H       -4.38266        -2.02994        -4.35034
| 81>    H       -2.65189         0.13942        -4.16675
| 82>    H        0.58966         2.82959        -3.55787
| 83>    H        1.38687         1.26776        -3.24835
| 84>    H        0.65957         2.17910        -1.90121
| 85>    H        0.83281        -1.08552         0.61045
| 86>    H        2.25809        -0.16686         0.06880
| 87>    H        1.88625        -1.74445        -0.67243
| 88>    H       -0.23928        -2.52290        -0.77911
| 89>    H       -2.76758        -5.79311        -1.43457
| 90>    H       -1.52761        -7.45288        -0.22759
| 91>    H        0.82062        -8.00365         0.67151
| 92>    H        3.21330        -8.01788         1.09164
| 93>    H        5.69226        -7.36442         1.44584
| 94>    H        7.30063        -5.40458         1.07701
| 95>    H        5.86965        -2.70619         0.76683
| 96>    H        7.58661        -0.72710         1.31166
| 97>    H       10.11202        -0.35705         1.72435
| 98>    H       12.54241        -0.75364         2.32226
| 99>    H       14.77641        -1.89890         2.92416
|100>    H       15.94660        -4.16394         2.78605
|101>    H       18.85920        -7.78729         2.29546
|102>    H       15.50773       -10.77081         1.58144
|103>    H       12.11721        -7.73321         2.98650
|104>    H       12.85998        -5.00506         4.18936
|105>    H       10.18575        -6.39919         3.62466
|106>    H       11.20953        -0.38156         5.18578
|107>    H        9.23572         1.13850         5.16705
|108>    H        6.64105        -2.15851         4.38884
|109>    H        6.91122         1.47386         4.38419
|110>    H        6.31098         0.65429         5.82140
|111>    H        5.82073         0.08356         4.22867
|112> *
|113>
|114>                          ****END OF INPUT****

CARTESIAN COORDINATES (ANGSTROEM)
---------------------------------
  C     -3.666910   -2.408620   -3.648540
  S     -3.834240   -3.978340   -3.019450
  C     -2.360440   -3.856010   -2.064470
  C     -1.815270   -2.561800   -2.218810
  C     -2.554000   -1.761110   -3.145850
  C     -2.114490   -0.459170   -3.449530
  C     -1.002120    0.075740   -2.847600
  O     -0.691200    1.336520   -3.241680
  C      0.561700    1.920650   -2.956960
  C     -0.313790   -0.694560   -1.850460
  O      0.732720   -0.100020   -1.215640
  C      1.456570   -0.830750   -0.251140
  C     -0.732740   -1.972600   -1.556270
  C     -1.996570   -5.029530   -1.402800
  C     -0.834420   -5.473000   -0.795220
  C     -0.698710   -6.767610   -0.250330
  C      0.552020   -7.063790    0.224920
  C      1.468790   -6.014270    0.086140
  S      0.703480   -4.641630   -0.664400
  C      2.819930   -5.983840    0.439340
  C      3.610770   -7.036150    0.908400
  C      4.931660   -6.692950    1.088670
  C      5.214160   -5.356740    0.797340
  S      3.774480   -4.528570    0.278110
  C      6.464570   -4.737900    0.903350
  C      6.701760   -3.391480    0.865560
  C      7.978780   -2.837710    1.032160
  C      8.324310   -1.509190    1.273010
  C      9.672770   -1.310430    1.493820
  C     10.427190   -2.480380    1.413520
  S      9.409790   -3.841040    1.036450
  C     11.790790   -2.682120    1.667290
  C     12.747120   -1.796890    2.163280
  C     13.939170   -2.409820    2.483120
  C     13.948550   -3.793970    2.271490
  S     12.458090   -4.288770    1.528280
  C     14.996550   -4.655830    2.606630
  C     15.083150   -6.036090    2.669910
  C     14.061000   -7.023160    2.732140
  O     14.324720   -8.328500    2.342920
  C     15.624160   -8.665140    2.158290
  C     16.674840   -7.728700    2.379080
  C     17.907460   -8.264890    2.193430
  S     17.801300   -9.924930    1.740860
  C     16.078650   -9.893660    1.802290
  O     16.419970   -6.434120    2.692320
  C     12.753180   -6.877600    3.177700
  C     12.205640   -5.778940    3.820860
  C     10.833530   -5.601110    3.964110
  C     10.252910   -4.403120    4.359370
  C      8.857730   -4.069790    4.317370
  C      7.795800   -4.904420    4.039520
  C      6.449120   -4.499280    4.026620
  N      5.326630   -4.250000    4.006210
  C      7.879460   -6.267640    3.707050
  N      7.823800   -7.375040    3.398810
  C      8.733220   -2.631030    4.569890
  C     10.013720   -2.106190    4.798900
  C     11.010910   -3.192380    4.717140
  O     12.210150   -3.068720    4.902450
  C     10.212310   -0.759610    5.017550
  C      9.106780    0.077670    5.004710
  C      7.827530   -0.421790    4.782410
  C      7.637910   -1.786300    4.564020
  C      6.648240    0.501900    4.796010
  H     -4.382660   -2.029940   -4.350340
  H     -2.651890    0.139420   -4.166750
  H      0.589660    2.829590   -3.557870
  H      1.386870    1.267760   -3.248350
  H      0.659570    2.179100   -1.901210
  H      0.832810   -1.085520    0.610450
  H      2.258090   -0.166860    0.068800
  H      1.886250   -1.744450   -0.672430
  H     -0.239280   -2.522900   -0.779110
  H     -2.767580   -5.793110   -1.434570
  H     -1.527610   -7.452880   -0.227590
  H      0.820620   -8.003650    0.671510
  H      3.213300   -8.017880    1.091640
  H      5.692260   -7.364420    1.445840
  H      7.300630   -5.404580    1.077010
  H      5.869650   -2.706190    0.766830
  H      7.586610   -0.727100    1.311660
  H     10.112020   -0.357050    1.724350
  H     12.542410   -0.753640    2.322260
  H     14.776410   -1.898900    2.924160
  H     15.946600   -4.163940    2.786050
  H     18.859200   -7.787290    2.295460
  H     15.507730  -10.770810    1.581440
  H     12.117210   -7.733210    2.986500
  H     12.859980   -5.005060    4.189360
  H     10.185750   -6.399190    3.624660
  H     11.209530   -0.381560    5.185780
  H      9.235720    1.138500    5.167050
  H      6.641050   -2.158510    4.388840
  H      6.911220    1.473860    4.384190
  H      6.310980    0.654290    5.821400
  H      5.820730    0.083560    4.228670

 Total Charge           Charge          ....    0
 Multiplicity           Mult            ....    1
 Number of Electrons    NEL             ....  494
 Basis Dimension        Dim             .... 1094

ORBITAL ENERGIES
----------------

  NO   OCC          E(Eh)            E(eV)
   0   2.0000     -88.985287     -2421.4128
   1   2.0000     -88.973626     -2421.0955
   2   2.0000     -88.961547     -2420.7668
   3   2.0000     -88.945224     -2420.3226
   4   2.0000     -88.937627     -2420.1159
   5   2.0000     -88.934892     -2420.0414
   6   2.0000     -19.271319      -524.3993
   7   2.0000     -19.252246      -523.8802
   8   2.0000     -19.248067      -523.7665
   9   2.0000     -19.243895      -523.6530
  10   2.0000     -19.172605      -521.7131
  11   2.0000     -14.384417      -391.4199
  12   2.0000     -14.380810      -391.3217
  13   2.0000     -10.363075      -281.9936
  14   2.0000     -10.353101      -281.7222
  15   2.0000     -10.339549      -281.3534
  16   2.0000     -10.338544      -281.3261
  17   2.0000     -10.331524      -281.1350
  18   2.0000     -10.328142      -281.0430
  19   2.0000     -10.325713      -280.9769
  20   2.0000     -10.325034      -280.9585
  21   2.0000     -10.323439      -280.9151
  22   2.0000     -10.321911      -280.8735
  23   2.0000     -10.321086      -280.8510
  24   2.0000     -10.319848      -280.8173
  25   2.0000     -10.318339      -280.7763
  26   2.0000     -10.317783      -280.7611
  27   2.0000     -10.316765      -280.7335
  28   2.0000     -10.316064      -280.7144
  29   2.0000     -10.312324      -280.6126
  30   2.0000     -10.309708      -280.5414
  31   2.0000     -10.307231      -280.4740
  32   2.0000     -10.300452      -280.2895
  33   2.0000     -10.300289      -280.2851
  34   2.0000     -10.299401      -280.2609
  35   2.0000     -10.296602      -280.1848
  36   2.0000     -10.296521      -280.1826
  37   2.0000     -10.295887      -280.1653
  38   2.0000     -10.293490      -280.1001
  39   2.0000     -10.291142      -280.0362
  40   2.0000     -10.289801      -279.9997
  41   2.0000     -10.289208      -279.9836
  42   2.0000     -10.288338      -279.9599
  43   2.0000     -10.287662      -279.9415
  44   2.0000     -10.284698      -279.8609
  45   2.0000     -10.284131      -279.8454
  46   2.0000     -10.280556      -279.7481
  47   2.0000     -10.276318      -279.6328
  48   2.0000     -10.271866      -279.5117
  49   2.0000     -10.271657      -279.5060
  50   2.0000     -10.270760      -279.4816
  51   2.0000     -10.269935      -279.4591
  52   2.0000     -10.269645      -279.4512
  53   2.0000     -10.263659      -279.2884
  54   2.0000     -10.263542      -279.2852
  55   2.0000     -10.262634      -279.2605
  56   2.0000     -10.261846      -279.2390
  57   2.0000     -10.260847      -279.2118
  58   2.0000     -10.260363      -279.1987
  59   2.0000     -10.259793      -279.1832
  60   2.0000     -10.257033      -279.1080
  61   2.0000     -10.256535      -279.0945
  62   2.0000     -10.253573      -279.0139
  63   2.0000     -10.241888      -278.6959
  64   2.0000     -10.239345      -278.6267
  65   2.0000      -8.080820      -219.8903
  66   2.0000      -8.069290      -219.5765
  67   2.0000      -8.057612      -219.2588
  68   2.0000      -8.040471      -218.7923
  69   2.0000      -8.032377      -218.5721
  70   2.0000      -8.030666      -218.5255
  71   2.0000      -6.049777      -164.6228
  72   2.0000      -6.045633      -164.5100
  73   2.0000      -6.043637      -164.4557
  74   2.0000      -6.038894      -164.3266
  75   2.0000      -6.034752      -164.2139
  76   2.0000      -6.030630      -164.1018
  77   2.0000      -6.027120      -164.0063
  78   2.0000      -6.023063      -163.8959
  79   2.0000      -6.019117      -163.7885
  80   2.0000      -6.009968      -163.5396
  81   2.0000      -6.005940      -163.4299
  82   2.0000      -6.002023      -163.3233
  83   2.0000      -6.001705      -163.3147
  84   2.0000      -6.000194      -163.2736
  85   2.0000      -5.997460      -163.1992
  86   2.0000      -5.996028      -163.1602
  87   2.0000      -5.994513      -163.1190
  88   2.0000      -5.992352      -163.0602
  89   2.0000      -1.178409       -32.0661
  90   2.0000      -1.173766       -31.9398
  91   2.0000      -1.150992       -31.3201
  92   2.0000      -1.136386       -30.9226
  93   2.0000      -1.084937       -29.5226
  94   2.0000      -1.017576       -27.6897
  95   2.0000      -1.010638       -27.5009
  96   2.0000      -0.990597       -26.9555
  97   2.0000      -0.986751       -26.8509
  98   2.0000      -0.983737       -26.7689
  99   2.0000      -0.964783       -26.2531
 100   2.0000      -0.963661       -26.2225
 101   2.0000      -0.960913       -26.1478
 102   2.0000      -0.959369       -26.1058
 103   2.0000      -0.946447       -25.7541
 104   2.0000      -0.918136       -24.9838
 105   2.0000      -0.916622       -24.9426
 106   2.0000      -0.902986       -24.5715
 107   2.0000      -0.895630       -24.3713
 108   2.0000      -0.878357       -23.9013
 109   2.0000      -0.870870       -23.6976
 110   2.0000      -0.867398       -23.6031
 111   2.0000      -0.862450       -23.4685
 112   2.0000      -0.860220       -23.4078
 113   2.0000      -0.854066       -23.2403
 114   2.0000      -0.844475       -22.9793
 115   2.0000      -0.838265       -22.8104
 116   2.0000      -0.836430       -22.7604
 117   2.0000      -0.832397       -22.6507
 118   2.0000      -0.828072       -22.5330
 119   2.0000      -0.818542       -22.2736
 120   2.0000      -0.810749       -22.0616
 121   2.0000      -0.805642       -21.9226
 122   2.0000      -0.803657       -21.8686
 123   2.0000      -0.792064       -21.5532
 124   2.0000      -0.784586       -21.3497
 125   2.0000      -0.780538       -21.2395
 126   2.0000      -0.769397       -20.9364
 127   2.0000      -0.758302       -20.6345
 128   2.0000      -0.749089       -20.3837
 129   2.0000      -0.733352       -19.9555
 130   2.0000      -0.723131       -19.6774
 131   2.0000      -0.716746       -19.5037
 132   2.0000      -0.710580       -19.3359
 133   2.0000      -0.701794       -19.0968
 134   2.0000      -0.689382       -18.7591
 135   2.0000      -0.685379       -18.6501
 136   2.0000      -0.675286       -18.3755
 137   2.0000      -0.674326       -18.3493
 138   2.0000      -0.665752       -18.1160
 139   2.0000      -0.661715       -18.0062
 140   2.0000      -0.653019       -17.7695
 141   2.0000      -0.651184       -17.7196
 142   2.0000      -0.647074       -17.6078
 143   2.0000      -0.637393       -17.3443
 144   2.0000      -0.634444       -17.2641
 145   2.0000      -0.632033       -17.1985
 146   2.0000      -0.626657       -17.0522
 147   2.0000      -0.620934       -16.8965
 148   2.0000      -0.619375       -16.8541
 149   2.0000      -0.615084       -16.7373
 150   2.0000      -0.612865       -16.6769
 151   2.0000      -0.603120       -16.4117
 152   2.0000      -0.600859       -16.3502
 153   2.0000      -0.594941       -16.1892
 154   2.0000      -0.592851       -16.1323
 155   2.0000      -0.586364       -15.9558
 156   2.0000      -0.579679       -15.7739
 157   2.0000      -0.574951       -15.6452
 158   2.0000      -0.572157       -15.5692
 159   2.0000      -0.561557       -15.2807
 160   2.0000      -0.556633       -15.1468
 161   2.0000      -0.552000       -15.0207
 162   2.0000      -0.550292       -14.9742
 163   2.0000      -0.547133       -14.8882
 164   2.0000      -0.543560       -14.7910
 165   2.0000      -0.541751       -14.7418
 166   2.0000      -0.538267       -14.6470
 167   2.0000      -0.536941       -14.6109
 168   2.0000      -0.531776       -14.4704
 169   2.0000      -0.526227       -14.3194
 170   2.0000      -0.519501       -14.1363
 171   2.0000      -0.518473       -14.1084
 172   2.0000      -0.517129       -14.0718
 173   2.0000      -0.514040       -13.9877
 174   2.0000      -0.513296       -13.9675
 175   2.0000      -0.511980       -13.9317
 176   2.0000      -0.508505       -13.8371
 177   2.0000      -0.506460       -13.7815
 178   2.0000      -0.505201       -13.7472
 179   2.0000      -0.501227       -13.6391
 180   2.0000      -0.496847       -13.5199
 181   2.0000      -0.494831       -13.4650
 182   2.0000      -0.491873       -13.3846
 183   2.0000      -0.485031       -13.1984
 184   2.0000      -0.483692       -13.1619
 185   2.0000      -0.482389       -13.1265
 186   2.0000      -0.480392       -13.0721
 187   2.0000      -0.479445       -13.0464
 188   2.0000      -0.475587       -12.9414
 189   2.0000      -0.473699       -12.8900
 190   2.0000      -0.471979       -12.8432
 191   2.0000      -0.469432       -12.7739
 192   2.0000      -0.469125       -12.7655
 193   2.0000      -0.466536       -12.6951
 194   2.0000      -0.464576       -12.6417
 195   2.0000      -0.462596       -12.5879
 196   2.0000      -0.457535       -12.4502
 197   2.0000      -0.455495       -12.3946
 198   2.0000      -0.454104       -12.3568
 199   2.0000      -0.452155       -12.3038
 200   2.0000      -0.449215       -12.2238
 201   2.0000      -0.447346       -12.1729
 202   2.0000      -0.446751       -12.1567
 203   2.0000      -0.445109       -12.1120
 204   2.0000      -0.443021       -12.0552
 205   2.0000      -0.440688       -11.9917
 206   2.0000      -0.436602       -11.8805
 207   2.0000      -0.431137       -11.7318
 208   2.0000      -0.428274       -11.6539
 209   2.0000      -0.424062       -11.5393
 210   2.0000      -0.423567       -11.5259
 211   2.0000      -0.422074       -11.4852
 212   2.0000      -0.420590       -11.4448
 213   2.0000      -0.420116       -11.4319
 214   2.0000      -0.416163       -11.3244
 215   2.0000      -0.413424       -11.2498
 216   2.0000      -0.413256       -11.2453
 217   2.0000      -0.410329       -11.1656
 218   2.0000      -0.409881       -11.1534
 219   2.0000      -0.401097       -10.9144
 220   2.0000      -0.397816       -10.8251
 221   2.0000      -0.395585       -10.7644
 222   2.0000      -0.390726       -10.6322
 223   2.0000      -0.390261       -10.6195
 224   2.0000      -0.387953       -10.5567
 225   2.0000      -0.386807       -10.5256
 226   2.0000      -0.384058       -10.4507
 227   2.0000      -0.376990       -10.2584
 228   2.0000      -0.367135        -9.9902
 229   2.0000      -0.361822        -9.8457
 230   2.0000      -0.353040        -9.6067
 231   2.0000      -0.344761        -9.3814
 232   2.0000      -0.335116        -9.1190
 233   2.0000      -0.332073        -9.0362
 234   2.0000      -0.321228        -8.7411
 235   2.0000      -0.307670        -8.3721
 236   2.0000      -0.305585        -8.3154
 237   2.0000      -0.297701        -8.1008
 238   2.0000      -0.295289        -8.0352
 239   2.0000      -0.293113        -7.9760
 240   2.0000      -0.288274        -7.8443
 241   2.0000      -0.278231        -7.5711
 242   2.0000      -0.273257        -7.4357
 243   2.0000      -0.261656        -7.1200
 244   2.0000      -0.245376        -6.6770
 245   2.0000      -0.217178        -5.9097
 246   2.0000      -0.187402        -5.0995
 247   0.0000      -0.117546        -3.1986
 248   0.0000      -0.064529        -1.7559
 249   0.0000      -0.045890        -1.2487
 250   0.0000      -0.030801        -0.8381
 251   0.0000      -0.015482        -0.4213

MULLIKEN ATOMIC CHARGES
-----------------------
   0 C :   -0.100037
   1 S :    0.157742
   2 C :   -0.172321
   3 C :    0.188153
   4 C :    0.102773
   5 C :   -0.088297
   6 C :    0.175774
   7 O :   -0.307835
   8 C :    0.202369
   9 C :    0.191723
  10 O :   -0.322074
  11 C :    0.178771
  12 C :   -0.179573
  13 C :    0.033806
  14 C :   -0.043395
  15 C :    0.041900
  16 C :    0.021347
  17 C :   -0.016709
  18 S :    0.077568
  19 C :   -0.056382
  20 C :    0.033057
  21 C :    0.031196
  22 C :   -0.002786
  23 S :    0.098000
  24 C :   -0.027991
  25 C :    0.053342
  26 C :   -0.079869
  27 C :    0.069480
  28 C :    0.015698
  29 C :   -0.027974
  30 S :    0.102146
  31 C :   -0.072479
  32 C :    0.031377
  33 C :    0.057943
  34 C :   -0.058225
  35 S :    0.131916
  36 C :   -0.031347
  37 C :    0.148659
  38 C :    0.125157
  39 O :   -0.248673
  40 C :    0.210792
  41 C :    0.211013
  42 C :   -0.177588
  43 S :    0.092474
  44 C :   -0.177392
  45 O :   -0.255633
  46 C :   -0.001794
  47 C :   -0.009434
  48 C :   -0.056967
  49 C :   -0.113382
  50 C :    0.358012
  51 C :   -0.420372
  52 C :   -0.182096
  53 N :    0.107664
  54 C :   -0.188917
  55 N :    0.109863
  56 C :    0.033664
  57 C :    0.006616
  58 C :    0.146018
  59 O :   -0.178780
  60 C :   -0.053477
  61 C :   -0.006189
  62 C :   -0.044086
  63 C :   -0.074816
  64 C :    0.092628
  65 H :    0.031906
  66 H :   -0.023171
  67 H :    0.029527
  68 H :    0.015810
  69 H :    0.026646
  70 H :    0.038294
  71 H :    0.040062
  72 H :    0.030965
  73 H :   -0.031430
  74 H :   -0.000109
  75 H :   -0.000694
  76 H :   -0.003777
  77 H :   -0.005531
  78 H :    0.010428
  79 H :    0.024797
  80 H :   -0.011438
  81 H :   -0.019229
  82 H :   -0.019288
  83 H :   -0.025743
  84 H :   -0.022806
  85 H :    0.002386
  86 H :    0.016807
  87 H :    0.018166
  88 H :   -0.000688
  89 H :    0.049326
  90 H :   -0.008958
  91 H :   -0.023210
  92 H :   -0.032498
  93 H :   -0.028726
  94 H :    0.010546
  95 H :    0.037664
  96 H :    0.012216
Sum of atomic charges:   -0.0000000

LOEWDIN ATOMIC CHARGES
----------------------
   0 C :   -0.164455
   1 S :    0.484892
   2 C :   -0.190803
   3 C :   -0.031008
   4 C :   -0.054963
   5 C :   -0.037187
   6 C :    0.045615
   7 O :   -0.102016
   8 C :    0.077486
   9 C :    0.050286
  10 O :   -0.090128
  11 C :    0.079751
  12 C :   -0.082416
  13 C :   -0.030284
  14 C :   -0.178919
  15 C :   -0.006217
  16 C :   -0.050904
  17 C :   -0.142271
  18 S :    0.421118
  19 C :   -0.199180
  20 C :   -0.008616
  21 C :   -0.035848
  22 C :   -0.106484
  23 S :    0.401881
  24 C :   -0.075662
  25 C :   -0.006361
  26 C :   -0.180866
  27 C :   -0.011224
  28 C :   -0.059719
  29 C :   -0.140538
  30 S :    0.429723
  31 C :   -0.209555
  32 C :   -0.036736
  33 C :   -0.040529
  34 C :   -0.145681
  35 S :    0.485557
  36 C :   -0.083353
  37 C :    0.045311
  38 C :   -0.004875
  39 O :   -0.058556
  40 C :   -0.010480
  41 C :   -0.012159
  42 C :   -0.220159
  43 S :    0.421895
  44 C :   -0.221294
  45 O :   -0.059408
  46 C :   -0.024457
  47 C :   -0.061815
  48 C :    0.025619
  49 C :   -0.136219
  50 C :    0.072732
  51 C :   -0.189773
  52 C :   -0.014988
  53 N :   -0.105613
  54 C :   -0.016983
  55 N :   -0.101487
  56 C :   -0.007691
  57 C :   -0.040574
  58 C :    0.072660
  59 O :   -0.167373
  60 C :   -0.002255
  61 C :   -0.026146
  62 C :   -0.018083
  63 C :   -0.015567
  64 C :   -0.046160
  65 H :    0.030371
  66 H :    0.037604
  67 H :    0.023665
  68 H :    0.013981
  69 H :    0.014622
  70 H :    0.022175
  71 H :    0.031411
  72 H :    0.014845
  73 H :    0.008495
  74 H :    0.040080
  75 H :    0.037330
  76 H :    0.036369
  77 H :    0.035853
  78 H :    0.043454
  79 H :    0.033649
  80 H :    0.028908
  81 H :    0.031432
  82 H :    0.030005
  83 H :    0.027724
  84 H :    0.030507
  85 H :    0.042631
  86 H :    0.025610
  87 H :    0.026011
  88 H :    0.037470
  89 H :    0.029089
  90 H :    0.032746
  91 H :    0.031663
  92 H :    0.023786
  93 H :    0.030337
  94 H :    0.028330
  95 H :    0.040430
  96 H :    0.028927

  Mayer bond orders larger than 0.100000
B(  0-C ,  1-S ) :   1.2274 B(  0-C ,  4-C ) :   1.3808 B(  0-C , 65-H ) :   0.9699
B(  1-S ,  2-C ) :   1.1253 B(  2-C ,  3-C ) :   1.2697 B(  2-C , 13-C ) :   1.2621
B(  3-C ,  4-C ) :   1.2172 B(  3-C , 12-C ) :   1.2004 B(  4-C ,  5-C ) :   1.1402
B(  5-C ,  6-C ) :   1.5300 B(  5-C , 66-H ) :   1.0147 B(  6-C ,  7-O ) :   1.1774
B(  6-C ,  9-C ) :   1.1631 B(  7-O ,  8-C ) :   0.9375 B(  8-C , 67-H ) :   0.9777
B(  8-C , 68-H ) :   0.9750 B(  8-C , 69-H ) :   0.9745 B(  9-C , 10-O ) :   1.1476
B(  9-C , 12-C ) :   1.4329 B( 10-O , 11-C ) :   0.9458 B( 11-C , 70-H ) :   0.9666
B( 11-C , 71-H ) :   0.9759 B( 11-C , 72-H ) :   0.9680 B( 12-C , 73-H ) :   0.9701
B( 13-C , 14-C ) :   1.5248 B( 13-C , 74-H ) :   0.9339 B( 14-C , 15-C ) :   1.2018
B( 14-C , 18-S ) :   1.0214 B( 15-C , 16-C ) :   1.5107 B( 15-C , 75-H ) :   0.9988
B( 16-C , 17-C ) :   1.2591 B( 16-C , 76-H ) :   0.9941 B( 17-C , 18-S ) :   1.0937
B( 17-C , 19-C ) :   1.3622 B( 19-C , 20-C ) :   1.2925 B( 19-C , 23-S ) :   1.0569
B( 20-C , 21-C ) :   1.4510 B( 20-C , 77-H ) :   0.9959 B( 21-C , 22-C ) :   1.2811
B( 21-C , 78-H ) :   0.9955 B( 22-C , 23-S ) :   1.0978 B( 22-C , 24-C ) :   1.3537
B( 24-C , 25-C ) :   1.3829 B( 24-C , 79-H ) :   0.9639 B( 25-C , 26-C ) :   1.3538
B( 25-C , 80-H ) :   0.9743 B( 26-C , 27-C ) :   1.2954 B( 26-C , 30-S ) :   1.0630
B( 27-C , 28-C ) :   1.4087 B( 27-C , 81-H ) :   0.9982 B( 28-C , 29-C ) :   1.3333
B( 28-C , 82-H ) :   0.9994 B( 29-C , 30-S ) :   1.1259 B( 29-C , 31-C ) :   1.2759
B( 31-C , 32-C ) :   1.3330 B( 31-C , 35-S ) :   1.0826 B( 32-C , 33-C ) :   1.4170
B( 32-C , 83-H ) :   0.9937 B( 33-C , 34-C ) :   1.2996 B( 33-C , 84-H ) :   0.9956
B( 34-C , 35-S ) :   1.1367 B( 34-C , 36-C ) :   1.2862 B( 36-C , 37-C ) :   1.4783
B( 36-C , 85-H ) :   0.9432 B( 37-C , 38-C ) :   1.1581 B( 37-C , 45-O ) :   1.0252
B( 38-C , 39-O ) :   1.0207 B( 38-C , 46-C ) :   1.4369 B( 39-O , 40-C ) :   1.0862
B( 40-C , 41-C ) :   1.1951 B( 40-C , 44-C ) :   1.5628 B( 41-C , 42-C ) :   1.5612
B( 41-C , 45-O ) :   1.0768 B( 42-C , 43-S ) :   1.1387 B( 42-C , 86-H ) :   0.9727
B( 43-S , 44-C ) :   1.1341 B( 44-C , 87-H ) :   0.9718 B( 46-C , 47-C ) :   1.2900
B( 46-C , 88-H ) :   0.9653 B( 47-C , 48-C ) :   1.3708 B( 47-C , 89-H ) :   0.9584
B( 48-C , 49-C ) :   1.3128 B( 48-C , 90-H ) :   0.9690 B( 49-C , 50-C ) :   1.1754
B( 49-C , 58-C ) :   1.0032 B( 50-C , 51-C ) :   1.5088 B( 50-C , 56-C ) :   0.9573
B( 51-C , 52-C ) :   1.1653 B( 51-C , 54-C ) :   1.1803 B( 52-C , 53-N ) :   2.9134
B( 54-C , 55-N ) :   2.8895 B( 56-C , 57-C ) :   1.3373 B( 56-C , 63-C ) :   1.3803
B( 57-C , 58-C ) :   0.9393 B( 57-C , 60-C ) :   1.3975 B( 58-C , 59-O ) :   2.1255
B( 60-C , 61-C ) :   1.3100 B( 60-C , 91-H ) :   1.0054 B( 61-C , 62-C ) :   1.4083
B( 61-C , 92-H ) :   0.9937 B( 62-C , 63-C ) :   1.3313 B( 62-C , 64-C ) :   1.0537
B( 63-C , 93-H ) :   0.9850 B( 64-C , 94-H ) :   0.9586 B( 64-C , 95-H ) :   0.9525
B( 64-C , 96-H ) :   0.9589

-----------------------------------------------------------------------------
         ABSORPTION SPECTRUM VIA TRANSITION ELECTRIC DIPOLE MOMENTS
-----------------------------------------------------------------------------
State   Energy  Wavelength   fosc         T2         TX        TY        TZ
        (cm-1)    (nm)                  (au**2)     (au)      (au)      (au)
-----------------------------------------------------------------------------
   0    3499.5   2857.5   0.251198123  23.63115  -4.39692   0.36154  -2.04146
   1    9481.3   1054.7   0.395030750  13.71635   3.57387  -0.09150   0.96717
   2   12608.8    793.1   0.444593509  11.60819  -3.39886   0.11133   0.20862
   3   14345.2    697.1   0.080703484   1.85209   1.25802  -0.37847   0.35528
   4   16499.7    606.1   0.017939064   0.35793  -0.07790  -0.52565   0.27487
   5   19281.5    518.6   0.035824980   0.61167  -0.12350   0.75126  -0.17897
   6   19624.7    509.6   0.165924989   2.78346   1.35286   0.47399  -0.85357
   7   20275.2    493.2   0.051400787   0.83460  -0.86747  -0.09000  -0.27202
   8   21144.0    472.9   0.189847687   2.95593  -1.48389  -0.46709   0.73199
   9   21919.1    456.2   0.239979481   3.60436  -1.01047  -1.31813   0.91970
  10   22351.8    447.4   0.011219525   0.16525  -0.28794   0.21860   0.18589
  11   23822.2    419.8   0.285613899   3.94705   1.36699  -1.44133   0.03114
  12   24140.4    414.2   0.125673816   1.71386  -1.28214   0.03760  -0.26183
  13   24275.2    411.9   0.014786456   0.20053  -0.42079  -0.14326   0.05424
  14   25512.8    392.0   0.015684653   0.20239   0.07232  -0.38775   0.21636
  15   26014.7    384.4   0.095715179   1.21126  -0.46788   0.99610   0.01173
  16   26287.5    380.4   0.017064102   0.21370   0.33376  -0.29220   0.13009
  17   26654.0    375.2   0.384619778   4.75055   0.53917  -2.11183  -0.00449
  18   27338.4    365.8   0.029141571   0.35093   0.06528   0.55936  -0.18379
  19   27491.4    363.8   0.170368634   2.04018  -0.85295   1.13192   0.17725
  20   28468.8    351.3   0.076986032   0.89026  -0.32036   0.88398  -0.07888
  21   28929.6    345.7   0.030445981   0.34647   0.12507   0.51990  -0.24604
  22   29207.9    342.4   0.047665839   0.53726  -0.72515   0.03588  -0.10067
  23   29410.3    340.0   0.026295740   0.29435   0.50340   0.19808  -0.04125
  24   29610.0    337.7   0.033421820   0.37159   0.44431   0.39816  -0.12511
  25   30017.0    333.1   0.027937650   0.30641   0.32300  -0.44826   0.03378
  26   30651.5    326.2   0.182024794   1.95504   0.86203  -1.06257   0.28792
  27   31319.8    319.3   0.003140851   0.03301  -0.01817  -0.18023   0.01418
  28   31419.5    318.3   0.018381096   0.19260   0.24627  -0.35946   0.05231
  29   31453.0    317.9   0.032889860   0.34425   0.22524  -0.51369   0.17217
  30   32247.7    310.1   0.054235143   0.55368   0.07678  -0.73257   0.10549
  31   32454.1    308.1   0.000483940   0.00491   0.06927   0.01053   0.00043
  32   32921.7    303.8   0.088220201   0.88219  -0.27846  -0.89275  -0.08743
  33   32992.9    303.1   0.092147678   0.91947  -0.76683  -0.45636  -0.35098
  34   33248.7    300.8   0.010131061   0.10031   0.29673   0.10341   0.03965
  35   33451.5    298.9   0.037362233   0.36770   0.13428  -0.58553  -0.08260
  36   33994.6    294.2   0.073796951   0.71467  -0.10064   0.80371  -0.24206
  37   34369.9    291.0   0.032005318   0.30656  -0.29483  -0.37352   0.28306
  38   34502.5    289.8   0.024824349   0.23687   0.48055  -0.06470  -0.04182
  39   34751.9    287.8   0.272057985   2.57726  -0.29700   1.57626   0.06687
  40   35038.9    285.4   0.059628161   0.56024  -0.74030  -0.09388  -0.05822
  41   35352.3    282.9   0.031263335   0.29113  -0.01646   0.53916  -0.01310
  42   35938.8    278.3   0.113850691   1.04291   0.65704  -0.76762  -0.14822
  43   36295.1    275.5   0.234555333   2.12752   0.86828   1.07923   0.45703
  44   36561.4    273.5   0.025006741   0.22517   0.35619  -0.30635  -0.06670
  45   36582.5    273.4   0.017387244   0.15647   0.13545  -0.28472   0.23887
  46   36914.0    270.9   0.014711635   0.13120  -0.22120   0.16553   0.23425
  47   37039.2    270.0   0.016204118   0.14403   0.11008   0.35795  -0.06151
  48   37102.1    269.5   0.185166932   1.64301  -0.24776  -1.24268  -0.19333
  49   37213.6    268.7   0.021213569   0.18767  -0.11593   0.39153   0.14468
  50   37517.1    266.5   0.058174028   0.51048  -0.05142  -0.66111  -0.26602
  51   37617.6    265.8   0.001132195   0.00991  -0.08766  -0.03156  -0.03504
  52   38048.2    262.8   0.004840465   0.04188   0.03361  -0.19451  -0.05401
  53   38088.6    262.5   0.032718402   0.28280  -0.48368   0.11236  -0.19034
  54   38338.3    260.8   0.031862779   0.27361  -0.49779   0.14893  -0.06022
  55   38740.4    258.1   0.051963144   0.44158   0.66339   0.03688   0.01132
  56   38874.1    257.2   0.013491611   0.11426  -0.29146   0.14193   0.09574
  57   38985.6    256.5   0.114836321   0.96973  -0.97716  -0.12001   0.02198
  58   39357.2    254.1   0.013783929   0.11530   0.29224   0.01096  -0.17255
  59   39612.6    252.4   0.062672595   0.52086  -0.29857   0.63038   0.18528
  60   39741.2    251.6   0.033987802   0.28155  -0.47366  -0.02460  -0.23789
  61   39971.2    250.2   0.078835304   0.64931  -0.79982   0.07280   0.06553
  62   40081.0    249.5   0.018350556   0.15073  -0.24014   0.29265   0.08613
  63   40255.8    248.4   0.016108137   0.13173   0.29645   0.19530   0.07558

FINAL SINGLE POINT ENERGY     -4871.490220638485

DIPOLE MOMENT
-------------
                                X             Y             Z
Electronic contribution:     21.34262     -35.85731      -3.18958
Nuclear contribution   :    -27.24283      38.15582       0.13379
                        -----------------------------------------
Total Dipole Moment    :     -5.90021       2.29851      -3.05579
                        -----------------------------------------
Magnitude (a.u.)       :      7.03090
Magnitude (Debye)      :     17.87112

Rotational constants in cm-1:     0.002062     0.000371     0.000344
Rotational constants in MHz :    61.820891    11.118524    10.300740

                             ****ORCA TERMINATED NORMALLY****
TOTAL RUN TIME: 0 days 0 hours 11 minutes 51 seconds 489 msec
