                         Program Version 4.2.0 -  RELEASE  -
|  1> # ORCA input file
|  2> # SCF done       -170.179565571413          0.000451471858
|  3> ! CAM-B3LYP def2-SVP def2/J RIJCOSX Grid4 TightSCF
|  4> %maxcore 5000
|  5> %tddft
|  6>     Mode sTDDFT
|  7>     Ethresh 5.0
|  8>     maxcore 5000
|  9> end
| 10>
| 11> %pal
| 12>   nprocs 6
| 13>   end
| 14> * xyz 0 1
| 15>    C       -2.31460        -6.94726        10.03189
| 16>    S       -2.95658        -7.37548         8.51290
| 17>    C       -1.44058        -8.02368         7.96716
| 18>    C       -0.46613        -7.89523         8.96865
| 19>    C       -0.97983        -7.26987        10.15772
| 20>    C       -0.10118        -7.07201        11.25819
| 21>    S       -0.61495        -6.31918        12.77063
| 22>    C        1.20094        -7.48750        11.16313
| 23>    C        1.68739        -8.10025         9.99676
| 24>    C        0.87936        -8.30299         8.91333
| 25>    C       -1.28195        -8.58631         6.68312
| 26>    C       -2.28494        -8.70782         5.77230
| 27>    C       -2.21028        -9.25866         4.47396
| 28>    S       -3.70979        -9.68423         3.70839
| 29>    C       -2.93848       -10.33889         2.30251
| 30>    C       -1.54672       -10.20107         2.41170
| 31>    C       -1.13043        -9.57094         3.62907
| 32>    C        0.23487        -9.28154         3.81851
| 33>    C        1.13822        -9.65871         2.86776
| 34>    F        2.44138        -9.37717         3.04010
| 35>    C        0.73105       -10.32972         1.69372
| 36>    F        1.65856       -10.68995         0.79165
| 37>    C       -0.58625       -10.58910         1.45634
| 38>    C       -3.66832       -10.89292         1.22185
| 39>    C       -5.02057       -10.93554         1.16641
| 40>    C       -5.86025       -11.42739         0.11388
| 41>    C       -5.57502       -11.66571        -1.17865
| 42>    C       -4.24146       -11.46127        -1.82837
| 43>    C       -6.66551       -12.13838        -2.10773
| 44>    N       -6.39865       -13.47433        -2.58900
| 45>    C       -7.33160       -14.40988        -2.79993
| 46>    C       -7.08355       -15.64152        -3.33397
| 47>    C       -8.08934       -16.58867        -3.56307
| 48>    C       -7.88412       -17.82881        -4.11808
| 49>    C       -8.85695       -18.81043        -4.40833
| 50>    C       -8.35507       -19.94737        -4.97114
| 51>    C       -6.95531       -19.92616        -5.14735
| 52>    S       -6.29160       -18.41723        -4.58778
| 53>    C       -6.14802       -20.92553        -5.67300
| 54>    C       -6.53562       -22.17675        -6.18280
| 55>    C       -5.48707       -22.94077        -6.61762
| 56>    C       -4.22680       -22.33013        -6.46533
| 57>    S       -4.40837       -20.74150        -5.76278
| 58>    C       -2.99589       -22.87691        -6.79777
| 59>    C       -1.79527       -22.22102        -6.58809
| 60>    C       -0.54188       -22.73849        -6.88137
| 61>    C        0.72125       -22.09630        -6.65677
| 62>    C        0.94454       -20.83869        -6.13611
| 63>    C        2.22063       -20.27903        -5.94253
| 64>    N        3.22994       -19.76092        -5.75579
| 65>    C       -0.04516       -19.92690        -5.72474
| 66>    N       -0.77571       -19.11459        -5.36463
| 67>    C        1.77392       -23.01990        -7.08351
| 68>    C        1.16550       -24.20106        -7.57018
| 69>    C       -0.30585       -24.06624        -7.46480
| 70>    O       -1.12293       -24.90439        -7.80205
| 71>    C        1.88763       -25.26675        -8.04403
| 72>    C        3.28395       -25.16446        -8.03609
| 73>    C        3.88258       -23.98196        -7.54847
| 74>    C        3.14956       -22.90119        -7.07004
| 75>    S        5.61835       -24.06587        -7.62466
| 76>    C        5.51311       -25.66887        -8.30199
| 77>    C        4.24764       -26.11968        -8.46377
| 78>   Br        7.08698       -26.59863        -8.72948
| 79>    H       -2.96732        -6.48588        10.74733
| 80>    H       -1.82637        -5.94468        12.37080
| 81>    H        1.86351        -7.33772        12.00182
| 82>    H        2.72087        -8.40904         9.96771
| 83>    H        1.26517        -8.77346         8.02303
| 84>    H       -0.29728        -8.96504         6.46156
| 85>    H       -3.27773        -8.39589         6.07674
| 86>    H        0.58285        -8.73650         4.67838
| 87>    H       -0.87201       -11.07899         0.54032
| 88>    H       -3.06938       -11.31327         0.43185
| 89>    H       -5.55764       -10.55896         2.02960
| 90>    H       -6.88894       -11.57777         0.42004
| 91>    H       -3.78287       -10.54016        -1.47256
| 92>    H       -4.34719       -11.39581        -2.90986
| 93>    H       -3.56261       -12.28515        -1.60394
| 94>    H       -6.73119       -11.44664        -2.96260
| 95>    H       -7.63303       -12.14360        -1.60150
| 96>    H       -5.45047       -13.67761        -2.86999
| 97>    H       -8.33916       -14.13660        -2.51466
| 98>    H       -6.07181       -15.90511        -3.61076
| 99>    H       -9.10655       -16.32848        -3.29915
|100>    H       -9.89914       -18.64753        -4.19578
|101>    H       -8.95074       -20.79526        -5.25702
|102>    H       -7.56474       -22.48652        -6.22161
|103>    H       -5.58447       -23.92567        -7.03845
|104>    H       -2.98688       -23.86667        -7.23035
|105>    H       -1.84758       -21.23121        -6.15070
|106>    H        1.39344       -26.15377        -8.40847
|107>    H        3.65603       -22.02213        -6.70858
|108>    H        4.00045       -27.08495        -8.86664
|109> *
|110>
|111>                          ****END OF INPUT****

CARTESIAN COORDINATES (ANGSTROEM)
---------------------------------
  C     -2.314600   -6.947260   10.031890
  S     -2.956580   -7.375480    8.512900
  C     -1.440580   -8.023680    7.967160
  C     -0.466130   -7.895230    8.968650
  C     -0.979830   -7.269870   10.157720
  C     -0.101180   -7.072010   11.258190
  S     -0.614950   -6.319180   12.770630
  C      1.200940   -7.487500   11.163130
  C      1.687390   -8.100250    9.996760
  C      0.879360   -8.302990    8.913330
  C     -1.281950   -8.586310    6.683120
  C     -2.284940   -8.707820    5.772300
  C     -2.210280   -9.258660    4.473960
  S     -3.709790   -9.684230    3.708390
  C     -2.938480  -10.338890    2.302510
  C     -1.546720  -10.201070    2.411700
  C     -1.130430   -9.570940    3.629070
  C      0.234870   -9.281540    3.818510
  C      1.138220   -9.658710    2.867760
  F      2.441380   -9.377170    3.040100
  C      0.731050  -10.329720    1.693720
  F      1.658560  -10.689950    0.791650
  C     -0.586250  -10.589100    1.456340
  C     -3.668320  -10.892920    1.221850
  C     -5.020570  -10.935540    1.166410
  C     -5.860250  -11.427390    0.113880
  C     -5.575020  -11.665710   -1.178650
  C     -4.241460  -11.461270   -1.828370
  C     -6.665510  -12.138380   -2.107730
  N     -6.398650  -13.474330   -2.589000
  C     -7.331600  -14.409880   -2.799930
  C     -7.083550  -15.641520   -3.333970
  C     -8.089340  -16.588670   -3.563070
  C     -7.884120  -17.828810   -4.118080
  C     -8.856950  -18.810430   -4.408330
  C     -8.355070  -19.947370   -4.971140
  C     -6.955310  -19.926160   -5.147350
  S     -6.291600  -18.417230   -4.587780
  C     -6.148020  -20.925530   -5.673000
  C     -6.535620  -22.176750   -6.182800
  C     -5.487070  -22.940770   -6.617620
  C     -4.226800  -22.330130   -6.465330
  S     -4.408370  -20.741500   -5.762780
  C     -2.995890  -22.876910   -6.797770
  C     -1.795270  -22.221020   -6.588090
  C     -0.541880  -22.738490   -6.881370
  C      0.721250  -22.096300   -6.656770
  C      0.944540  -20.838690   -6.136110
  C      2.220630  -20.279030   -5.942530
  N      3.229940  -19.760920   -5.755790
  C     -0.045160  -19.926900   -5.724740
  N     -0.775710  -19.114590   -5.364630
  C      1.773920  -23.019900   -7.083510
  C      1.165500  -24.201060   -7.570180
  C     -0.305850  -24.066240   -7.464800
  O     -1.122930  -24.904390   -7.802050
  C      1.887630  -25.266750   -8.044030
  C      3.283950  -25.164460   -8.036090
  C      3.882580  -23.981960   -7.548470
  C      3.149560  -22.901190   -7.070040
  S      5.618350  -24.065870   -7.624660
  C      5.513110  -25.668870   -8.301990
  C      4.247640  -26.119680   -8.463770
  Br     7.086980  -26.598630   -8.729480
  H     -2.967320   -6.485880   10.747330
  H     -1.826370   -5.944680   12.370800
  H      1.863510   -7.337720   12.001820
  H      2.720870   -8.409040    9.967710
  H      1.265170   -8.773460    8.023030
  H     -0.297280   -8.965040    6.461560
  H     -3.277730   -8.395890    6.076740
  H      0.582850   -8.736500    4.678380
  H     -0.872010  -11.078990    0.540320
  H     -3.069380  -11.313270    0.431850
  H     -5.557640  -10.558960    2.029600
  H     -6.888940  -11.577770    0.420040
  H     -3.782870  -10.540160   -1.472560
  H     -4.347190  -11.395810   -2.909860
  H     -3.562610  -12.285150   -1.603940
  H     -6.731190  -11.446640   -2.962600
  H     -7.633030  -12.143600   -1.601500
  H     -5.450470  -13.677610   -2.869990
  H     -8.339160  -14.136600   -2.514660
  H     -6.071810  -15.905110   -3.610760
  H     -9.106550  -16.328480   -3.299150
  H     -9.899140  -18.647530   -4.195780
  H     -8.950740  -20.795260   -5.257020
  H     -7.564740  -22.486520   -6.221610
  H     -5.584470  -23.925670   -7.038450
  H     -2.986880  -23.866670   -7.230350
  H     -1.847580  -21.231210   -6.150700
  H      1.393440  -26.153770   -8.408470
  H      3.656030  -22.022130   -6.708580
  H      4.000450  -27.084950   -8.866640

 Total Charge           Charge          ....    0
 Multiplicity           Mult            ....    1
 Number of Electrons    NEL             ....  514
 Basis Dimension        Dim             .... 1088

ORBITAL ENERGIES
----------------

  NO   OCC          E(Eh)            E(eV)
   0   2.0000    -482.866542    -13139.4666
   1   2.0000     -88.973227     -2421.0846
   2   2.0000     -88.972616     -2421.0680
   3   2.0000     -88.954535     -2420.5760
   4   2.0000     -88.951901     -2420.5043
   5   2.0000     -88.943328     -2420.2710
   6   2.0000     -88.933407     -2420.0010
   7   2.0000     -62.544281     -1701.9164
   8   2.0000     -56.378202     -1534.1289
   9   2.0000     -56.375539     -1534.0564
  10   2.0000     -56.375493     -1534.0552
  11   2.0000     -24.789623      -674.5599
  12   2.0000     -24.788390      -674.5264
  13   2.0000     -19.180023      -521.9150
  14   2.0000     -14.469482      -393.7346
  15   2.0000     -14.383284      -391.3890
  16   2.0000     -14.380649      -391.3174
  17   2.0000     -10.371935      -282.2347
  18   2.0000     -10.370307      -282.1904
  19   2.0000     -10.351266      -281.6723
  20   2.0000     -10.335697      -281.2486
  21   2.0000     -10.334834      -281.2251
  22   2.0000     -10.330380      -281.1039
  23   2.0000     -10.326892      -281.0090
  24   2.0000     -10.317584      -280.7557
  25   2.0000     -10.310985      -280.5762
  26   2.0000     -10.310251      -280.5562
  27   2.0000     -10.309174      -280.5269
  28   2.0000     -10.308814      -280.5171
  29   2.0000     -10.307143      -280.4716
  30   2.0000     -10.305963      -280.4395
  31   2.0000     -10.305742      -280.4335
  32   2.0000     -10.304735      -280.4061
  33   2.0000     -10.300983      -280.3040
  34   2.0000     -10.300531      -280.2917
  35   2.0000     -10.299206      -280.2557
  36   2.0000     -10.298636      -280.2401
  37   2.0000     -10.298508      -280.2366
  38   2.0000     -10.297627      -280.2127
  39   2.0000     -10.297470      -280.2084
  40   2.0000     -10.295986      -280.1680
  41   2.0000     -10.294178      -280.1188
  42   2.0000     -10.293916      -280.1117
  43   2.0000     -10.293389      -280.0974
  44   2.0000     -10.292569      -280.0750
  45   2.0000     -10.291060      -280.0340
  46   2.0000     -10.289274      -279.9854
  47   2.0000     -10.288469      -279.9635
  48   2.0000     -10.288451      -279.9630
  49   2.0000     -10.287370      -279.9336
  50   2.0000     -10.287182      -279.9284
  51   2.0000     -10.286828      -279.9188
  52   2.0000     -10.286283      -279.9040
  53   2.0000     -10.285898      -279.8935
  54   2.0000     -10.280400      -279.7439
  55   2.0000     -10.280107      -279.7359
  56   2.0000     -10.277412      -279.6626
  57   2.0000     -10.276552      -279.6392
  58   2.0000     -10.276293      -279.6321
  59   2.0000     -10.276145      -279.6281
  60   2.0000     -10.274639      -279.5871
  61   2.0000     -10.274330      -279.5787
  62   2.0000     -10.273557      -279.5577
  63   2.0000     -10.272389      -279.5259
  64   2.0000     -10.271666      -279.5062
  65   2.0000     -10.261037      -279.2170
  66   2.0000     -10.252341      -278.9804
  67   2.0000     -10.250237      -278.9231
  68   2.0000      -8.773715      -238.7449
  69   2.0000      -8.068437      -219.5533
  70   2.0000      -8.067852      -219.5374
  71   2.0000      -8.050583      -219.0675
  72   2.0000      -8.047880      -218.9940
  73   2.0000      -8.039217      -218.7582
  74   2.0000      -8.028925      -218.4782
  75   2.0000      -6.609905      -179.8647
  76   2.0000      -6.595478      -179.4721
  77   2.0000      -6.595355      -179.4687
  78   2.0000      -6.037368      -164.2851
  79   2.0000      -6.036755      -164.2685
  80   2.0000      -6.033166      -164.1708
  81   2.0000      -6.032816      -164.1613
  82   2.0000      -6.031513      -164.1258
  83   2.0000      -6.030640      -164.1020
  84   2.0000      -6.020172      -163.8172
  85   2.0000      -6.017570      -163.7464
  86   2.0000      -6.016151      -163.7078
  87   2.0000      -6.013338      -163.6313
  88   2.0000      -6.011821      -163.5900
  89   2.0000      -6.009098      -163.5159
  90   2.0000      -6.008750      -163.5064
  91   2.0000      -6.004733      -163.3971
  92   2.0000      -6.000566      -163.2837
  93   2.0000      -5.999145      -163.2450
  94   2.0000      -5.995301      -163.1404
  95   2.0000      -5.988904      -162.9664
  96   2.0000      -2.725791       -74.1725
  97   2.0000      -2.721741       -74.0623
  98   2.0000      -2.721638       -74.0595
  99   2.0000      -2.710185       -73.7479
 100   2.0000      -2.710162       -73.7473
 101   2.0000      -1.310709       -35.6662
 102   2.0000      -1.295871       -35.2624
 103   2.0000      -1.092909       -29.7396
 104   2.0000      -1.068346       -29.0712
 105   2.0000      -1.009117       -27.4595
 106   2.0000      -1.001689       -27.2573
 107   2.0000      -0.998946       -27.1827
 108   2.0000      -0.994737       -27.0682
 109   2.0000      -0.982320       -26.7303
 110   2.0000      -0.973956       -26.5027
 111   2.0000      -0.961631       -26.1673
 112   2.0000      -0.957548       -26.0562
 113   2.0000      -0.949691       -25.8424
 114   2.0000      -0.943231       -25.6666
 115   2.0000      -0.937672       -25.5153
 116   2.0000      -0.919621       -25.0242
 117   2.0000      -0.915056       -24.8999
 118   2.0000      -0.909626       -24.7522
 119   2.0000      -0.894136       -24.3307
 120   2.0000      -0.887593       -24.1526
 121   2.0000      -0.880736       -23.9660
 122   2.0000      -0.878492       -23.9050
 123   2.0000      -0.867898       -23.6167
 124   2.0000      -0.860592       -23.4179
 125   2.0000      -0.857757       -23.3407
 126   2.0000      -0.847714       -23.0675
 127   2.0000      -0.843985       -22.9660
 128   2.0000      -0.840927       -22.8828
 129   2.0000      -0.834185       -22.6993
 130   2.0000      -0.828888       -22.5552
 131   2.0000      -0.821893       -22.3648
 132   2.0000      -0.817400       -22.2426
 133   2.0000      -0.812024       -22.0963
 134   2.0000      -0.802401       -21.8345
 135   2.0000      -0.797772       -21.7085
 136   2.0000      -0.788208       -21.4482
 137   2.0000      -0.773906       -21.0591
 138   2.0000      -0.763089       -20.7647
 139   2.0000      -0.746615       -20.3164
 140   2.0000      -0.740005       -20.1366
 141   2.0000      -0.730679       -19.8828
 142   2.0000      -0.728034       -19.8108
 143   2.0000      -0.723565       -19.6892
 144   2.0000      -0.708548       -19.2806
 145   2.0000      -0.701285       -19.0829
 146   2.0000      -0.699215       -19.0266
 147   2.0000      -0.683388       -18.5959
 148   2.0000      -0.679674       -18.4949
 149   2.0000      -0.667659       -18.1679
 150   2.0000      -0.666547       -18.1377
 151   2.0000      -0.665880       -18.1195
 152   2.0000      -0.659340       -17.9416
 153   2.0000      -0.646989       -17.6055
 154   2.0000      -0.639516       -17.4021
 155   2.0000      -0.633963       -17.2510
 156   2.0000      -0.632204       -17.2032
 157   2.0000      -0.628555       -17.1038
 158   2.0000      -0.627527       -17.0759
 159   2.0000      -0.620642       -16.8885
 160   2.0000      -0.614597       -16.7240
 161   2.0000      -0.613397       -16.6914
 162   2.0000      -0.606332       -16.4991
 163   2.0000      -0.604907       -16.4604
 164   2.0000      -0.602284       -16.3890
 165   2.0000      -0.595462       -16.2033
 166   2.0000      -0.593464       -16.1490
 167   2.0000      -0.589394       -16.0382
 168   2.0000      -0.580467       -15.7953
 169   2.0000      -0.575938       -15.6721
 170   2.0000      -0.570071       -15.5124
 171   2.0000      -0.568826       -15.4785
 172   2.0000      -0.565670       -15.3927
 173   2.0000      -0.558138       -15.1877
 174   2.0000      -0.556553       -15.1446
 175   2.0000      -0.554325       -15.0839
 176   2.0000      -0.546416       -14.8687
 177   2.0000      -0.543956       -14.8018
 178   2.0000      -0.538365       -14.6496
 179   2.0000      -0.537968       -14.6388
 180   2.0000      -0.533059       -14.5053
 181   2.0000      -0.528688       -14.3863
 182   2.0000      -0.527281       -14.3480
 183   2.0000      -0.517149       -14.0723
 184   2.0000      -0.516172       -14.0458
 185   2.0000      -0.514524       -14.0009
 186   2.0000      -0.510845       -13.9008
 187   2.0000      -0.510107       -13.8807
 188   2.0000      -0.508133       -13.8270
 189   2.0000      -0.507532       -13.8106
 190   2.0000      -0.503308       -13.6957
 191   2.0000      -0.502622       -13.6771
 192   2.0000      -0.501496       -13.6464
 193   2.0000      -0.500895       -13.6301
 194   2.0000      -0.498944       -13.5770
 195   2.0000      -0.498333       -13.5603
 196   2.0000      -0.495794       -13.4912
 197   2.0000      -0.487102       -13.2547
 198   2.0000      -0.483729       -13.1629
 199   2.0000      -0.481925       -13.1138
 200   2.0000      -0.481364       -13.0986
 201   2.0000      -0.479724       -13.0539
 202   2.0000      -0.477025       -12.9805
 203   2.0000      -0.472589       -12.8598
 204   2.0000      -0.469245       -12.7688
 205   2.0000      -0.466357       -12.6902
 206   2.0000      -0.465218       -12.6592
 207   2.0000      -0.464260       -12.6332
 208   2.0000      -0.460434       -12.5290
 209   2.0000      -0.456617       -12.4252
 210   2.0000      -0.454682       -12.3725
 211   2.0000      -0.451073       -12.2743
 212   2.0000      -0.449929       -12.2432
 213   2.0000      -0.444510       -12.0957
 214   2.0000      -0.442920       -12.0525
 215   2.0000      -0.441760       -12.0209
 216   2.0000      -0.439088       -11.9482
 217   2.0000      -0.433955       -11.8085
 218   2.0000      -0.433837       -11.8053
 219   2.0000      -0.431652       -11.7458
 220   2.0000      -0.427046       -11.6205
 221   2.0000      -0.424625       -11.5546
 222   2.0000      -0.422217       -11.4891
 223   2.0000      -0.421753       -11.4765
 224   2.0000      -0.420750       -11.4492
 225   2.0000      -0.419296       -11.4096
 226   2.0000      -0.415914       -11.3176
 227   2.0000      -0.413829       -11.2609
 228   2.0000      -0.412088       -11.2135
 229   2.0000      -0.406451       -11.0601
 230   2.0000      -0.403081       -10.9684
 231   2.0000      -0.397470       -10.8157
 232   2.0000      -0.395583       -10.7644
 233   2.0000      -0.393757       -10.7147
 234   2.0000      -0.391998       -10.6668
 235   2.0000      -0.385008       -10.4766
 236   2.0000      -0.382232       -10.4011
 237   2.0000      -0.375811       -10.2263
 238   2.0000      -0.368667       -10.0319
 239   2.0000      -0.359950        -9.7947
 240   2.0000      -0.359154        -9.7731
 241   2.0000      -0.356387        -9.6978
 242   2.0000      -0.342853        -9.3295
 243   2.0000      -0.336410        -9.1542
 244   2.0000      -0.326296        -8.8790
 245   2.0000      -0.321618        -8.7517
 246   2.0000      -0.321449        -8.7471
 247   2.0000      -0.318038        -8.6542
 248   2.0000      -0.309158        -8.4126
 249   2.0000      -0.306280        -8.3343
 250   2.0000      -0.301173        -8.1953
 251   2.0000      -0.289024        -7.8647
 252   2.0000      -0.271790        -7.3958
 253   2.0000      -0.267414        -7.2767
 254   2.0000      -0.263120        -7.1599
 255   2.0000      -0.225304        -6.1308
 256   2.0000      -0.206435        -5.6174
 257   0.0000      -0.089696        -2.4407
 258   0.0000      -0.080329        -2.1859
 259   0.0000      -0.040927        -1.1137
 260   0.0000      -0.035777        -0.9735
 261   0.0000      -0.021385        -0.5819

MULLIKEN ATOMIC CHARGES
-----------------------
   0 C :   -0.171039
   1 S :    0.146373
   2 C :   -0.131214
   3 C :    0.119898
   4 C :    0.111346
   5 C :   -0.072872
   6 S :    0.034777
   7 C :   -0.005449
   8 C :    0.030659
   9 C :   -0.032766
  10 C :   -0.003647
  11 C :    0.028380
  12 C :   -0.118356
  13 S :    0.145794
  14 C :   -0.115388
  15 C :    0.124616
  16 C :    0.126734
  17 C :   -0.122640
  18 C :    0.224467
  19 F :   -0.179719
  20 C :    0.230553
  21 F :   -0.176160
  22 C :   -0.118963
  23 C :    0.013937
  24 C :   -0.012667
  25 C :    0.030141
  26 C :   -0.211363
  27 C :    0.064011
  28 C :    0.210611
  29 N :   -0.137605
  30 C :    0.077902
  31 C :   -0.041858
  32 C :    0.018913
  33 C :   -0.056740
  34 C :    0.057406
  35 C :    0.002776
  36 C :   -0.018731
  37 S :    0.104474
  38 C :   -0.065794
  39 C :    0.039607
  40 C :    0.017461
  41 C :    0.006092
  42 S :    0.104647
  43 C :   -0.030761
  44 C :   -0.034913
  45 C :   -0.105854
  46 C :    0.337658
  47 C :   -0.379384
  48 C :   -0.188416
  49 N :    0.119614
  50 C :   -0.192787
  51 N :    0.117575
  52 C :    0.011191
  53 C :   -0.007255
  54 C :    0.133774
  55 O :   -0.175349
  56 C :   -0.085296
  57 C :    0.119895
  58 C :   -0.094784
  59 C :   -0.029702
  60 S :    0.171048
  61 C :   -0.124727
  62 C :    0.036784
  63 Br:    0.004617
  64 H :    0.019980
  65 H :    0.055509
  66 H :   -0.018313
  67 H :   -0.010756
  68 H :   -0.029526
  69 H :   -0.011952
  70 H :   -0.013919
  71 H :   -0.013954
  72 H :   -0.013730
  73 H :   -0.027111
  74 H :   -0.009177
  75 H :   -0.022469
  76 H :    0.043832
  77 H :    0.014604
  78 H :    0.050968
  79 H :    0.029429
  80 H :    0.011266
  81 H :    0.131475
  82 H :    0.013075
  83 H :    0.002935
  84 H :   -0.009778
  85 H :   -0.009940
  86 H :   -0.013100
  87 H :   -0.013095
  88 H :   -0.009444
  89 H :    0.008102
  90 H :    0.007373
  91 H :   -0.020484
  92 H :   -0.012818
  93 H :   -0.010514
Sum of atomic charges:   -0.0000000

LOEWDIN ATOMIC CHARGES
----------------------
   0 C :   -0.202875
   1 S :    0.484853
   2 C :   -0.183847
   3 C :   -0.036281
   4 C :   -0.069270
   5 C :   -0.139530
   6 S :    0.232803
   7 C :   -0.058120
   8 C :   -0.016001
   9 C :   -0.033000
  10 C :   -0.032882
  11 C :   -0.061867
  12 C :   -0.164141
  13 S :    0.478344
  14 C :   -0.188242
  15 C :   -0.038681
  16 C :   -0.049945
  17 C :   -0.040560
  18 C :    0.060672
  19 F :   -0.057942
  20 C :    0.063905
  21 F :   -0.055103
  22 C :   -0.042837
  23 C :   -0.030318
  24 C :   -0.048086
  25 C :   -0.040062
  26 C :   -0.042718
  27 C :   -0.057902
  28 C :    0.048338
  29 N :    0.025937
  30 C :    0.077043
  31 C :   -0.127762
  32 C :    0.005816
  33 C :   -0.192057
  34 C :   -0.005346
  35 C :   -0.061432
  36 C :   -0.134772
  37 S :    0.398554
  38 C :   -0.215449
  39 C :   -0.008272
  40 C :   -0.060062
  41 C :   -0.101273
  42 S :    0.410685
  43 C :   -0.088596
  44 C :    0.045905
  45 C :   -0.125792
  46 C :    0.073143
  47 C :   -0.172013
  48 C :   -0.019138
  49 N :   -0.084342
  50 C :   -0.020343
  51 N :   -0.083514
  52 C :   -0.016054
  53 C :   -0.046436
  54 C :    0.079548
  55 O :   -0.168938
  56 C :    0.012526
  57 C :   -0.039074
  58 C :   -0.147852
  59 C :   -0.017308
  60 S :    0.420707
  61 C :   -0.278390
  62 C :   -0.071239
  63 Br:    0.121751
  64 H :    0.017495
  65 H :   -0.029077
  66 H :    0.028034
  67 H :    0.031827
  68 H :    0.025895
  69 H :    0.031901
  70 H :    0.020035
  71 H :    0.038546
  72 H :    0.038300
  73 H :    0.029983
  74 H :    0.021311
  75 H :    0.027697
  76 H :    0.042727
  77 H :    0.028803
  78 H :    0.037754
  79 H :    0.025213
  80 H :    0.029494
  81 H :    0.086267
  82 H :    0.033163
  83 H :    0.023631
  84 H :    0.035539
  85 H :    0.034777
  86 H :    0.031677
  87 H :    0.032213
  88 H :    0.035073
  89 H :    0.035817
  90 H :    0.029517
  91 H :    0.036681
  92 H :    0.038918
  93 H :    0.035918

  Mayer bond orders larger than 0.100000
B(  0-C ,  1-S ) :   1.2005 B(  0-C ,  2-C ) :   0.1046 B(  0-C ,  4-C ) :   1.4246
B(  0-C , 64-H ) :   0.9617 B(  1-S ,  2-C ) :   1.1532 B(  2-C ,  3-C ) :   1.3221
B(  2-C , 10-C ) :   1.2047 B(  3-C ,  4-C ) :   1.2145 B(  3-C ,  9-C ) :   1.2147
B(  4-C ,  5-C ) :   1.1838 B(  5-C ,  6-S ) :   1.0612 B(  5-C ,  7-C ) :   1.5579
B(  6-S , 65-H ) :   0.9508 B(  7-C ,  8-C ) :   1.2292 B(  7-C , 66-H ) :   0.9843
B(  8-C ,  9-C ) :   1.5424 B(  8-C , 67-H ) :   0.9835 B(  9-C , 68-H ) :   0.9907
B( 10-C , 11-C ) :   1.6227 B( 10-C , 69-H ) :   0.9633 B( 11-C , 12-C ) :   1.1758
B( 11-C , 70-H ) :   0.9454 B( 12-C , 13-S ) :   1.1587 B( 12-C , 14-C ) :   0.1052
B( 12-C , 16-C ) :   1.3448 B( 13-S , 14-C ) :   1.1289 B( 14-C , 15-C ) :   1.3329
B( 14-C , 23-C ) :   1.1904 B( 15-C , 16-C ) :   1.2123 B( 15-C , 22-C ) :   1.1623
B( 16-C , 17-C ) :   1.1544 B( 17-C , 18-C ) :   1.5084 B( 17-C , 22-C ) :   0.1116
B( 17-C , 71-H ) :   0.9940 B( 18-C , 19-F ) :   1.1273 B( 18-C , 20-C ) :   1.1539
B( 20-C , 21-F ) :   1.1343 B( 20-C , 22-C ) :   1.5075 B( 22-C , 72-H ) :   0.9969
B( 23-C , 24-C ) :   1.6673 B( 23-C , 73-H ) :   0.9578 B( 24-C , 25-C ) :   1.1451
B( 24-C , 74-H ) :   0.9584 B( 25-C , 26-C ) :   1.8208 B( 25-C , 75-H ) :   0.9499
B( 26-C , 27-C ) :   1.0719 B( 26-C , 28-C ) :   1.0498 B( 27-C , 76-H ) :   0.9381
B( 27-C , 77-H ) :   0.9474 B( 27-C , 78-H ) :   0.9415 B( 28-C , 29-N ) :   0.9687
B( 28-C , 79-H ) :   0.9278 B( 28-C , 80-H ) :   0.9395 B( 29-N , 30-C ) :   1.3109
B( 29-N , 81-H ) :   0.9330 B( 30-C , 31-C ) :   1.5167 B( 30-C , 82-H ) :   0.9675
B( 31-C , 32-C ) :   1.2327 B( 31-C , 83-H ) :   0.9664 B( 32-C , 33-C ) :   1.5212
B( 32-C , 84-H ) :   0.9780 B( 33-C , 34-C ) :   1.1838 B( 33-C , 37-S ) :   1.0145
B( 34-C , 35-C ) :   1.5398 B( 34-C , 85-H ) :   0.9986 B( 35-C , 36-C ) :   1.2295
B( 35-C , 86-H ) :   0.9949 B( 36-C , 37-S ) :   1.1088 B( 36-C , 38-C ) :   1.4086
B( 38-C , 39-C ) :   1.2629 B( 38-C , 42-S ) :   1.0405 B( 39-C , 40-C ) :   1.4885
B( 39-C , 87-H ) :   0.9950 B( 40-C , 41-C ) :   1.2241 B( 40-C , 88-H ) :   1.0014
B( 41-C , 42-S ) :   1.1054 B( 41-C , 43-C ) :   1.3473 B( 43-C , 44-C ) :   1.3323
B( 43-C , 89-H ) :   0.9777 B( 44-C , 45-C ) :   1.4077 B( 44-C , 90-H ) :   0.9424
B( 45-C , 46-C ) :   1.1488 B( 45-C , 54-C ) :   0.9832 B( 46-C , 47-C ) :   1.5481
B( 46-C , 52-C ) :   0.9789 B( 47-C , 48-C ) :   1.1537 B( 47-C , 50-C ) :   1.1615
B( 48-C , 49-N ) :   2.9553 B( 50-C , 51-N ) :   2.9536 B( 52-C , 53-C ) :   1.2810
B( 52-C , 59-C ) :   1.4265 B( 53-C , 54-C ) :   0.9297 B( 53-C , 56-C ) :   1.4378
B( 54-C , 55-O ) :   2.1746 B( 56-C , 57-C ) :   1.2321 B( 56-C , 91-H ) :   1.0155
B( 57-C , 58-C ) :   1.3240 B( 57-C , 62-C ) :   1.1598 B( 58-C , 59-C ) :   1.3146
B( 58-C , 60-S ) :   1.0791 B( 59-C , 92-H ) :   0.9784 B( 60-S , 61-C ) :   1.0840
B( 61-C , 62-C ) :   1.6228 B( 61-C , 63-Br) :   1.0074 B( 62-C , 93-H ) :   0.9995

-----------------------------------------------------------------------------
         ABSORPTION SPECTRUM VIA TRANSITION ELECTRIC DIPOLE MOMENTS
-----------------------------------------------------------------------------
State   Energy  Wavelength   fosc         T2         TX        TY        TZ
        (cm-1)    (nm)                  (au**2)     (au)      (au)      (au)
-----------------------------------------------------------------------------
   0   11692.8    855.2   1.268426740  35.71258   4.18463  -3.62107  -2.25596
   1   17056.6    586.3   1.236951516  23.87459  -1.77111  -1.71134  -4.22008
   2   19548.7    511.5   0.005298261   0.08923   0.23070   0.13299  -0.13535
   3   21203.2    471.6   0.151260090   2.34855   0.34052   1.39572   0.53345
   4   21629.6    462.3   0.010822381   0.16472  -0.33412  -0.22983  -0.01620
   5   23516.1    425.2   0.187386939   2.62331   0.35616   1.47825   0.55789
   6   24498.6    408.2   0.035138705   0.47219   0.01028   0.28532   0.62505
   7   25515.7    391.9   0.463393702   5.97885   1.17786   2.03488   0.67137
   8   26059.0    383.7   0.122062155   1.54205  -0.98380   0.57891   0.48893
   9   27145.3    368.4   0.387193944   4.69580   2.03561   0.71411   0.20530
  10   27806.4    359.6   0.000121378   0.00144  -0.00778  -0.03407  -0.01469
  11   29820.5    335.3   0.015079398   0.16647   0.40799   0.00288  -0.00341
  12   30217.3    330.9   0.000511078   0.00557  -0.04723   0.00389  -0.05764
  13   30345.5    329.5   0.083196845   0.90258   0.67820   0.20444   0.63312
  14   31257.5    319.9   0.000228365   0.00241  -0.04475   0.01695  -0.01072
  15   31332.1    319.2   0.020654044   0.21702   0.37189   0.26464   0.09316
  16   31755.3    314.9   0.005847035   0.06062  -0.22206   0.09711   0.04333
  17   31807.6    314.4   0.013301749   0.13767  -0.36048   0.08554   0.02020
  18   32226.2    310.3   0.203616576   2.08008   1.34208  -0.45764  -0.26356
  19   32572.0    307.0   0.139357385   1.40851   1.17934   0.07372   0.11057
  20   32844.4    304.5   0.247841700   2.48421   0.91666  -1.15155  -0.56380
  21   33457.4    298.9   0.007532769   0.07412  -0.13879   0.21848   0.08441
  22   33483.8    298.7   0.014263667   0.14024   0.19219  -0.27952  -0.15865
  23   33839.1    295.5   0.249892059   2.43114   0.76895  -1.25578  -0.51270
  24   33903.9    295.0   0.014455730   0.14037   0.30802  -0.03816   0.20985
  25   34707.3    288.1   0.000638537   0.00606  -0.07055   0.00113   0.03284
  26   35231.7    283.8   0.148756667   1.39001  -0.89041  -0.73366  -0.24273
  27   35359.3    282.8   0.207779879   1.93453   1.26360  -0.49755  -0.30049
  28   35429.0    282.3   0.053496867   0.49710  -0.61221   0.32537   0.12819
  29   36161.1    276.5   0.022711744   0.20677   0.35908  -0.25813  -0.10580
  30   36485.7    274.1   0.142141322   1.28255   0.51671   0.93894   0.36599
  31   36582.5    273.4   0.071570908   0.64408   0.67917   0.09344   0.41723
  32   37318.2    268.0   0.164585190   1.45193  -0.37585  -0.17419  -1.13151
  33   37480.8    266.8   0.074878451   0.65769   0.68038   0.43604   0.06823
  34   37651.2    265.6   0.014030993   0.12268   0.09844  -0.24919  -0.22561
  35   38136.1    262.2   0.061572004   0.53152  -0.39468   0.51020   0.33977
  36   38342.5    260.8   0.154406471   1.32575  -0.53113  -0.96598  -0.33246
  37   39584.1    252.6   0.009585632   0.07972   0.27737  -0.03239  -0.04172
  38   39689.9    252.0   0.001035448   0.00859   0.02965   0.04676   0.07431
  39   39941.4    250.4   0.000143589   0.00118   0.03414   0.00365   0.00221

FINAL SINGLE POINT ENERGY     -7359.883756548083

DIPOLE MOMENT
-------------
                                X             Y             Z
Electronic contribution:    140.14089    -134.90934     -89.40893
Nuclear contribution   :   -146.08290     138.78858      91.95670
                        -----------------------------------------
Total Dipole Moment    :     -5.94200       3.87924       2.54777
                        -----------------------------------------
Magnitude (a.u.)       :      7.53970
Magnitude (Debye)      :     19.16439

Rotational constants in cm-1:     0.000858     0.000180     0.000154
Rotational constants in MHz :    25.725492     5.406121     4.625435

                             ****ORCA TERMINATED NORMALLY****
TOTAL RUN TIME: 0 days 0 hours 8 minutes 47 seconds 666 msec
