                         Program Version 4.2.0 -  RELEASE  -
|  1> # ORCA input file
|  2> # SCF done       -178.958217779759          0.000261805944
|  3> ! CAM-B3LYP def2-SVP def2/J RIJCOSX Grid4 TightSCF
|  4> %maxcore 5000
|  5> %tddft
|  6>     Mode sTDDFT
|  7>     Ethresh 5.0
|  8>     maxcore 5000
|  9> end
| 10>
| 11> %pal
| 12>   nprocs 6
| 13>   end
| 14> * xyz 0 1
| 15>    C       11.92559        -0.22648        -5.80603
| 16>    C       13.02303         0.24968        -6.43857
| 17>    O       13.97390        -0.49303        -7.03286
| 18>    C       15.03203         0.19682        -7.65342
| 19>    S       13.08660         1.99972        -6.40016
| 20>    C       11.59368         2.05088        -5.50906
| 21>    O       11.01819         3.20613        -5.11633
| 22>    C       11.66599         4.39793        -5.48982
| 23>    C       11.08802         0.79553        -5.26295
| 24>    C        9.85972         0.60038        -4.54439
| 25>    C        9.28448        -0.58876        -4.30578
| 26>    N        8.10526        -0.71020        -3.61164
| 27>    C        7.44112        -1.85758        -3.36184
| 28>    S        8.03781        -3.37767        -3.94291
| 29>    C        6.66012        -4.17288        -3.23590
| 30>    N        6.57951        -5.55040        -3.38299
| 31>    O        5.62043        -6.12770        -2.89342
| 32>    O        7.48855        -6.09348        -4.00037
| 33>    C        5.80595        -3.31213        -2.59822
| 34>    C        6.22953        -1.97086        -2.64977
| 35>    C        5.55259        -0.85894        -2.05779
| 36>    C        4.34286        -0.91193        -1.44062
| 37>    C        3.72357         0.20533        -0.85062
| 38>    C        2.49772         0.17934        -0.23855
| 39>    C        1.83529         1.26596         0.38731
| 40>    C        0.62205         0.95458         0.91725
| 41>    C        0.24594        -0.39723         0.74018
| 42>    S        1.50023        -1.26396        -0.12551
| 43>    C       -0.91808        -1.01127         1.14860
| 44>    C       -1.98925        -0.43705         1.87719
| 45>    C       -3.02106        -1.28505         2.12188
| 46>    C       -2.84254        -2.59672         1.59917
| 47>    S       -1.25892        -2.69314         0.81386
| 48>    C       -3.63156        -3.70608         1.64975
| 49>    C       -4.98448        -3.82806         2.11543
| 50>    C       -5.43323        -5.10368         2.51008
| 51>    C       -6.72245        -5.27678         2.94517
| 52>    C       -7.59463        -4.17464         3.02908
| 53>    C       -7.17935        -2.91939         2.60705
| 54>    C       -5.89093        -2.75740         2.14270
| 55>    C       -8.85002        -4.61708         3.59143
| 56>    C       -8.76322        -5.99542         3.84823
| 57>    C       -7.41943        -6.53798         3.40544
| 58>    C       -6.66775        -7.22920         4.55225
| 59>    C       -6.50406        -6.32151         5.76606
| 60>    C       -7.69048        -7.50873         2.23239
| 61>    C       -6.46210        -8.04073         1.50614
| 62>    C       -9.82486        -6.67767         4.38999
| 63>    C      -11.00523        -5.98896         4.70308
| 64>    C      -11.06545        -4.60958         4.46350
| 65>    C      -10.00793        -3.92029         3.90641
| 66>    C      -12.17344        -6.64152         5.25793
| 67>    C      -12.39214        -7.96355         5.29745
| 68>    C      -13.55447        -8.61035         5.86541
| 69>    C      -13.43017        -9.87263         6.38924
| 70>    O      -12.29929       -10.60949         6.36250
| 71>    C      -12.36136       -11.88987         6.93980
| 72>    S      -14.88083       -10.42825         7.17443
| 73>    C      -15.68044        -8.93514         6.76122
| 74>    O      -16.97111        -8.70000         7.07897
| 75>    C      -17.64535        -9.70727         7.79068
| 76>    C      -14.88020        -8.08010         6.05451
| 77>    C      -15.45649        -6.85821         5.50878
| 78>    C      -15.15311        -6.31689         4.33677
| 79>    H       11.72168        -1.27628        -5.72802
| 80>    H       15.68430        -0.56535        -8.07419
| 81>    H       15.58855         0.80112        -6.92885
| 82>    H       14.66379         0.85036        -8.45154
| 83>    H       11.06043         5.21025        -5.09317
| 84>    H       11.73456         4.48444        -6.57932
| 85>    H       12.67508         4.44712        -5.06719
| 86>    H        9.38848         1.50665        -4.18836
| 87>    H        9.70995        -1.51956        -4.64513
| 88>    H        7.68792         0.14722        -3.27159
| 89>    H        4.91441        -3.65803        -2.10922
| 90>    H        6.05025         0.10239        -2.10084
| 91>    H        3.80397        -1.84723        -1.38748
| 92>    H        4.24532         1.15381        -0.87342
| 93>    H        2.28334         2.24361         0.42524
| 94>    H       -0.01352         1.65713         1.42626
| 95>    H       -1.95963         0.58563         2.20957
| 96>    H       -3.88269        -1.02057         2.70686
| 97>    H       -3.18026        -4.62629         1.29899
| 98>    H       -4.73484        -5.92709         2.49000
| 99>    H       -7.85886        -2.08011         2.63248
|100>    H       -5.58695        -1.79784         1.75568
|101>    H       -5.68086        -7.53459         4.20172
|102>    H       -7.21579        -8.12828         4.84223
|103>    H       -5.95450        -5.42139         5.49862
|104>    H       -5.95688        -6.83861         6.55126
|105>    H       -7.47460        -6.02611         6.15857
|106>    H       -8.32582        -6.98928         1.50989
|107>    H       -8.26361        -8.35082         2.62730
|108>    H       -5.92594        -7.23612         1.01079
|109>    H       -6.77467        -8.75453         0.74662
|110>    H       -5.78647        -8.55037         2.18806
|111>    H       -9.74927        -7.73498         4.59302
|112>    H      -11.97486        -4.08069         4.71234
|113>    H      -10.08118        -2.85872         3.72093
|114>    H      -12.93448        -5.97473         5.63904
|115>    H      -11.63909        -8.65672         4.94827
|116>    H      -11.37831       -12.33470         6.79945
|117>    H      -13.12116       -12.50854         6.44996
|118>    H      -12.59097       -11.82970         8.00911
|119>    H      -18.65136        -9.33234         7.96764
|120>    H      -17.15351        -9.91318         8.74780
|121>    H      -17.69358       -10.63584         7.21155
|122>    H      -16.25490        -6.44237         6.11021
|123>    H      -14.39595        -6.73075         3.69328
|124>    H      -15.65632        -5.43309         3.98367
|125> *
|126>
|127>                          ****END OF INPUT****

CARTESIAN COORDINATES (ANGSTROEM)
---------------------------------
  C     11.925590   -0.226480   -5.806030
  C     13.023030    0.249680   -6.438570
  O     13.973900   -0.493030   -7.032860
  C     15.032030    0.196820   -7.653420
  S     13.086600    1.999720   -6.400160
  C     11.593680    2.050880   -5.509060
  O     11.018190    3.206130   -5.116330
  C     11.665990    4.397930   -5.489820
  C     11.088020    0.795530   -5.262950
  C      9.859720    0.600380   -4.544390
  C      9.284480   -0.588760   -4.305780
  N      8.105260   -0.710200   -3.611640
  C      7.441120   -1.857580   -3.361840
  S      8.037810   -3.377670   -3.942910
  C      6.660120   -4.172880   -3.235900
  N      6.579510   -5.550400   -3.382990
  O      5.620430   -6.127700   -2.893420
  O      7.488550   -6.093480   -4.000370
  C      5.805950   -3.312130   -2.598220
  C      6.229530   -1.970860   -2.649770
  C      5.552590   -0.858940   -2.057790
  C      4.342860   -0.911930   -1.440620
  C      3.723570    0.205330   -0.850620
  C      2.497720    0.179340   -0.238550
  C      1.835290    1.265960    0.387310
  C      0.622050    0.954580    0.917250
  C      0.245940   -0.397230    0.740180
  S      1.500230   -1.263960   -0.125510
  C     -0.918080   -1.011270    1.148600
  C     -1.989250   -0.437050    1.877190
  C     -3.021060   -1.285050    2.121880
  C     -2.842540   -2.596720    1.599170
  S     -1.258920   -2.693140    0.813860
  C     -3.631560   -3.706080    1.649750
  C     -4.984480   -3.828060    2.115430
  C     -5.433230   -5.103680    2.510080
  C     -6.722450   -5.276780    2.945170
  C     -7.594630   -4.174640    3.029080
  C     -7.179350   -2.919390    2.607050
  C     -5.890930   -2.757400    2.142700
  C     -8.850020   -4.617080    3.591430
  C     -8.763220   -5.995420    3.848230
  C     -7.419430   -6.537980    3.405440
  C     -6.667750   -7.229200    4.552250
  C     -6.504060   -6.321510    5.766060
  C     -7.690480   -7.508730    2.232390
  C     -6.462100   -8.040730    1.506140
  C     -9.824860   -6.677670    4.389990
  C    -11.005230   -5.988960    4.703080
  C    -11.065450   -4.609580    4.463500
  C    -10.007930   -3.920290    3.906410
  C    -12.173440   -6.641520    5.257930
  C    -12.392140   -7.963550    5.297450
  C    -13.554470   -8.610350    5.865410
  C    -13.430170   -9.872630    6.389240
  O    -12.299290  -10.609490    6.362500
  C    -12.361360  -11.889870    6.939800
  S    -14.880830  -10.428250    7.174430
  C    -15.680440   -8.935140    6.761220
  O    -16.971110   -8.700000    7.078970
  C    -17.645350   -9.707270    7.790680
  C    -14.880200   -8.080100    6.054510
  C    -15.456490   -6.858210    5.508780
  C    -15.153110   -6.316890    4.336770
  H     11.721680   -1.276280   -5.728020
  H     15.684300   -0.565350   -8.074190
  H     15.588550    0.801120   -6.928850
  H     14.663790    0.850360   -8.451540
  H     11.060430    5.210250   -5.093170
  H     11.734560    4.484440   -6.579320
  H     12.675080    4.447120   -5.067190
  H      9.388480    1.506650   -4.188360
  H      9.709950   -1.519560   -4.645130
  H      7.687920    0.147220   -3.271590
  H      4.914410   -3.658030   -2.109220
  H      6.050250    0.102390   -2.100840
  H      3.803970   -1.847230   -1.387480
  H      4.245320    1.153810   -0.873420
  H      2.283340    2.243610    0.425240
  H     -0.013520    1.657130    1.426260
  H     -1.959630    0.585630    2.209570
  H     -3.882690   -1.020570    2.706860
  H     -3.180260   -4.626290    1.298990
  H     -4.734840   -5.927090    2.490000
  H     -7.858860   -2.080110    2.632480
  H     -5.586950   -1.797840    1.755680
  H     -5.680860   -7.534590    4.201720
  H     -7.215790   -8.128280    4.842230
  H     -5.954500   -5.421390    5.498620
  H     -5.956880   -6.838610    6.551260
  H     -7.474600   -6.026110    6.158570
  H     -8.325820   -6.989280    1.509890
  H     -8.263610   -8.350820    2.627300
  H     -5.925940   -7.236120    1.010790
  H     -6.774670   -8.754530    0.746620
  H     -5.786470   -8.550370    2.188060
  H     -9.749270   -7.734980    4.593020
  H    -11.974860   -4.080690    4.712340
  H    -10.081180   -2.858720    3.720930
  H    -12.934480   -5.974730    5.639040
  H    -11.639090   -8.656720    4.948270
  H    -11.378310  -12.334700    6.799450
  H    -13.121160  -12.508540    6.449960
  H    -12.590970  -11.829700    8.009110
  H    -18.651360   -9.332340    7.967640
  H    -17.153510   -9.913180    8.747800
  H    -17.693580  -10.635840    7.211550
  H    -16.254900   -6.442370    6.110210
  H    -14.395950   -6.730750    3.693280
  H    -15.656320   -5.433090    3.983670

 Total Charge           Charge          ....    0
 Multiplicity           Mult            ....    1
 Number of Electrons    NEL             ....  494
 Basis Dimension        Dim             .... 1146

ORBITAL ENERGIES
----------------

  NO   OCC          E(Eh)            E(eV)
   0   2.0000     -88.966302     -2420.8962
   1   2.0000     -88.958271     -2420.6776
   2   2.0000     -88.953857     -2420.5575
   3   2.0000     -88.933009     -2419.9902
   4   2.0000     -88.929462     -2419.8937
   5   2.0000     -19.258356      -524.0465
   6   2.0000     -19.253124      -523.9041
   7   2.0000     -19.252451      -523.8858
   8   2.0000     -19.251517      -523.8604
   9   2.0000     -19.213620      -522.8292
  10   2.0000     -19.213151      -522.8164
  11   2.0000     -14.625432      -397.9782
  12   2.0000     -14.468185      -393.6993
  13   2.0000     -10.354712      -281.7660
  14   2.0000     -10.344670      -281.4928
  15   2.0000     -10.342785      -281.4415
  16   2.0000     -10.337700      -281.3031
  17   2.0000     -10.337528      -281.2985
  18   2.0000     -10.332703      -281.1671
  19   2.0000     -10.329061      -281.0680
  20   2.0000     -10.327296      -281.0200
  21   2.0000     -10.326744      -281.0050
  22   2.0000     -10.319840      -280.8171
  23   2.0000     -10.313124      -280.6344
  24   2.0000     -10.299711      -280.2694
  25   2.0000     -10.298731      -280.2427
  26   2.0000     -10.296533      -280.1829
  27   2.0000     -10.295625      -280.1582
  28   2.0000     -10.291227      -280.0385
  29   2.0000     -10.280469      -279.7458
  30   2.0000     -10.279734      -279.7258
  31   2.0000     -10.278875      -279.7024
  32   2.0000     -10.278815      -279.7008
  33   2.0000     -10.274731      -279.5896
  34   2.0000     -10.274644      -279.5873
  35   2.0000     -10.270810      -279.4829
  36   2.0000     -10.269981      -279.4604
  37   2.0000     -10.269285      -279.4415
  38   2.0000     -10.268985      -279.4333
  39   2.0000     -10.268626      -279.4235
  40   2.0000     -10.268080      -279.4087
  41   2.0000     -10.266810      -279.3741
  42   2.0000     -10.260163      -279.1932
  43   2.0000     -10.260089      -279.1912
  44   2.0000     -10.259279      -279.1692
  45   2.0000     -10.259121      -279.1649
  46   2.0000     -10.258635      -279.1517
  47   2.0000     -10.258415      -279.1457
  48   2.0000     -10.257702      -279.1263
  49   2.0000     -10.256988      -279.1068
  50   2.0000     -10.256780      -279.1012
  51   2.0000     -10.256064      -279.0817
  52   2.0000     -10.255993      -279.0798
  53   2.0000     -10.254127      -279.0290
  54   2.0000     -10.253966      -279.0246
  55   2.0000     -10.253278      -279.0059
  56   2.0000     -10.252881      -278.9951
  57   2.0000     -10.252435      -278.9830
  58   2.0000     -10.251856      -278.9672
  59   2.0000     -10.251629      -278.9610
  60   2.0000     -10.246487      -278.8211
  61   2.0000     -10.242351      -278.7086
  62   2.0000     -10.241622      -278.6887
  63   2.0000     -10.236265      -278.5429
  64   2.0000      -8.061660      -219.3689
  65   2.0000      -8.054625      -219.1775
  66   2.0000      -8.050193      -219.0569
  67   2.0000      -8.029228      -218.4864
  68   2.0000      -8.026071      -218.4005
  69   2.0000      -6.031439      -164.1238
  70   2.0000      -6.027043      -164.0042
  71   2.0000      -6.024063      -163.9231
  72   2.0000      -6.022919      -163.8920
  73   2.0000      -6.020159      -163.8169
  74   2.0000      -6.019593      -163.8015
  75   2.0000      -6.016072      -163.7056
  76   2.0000      -6.015739      -163.6966
  77   2.0000      -6.011673      -163.5859
  78   2.0000      -5.998982      -163.2406
  79   2.0000      -5.995898      -163.1567
  80   2.0000      -5.995072      -163.1342
  81   2.0000      -5.991909      -163.0481
  82   2.0000      -5.990009      -162.9964
  83   2.0000      -5.986695      -162.9062
  84   2.0000      -1.291984       -35.1567
  85   2.0000      -1.164710       -31.6934
  86   2.0000      -1.160609       -31.5818
  87   2.0000      -1.159732       -31.5579
  88   2.0000      -1.157138       -31.4873
  89   2.0000      -1.110549       -30.2196
  90   2.0000      -1.074944       -29.2507
  91   2.0000      -0.984826       -26.7985
  92   2.0000      -0.983218       -26.7547
  93   2.0000      -0.973819       -26.4990
  94   2.0000      -0.966862       -26.3096
  95   2.0000      -0.963258       -26.2116
  96   2.0000      -0.961268       -26.1574
  97   2.0000      -0.931396       -25.3446
  98   2.0000      -0.909601       -24.7515
  99   2.0000      -0.905927       -24.6515
 100   2.0000      -0.890411       -24.2293
 101   2.0000      -0.880524       -23.9603
 102   2.0000      -0.875393       -23.8207
 103   2.0000      -0.868171       -23.6241
 104   2.0000      -0.862596       -23.4724
 105   2.0000      -0.856026       -23.2937
 106   2.0000      -0.846099       -23.0235
 107   2.0000      -0.840085       -22.8599
 108   2.0000      -0.836992       -22.7757
 109   2.0000      -0.826375       -22.4868
 110   2.0000      -0.825294       -22.4574
 111   2.0000      -0.823360       -22.4048
 112   2.0000      -0.822140       -22.3716
 113   2.0000      -0.817661       -22.2497
 114   2.0000      -0.815439       -22.1892
 115   2.0000      -0.812883       -22.1197
 116   2.0000      -0.805801       -21.9270
 117   2.0000      -0.802139       -21.8273
 118   2.0000      -0.794642       -21.6233
 119   2.0000      -0.779391       -21.2083
 120   2.0000      -0.765749       -20.8371
 121   2.0000      -0.756309       -20.5802
 122   2.0000      -0.752161       -20.4673
 123   2.0000      -0.742210       -20.1966
 124   2.0000      -0.734970       -19.9996
 125   2.0000      -0.720556       -19.6073
 126   2.0000      -0.708822       -19.2880
 127   2.0000      -0.708205       -19.2712
 128   2.0000      -0.694619       -18.9015
 129   2.0000      -0.683528       -18.5997
 130   2.0000      -0.679644       -18.4940
 131   2.0000      -0.673481       -18.3263
 132   2.0000      -0.669039       -18.2055
 133   2.0000      -0.657469       -17.8906
 134   2.0000      -0.655783       -17.8448
 135   2.0000      -0.652244       -17.7485
 136   2.0000      -0.645363       -17.5612
 137   2.0000      -0.643252       -17.5038
 138   2.0000      -0.641135       -17.4462
 139   2.0000      -0.635016       -17.2797
 140   2.0000      -0.632504       -17.2113
 141   2.0000      -0.625947       -17.0329
 142   2.0000      -0.616067       -16.7640
 143   2.0000      -0.613574       -16.6962
 144   2.0000      -0.606533       -16.5046
 145   2.0000      -0.605940       -16.4885
 146   2.0000      -0.603601       -16.4248
 147   2.0000      -0.598781       -16.2936
 148   2.0000      -0.595875       -16.2146
 149   2.0000      -0.591189       -16.0871
 150   2.0000      -0.580484       -15.7958
 151   2.0000      -0.578780       -15.7494
 152   2.0000      -0.576808       -15.6957
 153   2.0000      -0.576480       -15.6868
 154   2.0000      -0.573603       -15.6085
 155   2.0000      -0.568286       -15.4639
 156   2.0000      -0.566612       -15.4183
 157   2.0000      -0.563072       -15.3220
 158   2.0000      -0.562141       -15.2966
 159   2.0000      -0.558356       -15.1936
 160   2.0000      -0.554930       -15.1004
 161   2.0000      -0.551981       -15.0202
 162   2.0000      -0.548500       -14.9254
 163   2.0000      -0.544056       -14.8045
 164   2.0000      -0.539961       -14.6931
 165   2.0000      -0.536206       -14.5909
 166   2.0000      -0.534743       -14.5511
 167   2.0000      -0.529340       -14.4041
 168   2.0000      -0.527561       -14.3557
 169   2.0000      -0.525538       -14.3006
 170   2.0000      -0.522393       -14.2150
 171   2.0000      -0.520024       -14.1506
 172   2.0000      -0.517559       -14.0835
 173   2.0000      -0.509300       -13.8588
 174   2.0000      -0.507727       -13.8159
 175   2.0000      -0.503595       -13.7035
 176   2.0000      -0.503108       -13.6903
 177   2.0000      -0.502460       -13.6726
 178   2.0000      -0.500167       -13.6102
 179   2.0000      -0.491674       -13.3791
 180   2.0000      -0.491079       -13.3629
 181   2.0000      -0.486545       -13.2396
 182   2.0000      -0.485998       -13.2247
 183   2.0000      -0.482724       -13.1356
 184   2.0000      -0.481908       -13.1134
 185   2.0000      -0.477315       -12.9884
 186   2.0000      -0.474865       -12.9217
 187   2.0000      -0.469828       -12.7847
 188   2.0000      -0.468586       -12.7509
 189   2.0000      -0.466575       -12.6961
 190   2.0000      -0.464644       -12.6436
 191   2.0000      -0.461691       -12.5632
 192   2.0000      -0.460522       -12.5314
 193   2.0000      -0.457495       -12.4491
 194   2.0000      -0.456570       -12.4239
 195   2.0000      -0.453131       -12.3303
 196   2.0000      -0.451418       -12.2837
 197   2.0000      -0.449984       -12.2447
 198   2.0000      -0.447501       -12.1771
 199   2.0000      -0.445273       -12.1165
 200   2.0000      -0.443167       -12.0592
 201   2.0000      -0.438367       -11.9286
 202   2.0000      -0.433992       -11.8095
 203   2.0000      -0.432671       -11.7736
 204   2.0000      -0.430552       -11.7159
 205   2.0000      -0.428200       -11.6519
 206   2.0000      -0.427867       -11.6428
 207   2.0000      -0.427216       -11.6251
 208   2.0000      -0.422738       -11.5033
 209   2.0000      -0.418289       -11.3822
 210   2.0000      -0.416116       -11.3231
 211   2.0000      -0.414348       -11.2750
 212   2.0000      -0.412703       -11.2302
 213   2.0000      -0.410238       -11.1631
 214   2.0000      -0.405678       -11.0391
 215   2.0000      -0.404452       -11.0057
 216   2.0000      -0.402070       -10.9409
 217   2.0000      -0.398897       -10.8546
 218   2.0000      -0.398458       -10.8426
 219   2.0000      -0.389177       -10.5901
 220   2.0000      -0.387530       -10.5452
 221   2.0000      -0.386107       -10.5065
 222   2.0000      -0.382914       -10.4196
 223   2.0000      -0.379156       -10.3174
 224   2.0000      -0.375355       -10.2139
 225   2.0000      -0.372808       -10.1446
 226   2.0000      -0.367312        -9.9951
 227   2.0000      -0.364620        -9.9218
 228   2.0000      -0.363292        -9.8857
 229   2.0000      -0.362231        -9.8568
 230   2.0000      -0.354745        -9.6531
 231   2.0000      -0.350752        -9.5445
 232   2.0000      -0.342429        -9.3180
 233   2.0000      -0.340783        -9.2732
 234   2.0000      -0.328429        -8.9370
 235   2.0000      -0.321923        -8.7600
 236   2.0000      -0.314999        -8.5715
 237   2.0000      -0.309584        -8.4242
 238   2.0000      -0.308449        -8.3933
 239   2.0000      -0.300501        -8.1770
 240   2.0000      -0.293097        -7.9756
 241   2.0000      -0.277262        -7.5447
 242   2.0000      -0.262226        -7.1355
 243   2.0000      -0.250297        -6.8109
 244   2.0000      -0.233249        -6.3470
 245   2.0000      -0.226378        -6.1601
 246   2.0000      -0.195327        -5.3151
 247   0.0000      -0.066409        -1.8071
 248   0.0000      -0.036926        -1.0048
 249   0.0000      -0.016727        -0.4552
 250   0.0000       0.003625         0.0986
 251   0.0000       0.028582         0.7778

MULLIKEN ATOMIC CHARGES
-----------------------
   0 C :   -0.035470
   1 C :    0.077064
   2 O :   -0.282659
   3 C :    0.170603
   4 S :   -0.001016
   5 C :   -0.009240
   6 O :   -0.295051
   7 C :    0.176059
   8 C :    0.061304
   9 C :   -0.012200
  10 C :    0.054430
  11 N :   -0.025657
  12 C :   -0.108242
  13 S :    0.135621
  14 C :   -0.012097
  15 N :    0.280759
  16 O :   -0.265213
  17 O :   -0.283069
  18 C :    0.007225
  19 C :    0.134828
  20 C :   -0.047660
  21 C :    0.008524
  22 C :   -0.022400
  23 C :   -0.014948
  24 C :    0.030889
  25 C :    0.025914
  26 C :   -0.045735
  27 S :    0.065309
  28 C :   -0.049209
  29 C :    0.015704
  30 C :    0.027262
  31 C :   -0.054255
  32 S :    0.078905
  33 C :    0.010905
  34 C :    0.101361
  35 C :   -0.116202
  36 C :    0.031895
  37 C :    0.102700
  38 C :   -0.057755
  39 C :   -0.017036
  40 C :    0.101568
  41 C :    0.017182
  42 C :   -0.128548
  43 C :    0.055626
  44 C :    0.024652
  45 C :    0.079168
  46 C :    0.028397
  47 C :   -0.095308
  48 C :    0.111372
  49 C :   -0.022013
  50 C :   -0.051361
  51 C :   -0.010618
  52 C :   -0.015722
  53 C :    0.064298
  54 C :   -0.001853
  55 O :   -0.288738
  56 C :    0.174797
  57 S :    0.002718
  58 C :    0.004367
  59 O :   -0.286268
  60 C :    0.174277
  61 C :    0.029209
  62 C :   -0.033524
  63 C :   -0.021837
  64 H :   -0.022452
  65 H :    0.047277
  66 H :    0.027469
  67 H :    0.027518
  68 H :    0.044349
  69 H :    0.029404
  70 H :    0.027883
  71 H :   -0.019949
  72 H :    0.022881
  73 H :    0.132842
  74 H :    0.006975
  75 H :   -0.046353
  76 H :   -0.001909
  77 H :   -0.026693
  78 H :   -0.019155
  79 H :   -0.016453
  80 H :   -0.018269
  81 H :   -0.008606
  82 H :   -0.015205
  83 H :   -0.036985
  84 H :   -0.038104
  85 H :   -0.027684
  86 H :    0.003278
  87 H :   -0.004178
  88 H :    0.018853
  89 H :    0.005658
  90 H :    0.022790
  91 H :    0.004565
  92 H :   -0.006474
  93 H :    0.019474
  94 H :    0.011005
  95 H :    0.002244
  96 H :   -0.042908
  97 H :   -0.033260
  98 H :   -0.041399
  99 H :   -0.012409
 100 H :   -0.011811
 101 H :    0.044899
 102 H :    0.027001
 103 H :    0.028451
 104 H :    0.045081
 105 H :    0.026272
 106 H :    0.027863
 107 H :   -0.001556
 108 H :    0.030447
 109 H :    0.013343
Sum of atomic charges:   -0.0000000

LOEWDIN ATOMIC CHARGES
----------------------
   0 C :   -0.098876
   1 C :   -0.103151
   2 O :   -0.101552
   3 C :    0.067070
   4 S :    0.369166
   5 C :   -0.119767
   6 O :   -0.105534
   7 C :    0.067893
   8 C :   -0.097464
   9 C :   -0.055506
  10 C :    0.005123
  11 N :    0.040917
  12 C :   -0.092447
  13 S :    0.443676
  14 C :   -0.219348
  15 N :    0.274358
  16 O :   -0.231980
  17 O :   -0.249604
  18 C :    0.008543
  19 C :   -0.115361
  20 C :   -0.034743
  21 C :   -0.031727
  22 C :   -0.064833
  23 C :   -0.145791
  24 C :   -0.040236
  25 C :   -0.032767
  26 C :   -0.182706
  27 S :    0.361424
  28 C :   -0.180050
  29 C :   -0.028615
  30 C :   -0.040824
  31 C :   -0.142602
  32 S :    0.361322
  33 C :   -0.049140
  34 C :   -0.028638
  35 C :   -0.020682
  36 C :    0.001795
  37 C :   -0.014291
  38 C :   -0.022090
  39 C :   -0.022595
  40 C :   -0.025562
  41 C :    0.006270
  42 C :   -0.034105
  43 C :   -0.015309
  44 C :   -0.056699
  45 C :   -0.009596
  46 C :   -0.060199
  47 C :   -0.021327
  48 C :   -0.018652
  49 C :   -0.023947
  50 C :   -0.021488
  51 C :   -0.025398
  52 C :   -0.018004
  53 C :   -0.091818
  54 C :   -0.109585
  55 O :   -0.101941
  56 C :    0.066772
  57 S :    0.373509
  58 C :   -0.106937
  59 O :   -0.101326
  60 C :    0.066461
  61 C :   -0.096453
  62 C :   -0.020037
  63 C :   -0.049497
  64 H :    0.030169
  65 H :    0.032598
  66 H :    0.012582
  67 H :    0.012744
  68 H :    0.031299
  69 H :    0.013963
  70 H :    0.013334
  71 H :    0.027990
  72 H :    0.021074
  73 H :    0.093590
  74 H :    0.043674
  75 H :    0.017775
  76 H :    0.022249
  77 H :    0.028414
  78 H :    0.030832
  79 H :    0.030373
  80 H :    0.030442
  81 H :    0.032395
  82 H :    0.028474
  83 H :    0.023652
  84 H :    0.025668
  85 H :    0.024986
  86 H :    0.018523
  87 H :    0.019467
  88 H :    0.025045
  89 H :    0.022358
  90 H :    0.025914
  91 H :    0.026672
  92 H :    0.019233
  93 H :    0.023839
  94 H :    0.026791
  95 H :    0.019251
  96 H :    0.022319
  97 H :    0.024701
  98 H :    0.024272
  99 H :    0.027354
 100 H :    0.025144
 101 H :    0.031514
 102 H :    0.012767
 103 H :    0.013102
 104 H :    0.031628
 105 H :    0.012269
 106 H :    0.012895
 107 H :    0.029008
 108 H :    0.023629
 109 H :    0.020531

  Mayer bond orders larger than 0.100000
B(  0-C ,  1-C ) :   1.6026 B(  0-C ,  8-C ) :   1.1556 B(  0-C , 64-H ) :   1.0093
B(  1-C ,  2-O ) :   1.1441 B(  1-C ,  4-S ) :   1.0571 B(  2-O ,  3-C ) :   0.9565
B(  3-C , 65-H ) :   0.9822 B(  3-C , 66-H ) :   0.9657 B(  3-C , 67-H ) :   0.9656
B(  4-S ,  5-C ) :   1.0569 B(  5-C ,  6-O ) :   1.1425 B(  5-C ,  8-C ) :   1.5304
B(  6-O ,  7-C ) :   0.9546 B(  7-C , 68-H ) :   0.9821 B(  7-C , 69-H ) :   0.9655
B(  7-C , 70-H ) :   0.9654 B(  8-C ,  9-C ) :   1.1286 B(  9-C , 10-C ) :   1.7066
B(  9-C , 71-H ) :   0.9717 B( 10-C , 11-N ) :   1.0818 B( 10-C , 72-H ) :   0.9572
B( 11-N , 12-C ) :   1.2681 B( 11-N , 73-H ) :   0.9155 B( 12-C , 13-S ) :   1.1324
B( 12-C , 19-C ) :   1.3073 B( 13-S , 14-C ) :   1.0495 B( 14-C , 15-N ) :   0.9983
B( 14-C , 18-C ) :   1.4787 B( 15-N , 16-O ) :   1.5146 B( 15-N , 17-O ) :   1.4919
B( 16-O , 17-O ) :   0.2460 B( 18-C , 19-C ) :   1.2421 B( 18-C , 74-H ) :   1.0002
B( 19-C , 20-C ) :   1.0642 B( 20-C , 21-C ) :   1.6818 B( 20-C , 75-H ) :   0.9756
B( 21-C , 22-C ) :   1.1441 B( 21-C , 76-H ) :   0.9704 B( 22-C , 23-C ) :   1.5709
B( 22-C , 77-H ) :   0.9827 B( 23-C , 24-C ) :   1.1362 B( 23-C , 27-S ) :   1.0293
B( 24-C , 25-C ) :   1.5936 B( 24-C , 78-H ) :   0.9991 B( 25-C , 26-C ) :   1.1879
B( 25-C , 79-H ) :   0.9927 B( 26-C , 27-S ) :   1.0377 B( 26-C , 28-C ) :   1.5157
B( 28-C , 29-C ) :   1.1807 B( 28-C , 32-S ) :   1.0503 B( 29-C , 30-C ) :   1.6191
B( 29-C , 80-H ) :   0.9921 B( 30-C , 31-C ) :   1.1303 B( 30-C , 81-H ) :   0.9862
B( 31-C , 32-S ) :   1.0246 B( 31-C , 33-C ) :   1.6223 B( 33-C , 34-C ) :   1.1013
B( 33-C , 82-H ) :   0.9537 B( 34-C , 35-C ) :   1.2741 B( 34-C , 39-C ) :   1.3419
B( 35-C , 36-C ) :   1.3928 B( 35-C , 83-H ) :   1.0061 B( 36-C , 37-C ) :   1.3731
B( 36-C , 42-C ) :   0.9185 B( 37-C , 38-C ) :   1.3339 B( 37-C , 40-C ) :   0.9991
B( 38-C , 39-C ) :   1.3855 B( 38-C , 84-H ) :   0.9912 B( 39-C , 85-H ) :   0.9828
B( 40-C , 41-C ) :   1.3673 B( 40-C , 50-C ) :   1.3380 B( 41-C , 42-C ) :   0.9253
B( 41-C , 47-C ) :   1.3997 B( 42-C , 43-C ) :   1.0317 B( 42-C , 45-C ) :   1.0156
B( 43-C , 44-C ) :   1.1047 B( 43-C , 86-H ) :   0.9381 B( 43-C , 87-H ) :   0.9392
B( 44-C , 88-H ) :   0.9648 B( 44-C , 89-H ) :   0.9646 B( 44-C , 90-H ) :   0.9631
B( 45-C , 46-C ) :   1.1120 B( 45-C , 91-H ) :   0.9394 B( 45-C , 92-H ) :   0.9368
B( 46-C , 93-H ) :   0.9609 B( 46-C , 94-H ) :   0.9598 B( 46-C , 95-H ) :   0.9634
B( 47-C , 48-C ) :   1.3090 B( 47-C , 96-H ) :   0.9990 B( 48-C , 49-C ) :   1.3441
B( 48-C , 51-C ) :   1.0603 B( 49-C , 50-C ) :   1.3736 B( 49-C , 97-H ) :   0.9921
B( 50-C , 98-H ) :   0.9913 B( 51-C , 52-C ) :   1.7442 B( 51-C , 99-H ) :   0.9748
B( 52-C , 53-C ) :   1.0809 B( 52-C ,100-H ) :   0.9539 B( 53-C , 54-C ) :   1.5301
B( 53-C , 61-C ) :   1.1650 B( 54-C , 55-O ) :   1.1463 B( 54-C , 57-S ) :   1.0574
B( 55-O , 56-C ) :   0.9560 B( 56-C ,101-H ) :   0.9820 B( 56-C ,102-H ) :   0.9649
B( 56-C ,103-H ) :   0.9655 B( 57-S , 58-C ) :   1.0542 B( 58-C , 59-O ) :   1.1531
B( 58-C , 61-C ) :   1.5604 B( 59-O , 60-C ) :   0.9575 B( 60-C ,104-H ) :   0.9820
B( 60-C ,105-H ) :   0.9649 B( 60-C ,106-H ) :   0.9655 B( 61-C , 62-C ) :   1.0653
B( 62-C , 63-C ) :   1.9606 B( 62-C ,107-H ) :   0.9567 B( 63-C ,108-H ) :   0.9531
B( 63-C ,109-H ) :   0.9526

-----------------------------------------------------------------------------
         ABSORPTION SPECTRUM VIA TRANSITION ELECTRIC DIPOLE MOMENTS
-----------------------------------------------------------------------------
State   Energy  Wavelength   fosc         T2         TX        TY        TZ
        (cm-1)    (nm)                  (au**2)     (au)      (au)      (au)
-----------------------------------------------------------------------------
   0   14900.1    671.1   2.195093360  48.49962  -6.23737  -1.55737   2.67759
   1   21086.4    474.2   0.401049451   6.26140  -1.43825  -1.98430   0.50536
   2   23072.4    433.4   0.116646944   1.66440  -0.39553  -1.21384  -0.18583
   3   25160.7    397.4   0.081025735   1.06017   0.23183   0.96103   0.28783
   4   26276.6    380.6   0.064905346   0.81318  -0.54227  -0.66771   0.27072
   5   27330.7    365.9   0.563572494   6.78852   1.27174   2.21930  -0.49586
   6   30034.4    333.0   0.157234320   1.72347   0.63717   1.14724  -0.03655
   7   30297.6    330.1   0.217843650   2.36707  -1.18165  -0.22921   0.95824
   8   32163.0    310.9   0.236152674   2.41720   1.31024  -0.32573  -0.77095
   9   32965.8    303.3   0.116993417   1.16835   0.61813   0.82848  -0.31604
  10   33189.0    301.3   0.000068779   0.00068   0.02509   0.00632   0.00356
  11   33225.6    301.0   0.076134636   0.75437  -0.48255  -0.62353   0.36432
  12   33543.0    298.1   0.037622186   0.36925   0.38386   0.39582  -0.25539
  13   33734.1    296.4   0.082243197   0.80261   0.28062   0.84264  -0.11761
  14   34060.6    293.6   0.115743578   1.11872   0.87110   0.33138  -0.50009
  15   34911.5    286.4   0.052627390   0.49627   0.58883  -0.08919  -0.37630
  16   35574.1    281.1   0.050760127   0.46975  -0.52095  -0.43935   0.07300
  17   36084.9    277.1   0.009561547   0.08723  -0.17179  -0.23473   0.05123
  18   36239.3    275.9   0.044113920   0.40075   0.09100  -0.59630  -0.19207
  19   36896.5    271.0   0.048162636   0.42973   0.55790   0.13302  -0.31748
  20   37310.9    268.0   0.033709474   0.29744  -0.42404   0.11262   0.32395
  21   37446.6    267.0   0.168863113   1.48456  -1.15521   0.02199   0.38673
  22   37866.1    264.1   0.026757805   0.23264   0.44150  -0.00064  -0.19421
  23   38273.8    261.3   0.001034504   0.00890   0.03874   0.06891  -0.05147
  24   38672.8    258.6   0.008916421   0.07590   0.27265  -0.03494  -0.01861
  25   38901.2    257.1   0.079526593   0.67302   0.36003   0.71819  -0.16611
  26   39065.4    256.0   0.058403648   0.49218  -0.38076  -0.58921   0.00543
  27   39944.2    250.3   0.126462971   1.04228  -0.07580  -1.00905  -0.13548

FINAL SINGLE POINT ENERGY     -4518.878539707546

DIPOLE MOMENT
-------------
                                X             Y             Z
Electronic contribution:     74.62936      19.77097     -35.65896
Nuclear contribution   :    -74.48657     -17.15672      36.41658
                        -----------------------------------------
Total Dipole Moment    :      0.14278       2.61424       0.75762
                        -----------------------------------------
Magnitude (a.u.)       :      2.72555
Magnitude (Debye)      :      6.92781

Rotational constants in cm-1:     0.003458     0.000146     0.000141
Rotational constants in MHz :   103.665903     4.367554     4.225011

                             ****ORCA TERMINATED NORMALLY****
TOTAL RUN TIME: 0 days 0 hours 13 minutes 49 seconds 326 msec
