                         Program Version 4.2.0 -  RELEASE  -
|  1> # ORCA input file
|  2> # SCF done       -160.982105813199          0.000958358000
|  3> ! CAM-B3LYP def2-SVP def2/J RIJCOSX Grid4 TightSCF
|  4> %maxcore 5000
|  5> %tddft
|  6>     Mode sTDDFT
|  7>     Ethresh 5.0
|  8>     maxcore 5000
|  9> end
| 10>
| 11> %pal
| 12>   nprocs 6
| 13>   end
| 14> * xyz 0 1
| 15>    C       -4.62998        12.25855        -7.86808
| 16>    S       -4.78203        11.43315        -9.50774
| 17>    C       -4.24879        10.19719        -8.41053
| 18>    C       -4.20578        10.94366        -7.28510
| 19>    C       -3.78941        10.63128        -5.93887
| 20>    O       -3.33219         9.57859        -5.55836
| 21>    O       -3.97952        11.69113        -5.10488
| 22>    C       -3.52170        11.50596        -3.78450
| 23>    C       -2.03502        11.38583        -3.73777
| 24>    O       -1.45226        10.98592        -2.58556
| 25>    C       -1.07242        11.60052        -4.68111
| 26>    C       -0.81324        11.98060        -6.07612
| 27>    O       -1.55853        12.31764        -6.95958
| 28>    N        0.56762        11.87998        -6.19294
| 29>    C        1.24530        11.48243        -5.03797
| 30>    O        2.43654        11.34173        -4.94785
| 31>    C        0.17547        11.30448        -4.05801
| 32>    C       -0.09885        10.93039        -2.76392
| 33>    C        0.78936        10.54147        -1.71771
| 34>    C        0.37778        10.16207        -0.49139
| 35>    C        1.19716         9.77147         0.62340
| 36>    C        2.45211         9.29159         0.62504
| 37>    C        3.27939         9.01878        -0.58882
| 38>    C        3.14231         9.03340         1.94666
| 39>    N        4.05347        10.11607         2.24788
| 40>    C        3.68728        11.21837         2.92400
| 41>    C        4.40696        12.37499         2.96110
| 42>    C        4.02911        13.48768         3.72626
| 43>    C        4.70384        14.68332         3.74807
| 44>    C        4.37013        15.84507         4.48042
| 45>    C        5.21917        16.89390         4.28405
| 46>    C        6.27078        16.61558         3.38434
| 47>    S        6.15793        14.97968         2.79913
| 48>    C        7.28254        17.46786         2.96638
| 49>    C        7.49368        18.81045         3.32829
| 50>    C        8.58290        19.37621         2.72502
| 51>    C        9.28216        18.50616         1.86435
| 52>    S        8.51257        16.93836         1.83769
| 53>    C       10.41882        18.80536         1.12896
| 54>    C       11.05736        17.88298         0.31652
| 55>    C       12.19720        18.13319        -0.43180
| 56>    C       12.89443        17.19621        -1.26658
| 57>    C       12.57601        15.87394        -1.49314
| 58>    C       13.31939        15.01295        -2.32136
| 59>    N       13.87891        14.25442        -2.97977
| 60>    C       11.47949        15.18236        -0.94503
| 61>    N       10.61938        14.53106        -0.54577
| 62>    C       14.04050        17.89039        -1.85570
| 63>    C       14.04440        19.22725        -1.39154
| 64>    C       12.89126        19.42824        -0.48437
| 65>    O       12.60564        20.46597         0.08551
| 66>    C       14.99904        20.13929        -1.76431
| 67>    C       16.00389        19.71150        -2.64028
| 68>    C       15.99204        18.37544        -3.09858
| 69>    C       15.02333        17.45184        -2.72094
| 70>    S       17.32329        18.05561        -4.17124
| 71>    C       17.86833        19.70165        -3.98883
| 72>    C       17.09643        20.45305        -3.16981
| 73>   Br       19.40765        20.27329        -4.89842
| 74>    H       -5.57415        12.66318        -7.51570
| 75>    H       -3.84928        13.01354        -7.86874
| 76>    H       -4.03864         9.16987        -8.63423
| 77>    H       -3.96309        10.60004        -3.34576
| 78>    H       -3.86043        12.38345        -3.22447
| 79>    H        1.04977        12.07494        -7.05925
| 80>    H        1.82923        10.61070        -1.98960
| 81>    H       -0.68697        10.18062        -0.29483
| 82>    H        0.69669         9.85442         1.58123
| 83>    H        2.65897         8.65050        -1.40260
| 84>    H        4.04464         8.27622        -0.36998
| 85>    H        3.78053         9.92348        -0.93476
| 86>    H        3.71468         8.10186         1.90613
| 87>    H        2.41612         8.96339         2.75919
| 88>    H        4.86047        10.19907         1.64483
| 89>    H        2.77341        11.12855         3.49633
| 90>    H        5.31077        12.45548         2.37219
| 91>    H        3.13770        13.41073         4.33559
| 92>    H        3.51215        15.87164         5.12928
| 93>    H        5.11674        17.85298         4.75862
| 94>    H        6.84709        19.32769         4.01447
| 95>    H        8.90344        20.39179         2.87488
| 96>    H       10.81797        19.80630         1.20449
| 97>    H       10.62686        16.88978         0.27199
| 98>    H       14.97395        21.15192        -1.39306
| 99>    H       15.06014        16.44435        -3.09986
|100>    H       17.28690        21.48690        -2.94596
|101> *
|102>
|103>                          ****END OF INPUT****

CARTESIAN COORDINATES (ANGSTROEM)
---------------------------------
  C     -4.629980   12.258550   -7.868080
  S     -4.782030   11.433150   -9.507740
  C     -4.248790   10.197190   -8.410530
  C     -4.205780   10.943660   -7.285100
  C     -3.789410   10.631280   -5.938870
  O     -3.332190    9.578590   -5.558360
  O     -3.979520   11.691130   -5.104880
  C     -3.521700   11.505960   -3.784500
  C     -2.035020   11.385830   -3.737770
  O     -1.452260   10.985920   -2.585560
  C     -1.072420   11.600520   -4.681110
  C     -0.813240   11.980600   -6.076120
  O     -1.558530   12.317640   -6.959580
  N      0.567620   11.879980   -6.192940
  C      1.245300   11.482430   -5.037970
  O      2.436540   11.341730   -4.947850
  C      0.175470   11.304480   -4.058010
  C     -0.098850   10.930390   -2.763920
  C      0.789360   10.541470   -1.717710
  C      0.377780   10.162070   -0.491390
  C      1.197160    9.771470    0.623400
  C      2.452110    9.291590    0.625040
  C      3.279390    9.018780   -0.588820
  C      3.142310    9.033400    1.946660
  N      4.053470   10.116070    2.247880
  C      3.687280   11.218370    2.924000
  C      4.406960   12.374990    2.961100
  C      4.029110   13.487680    3.726260
  C      4.703840   14.683320    3.748070
  C      4.370130   15.845070    4.480420
  C      5.219170   16.893900    4.284050
  C      6.270780   16.615580    3.384340
  S      6.157930   14.979680    2.799130
  C      7.282540   17.467860    2.966380
  C      7.493680   18.810450    3.328290
  C      8.582900   19.376210    2.725020
  C      9.282160   18.506160    1.864350
  S      8.512570   16.938360    1.837690
  C     10.418820   18.805360    1.128960
  C     11.057360   17.882980    0.316520
  C     12.197200   18.133190   -0.431800
  C     12.894430   17.196210   -1.266580
  C     12.576010   15.873940   -1.493140
  C     13.319390   15.012950   -2.321360
  N     13.878910   14.254420   -2.979770
  C     11.479490   15.182360   -0.945030
  N     10.619380   14.531060   -0.545770
  C     14.040500   17.890390   -1.855700
  C     14.044400   19.227250   -1.391540
  C     12.891260   19.428240   -0.484370
  O     12.605640   20.465970    0.085510
  C     14.999040   20.139290   -1.764310
  C     16.003890   19.711500   -2.640280
  C     15.992040   18.375440   -3.098580
  C     15.023330   17.451840   -2.720940
  S     17.323290   18.055610   -4.171240
  C     17.868330   19.701650   -3.988830
  C     17.096430   20.453050   -3.169810
  Br    19.407650   20.273290   -4.898420
  H     -5.574150   12.663180   -7.515700
  H     -3.849280   13.013540   -7.868740
  H     -4.038640    9.169870   -8.634230
  H     -3.963090   10.600040   -3.345760
  H     -3.860430   12.383450   -3.224470
  H      1.049770   12.074940   -7.059250
  H      1.829230   10.610700   -1.989600
  H     -0.686970   10.180620   -0.294830
  H      0.696690    9.854420    1.581230
  H      2.658970    8.650500   -1.402600
  H      4.044640    8.276220   -0.369980
  H      3.780530    9.923480   -0.934760
  H      3.714680    8.101860    1.906130
  H      2.416120    8.963390    2.759190
  H      4.860470   10.199070    1.644830
  H      2.773410   11.128550    3.496330
  H      5.310770   12.455480    2.372190
  H      3.137700   13.410730    4.335590
  H      3.512150   15.871640    5.129280
  H      5.116740   17.852980    4.758620
  H      6.847090   19.327690    4.014470
  H      8.903440   20.391790    2.874880
  H     10.817970   19.806300    1.204490
  H     10.626860   16.889780    0.271990
  H     14.973950   21.151920   -1.393060
  H     15.060140   16.444350   -3.099860
  H     17.286900   21.486900   -2.945960

 Total Charge           Charge          ....    0
 Multiplicity           Mult            ....    1
 Number of Electrons    NEL             ....  466
 Basis Dimension        Dim             ....  995

ORBITAL ENERGIES
----------------

  NO   OCC          E(Eh)            E(eV)
   0   2.0000    -482.868044    -13139.5075
   1   2.0000     -88.955414     -2420.5999
   2   2.0000     -88.953633     -2420.5514
   3   2.0000     -88.945264     -2420.3237
   4   2.0000     -88.930456     -2419.9207
   5   2.0000     -62.545763     -1701.9567
   6   2.0000     -56.379689     -1534.1693
   7   2.0000     -56.377021     -1534.0967
   8   2.0000     -56.376976     -1534.0955
   9   2.0000     -19.318986      -525.6963
  10   2.0000     -19.268464      -524.3216
  11   2.0000     -19.214465      -522.8522
  12   2.0000     -19.212882      -522.8091
  13   2.0000     -19.202958      -522.5391
  14   2.0000     -19.182854      -521.9920
  15   2.0000     -14.468307      -393.7027
  16   2.0000     -14.457249      -393.4017
  17   2.0000     -14.385647      -391.4534
  18   2.0000     -14.383001      -391.3814
  19   2.0000     -10.404072      -283.1092
  20   2.0000     -10.402046      -283.0541
  21   2.0000     -10.400161      -283.0028
  22   2.0000     -10.367309      -282.1088
  23   2.0000     -10.362796      -281.9860
  24   2.0000     -10.356216      -281.8070
  25   2.0000     -10.349021      -281.6112
  26   2.0000     -10.337445      -281.2962
  27   2.0000     -10.336455      -281.2692
  28   2.0000     -10.333127      -281.1787
  29   2.0000     -10.328321      -281.0479
  30   2.0000     -10.311248      -280.5833
  31   2.0000     -10.309852      -280.5453
  32   2.0000     -10.309321      -280.5309
  33   2.0000     -10.308031      -280.4958
  34   2.0000     -10.307369      -280.4778
  35   2.0000     -10.303701      -280.3780
  36   2.0000     -10.303662      -280.3769
  37   2.0000     -10.303440      -280.3708
  38   2.0000     -10.300529      -280.2916
  39   2.0000     -10.300217      -280.2831
  40   2.0000     -10.299835      -280.2728
  41   2.0000     -10.298335      -280.2319
  42   2.0000     -10.297849      -280.2187
  43   2.0000     -10.291678      -280.0508
  44   2.0000     -10.291547      -280.0472
  45   2.0000     -10.290724      -280.0248
  46   2.0000     -10.290604      -280.0216
  47   2.0000     -10.290421      -280.0166
  48   2.0000     -10.289727      -279.9977
  49   2.0000     -10.288425      -279.9623
  50   2.0000     -10.286242      -279.9029
  51   2.0000     -10.282458      -279.7999
  52   2.0000     -10.281555      -279.7753
  53   2.0000     -10.279693      -279.7247
  54   2.0000     -10.279448      -279.7180
  55   2.0000     -10.278892      -279.7029
  56   2.0000     -10.278212      -279.6844
  57   2.0000     -10.276262      -279.6313
  58   2.0000     -10.274529      -279.5841
  59   2.0000     -10.274464      -279.5824
  60   2.0000     -10.263364      -279.2803
  61   2.0000     -10.255587      -279.0687
  62   2.0000     -10.253294      -279.0063
  63   2.0000      -8.775182      -238.7848
  64   2.0000      -8.051642      -219.0963
  65   2.0000      -8.049634      -219.0417
  66   2.0000      -8.041187      -218.8118
  67   2.0000      -8.027407      -218.4368
  68   2.0000      -6.611378      -179.9047
  69   2.0000      -6.596936      -179.5118
  70   2.0000      -6.596821      -179.5086
  71   2.0000      -6.021232      -163.8461
  72   2.0000      -6.019335      -163.7944
  73   2.0000      -6.017227      -163.7371
  74   2.0000      -6.015080      -163.6787
  75   2.0000      -6.012791      -163.6164
  76   2.0000      -6.010836      -163.5632
  77   2.0000      -6.010720      -163.5600
  78   2.0000      -6.006720      -163.4512
  79   2.0000      -6.002498      -163.3363
  80   2.0000      -5.997064      -163.1884
  81   2.0000      -5.993965      -163.1041
  82   2.0000      -5.987371      -162.9246
  83   2.0000      -2.727260       -74.2125
  84   2.0000      -2.723203       -74.1021
  85   2.0000      -2.723123       -74.0999
  86   2.0000      -2.711644       -73.7876
  87   2.0000      -2.711620       -73.7869
  88   2.0000      -1.234295       -33.5869
  89   2.0000      -1.196654       -32.5626
  90   2.0000      -1.158255       -31.5177
  91   2.0000      -1.137795       -30.9610
  92   2.0000      -1.098572       -29.8937
  93   2.0000      -1.095723       -29.8161
  94   2.0000      -1.068128       -29.0652
  95   2.0000      -1.045092       -28.4384
  96   2.0000      -1.000794       -27.2330
  97   2.0000      -0.996715       -27.1220
  98   2.0000      -0.984551       -26.7910
  99   2.0000      -0.977018       -26.5860
 100   2.0000      -0.976116       -26.5615
 101   2.0000      -0.963853       -26.2278
 102   2.0000      -0.959844       -26.1187
 103   2.0000      -0.944845       -25.7105
 104   2.0000      -0.926120       -25.2010
 105   2.0000      -0.922672       -25.1072
 106   2.0000      -0.917156       -24.9571
 107   2.0000      -0.910161       -24.7667
 108   2.0000      -0.890075       -24.2202
 109   2.0000      -0.881908       -23.9979
 110   2.0000      -0.877827       -23.8869
 111   2.0000      -0.863666       -23.5015
 112   2.0000      -0.859931       -23.3999
 113   2.0000      -0.849864       -23.1260
 114   2.0000      -0.847687       -23.0667
 115   2.0000      -0.833933       -22.6925
 116   2.0000      -0.824117       -22.4254
 117   2.0000      -0.818658       -22.2768
 118   2.0000      -0.804955       -21.9039
 119   2.0000      -0.803878       -21.8746
 120   2.0000      -0.795000       -21.6331
 121   2.0000      -0.781753       -21.2726
 122   2.0000      -0.773251       -21.0412
 123   2.0000      -0.767785       -20.8925
 124   2.0000      -0.764959       -20.8156
 125   2.0000      -0.755186       -20.5497
 126   2.0000      -0.746385       -20.3102
 127   2.0000      -0.730010       -19.8646
 128   2.0000      -0.724741       -19.7212
 129   2.0000      -0.715999       -19.4833
 130   2.0000      -0.703132       -19.1332
 131   2.0000      -0.699253       -19.0276
 132   2.0000      -0.684945       -18.6383
 133   2.0000      -0.675768       -18.3886
 134   2.0000      -0.669693       -18.2233
 135   2.0000      -0.661697       -18.0057
 136   2.0000      -0.648608       -17.6495
 137   2.0000      -0.641727       -17.4623
 138   2.0000      -0.638620       -17.3777
 139   2.0000      -0.634502       -17.2657
 140   2.0000      -0.630181       -17.1481
 141   2.0000      -0.629699       -17.1350
 142   2.0000      -0.620283       -16.8788
 143   2.0000      -0.616255       -16.7692
 144   2.0000      -0.610595       -16.6151
 145   2.0000      -0.607021       -16.5179
 146   2.0000      -0.604029       -16.4365
 147   2.0000      -0.598074       -16.2744
 148   2.0000      -0.596177       -16.2228
 149   2.0000      -0.593112       -16.1394
 150   2.0000      -0.591350       -16.0914
 151   2.0000      -0.589146       -16.0315
 152   2.0000      -0.580299       -15.7907
 153   2.0000      -0.572253       -15.5718
 154   2.0000      -0.567857       -15.4522
 155   2.0000      -0.565361       -15.3843
 156   2.0000      -0.560963       -15.2646
 157   2.0000      -0.557277       -15.1643
 158   2.0000      -0.552672       -15.0390
 159   2.0000      -0.549821       -14.9614
 160   2.0000      -0.546548       -14.8723
 161   2.0000      -0.539049       -14.6683
 162   2.0000      -0.536605       -14.6018
 163   2.0000      -0.531455       -14.4616
 164   2.0000      -0.522574       -14.2200
 165   2.0000      -0.519049       -14.1240
 166   2.0000      -0.516364       -14.0510
 167   2.0000      -0.514953       -14.0126
 168   2.0000      -0.511847       -13.9281
 169   2.0000      -0.510420       -13.8892
 170   2.0000      -0.507408       -13.8073
 171   2.0000      -0.504620       -13.7314
 172   2.0000      -0.504121       -13.7178
 173   2.0000      -0.502330       -13.6691
 174   2.0000      -0.500506       -13.6195
 175   2.0000      -0.500151       -13.6098
 176   2.0000      -0.497674       -13.5424
 177   2.0000      -0.487141       -13.2558
 178   2.0000      -0.486314       -13.2333
 179   2.0000      -0.484943       -13.1960
 180   2.0000      -0.483890       -13.1673
 181   2.0000      -0.482186       -13.1209
 182   2.0000      -0.479403       -13.0452
 183   2.0000      -0.479207       -13.0399
 184   2.0000      -0.473571       -12.8865
 185   2.0000      -0.470902       -12.8139
 186   2.0000      -0.468498       -12.7485
 187   2.0000      -0.466454       -12.6929
 188   2.0000      -0.464369       -12.6361
 189   2.0000      -0.462130       -12.5752
 190   2.0000      -0.458866       -12.4864
 191   2.0000      -0.456551       -12.4234
 192   2.0000      -0.451846       -12.2954
 193   2.0000      -0.445113       -12.1121
 194   2.0000      -0.435898       -11.8614
 195   2.0000      -0.435777       -11.8581
 196   2.0000      -0.433677       -11.8010
 197   2.0000      -0.428859       -11.6698
 198   2.0000      -0.426442       -11.6041
 199   2.0000      -0.422936       -11.5087
 200   2.0000      -0.421228       -11.4622
 201   2.0000      -0.420480       -11.4419
 202   2.0000      -0.415867       -11.3163
 203   2.0000      -0.414103       -11.2683
 204   2.0000      -0.406703       -11.0670
 205   2.0000      -0.404911       -11.0182
 206   2.0000      -0.399363       -10.8672
 207   2.0000      -0.397736       -10.8230
 208   2.0000      -0.394213       -10.7271
 209   2.0000      -0.393716       -10.7136
 210   2.0000      -0.387119       -10.5340
 211   2.0000      -0.382402       -10.4057
 212   2.0000      -0.378017       -10.2864
 213   2.0000      -0.375549       -10.2192
 214   2.0000      -0.371022       -10.0960
 215   2.0000      -0.370524       -10.0825
 216   2.0000      -0.364353        -9.9145
 217   2.0000      -0.361301        -9.8315
 218   2.0000      -0.357896        -9.7388
 219   2.0000      -0.357822        -9.7368
 220   2.0000      -0.349036        -9.4978
 221   2.0000      -0.346114        -9.4182
 222   2.0000      -0.344357        -9.3704
 223   2.0000      -0.338269        -9.2048
 224   2.0000      -0.323770        -8.8102
 225   2.0000      -0.311440        -8.4747
 226   2.0000      -0.303837        -8.2678
 227   2.0000      -0.291012        -7.9188
 228   2.0000      -0.286139        -7.7862
 229   2.0000      -0.280176        -7.6240
 230   2.0000      -0.273287        -7.4365
 231   2.0000      -0.265310        -7.2195
 232   2.0000      -0.209198        -5.6926
 233   0.0000      -0.092130        -2.5070
 234   0.0000      -0.057234        -1.5574
 235   0.0000      -0.042895        -1.1672
 236   0.0000      -0.023839        -0.6487
 237   0.0000      -0.020351        -0.5538

MULLIKEN ATOMIC CHARGES
-----------------------
   0 C :    0.080127
   1 S :   -0.021078
   2 C :   -0.011798
   3 C :   -0.141970
   4 C :    0.202280
   5 O :   -0.206929
   6 O :   -0.307316
   7 C :    0.367865
   8 C :   -0.087038
   9 O :   -0.210625
  10 C :   -0.033603
  11 C :    0.188015
  12 O :   -0.154274
  13 N :   -0.162263
  14 C :    0.168658
  15 O :   -0.143061
  16 C :   -0.037330
  17 C :    0.071180
  18 C :   -0.028648
  19 C :    0.026299
  20 C :    0.019828
  21 C :   -0.189774
  22 C :    0.075425
  23 C :    0.183628
  24 N :   -0.132337
  25 C :    0.078207
  26 C :   -0.033275
  27 C :    0.016814
  28 C :   -0.054461
  29 C :    0.057243
  30 C :    0.007937
  31 C :   -0.022179
  32 S :    0.103353
  33 C :   -0.065134
  34 C :    0.042322
  35 C :    0.014240
  36 C :    0.010336
  37 S :    0.105030
  38 C :   -0.033674
  39 C :   -0.038905
  40 C :   -0.101136
  41 C :    0.333971
  42 C :   -0.378178
  43 C :   -0.190491
  44 N :    0.125820
  45 C :   -0.192354
  46 N :    0.119488
  47 C :    0.011464
  48 C :   -0.005869
  49 C :    0.133559
  50 O :   -0.173396
  51 C :   -0.083454
  52 C :    0.118359
  53 C :   -0.094118
  54 C :   -0.027714
  55 S :    0.172202
  56 C :   -0.123634
  57 C :    0.035763
  58 Br:    0.005637
  59 H :    0.064205
  60 H :    0.083554
  61 H :    0.024048
  62 H :    0.036937
  63 H :    0.045658
  64 H :    0.140251
  65 H :    0.005393
  66 H :    0.004847
  67 H :   -0.021305
  68 H :    0.046550
  69 H :    0.014222
  70 H :    0.053903
  71 H :    0.026268
  72 H :    0.019315
  73 H :    0.131478
  74 H :    0.007426
  75 H :    0.002573
  76 H :   -0.010140
  77 H :   -0.009279
  78 H :   -0.013377
  79 H :   -0.011370
  80 H :   -0.007687
  81 H :    0.010120
  82 H :    0.009874
  83 H :   -0.020102
  84 H :   -0.013250
  85 H :   -0.009146
Sum of atomic charges:    0.0000000

LOEWDIN ATOMIC CHARGES
----------------------
   0 C :   -0.070293
   1 S :    0.281231
   2 C :   -0.078410
   3 C :   -0.140761
   4 C :    0.083264
   5 O :   -0.184229
   6 O :   -0.091133
   7 C :    0.083759
   8 C :    0.061153
   9 O :    0.016519
  10 C :   -0.109193
  11 C :    0.093035
  12 O :   -0.158199
  13 N :   -0.001502
  14 C :    0.085913
  15 O :   -0.159423
  16 C :   -0.095456
  17 C :    0.064519
  18 C :   -0.034783
  19 C :   -0.010490
  20 C :   -0.052432
  21 C :   -0.026580
  22 C :   -0.054528
  23 C :    0.047896
  24 N :    0.022445
  25 C :    0.073564
  26 C :   -0.121951
  27 C :    0.002746
  28 C :   -0.188024
  29 C :   -0.005998
  30 C :   -0.058337
  31 C :   -0.136254
  32 S :    0.397669
  33 C :   -0.213155
  34 C :   -0.008028
  35 C :   -0.058105
  36 C :   -0.101185
  37 S :    0.410914
  38 C :   -0.087160
  39 C :    0.046573
  40 C :   -0.123575
  41 C :    0.073113
  42 C :   -0.169746
  43 C :   -0.019197
  44 N :   -0.081899
  45 C :   -0.020293
  46 N :   -0.081051
  47 C :   -0.016381
  48 C :   -0.046698
  49 C :    0.079892
  50 O :   -0.167487
  51 C :    0.013234
  52 C :   -0.038727
  53 C :   -0.147480
  54 C :   -0.016579
  55 S :    0.421598
  56 C :   -0.277805
  57 C :   -0.071496
  58 Br:    0.122837
  59 H :    0.031926
  60 H :    0.038355
  61 H :    0.024288
  62 H :    0.037380
  63 H :    0.043242
  64 H :    0.095946
  65 H :    0.043258
  66 H :    0.033153
  67 H :    0.025501
  68 H :    0.044553
  69 H :    0.030156
  70 H :    0.042344
  71 H :    0.030308
  72 H :    0.031588
  73 H :    0.086077
  74 H :    0.031354
  75 H :    0.023930
  76 H :    0.035481
  77 H :    0.034997
  78 H :    0.031835
  79 H :    0.032608
  80 H :    0.035571
  81 H :    0.036218
  82 H :    0.029873
  83 H :    0.036953
  84 H :    0.038975
  85 H :    0.036279

  Mayer bond orders larger than 0.100000
B(  0-C ,  1-S ) :   0.9964 B(  0-C ,  3-C ) :   1.0403 B(  0-C , 59-H ) :   0.9334
B(  0-C , 60-H ) :   0.9232 B(  1-S ,  2-C ) :   1.1011 B(  1-S ,  3-C ) :   0.1219
B(  2-C ,  3-C ) :   1.6775 B(  2-C , 61-H ) :   1.0099 B(  3-C ,  4-C ) :   1.0307
B(  4-C ,  5-O ) :   2.1307 B(  4-C ,  6-O ) :   1.1412 B(  6-O ,  7-C ) :   0.9950
B(  7-C ,  8-C ) :   1.0193 B(  7-C , 62-H ) :   0.9200 B(  7-C , 63-H ) :   0.9231
B(  8-C ,  9-O ) :   1.1549 B(  8-C , 10-C ) :   1.5687 B(  9-O , 17-C ) :   1.1370
B( 10-C , 11-C ) :   0.8696 B( 10-C , 16-C ) :   1.2461 B( 11-C , 12-O ) :   2.1960
B( 11-C , 13-N ) :   1.1018 B( 13-N , 14-C ) :   1.0698 B( 13-N , 64-H ) :   0.9143
B( 14-C , 15-O ) :   2.2659 B( 14-C , 16-C ) :   0.8828 B( 16-C , 17-C ) :   1.4452
B( 17-C , 18-C ) :   1.1627 B( 18-C , 19-C ) :   1.6892 B( 18-C , 65-H ) :   0.9522
B( 19-C , 20-C ) :   1.0945 B( 19-C , 66-H ) :   0.9653 B( 20-C , 21-C ) :   1.8165
B( 20-C , 67-H ) :   0.9531 B( 21-C , 22-C ) :   1.0759 B( 21-C , 23-C ) :   1.0411
B( 22-C , 68-H ) :   0.9411 B( 22-C , 69-H ) :   0.9481 B( 22-C , 70-H ) :   0.9421
B( 23-C , 24-N ) :   1.0043 B( 23-C , 71-H ) :   0.9378 B( 23-C , 72-H ) :   0.9398
B( 24-N , 25-C ) :   1.2745 B( 24-N , 73-H ) :   0.9356 B( 25-C , 26-C ) :   1.5395
B( 25-C , 74-H ) :   0.9690 B( 26-C , 27-C ) :   1.2190 B( 26-C , 75-H ) :   0.9645
B( 27-C , 28-C ) :   1.5342 B( 27-C , 76-H ) :   0.9785 B( 28-C , 29-C ) :   1.1764
B( 28-C , 32-S ) :   1.0140 B( 29-C , 30-C ) :   1.5487 B( 29-C , 77-H ) :   0.9984
B( 30-C , 31-C ) :   1.2233 B( 30-C , 78-H ) :   0.9942 B( 31-C , 32-S ) :   1.1055
B( 31-C , 33-C ) :   1.4198 B( 33-C , 34-C ) :   1.2535 B( 33-C , 37-S ) :   1.0409
B( 34-C , 35-C ) :   1.4973 B( 34-C , 79-H ) :   0.9949 B( 35-C , 36-C ) :   1.2162
B( 35-C , 80-H ) :   1.0021 B( 36-C , 37-S ) :   1.1029 B( 36-C , 38-C ) :   1.3567
B( 38-C , 39-C ) :   1.3199 B( 38-C , 81-H ) :   0.9788 B( 39-C , 40-C ) :   1.4167
B( 39-C , 82-H ) :   0.9434 B( 40-C , 41-C ) :   1.1441 B( 40-C , 49-C ) :   0.9822
B( 41-C , 42-C ) :   1.5537 B( 41-C , 47-C ) :   0.9804 B( 42-C , 43-C ) :   1.1543
B( 42-C , 45-C ) :   1.1599 B( 43-C , 44-N ) :   2.9578 B( 45-C , 46-N ) :   2.9544
B( 47-C , 48-C ) :   1.2806 B( 47-C , 54-C ) :   1.4261 B( 48-C , 49-C ) :   0.9303
B( 48-C , 51-C ) :   1.4356 B( 49-C , 50-O ) :   2.1774 B( 51-C , 52-C ) :   1.2339
B( 51-C , 83-H ) :   1.0157 B( 52-C , 53-C ) :   1.3239 B( 52-C , 57-C ) :   1.1589
B( 53-C , 54-C ) :   1.3148 B( 53-C , 55-S ) :   1.0795 B( 54-C , 84-H ) :   0.9787
B( 55-S , 56-C ) :   1.0844 B( 56-C , 57-C ) :   1.6221 B( 56-C , 58-Br) :   1.0081
B( 57-C , 85-H ) :   0.9998

-----------------------------------------------------------------------------
         ABSORPTION SPECTRUM VIA TRANSITION ELECTRIC DIPOLE MOMENTS
-----------------------------------------------------------------------------
State   Energy  Wavelength   fosc         T2         TX        TY        TZ
        (cm-1)    (nm)                  (au**2)     (au)      (au)      (au)
-----------------------------------------------------------------------------
   0   11760.5    850.3   1.231681725  34.47835  -4.84840  -2.43310   2.24752
   1   21156.9    472.7   0.181217753   2.81984  -0.35953  -1.50998  -0.64073
   2   22319.6    448.0   0.032439344   0.47848  -0.07818  -0.24687   0.64142
   3   23533.0    424.9   0.267639582   3.74412   0.41497   1.71842   0.78674
   4   25628.8    390.2   0.358766706   4.60850  -0.47372  -1.99084  -0.64859
   5   26976.1    370.7   0.432271791   5.27538  -1.02523   1.04707   1.76859
   6   27888.0    358.6   0.000067571   0.00080   0.01031  -0.00495  -0.02582
   7   29663.6    337.1   0.013658611   0.15159   0.30108  -0.17713  -0.17195
   8   30083.1    332.4   0.088555131   0.96910   0.43897  -0.59346   0.65132
   9   31265.5    319.8   0.025592817   0.26948   0.23166  -0.42753  -0.18174
  10   32034.6    312.2   0.162289592   1.66781  -0.36794  -0.40100   1.17117
  11   32057.5    311.9   0.003027595   0.03109  -0.01670  -0.05168   0.16775
  12   32339.9    309.2   0.147721270   1.50376   1.14920   0.18309  -0.38676
  13   32553.3    307.2   0.622871556   6.29910  -0.58881   1.05909  -2.19789
  14   32838.3    304.5   0.296503624   2.97252   1.59782   0.55663   0.33111
  15   33567.0    297.9   0.000207644   0.00204  -0.02628  -0.00213   0.03663
  16   33845.3    295.5   0.195293877   1.89961  -0.93340  -0.96371   0.31568
  17   34388.3    290.8   0.080205725   0.76784   0.26281   0.65148  -0.52378
  18   34894.8    286.6   0.125417310   1.18324  -0.03183  -0.71729   0.81714
  19   35470.0    281.9   0.076327735   0.70843  -0.39329  -0.73298   0.12840
  20   35894.6    278.6   0.023930134   0.21948  -0.04153   0.27028  -0.38039
  21   36410.1    274.6   0.149135007   1.34845  -0.02751  -1.10974  -0.34082
  22   37266.0    268.3   0.000046633   0.00041   0.01035  -0.01609   0.00678
  23   37504.3    266.6   0.071123705   0.62432   0.41847  -0.42257  -0.52023
  24   38202.8    261.8   0.038365647   0.33062   0.47212   0.07627  -0.31922
  25   38400.7    260.4   0.188610201   1.61697  -0.17060  -1.21930  -0.31808
  26   39005.0    256.4   0.036883436   0.31131   0.48299  -0.10440  -0.25909
  27   39417.3    253.7   0.009697597   0.08099   0.27097   0.05905  -0.06390

FINAL SINGLE POINT ENERGY     -6526.482932702060

DIPOLE MOMENT
-------------
                                X             Y             Z
Electronic contribution:    184.95043      87.96797     -60.45776
Nuclear contribution   :   -190.70655     -89.38774      63.78677
                        -----------------------------------------
Total Dipole Moment    :     -5.75612      -1.41977       3.32901
                        -----------------------------------------
Magnitude (a.u.)       :      6.79934
Magnitude (Debye)      :     17.28254

Rotational constants in cm-1:     0.001166     0.000250     0.000220
Rotational constants in MHz :    34.943648     7.496092     6.599381

                             ****ORCA TERMINATED NORMALLY****
TOTAL RUN TIME: 0 days 0 hours 7 minutes 51 seconds 193 msec
