                         Program Version 4.2.0 -  RELEASE  -
|  1> # ORCA input file
|  2> # SCF done       -162.601182604565          0.000188402760
|  3> ! CAM-B3LYP def2-SVP def2/J RIJCOSX Grid4 TightSCF
|  4> %maxcore 5000
|  5> %tddft
|  6>     Mode sTDDFT
|  7>     Ethresh 5.0
|  8>     maxcore 5000
|  9> end
| 10>
| 11> %pal
| 12>   nprocs 6
| 13>   end
| 14> * xyz 0 1
| 15>    C       -5.60541         4.19394         3.34281
| 16>    O       -4.56572         3.63889         2.57875
| 17>    C       -3.28060         4.03639         2.84900
| 18>    C       -2.95662         5.00753         3.77612
| 19>    C       -1.63911         5.39439         4.01909
| 20>    C       -1.38068         6.43708         5.01224
| 21>    C       -0.36186         7.36168         4.89772
| 22>    C       -0.12505         8.36476         5.85221
| 23>    C       -0.89089         8.49917         6.97943
| 24>    C       -1.94161         7.58888         7.13382
| 25>    N       -2.85865         7.45392         8.10652
| 26>    N       -3.58408         6.43925         7.72169
| 27>    C       -4.69388         5.97901         8.49990
| 28>    N       -3.25921         5.87269         6.59086
| 29>    C       -2.19643         6.57396         6.15890
| 30>    C       -0.61306         4.75021         3.30484
| 31>    O        0.67832         5.10139         3.60100
| 32>    C        1.72727         4.35291         3.04487
| 33>    C       -0.94028         3.78035         2.37180
| 34>    C       -2.25850         3.40958         2.10769
| 35>    C       -2.61441         2.42224         1.11415
| 36>    C       -1.81414         1.92866         0.15802
| 37>    N       -2.18712         0.94147        -0.72545
| 38>    C       -1.65816         0.93371        -2.07294
| 39>    C       -2.00532        -0.42181        -2.71817
| 40>    C       -1.97959        -0.35511        -4.20762
| 41>    C       -2.56569         0.77669        -4.83283
| 42>    C       -2.44343         0.76199        -6.18293
| 43>    S       -1.61694        -0.63940        -6.73564
| 44>    C       -1.43338        -1.23267        -5.10349
| 45>    C       -0.78087        -2.51196        -4.89326
| 46>    C        0.32953        -2.87576        -5.65618
| 47>    C        0.95444        -4.08776        -5.46345
| 48>    F        1.99183        -4.38790        -6.27103
| 49>    C        0.53056        -5.00461        -4.49680
| 50>    C        1.22563        -6.24855        -4.23057
| 51>    S        0.31228        -7.69331        -3.91429
| 52>    C        1.75437        -8.60116        -3.70357
| 53>    C        2.86512        -7.84064        -3.85370
| 54>    C        2.57734        -6.48382        -4.15147
| 55>    C        3.61374        -5.45502        -4.29522
| 56>    C        4.69376        -5.67338        -5.16191
| 57>    O        4.69544        -6.86372        -5.82123
| 58>    C        5.67105        -7.08604        -6.80878
| 59>    C        5.66711        -4.69253        -5.31601
| 60>    C        5.56206        -3.50790        -4.61363
| 61>    C        4.50707        -3.27698        -3.75096
| 62>    C        3.52916        -4.24956        -3.58540
| 63>    O        2.46221        -4.12508        -2.74028
| 64>    C        2.24374        -2.89067        -2.10623
| 65>    C       -0.61499        -4.66736        -3.77704
| 66>    C       -1.24606        -3.45975        -3.97890
| 67>    F       -2.37511        -3.21509        -3.27651
| 68>    C       -3.16462         1.82512        -3.96206
| 69>    C       -2.12722         2.17961        -2.88963
| 70>    O       -1.05271         2.80054        -3.57041
| 71>    C       -0.24083         3.62779        -2.78029
| 72>    H       -6.51522         3.69776         3.00590
| 73>    H       -5.69975         5.27198         3.17308
| 74>    H       -5.46340         4.00770         4.41213
| 75>    H       -3.72613         5.50057         4.34422
| 76>    H        0.27912         7.32310         4.03242
| 77>    H        0.69361         9.04888         5.68048
| 78>    H       -0.71116         9.26153         7.71991
| 79>    H       -4.65661         6.47787         9.46541
| 80>    H       -4.62858         4.89861         8.62558
| 81>    H       -5.63243         6.21924         7.99692
| 82>    H        2.63781         4.74972         3.49265
| 83>    H        1.78145         4.47429         1.95688
| 84>    H        1.63965         3.28868         3.28761
| 85>    H       -0.15822         3.27445         1.83082
| 86>    H       -3.64170         2.08847         1.15262
| 87>    H       -0.78940         2.25241         0.04304
| 88>    H       -3.17248         0.71300        -0.67603
| 89>    H       -0.56660         1.00460        -1.99714
| 90>    H       -3.01389        -0.71015        -2.40450
| 91>    H       -1.31886        -1.17896        -2.34047
| 92>    H       -2.78572         1.48752        -6.89324
| 93>    H        0.70512        -2.20330        -6.41196
| 94>    H        1.68680        -9.64703        -3.47806
| 95>    H        3.86621        -8.21574        -3.74918
| 96>    H        5.43234        -8.05639        -7.24192
| 97>    H        6.67936        -7.12080        -6.38221
| 98>    H        5.63192        -6.32177        -7.59096
| 99>    H        6.50145        -4.83940        -5.98198
|100>    H        6.31794        -2.74745        -4.74077
|101>    H        4.45588        -2.34300        -3.21586
|102>    H        2.12759        -2.08100        -2.83462
|103>    H        3.05063        -2.64331        -1.40878
|104>    H        1.31461        -3.00966        -1.55038
|105>    H       -1.01275        -5.35530        -3.04733
|106>    H       -4.06866         1.44673        -3.47825
|107>    H       -3.41413         2.71739        -4.53506
|108>    H       -2.56563         2.90099        -2.17812
|109>    H        0.43494         4.13458        -3.46676
|110>    H        0.35231         3.05921        -2.05383
|111>    H       -0.83819         4.37116        -2.23778
|112> *
|113>
|114>                          ****END OF INPUT****

CARTESIAN COORDINATES (ANGSTROEM)
---------------------------------
  C     -5.605410    4.193940    3.342810
  O     -4.565720    3.638890    2.578750
  C     -3.280600    4.036390    2.849000
  C     -2.956620    5.007530    3.776120
  C     -1.639110    5.394390    4.019090
  C     -1.380680    6.437080    5.012240
  C     -0.361860    7.361680    4.897720
  C     -0.125050    8.364760    5.852210
  C     -0.890890    8.499170    6.979430
  C     -1.941610    7.588880    7.133820
  N     -2.858650    7.453920    8.106520
  N     -3.584080    6.439250    7.721690
  C     -4.693880    5.979010    8.499900
  N     -3.259210    5.872690    6.590860
  C     -2.196430    6.573960    6.158900
  C     -0.613060    4.750210    3.304840
  O      0.678320    5.101390    3.601000
  C      1.727270    4.352910    3.044870
  C     -0.940280    3.780350    2.371800
  C     -2.258500    3.409580    2.107690
  C     -2.614410    2.422240    1.114150
  C     -1.814140    1.928660    0.158020
  N     -2.187120    0.941470   -0.725450
  C     -1.658160    0.933710   -2.072940
  C     -2.005320   -0.421810   -2.718170
  C     -1.979590   -0.355110   -4.207620
  C     -2.565690    0.776690   -4.832830
  C     -2.443430    0.761990   -6.182930
  S     -1.616940   -0.639400   -6.735640
  C     -1.433380   -1.232670   -5.103490
  C     -0.780870   -2.511960   -4.893260
  C      0.329530   -2.875760   -5.656180
  C      0.954440   -4.087760   -5.463450
  F      1.991830   -4.387900   -6.271030
  C      0.530560   -5.004610   -4.496800
  C      1.225630   -6.248550   -4.230570
  S      0.312280   -7.693310   -3.914290
  C      1.754370   -8.601160   -3.703570
  C      2.865120   -7.840640   -3.853700
  C      2.577340   -6.483820   -4.151470
  C      3.613740   -5.455020   -4.295220
  C      4.693760   -5.673380   -5.161910
  O      4.695440   -6.863720   -5.821230
  C      5.671050   -7.086040   -6.808780
  C      5.667110   -4.692530   -5.316010
  C      5.562060   -3.507900   -4.613630
  C      4.507070   -3.276980   -3.750960
  C      3.529160   -4.249560   -3.585400
  O      2.462210   -4.125080   -2.740280
  C      2.243740   -2.890670   -2.106230
  C     -0.614990   -4.667360   -3.777040
  C     -1.246060   -3.459750   -3.978900
  F     -2.375110   -3.215090   -3.276510
  C     -3.164620    1.825120   -3.962060
  C     -2.127220    2.179610   -2.889630
  O     -1.052710    2.800540   -3.570410
  C     -0.240830    3.627790   -2.780290
  H     -6.515220    3.697760    3.005900
  H     -5.699750    5.271980    3.173080
  H     -5.463400    4.007700    4.412130
  H     -3.726130    5.500570    4.344220
  H      0.279120    7.323100    4.032420
  H      0.693610    9.048880    5.680480
  H     -0.711160    9.261530    7.719910
  H     -4.656610    6.477870    9.465410
  H     -4.628580    4.898610    8.625580
  H     -5.632430    6.219240    7.996920
  H      2.637810    4.749720    3.492650
  H      1.781450    4.474290    1.956880
  H      1.639650    3.288680    3.287610
  H     -0.158220    3.274450    1.830820
  H     -3.641700    2.088470    1.152620
  H     -0.789400    2.252410    0.043040
  H     -3.172480    0.713000   -0.676030
  H     -0.566600    1.004600   -1.997140
  H     -3.013890   -0.710150   -2.404500
  H     -1.318860   -1.178960   -2.340470
  H     -2.785720    1.487520   -6.893240
  H      0.705120   -2.203300   -6.411960
  H      1.686800   -9.647030   -3.478060
  H      3.866210   -8.215740   -3.749180
  H      5.432340   -8.056390   -7.241920
  H      6.679360   -7.120800   -6.382210
  H      5.631920   -6.321770   -7.590960
  H      6.501450   -4.839400   -5.981980
  H      6.317940   -2.747450   -4.740770
  H      4.455880   -2.343000   -3.215860
  H      2.127590   -2.081000   -2.834620
  H      3.050630   -2.643310   -1.408780
  H      1.314610   -3.009660   -1.550380
  H     -1.012750   -5.355300   -3.047330
  H     -4.068660    1.446730   -3.478250
  H     -3.414130    2.717390   -4.535060
  H     -2.565630    2.900990   -2.178120
  H      0.434940    4.134580   -3.466760
  H      0.352310    3.059210   -2.053830
  H     -0.838190    4.371160   -2.237780

 Total Charge           Charge          ....    0
 Multiplicity           Mult            ....    1
 Number of Electrons    NEL             ....  422
 Basis Dimension        Dim             .... 1006

ORBITAL ENERGIES
----------------

  NO   OCC          E(Eh)            E(eV)
   0   2.0000     -88.938792     -2420.1476
   1   2.0000     -88.937220     -2420.1048
   2   2.0000     -24.773346      -674.1170
   3   2.0000     -24.766685      -673.9358
   4   2.0000     -19.235519      -523.4251
   5   2.0000     -19.234153      -523.3879
   6   2.0000     -19.228711      -523.2398
   7   2.0000     -19.223932      -523.1098
   8   2.0000     -19.206648      -522.6395
   9   2.0000     -14.523339      -395.2001
  10   2.0000     -14.422288      -392.4504
  11   2.0000     -14.421968      -392.4417
  12   2.0000     -14.408589      -392.0776
  13   2.0000     -10.348814      -281.6055
  14   2.0000     -10.345737      -281.5218
  15   2.0000     -10.321182      -280.8536
  16   2.0000     -10.320873      -280.8452
  17   2.0000     -10.315061      -280.6871
  18   2.0000     -10.313979      -280.6576
  19   2.0000     -10.312989      -280.6307
  20   2.0000     -10.311761      -280.5973
  21   2.0000     -10.310962      -280.5755
  22   2.0000     -10.310105      -280.5522
  23   2.0000     -10.306964      -280.4668
  24   2.0000     -10.305861      -280.4367
  25   2.0000     -10.302479      -280.3447
  26   2.0000     -10.299203      -280.2556
  27   2.0000     -10.290852      -280.0283
  28   2.0000     -10.289361      -279.9878
  29   2.0000     -10.287865      -279.9471
  30   2.0000     -10.287755      -279.9441
  31   2.0000     -10.282560      -279.8027
  32   2.0000     -10.280530      -279.7474
  33   2.0000     -10.278747      -279.6989
  34   2.0000     -10.275563      -279.6123
  35   2.0000     -10.274601      -279.5861
  36   2.0000     -10.274253      -279.5766
  37   2.0000     -10.273995      -279.5696
  38   2.0000     -10.267831      -279.4019
  39   2.0000     -10.266467      -279.3648
  40   2.0000     -10.265346      -279.3343
  41   2.0000     -10.264031      -279.2985
  42   2.0000     -10.263138      -279.2742
  43   2.0000     -10.262944      -279.2689
  44   2.0000     -10.259971      -279.1880
  45   2.0000     -10.259965      -279.1878
  46   2.0000     -10.258975      -279.1609
  47   2.0000     -10.257766      -279.1280
  48   2.0000     -10.256548      -279.0949
  49   2.0000     -10.256140      -279.0838
  50   2.0000     -10.252787      -278.9925
  51   2.0000     -10.252285      -278.9788
  52   2.0000     -10.252259      -278.9782
  53   2.0000     -10.250160      -278.9210
  54   2.0000     -10.249008      -278.8897
  55   2.0000     -10.245934      -278.8060
  56   2.0000     -10.237507      -278.5767
  57   2.0000      -8.034643      -218.6338
  58   2.0000      -8.033182      -218.5940
  59   2.0000      -6.004034      -163.3781
  60   2.0000      -6.002514      -163.3367
  61   2.0000      -5.999667      -163.2592
  62   2.0000      -5.998220      -163.2199
  63   2.0000      -5.996790      -163.1809
  64   2.0000      -5.995379      -163.1426
  65   2.0000      -1.285927       -34.9918
  66   2.0000      -1.280392       -34.8412
  67   2.0000      -1.198424       -32.6108
  68   2.0000      -1.140916       -31.0459
  69   2.0000      -1.137776       -30.9605
  70   2.0000      -1.131910       -30.8008
  71   2.0000      -1.126199       -30.6454
  72   2.0000      -1.110825       -30.2271
  73   2.0000      -1.015801       -27.6414
  74   2.0000      -0.978670       -26.6310
  75   2.0000      -0.971001       -26.4223
  76   2.0000      -0.970458       -26.4075
  77   2.0000      -0.958086       -26.0708
  78   2.0000      -0.950034       -25.8517
  79   2.0000      -0.932551       -25.3760
  80   2.0000      -0.930569       -25.3221
  81   2.0000      -0.900127       -24.4937
  82   2.0000      -0.896030       -24.3822
  83   2.0000      -0.876539       -23.8518
  84   2.0000      -0.866414       -23.5763
  85   2.0000      -0.858561       -23.3626
  86   2.0000      -0.845498       -23.0072
  87   2.0000      -0.832759       -22.6605
  88   2.0000      -0.829595       -22.5744
  89   2.0000      -0.825994       -22.4764
  90   2.0000      -0.824597       -22.4384
  91   2.0000      -0.808745       -22.0071
  92   2.0000      -0.803099       -21.8534
  93   2.0000      -0.799624       -21.7589
  94   2.0000      -0.793671       -21.5969
  95   2.0000      -0.786833       -21.4108
  96   2.0000      -0.780304       -21.2332
  97   2.0000      -0.778172       -21.1751
  98   2.0000      -0.765193       -20.8219
  99   2.0000      -0.756464       -20.5844
 100   2.0000      -0.746956       -20.3257
 101   2.0000      -0.738497       -20.0955
 102   2.0000      -0.719079       -19.5671
 103   2.0000      -0.716416       -19.4947
 104   2.0000      -0.710512       -19.3340
 105   2.0000      -0.702026       -19.1031
 106   2.0000      -0.698569       -19.0090
 107   2.0000      -0.690486       -18.7891
 108   2.0000      -0.686859       -18.6904
 109   2.0000      -0.663209       -18.0468
 110   2.0000      -0.658828       -17.9276
 111   2.0000      -0.657152       -17.8820
 112   2.0000      -0.652152       -17.7460
 113   2.0000      -0.648145       -17.6369
 114   2.0000      -0.639559       -17.4033
 115   2.0000      -0.633574       -17.2404
 116   2.0000      -0.629904       -17.1406
 117   2.0000      -0.619126       -16.8473
 118   2.0000      -0.612137       -16.6571
 119   2.0000      -0.600921       -16.3519
 120   2.0000      -0.598737       -16.2925
 121   2.0000      -0.596393       -16.2287
 122   2.0000      -0.587875       -15.9969
 123   2.0000      -0.587183       -15.9781
 124   2.0000      -0.585208       -15.9243
 125   2.0000      -0.583442       -15.8763
 126   2.0000      -0.581702       -15.8289
 127   2.0000      -0.577426       -15.7126
 128   2.0000      -0.576865       -15.6973
 129   2.0000      -0.573576       -15.6078
 130   2.0000      -0.569781       -15.5045
 131   2.0000      -0.561923       -15.2907
 132   2.0000      -0.556159       -15.1339
 133   2.0000      -0.550157       -14.9705
 134   2.0000      -0.546635       -14.8747
 135   2.0000      -0.545376       -14.8404
 136   2.0000      -0.543464       -14.7884
 137   2.0000      -0.542055       -14.7501
 138   2.0000      -0.539420       -14.6784
 139   2.0000      -0.535229       -14.5643
 140   2.0000      -0.534463       -14.5435
 141   2.0000      -0.532561       -14.4917
 142   2.0000      -0.532487       -14.4897
 143   2.0000      -0.530715       -14.4415
 144   2.0000      -0.523247       -14.2383
 145   2.0000      -0.520068       -14.1518
 146   2.0000      -0.514598       -14.0029
 147   2.0000      -0.511633       -13.9222
 148   2.0000      -0.507869       -13.8198
 149   2.0000      -0.505082       -13.7440
 150   2.0000      -0.501547       -13.6478
 151   2.0000      -0.498193       -13.5565
 152   2.0000      -0.493782       -13.4365
 153   2.0000      -0.491276       -13.3683
 154   2.0000      -0.488049       -13.2805
 155   2.0000      -0.485254       -13.2044
 156   2.0000      -0.484314       -13.1789
 157   2.0000      -0.480333       -13.0705
 158   2.0000      -0.479225       -13.0404
 159   2.0000      -0.473923       -12.8961
 160   2.0000      -0.471648       -12.8342
 161   2.0000      -0.470301       -12.7975
 162   2.0000      -0.468571       -12.7505
 163   2.0000      -0.466651       -12.6982
 164   2.0000      -0.462892       -12.5959
 165   2.0000      -0.460504       -12.5309
 166   2.0000      -0.457319       -12.4443
 167   2.0000      -0.455789       -12.4026
 168   2.0000      -0.449843       -12.2409
 169   2.0000      -0.445996       -12.1362
 170   2.0000      -0.441587       -12.0162
 171   2.0000      -0.439259       -11.9528
 172   2.0000      -0.438065       -11.9204
 173   2.0000      -0.437539       -11.9060
 174   2.0000      -0.432415       -11.7666
 175   2.0000      -0.429595       -11.6899
 176   2.0000      -0.428219       -11.6524
 177   2.0000      -0.425850       -11.5880
 178   2.0000      -0.422105       -11.4861
 179   2.0000      -0.415832       -11.3154
 180   2.0000      -0.414300       -11.2737
 181   2.0000      -0.412237       -11.2175
 182   2.0000      -0.411845       -11.2069
 183   2.0000      -0.407492       -11.0884
 184   2.0000      -0.402906       -10.9636
 185   2.0000      -0.399857       -10.8807
 186   2.0000      -0.396429       -10.7874
 187   2.0000      -0.394749       -10.7417
 188   2.0000      -0.392209       -10.6725
 189   2.0000      -0.385190       -10.4816
 190   2.0000      -0.384996       -10.4763
 191   2.0000      -0.375929       -10.2295
 192   2.0000      -0.373203       -10.1554
 193   2.0000      -0.372811       -10.1447
 194   2.0000      -0.363359        -9.8875
 195   2.0000      -0.355754        -9.6805
 196   2.0000      -0.351528        -9.5656
 197   2.0000      -0.344835        -9.3834
 198   2.0000      -0.334056        -9.0901
 199   2.0000      -0.318042        -8.6544
 200   2.0000      -0.314119        -8.5476
 201   2.0000      -0.306185        -8.3317
 202   2.0000      -0.302004        -8.2179
 203   2.0000      -0.294387        -8.0107
 204   2.0000      -0.291274        -7.9260
 205   2.0000      -0.276979        -7.5370
 206   2.0000      -0.272023        -7.4021
 207   2.0000      -0.269062        -7.3216
 208   2.0000      -0.265801        -7.2328
 209   2.0000      -0.253777        -6.9056
 210   2.0000      -0.220539        -6.0012
 211   0.0000      -0.013559        -0.3690
 212   0.0000      -0.012118        -0.3297
 213   0.0000       0.027241         0.7413
 214   0.0000       0.029552         0.8042
 215   0.0000       0.035781         0.9736

MULLIKEN ATOMIC CHARGES
-----------------------
   0 C :    0.184143
   1 O :   -0.328678
   2 C :    0.211747
   3 C :   -0.139774
   4 C :    0.023852
   5 C :    0.068418
   6 C :   -0.030024
   7 C :    0.032862
   8 C :   -0.057445
   9 C :    0.020330
  10 N :   -0.054606
  11 N :   -0.081774
  12 C :    0.152416
  13 N :   -0.082322
  14 C :   -0.038687
  15 C :    0.213166
  16 O :   -0.321122
  17 C :    0.188957
  18 C :   -0.179260
  19 C :    0.062279
  20 C :   -0.016651
  21 C :    0.056113
  22 N :   -0.140535
  23 C :   -0.002599
  24 C :    0.248128
  25 C :   -0.049942
  26 C :   -0.049327
  27 C :   -0.143001
  28 S :    0.108284
  29 C :   -0.171869
  30 C :    0.002019
  31 C :   -0.102883
  32 C :    0.257640
  33 F :   -0.184460
  34 C :    0.047204
  35 C :   -0.145815
  36 S :    0.103469
  37 C :   -0.075416
  38 C :    0.043271
  39 C :    0.117244
  40 C :   -0.040745
  41 C :    0.200661
  42 O :   -0.306605
  43 C :    0.183228
  44 C :   -0.106097
  45 C :    0.042393
  46 C :   -0.099251
  47 C :    0.193540
  48 O :   -0.314213
  49 C :    0.180234
  50 C :   -0.099564
  51 C :    0.243737
  52 F :   -0.195630
  53 C :    0.261269
  54 C :    0.088771
  55 O :   -0.381456
  56 C :    0.187581
  57 H :    0.024732
  58 H :    0.017270
  59 H :    0.024720
  60 H :   -0.036622
  61 H :   -0.023813
  62 H :   -0.019312
  63 H :   -0.031493
  64 H :    0.047848
  65 H :    0.048438
  66 H :    0.044459
  67 H :    0.030724
  68 H :    0.014065
  69 H :    0.020345
  70 H :   -0.062940
  71 H :   -0.029242
  72 H :   -0.019291
  73 H :    0.104438
  74 H :   -0.001482
  75 H :   -0.004888
  76 H :    0.000249
  77 H :    0.007812
  78 H :   -0.009922
  79 H :    0.020269
  80 H :   -0.022231
  81 H :    0.034681
  82 H :    0.019261
  83 H :    0.024541
  84 H :   -0.040298
  85 H :   -0.018000
  86 H :   -0.041432
  87 H :    0.022898
  88 H :    0.019890
  89 H :    0.038064
  90 H :   -0.011733
  91 H :   -0.002177
  92 H :   -0.006706
  93 H :    0.002962
  94 H :    0.027273
  95 H :   -0.004723
  96 H :    0.008157
Sum of atomic charges:    0.0000000

LOEWDIN ATOMIC CHARGES
----------------------
   0 C :    0.073217
   1 O :   -0.115647
   2 C :    0.037960
   3 C :   -0.046086
   4 C :   -0.045801
   5 C :   -0.017979
   6 C :   -0.017309
   7 C :   -0.027584
   8 C :   -0.032507
   9 C :   -0.058156
  10 N :   -0.098047
  11 N :    0.147890
  12 C :    0.031426
  13 N :   -0.105886
  14 C :   -0.045422
  15 C :    0.051345
  16 O :   -0.105466
  17 C :    0.073102
  18 C :   -0.074701
  19 C :   -0.027090
  20 C :   -0.100666
  21 C :    0.025726
  22 N :   -0.029873
  23 C :    0.018882
  24 C :   -0.021845
  25 C :   -0.055659
  26 C :   -0.059522
  27 C :   -0.189042
  28 S :    0.425363
  29 C :   -0.176100
  30 C :   -0.066230
  31 C :   -0.041209
  32 C :    0.082479
  33 F :   -0.059209
  34 C :   -0.048323
  35 C :   -0.169563
  36 S :    0.426511
  37 C :   -0.190110
  38 C :   -0.044887
  39 C :   -0.037600
  40 C :   -0.073126
  41 C :    0.072303
  42 O :   -0.094808
  43 C :    0.076585
  44 C :   -0.094518
  45 C :   -0.004829
  46 C :   -0.093884
  47 C :    0.066881
  48 O :   -0.094398
  49 C :    0.074270
  50 C :   -0.038768
  51 C :    0.077092
  52 F :   -0.068203
  53 C :   -0.021677
  54 C :    0.058498
  55 O :   -0.168418
  56 C :    0.065499
  57 H :    0.023602
  58 H :    0.012654
  59 H :    0.015673
  60 H :    0.025792
  61 H :    0.025912
  62 H :    0.026947
  63 H :    0.030419
  64 H :    0.040530
  65 H :    0.038907
  66 H :    0.036290
  67 H :    0.026553
  68 H :    0.010003
  69 H :    0.014273
  70 H :    0.019918
  71 H :    0.022075
  72 H :    0.015170
  73 H :    0.067261
  74 H :    0.025833
  75 H :    0.032404
  76 H :    0.031984
  77 H :    0.020722
  78 H :    0.035485
  79 H :    0.020908
  80 H :    0.027813
  81 H :    0.028157
  82 H :    0.013001
  83 H :    0.016383
  84 H :    0.024511
  85 H :    0.028558
  86 H :    0.024579
  87 H :    0.013910
  88 H :    0.013325
  89 H :    0.026812
  90 H :    0.035172
  91 H :    0.030255
  92 H :    0.032846
  93 H :    0.010254
  94 H :    0.023906
  95 H :   -0.002683
  96 H :    0.009002

  Mayer bond orders larger than 0.100000
B(  0-C ,  1-O ) :   0.9745 B(  0-C , 57-H ) :   0.9772 B(  0-C , 58-H ) :   0.9676
B(  0-C , 59-H ) :   0.9680 B(  1-O ,  2-C ) :   1.1291 B(  2-C ,  3-C ) :   1.3012
B(  2-C , 19-C ) :   1.3426 B(  3-C ,  4-C ) :   1.3431 B(  3-C , 60-H ) :   0.9884
B(  4-C ,  5-C ) :   0.9700 B(  4-C , 15-C ) :   1.3836 B(  5-C ,  6-C ) :   1.5167
B(  5-C ,  8-C ) :   0.1101 B(  5-C , 14-C ) :   1.2189 B(  6-C ,  7-C ) :   1.2325
B(  6-C , 61-H ) :   0.9861 B(  7-C ,  8-C ) :   1.4726 B(  7-C , 62-H ) :   0.9844
B(  8-C ,  9-C ) :   1.2151 B(  8-C , 63-H ) :   1.0212 B(  9-C , 10-N ) :   1.4530
B(  9-C , 14-C ) :   1.2295 B( 10-N , 11-N ) :   1.2407 B( 10-N , 13-N ) :   0.1697
B( 11-N , 12-C ) :   0.9577 B( 11-N , 13-N ) :   1.2063 B( 12-C , 64-H ) :   0.9670
B( 12-C , 65-H ) :   0.9702 B( 12-C , 66-H ) :   0.9713 B( 13-N , 14-C ) :   1.4398
B( 15-C , 16-O ) :   1.1281 B( 15-C , 18-C ) :   1.2975 B( 16-O , 17-C ) :   0.9758
B( 17-C , 67-H ) :   0.9771 B( 17-C , 68-H ) :   0.9669 B( 17-C , 69-H ) :   0.9666
B( 18-C , 19-C ) :   1.3188 B( 18-C , 70-H ) :   0.9895 B( 19-C , 20-C ) :   1.1119
B( 20-C , 21-C ) :   1.6801 B( 20-C , 71-H ) :   0.9601 B( 21-C , 22-N ) :   1.1659
B( 21-C , 72-H ) :   0.9581 B( 22-N , 23-C ) :   0.9947 B( 22-N , 73-H ) :   0.9365
B( 23-C , 24-C ) :   1.0475 B( 23-C , 54-C ) :   0.9711 B( 23-C , 74-H ) :   0.8975
B( 24-C , 25-C ) :   1.0746 B( 24-C , 75-H ) :   0.8757 B( 24-C , 76-H ) :   0.9056
B( 25-C , 26-C ) :   1.2533 B( 25-C , 29-C ) :   1.5983 B( 26-C , 27-C ) :   1.5989
B( 26-C , 53-C ) :   1.0440 B( 27-C , 28-S ) :   1.1439 B( 27-C , 77-H ) :   0.9706
B( 28-S , 29-C ) :   1.1431 B( 29-C , 30-C ) :   0.9854 B( 30-C , 31-C ) :   1.2976
B( 30-C , 51-C ) :   1.3515 B( 31-C , 32-C ) :   1.3684 B( 31-C , 78-H ) :   0.9984
B( 32-C , 33-F ) :   1.1121 B( 32-C , 34-C ) :   1.3414 B( 34-C , 35-C ) :   0.9991
B( 34-C , 50-C ) :   1.3145 B( 35-C , 36-S ) :   1.1314 B( 35-C , 39-C ) :   1.6009
B( 36-S , 37-C ) :   1.1496 B( 37-C , 38-C ) :   1.5755 B( 37-C , 79-H ) :   0.9716
B( 38-C , 39-C ) :   1.2565 B( 38-C , 80-H ) :   0.9978 B( 39-C , 40-C ) :   0.9312
B( 40-C , 41-C ) :   1.4108 B( 40-C , 47-C ) :   1.4197 B( 41-C , 42-O ) :   1.1743
B( 41-C , 44-C ) :   1.2998 B( 42-O , 43-C ) :   0.9666 B( 43-C , 81-H ) :   0.9791
B( 43-C , 82-H ) :   0.9686 B( 43-C , 83-H ) :   0.9688 B( 44-C , 45-C ) :   1.3572
B( 44-C , 84-H ) :   1.0000 B( 45-C , 46-C ) :   1.3592 B( 45-C , 85-H ) :   0.9871
B( 46-C , 47-C ) :   1.3018 B( 46-C , 86-H ) :   1.0011 B( 47-C , 48-O ) :   1.1581
B( 48-O , 49-C ) :   0.9624 B( 49-C , 87-H ) :   0.9670 B( 49-C , 88-H ) :   0.9676
B( 49-C , 89-H ) :   0.9770 B( 50-C , 51-C ) :   1.3599 B( 50-C , 90-H ) :   0.9957
B( 51-C , 52-F ) :   1.0944 B( 53-C , 54-C ) :   1.0773 B( 53-C , 91-H ) :   0.8967
B( 53-C , 92-H ) :   0.9006 B( 54-C , 55-O ) :   0.9824 B( 54-C , 93-H ) :   0.9276
B( 55-O , 56-C ) :   1.0074 B( 56-C , 94-H ) :   0.9792 B( 56-C , 95-H ) :   0.9614
B( 56-C , 96-H ) :   0.9657

-----------------------------------------------------------------------------
         ABSORPTION SPECTRUM VIA TRANSITION ELECTRIC DIPOLE MOMENTS
-----------------------------------------------------------------------------
State   Energy  Wavelength   fosc         T2         TX        TY        TZ
        (cm-1)    (nm)                  (au**2)     (au)      (au)      (au)
-----------------------------------------------------------------------------
   0   28550.2    350.3   0.703884272   8.11647  -0.09877   1.96728   2.05828
   1   33662.0    297.1   0.001809352   0.01770   0.05910  -0.09850  -0.06709
   2   33983.2    294.3   0.644262164   6.24128   1.76335  -1.74787   0.27712
   3   35424.9    282.3   0.011836571   0.11000  -0.24786   0.15420   0.15744
   4   36471.3    274.2   0.488461054   4.40914  -0.21248   2.08743   0.08139
   5   37067.2    269.8   0.518735929   4.60714   0.43516   1.02133   1.83703
   6   38293.0    261.1   0.057953021   0.49823   0.40307   0.41366  -0.40577

FINAL SINGLE POINT ENERGY     -3288.572560140568

DIPOLE MOMENT
-------------
                                X             Y             Z
Electronic contribution:     -3.30569     -40.37893     -28.86975
Nuclear contribution   :      3.73180      40.55095      28.88200
                        -----------------------------------------
Total Dipole Moment    :      0.42611       0.17202       0.01226
                        -----------------------------------------
Magnitude (a.u.)       :      0.45969
Magnitude (Debye)      :      1.16843

Rotational constants in cm-1:     0.002583     0.000435     0.000414
Rotational constants in MHz :    77.447731    13.042014    12.420723

                             ****ORCA TERMINATED NORMALLY****
TOTAL RUN TIME: 0 days 0 hours 7 minutes 17 seconds 167 msec
