                         Program Version 4.2.0 -  RELEASE  -
|  1> # ORCA input file
|  2> # SCF done       -167.937634202605          0.000762057992
|  3> ! CAM-B3LYP def2-SVP def2/J RIJCOSX Grid4 TightSCF
|  4> %maxcore 5000
|  5> %tddft
|  6>     Mode sTDDFT
|  7>     Ethresh 5.0
|  8>     maxcore 5000
|  9> end
| 10>
| 11> %pal
| 12>   nprocs 6
| 13>   end
| 14> * xyz 0 1
| 15>    C       -1.50963         0.39527        -3.36033
| 16>    C       -0.71735        -0.65249        -3.74425
| 17>    C       -0.74454        -1.86222        -3.04630
| 18>    C       -1.55988        -2.06482        -1.94605
| 19>    C       -2.40345        -0.98669        -1.53378
| 20>    N       -3.24276        -1.12422        -0.49043
| 21>    C       -3.99093        -0.10688        -0.15829
| 22>    C       -3.93761         1.11308        -0.86019
| 23>    N       -3.14703         1.28006        -1.88408
| 24>    C       -2.36472         0.24319        -2.25226
| 25>    C       -1.55465        -3.32711        -1.25152
| 26>    C       -2.13542        -3.65416        -0.04602
| 27>    C       -1.91494        -4.98835         0.30667
| 28>    C       -1.15775        -5.68775        -0.64568
| 29>    S       -0.71200        -4.70469        -1.96352
| 30>    C       -1.00062        -7.02790        -0.20410
| 31>    C       -1.65594        -7.17237         1.02875
| 32>    C       -2.25120        -5.89301         1.39183
| 33>    C       -2.97496        -5.61072         2.51281
| 34>    C       -3.23340        -6.58516         3.49972
| 35>    N       -3.44660        -7.37492         4.30337
| 36>    C       -3.51459        -4.33132         2.76443
| 37>    N       -3.96200        -3.29861         2.98375
| 38>    C       -1.56981        -8.46676         1.54167
| 39>    C       -0.85799        -9.30742         0.70625
| 40>    S       -0.27892        -8.48195        -0.73445
| 41>    C       -0.58993       -10.68790         0.88737
| 42>    C        0.07779       -11.53699         0.02459
| 43>    C        0.13077       -12.84208         0.51443
| 44>    C       -0.49724       -12.98447         1.76277
| 45>    S       -1.15358       -11.51433         2.33379
| 46>    C       -0.40763       -14.34244         2.16185
| 47>    C        0.27187       -15.05918         1.16301
| 48>    C        0.64060       -14.13926         0.09853
| 49>    C        1.32076       -14.43092        -1.04709
| 50>    C        1.76655       -15.73631        -1.34282
| 51>    N        2.13161       -16.79575        -1.58643
| 52>    C        1.62426       -13.44582        -2.01018
| 53>    N        1.87299       -12.64748        -2.79492
| 54>    C        0.39197       -16.41813         1.45489
| 55>    C       -0.18586       -16.73882         2.66901
| 56>    S       -0.88762       -15.33646         3.46540
| 57>    C       -0.27326       -18.01759         3.27548
| 58>    C       -0.79212       -18.33021         4.51816
| 59>    C       -0.73613       -19.69969         4.77718
| 60>    C       -0.17473       -20.43386         3.72061
| 61>    S        0.29640       -19.44053         2.41355
| 62>    C       -0.18501       -21.80982         4.07033
| 63>    C       -0.74895       -21.94245         5.34864
| 64>    C       -1.10602       -20.62380         5.84107
| 65>    C       -1.66341       -20.31142         7.04603
| 66>    C       -1.97882       -21.29058         8.01203
| 67>    N       -2.24072       -22.07244         8.80884
| 68>    C       -1.95801       -18.98062         7.41001
| 69>    N       -2.19787       -17.89895         7.70631
| 70>    C       -0.82062       -23.27016         5.77751
| 71>    C       -0.32206       -24.15246         4.84407
| 72>    S        0.25677       -23.31306         3.40197
| 73>    C       -0.23657       -25.58900         4.90994
| 74>    C        0.34103       -26.30708         3.87636
| 75>    C        0.43948       -27.70015         3.89476
| 76>    C       -0.03983       -28.42164         4.95421
| 77>    C       -0.63808       -27.74490         6.03407
| 78>    N       -1.10871       -28.46575         7.07398
| 79>    C       -1.66119       -27.81992         8.06338
| 80>    C       -1.77197       -26.41603         8.05879
| 81>    N       -1.32496       -25.69502         7.06612
| 82>    C       -0.74484       -26.32375         6.02702
| 83>    H       -1.50590         1.34149        -3.87687
| 84>    H       -0.05686        -0.55353        -4.59252
| 85>    H       -0.09973        -2.66527        -3.37491
| 86>    H       -4.65407        -0.25254         0.68358
| 87>    H       -4.55534         1.95495        -0.57802
| 88>    H       -2.69502        -2.93938         0.52771
| 89>    H       -2.00113        -8.79711         2.46965
| 90>    H        0.49257       -11.20779        -0.91125
| 91>    H        0.87071       -17.14808         0.82703
| 92>    H       -1.18717       -17.58714         5.18755
| 93>    H       -1.21758       -23.60502         6.71767
| 94>    H        0.73172       -25.77226         3.02199
| 95>    H        0.90101       -28.20234         3.05788
| 96>    H        0.02219       -29.49705         4.99623
| 97>    H       -2.03189       -28.41387         8.88784
| 98>    H       -2.23148       -25.87618         8.87557
| 99> *
|100>
|101>                          ****END OF INPUT****

CARTESIAN COORDINATES (ANGSTROEM)
---------------------------------
  C     -1.509630    0.395270   -3.360330
  C     -0.717350   -0.652490   -3.744250
  C     -0.744540   -1.862220   -3.046300
  C     -1.559880   -2.064820   -1.946050
  C     -2.403450   -0.986690   -1.533780
  N     -3.242760   -1.124220   -0.490430
  C     -3.990930   -0.106880   -0.158290
  C     -3.937610    1.113080   -0.860190
  N     -3.147030    1.280060   -1.884080
  C     -2.364720    0.243190   -2.252260
  C     -1.554650   -3.327110   -1.251520
  C     -2.135420   -3.654160   -0.046020
  C     -1.914940   -4.988350    0.306670
  C     -1.157750   -5.687750   -0.645680
  S     -0.712000   -4.704690   -1.963520
  C     -1.000620   -7.027900   -0.204100
  C     -1.655940   -7.172370    1.028750
  C     -2.251200   -5.893010    1.391830
  C     -2.974960   -5.610720    2.512810
  C     -3.233400   -6.585160    3.499720
  N     -3.446600   -7.374920    4.303370
  C     -3.514590   -4.331320    2.764430
  N     -3.962000   -3.298610    2.983750
  C     -1.569810   -8.466760    1.541670
  C     -0.857990   -9.307420    0.706250
  S     -0.278920   -8.481950   -0.734450
  C     -0.589930  -10.687900    0.887370
  C      0.077790  -11.536990    0.024590
  C      0.130770  -12.842080    0.514430
  C     -0.497240  -12.984470    1.762770
  S     -1.153580  -11.514330    2.333790
  C     -0.407630  -14.342440    2.161850
  C      0.271870  -15.059180    1.163010
  C      0.640600  -14.139260    0.098530
  C      1.320760  -14.430920   -1.047090
  C      1.766550  -15.736310   -1.342820
  N      2.131610  -16.795750   -1.586430
  C      1.624260  -13.445820   -2.010180
  N      1.872990  -12.647480   -2.794920
  C      0.391970  -16.418130    1.454890
  C     -0.185860  -16.738820    2.669010
  S     -0.887620  -15.336460    3.465400
  C     -0.273260  -18.017590    3.275480
  C     -0.792120  -18.330210    4.518160
  C     -0.736130  -19.699690    4.777180
  C     -0.174730  -20.433860    3.720610
  S      0.296400  -19.440530    2.413550
  C     -0.185010  -21.809820    4.070330
  C     -0.748950  -21.942450    5.348640
  C     -1.106020  -20.623800    5.841070
  C     -1.663410  -20.311420    7.046030
  C     -1.978820  -21.290580    8.012030
  N     -2.240720  -22.072440    8.808840
  C     -1.958010  -18.980620    7.410010
  N     -2.197870  -17.898950    7.706310
  C     -0.820620  -23.270160    5.777510
  C     -0.322060  -24.152460    4.844070
  S      0.256770  -23.313060    3.401970
  C     -0.236570  -25.589000    4.909940
  C      0.341030  -26.307080    3.876360
  C      0.439480  -27.700150    3.894760
  C     -0.039830  -28.421640    4.954210
  C     -0.638080  -27.744900    6.034070
  N     -1.108710  -28.465750    7.073980
  C     -1.661190  -27.819920    8.063380
  C     -1.771970  -26.416030    8.058790
  N     -1.324960  -25.695020    7.066120
  C     -0.744840  -26.323750    6.027020
  H     -1.505900    1.341490   -3.876870
  H     -0.056860   -0.553530   -4.592520
  H     -0.099730   -2.665270   -3.374910
  H     -4.654070   -0.252540    0.683580
  H     -4.555340    1.954950   -0.578020
  H     -2.695020   -2.939380    0.527710
  H     -2.001130   -8.797110    2.469650
  H      0.492570  -11.207790   -0.911250
  H      0.870710  -17.148080    0.827030
  H     -1.187170  -17.587140    5.187550
  H     -1.217580  -23.605020    6.717670
  H      0.731720  -25.772260    3.021990
  H      0.901010  -28.202340    3.057880
  H      0.022190  -29.497050    4.996230
  H     -2.031890  -28.413870    8.887840
  H     -2.231480  -25.876180    8.875570

 Total Charge           Charge          ....    0
 Multiplicity           Mult            ....    1
 Number of Electrons    NEL             ....  494
 Basis Dimension        Dim             .... 1056

ORBITAL ENERGIES
----------------

  NO   OCC          E(Eh)            E(eV)
   0   2.0000     -88.991816     -2421.5904
   1   2.0000     -88.991624     -2421.5852
   2   2.0000     -88.989689     -2421.5325
   3   2.0000     -88.989573     -2421.5294
   4   2.0000     -88.982290     -2421.3312
   5   2.0000     -88.982149     -2421.3274
   6   2.0000     -14.432721      -392.7343
   7   2.0000     -14.432638      -392.7320
   8   2.0000     -14.427635      -392.5959
   9   2.0000     -14.427609      -392.5952
  10   2.0000     -14.426213      -392.5572
  11   2.0000     -14.426034      -392.5524
  12   2.0000     -14.425952      -392.5501
  13   2.0000     -14.425914      -392.5491
  14   2.0000     -14.424251      -392.5038
  15   2.0000     -14.424088      -392.4994
  16   2.0000     -10.366575      -282.0888
  17   2.0000     -10.360504      -281.9236
  18   2.0000     -10.360443      -281.9220
  19   2.0000     -10.353839      -281.7423
  20   2.0000     -10.347706      -281.5754
  21   2.0000     -10.347630      -281.5733
  22   2.0000     -10.333121      -281.1785
  23   2.0000     -10.333051      -281.1766
  24   2.0000     -10.332983      -281.1748
  25   2.0000     -10.332775      -281.1691
  26   2.0000     -10.330300      -281.1018
  27   2.0000     -10.330253      -281.1005
  28   2.0000     -10.330018      -281.0941
  29   2.0000     -10.329984      -281.0932
  30   2.0000     -10.328515      -281.0532
  31   2.0000     -10.328435      -281.0510
  32   2.0000     -10.328225      -281.0453
  33   2.0000     -10.328216      -281.0450
  34   2.0000     -10.326538      -280.9994
  35   2.0000     -10.326417      -280.9961
  36   2.0000     -10.326310      -280.9932
  37   2.0000     -10.326297      -280.9928
  38   2.0000     -10.322225      -280.8820
  39   2.0000     -10.321995      -280.8758
  40   2.0000     -10.319968      -280.8206
  41   2.0000     -10.319854      -280.8175
  42   2.0000     -10.318377      -280.7773
  43   2.0000     -10.318331      -280.7761
  44   2.0000     -10.317529      -280.7542
  45   2.0000     -10.317381      -280.7502
  46   2.0000     -10.314660      -280.6762
  47   2.0000     -10.314640      -280.6756
  48   2.0000     -10.304255      -280.3930
  49   2.0000     -10.304215      -280.3919
  50   2.0000     -10.303240      -280.3654
  51   2.0000     -10.302923      -280.3568
  52   2.0000     -10.302818      -280.3539
  53   2.0000     -10.302780      -280.3529
  54   2.0000     -10.301438      -280.3164
  55   2.0000     -10.301422      -280.3159
  56   2.0000     -10.300994      -280.3043
  57   2.0000     -10.300983      -280.3040
  58   2.0000     -10.293549      -280.1017
  59   2.0000     -10.293269      -280.0941
  60   2.0000     -10.289923      -280.0030
  61   2.0000     -10.289781      -279.9992
  62   2.0000     -10.287475      -279.9364
  63   2.0000     -10.287423      -279.9350
  64   2.0000     -10.284064      -279.8436
  65   2.0000     -10.283201      -279.8201
  66   2.0000     -10.280537      -279.7476
  67   2.0000     -10.280503      -279.7467
  68   2.0000      -8.086174      -220.0360
  69   2.0000      -8.086066      -220.0330
  70   2.0000      -8.084122      -219.9802
  71   2.0000      -8.084068      -219.9787
  72   2.0000      -8.076808      -219.7811
  73   2.0000      -8.076574      -219.7748
  74   2.0000      -6.055474      -164.7778
  75   2.0000      -6.055384      -164.7754
  76   2.0000      -6.053424      -164.7220
  77   2.0000      -6.053376      -164.7207
  78   2.0000      -6.051288      -164.6639
  79   2.0000      -6.051190      -164.6613
  80   2.0000      -6.049254      -164.6086
  81   2.0000      -6.049190      -164.6068
  82   2.0000      -6.048448      -164.5866
  83   2.0000      -6.048329      -164.5834
  84   2.0000      -6.046397      -164.5308
  85   2.0000      -6.046319      -164.5287
  86   2.0000      -6.046025      -164.5207
  87   2.0000      -6.045791      -164.5143
  88   2.0000      -6.041843      -164.4069
  89   2.0000      -6.041624      -164.4010
  90   2.0000      -6.039276      -164.3371
  91   2.0000      -6.039063      -164.3313
  92   2.0000      -1.081775       -29.4366
  93   2.0000      -1.081618       -29.4323
  94   2.0000      -1.046825       -28.4856
  95   2.0000      -1.040545       -28.3147
  96   2.0000      -1.039553       -28.2877
  97   2.0000      -1.024287       -27.8723
  98   2.0000      -1.018829       -27.7238
  99   2.0000      -1.018262       -27.7083
 100   2.0000      -1.010406       -27.4945
 101   2.0000      -1.007394       -27.4126
 102   2.0000      -1.005418       -27.3588
 103   2.0000      -1.004054       -27.3217
 104   2.0000      -1.004011       -27.3205
 105   2.0000      -1.003133       -27.2966
 106   2.0000      -0.993980       -27.0476
 107   2.0000      -0.986039       -26.8315
 108   2.0000      -0.966475       -26.2991
 109   2.0000      -0.960873       -26.1467
 110   2.0000      -0.955946       -26.0126
 111   2.0000      -0.947697       -25.7882
 112   2.0000      -0.947603       -25.7856
 113   2.0000      -0.920200       -25.0399
 114   2.0000      -0.908627       -24.7250
 115   2.0000      -0.899847       -24.4861
 116   2.0000      -0.873964       -23.7818
 117   2.0000      -0.870722       -23.6936
 118   2.0000      -0.867591       -23.6083
 119   2.0000      -0.865079       -23.5400
 120   2.0000      -0.861262       -23.4361
 121   2.0000      -0.860399       -23.4127
 122   2.0000      -0.856013       -23.2933
 123   2.0000      -0.855149       -23.2698
 124   2.0000      -0.845737       -23.0137
 125   2.0000      -0.845369       -23.0037
 126   2.0000      -0.829185       -22.5633
 127   2.0000      -0.803517       -21.8648
 128   2.0000      -0.779446       -21.2098
 129   2.0000      -0.776765       -21.1369
 130   2.0000      -0.772615       -21.0239
 131   2.0000      -0.769146       -20.9295
 132   2.0000      -0.760954       -20.7066
 133   2.0000      -0.757752       -20.6195
 134   2.0000      -0.747989       -20.3538
 135   2.0000      -0.744318       -20.2539
 136   2.0000      -0.741485       -20.1768
 137   2.0000      -0.723075       -19.6759
 138   2.0000      -0.706754       -19.2317
 139   2.0000      -0.704288       -19.1647
 140   2.0000      -0.696140       -18.9429
 141   2.0000      -0.689093       -18.7512
 142   2.0000      -0.687441       -18.7062
 143   2.0000      -0.680436       -18.5156
 144   2.0000      -0.674362       -18.3503
 145   2.0000      -0.672208       -18.2917
 146   2.0000      -0.653676       -17.7874
 147   2.0000      -0.648454       -17.6453
 148   2.0000      -0.637562       -17.3489
 149   2.0000      -0.634862       -17.2755
 150   2.0000      -0.630256       -17.1501
 151   2.0000      -0.630063       -17.1449
 152   2.0000      -0.626552       -17.0494
 153   2.0000      -0.624644       -16.9974
 154   2.0000      -0.621163       -16.9027
 155   2.0000      -0.617946       -16.8152
 156   2.0000      -0.616696       -16.7812
 157   2.0000      -0.610182       -16.6039
 158   2.0000      -0.607269       -16.5246
 159   2.0000      -0.604737       -16.4557
 160   2.0000      -0.593992       -16.1633
 161   2.0000      -0.589749       -16.0479
 162   2.0000      -0.568045       -15.4573
 163   2.0000      -0.566891       -15.4259
 164   2.0000      -0.558709       -15.2032
 165   2.0000      -0.556971       -15.1560
 166   2.0000      -0.550074       -14.9683
 167   2.0000      -0.545369       -14.8403
 168   2.0000      -0.543836       -14.7985
 169   2.0000      -0.542470       -14.7614
 170   2.0000      -0.539284       -14.6747
 171   2.0000      -0.532276       -14.4840
 172   2.0000      -0.531681       -14.4678
 173   2.0000      -0.531381       -14.4596
 174   2.0000      -0.530733       -14.4420
 175   2.0000      -0.524406       -14.2698
 176   2.0000      -0.520170       -14.1545
 177   2.0000      -0.516878       -14.0650
 178   2.0000      -0.511133       -13.9086
 179   2.0000      -0.510917       -13.9028
 180   2.0000      -0.509292       -13.8585
 181   2.0000      -0.506541       -13.7837
 182   2.0000      -0.503176       -13.6921
 183   2.0000      -0.499814       -13.6006
 184   2.0000      -0.497754       -13.5446
 185   2.0000      -0.494867       -13.4660
 186   2.0000      -0.493964       -13.4414
 187   2.0000      -0.490540       -13.3483
 188   2.0000      -0.488488       -13.2924
 189   2.0000      -0.486624       -13.2417
 190   2.0000      -0.482812       -13.1380
 191   2.0000      -0.481264       -13.0959
 192   2.0000      -0.475686       -12.9441
 193   2.0000      -0.470039       -12.7904
 194   2.0000      -0.468286       -12.7427
 195   2.0000      -0.465169       -12.6579
 196   2.0000      -0.464071       -12.6280
 197   2.0000      -0.463945       -12.6246
 198   2.0000      -0.460069       -12.5191
 199   2.0000      -0.458509       -12.4767
 200   2.0000      -0.458470       -12.4756
 201   2.0000      -0.456391       -12.4190
 202   2.0000      -0.455341       -12.3905
 203   2.0000      -0.455313       -12.3897
 204   2.0000      -0.451351       -12.2819
 205   2.0000      -0.449043       -12.2191
 206   2.0000      -0.447686       -12.1822
 207   2.0000      -0.444258       -12.0889
 208   2.0000      -0.443248       -12.0614
 209   2.0000      -0.442254       -12.0343
 210   2.0000      -0.441696       -12.0192
 211   2.0000      -0.439445       -11.9579
 212   2.0000      -0.437091       -11.8938
 213   2.0000      -0.436973       -11.8906
 214   2.0000      -0.436751       -11.8846
 215   2.0000      -0.434505       -11.8235
 216   2.0000      -0.433920       -11.8076
 217   2.0000      -0.430159       -11.7052
 218   2.0000      -0.429712       -11.6931
 219   2.0000      -0.429339       -11.6829
 220   2.0000      -0.427270       -11.6266
 221   2.0000      -0.427090       -11.6217
 222   2.0000      -0.421005       -11.4561
 223   2.0000      -0.420744       -11.4490
 224   2.0000      -0.418607       -11.3909
 225   2.0000      -0.405861       -11.0440
 226   2.0000      -0.404629       -11.0105
 227   2.0000      -0.389715       -10.6047
 228   2.0000      -0.383892       -10.4462
 229   2.0000      -0.383302       -10.4302
 230   2.0000      -0.377698       -10.2777
 231   2.0000      -0.359739        -9.7890
 232   2.0000      -0.352080        -9.5806
 233   2.0000      -0.345155        -9.3922
 234   2.0000      -0.344120        -9.3640
 235   2.0000      -0.336521        -9.1572
 236   2.0000      -0.332901        -9.0587
 237   2.0000      -0.332408        -9.0453
 238   2.0000      -0.325643        -8.8612
 239   2.0000      -0.321703        -8.7540
 240   2.0000      -0.321241        -8.7414
 241   2.0000      -0.318793        -8.6748
 242   2.0000      -0.317982        -8.6527
 243   2.0000      -0.311379        -8.4730
 244   2.0000      -0.286197        -7.7878
 245   2.0000      -0.257628        -7.0104
 246   2.0000      -0.234524        -6.3817
 247   0.0000      -0.108360        -2.9486
 248   0.0000      -0.100385        -2.7316
 249   0.0000      -0.100244        -2.7278
 250   0.0000      -0.056786        -1.5452
 251   0.0000      -0.053949        -1.4680

MULLIKEN ATOMIC CHARGES
-----------------------
   0 C :    0.007337
   1 C :    0.045217
   2 C :   -0.072513
   3 C :    0.157637
   4 C :   -0.038536
   5 N :   -0.031002
   6 C :    0.037206
   7 C :    0.022259
   8 N :   -0.018355
   9 C :   -0.022991
  10 C :   -0.120367
  11 C :   -0.040707
  12 C :    0.023959
  13 C :   -0.088825
  14 S :    0.155929
  15 C :   -0.098955
  16 C :    0.015376
  17 C :    0.306774
  18 C :   -0.306995
  19 C :   -0.188480
  20 N :    0.167658
  21 C :   -0.185719
  22 N :    0.176607
  23 C :   -0.068079
  24 C :   -0.050910
  25 S :    0.189948
  26 C :   -0.048892
  27 C :   -0.068962
  28 C :    0.015534
  29 C :   -0.098246
  30 S :    0.197492
  31 C :   -0.098797
  32 C :    0.012251
  33 C :    0.301232
  34 C :   -0.298819
  35 C :   -0.187723
  36 N :    0.174485
  37 C :   -0.186951
  38 N :    0.170524
  39 C :   -0.065022
  40 C :   -0.051412
  41 S :    0.197225
  42 C :   -0.052912
  43 C :   -0.063543
  44 C :    0.011315
  45 C :   -0.099920
  46 S :    0.190477
  47 C :   -0.085913
  48 C :    0.028168
  49 C :    0.309132
  50 C :   -0.305472
  51 C :   -0.185754
  52 N :    0.173785
  53 C :   -0.189758
  54 N :    0.169713
  55 C :   -0.050752
  56 C :   -0.121674
  57 S :    0.152414
  58 C :    0.163115
  59 C :   -0.074270
  60 C :    0.046120
  61 C :    0.004369
  62 C :   -0.026855
  63 N :   -0.018309
  64 C :    0.022179
  65 C :    0.039677
  66 N :   -0.031461
  67 C :   -0.031421
  68 H :   -0.021811
  69 H :   -0.004336
  70 H :   -0.008058
  71 H :    0.022826
  72 H :    0.015873
  73 H :    0.019901
  74 H :    0.010082
  75 H :    0.010009
  76 H :    0.010054
  77 H :    0.009994
  78 H :    0.020321
  79 H :   -0.007474
  80 H :   -0.005304
  81 H :   -0.020112
  82 H :    0.015419
  83 H :    0.022777
Sum of atomic charges:   -0.0000000

LOEWDIN ATOMIC CHARGES
----------------------
   0 C :   -0.012581
   1 C :   -0.012432
   2 C :   -0.024537
   3 C :   -0.033892
   4 C :   -0.004219
   5 N :   -0.030323
   6 C :    0.012447
   7 C :    0.004026
   8 N :   -0.035870
   9 C :   -0.009005
  10 C :   -0.156651
  11 C :   -0.019283
  12 C :   -0.075827
  13 C :   -0.180449
  14 S :    0.471323
  15 C :   -0.178592
  16 C :   -0.068135
  17 C :    0.083979
  18 C :   -0.103224
  19 C :   -0.015888
  20 N :   -0.037127
  21 C :   -0.015396
  22 N :   -0.033425
  23 C :   -0.039134
  24 C :   -0.182035
  25 S :    0.481320
  26 C :   -0.178608
  27 C :   -0.040842
  28 C :   -0.069790
  29 C :   -0.180283
  30 S :    0.485772
  31 C :   -0.180356
  32 C :   -0.069896
  33 C :    0.084222
  34 C :   -0.102451
  35 C :   -0.016119
  36 N :   -0.033616
  37 C :   -0.015899
  38 N :   -0.033754
  39 C :   -0.040668
  40 C :   -0.178536
  41 S :    0.485837
  42 C :   -0.182030
  43 C :   -0.039035
  44 C :   -0.067974
  45 C :   -0.178770
  46 S :    0.481173
  47 C :   -0.179609
  48 C :   -0.076223
  49 C :    0.084004
  50 C :   -0.103205
  51 C :   -0.015142
  52 N :   -0.033609
  53 C :   -0.015903
  54 N :   -0.037198
  55 C :   -0.020231
  56 C :   -0.156723
  57 S :    0.470029
  58 C :   -0.033336
  59 C :   -0.024584
  60 C :   -0.012509
  61 C :   -0.012847
  62 C :   -0.008987
  63 N :   -0.035544
  64 C :    0.003974
  65 C :    0.013176
  66 N :   -0.029730
  67 C :   -0.003847
  68 H :    0.036251
  69 H :    0.034405
  70 H :    0.021161
  71 H :    0.030879
  72 H :    0.027518
  73 H :    0.037219
  74 H :    0.035194
  75 H :    0.034913
  76 H :    0.035153
  77 H :    0.035297
  78 H :    0.036623
  79 H :    0.020569
  80 H :    0.034331
  81 H :    0.036491
  82 H :    0.027462
  83 H :    0.031132

  Mayer bond orders larger than 0.100000
B(  0-C ,  1-C ) :   1.4355 B(  0-C ,  3-C ) :   0.1068 B(  0-C ,  9-C ) :   1.2557
B(  0-C , 68-H ) :   1.0103 B(  1-C ,  2-C ) :   1.2608 B(  1-C , 69-H ) :   0.9868
B(  2-C ,  3-C ) :   1.4431 B(  2-C , 70-H ) :   0.9883 B(  3-C ,  4-C ) :   1.2114
B(  3-C , 10-C ) :   1.0842 B(  4-C ,  5-N ) :   1.4651 B(  4-C ,  9-C ) :   1.2381
B(  5-N ,  6-C ) :   1.6385 B(  6-C ,  7-C ) :   1.2276 B(  6-C , 71-H ) :   0.9744
B(  7-C ,  8-N ) :   1.6735 B(  7-C , 72-H ) :   0.9749 B(  8-N ,  9-C ) :   1.4216
B( 10-C , 11-C ) :   1.5044 B( 10-C , 14-S ) :   1.0904 B( 11-C , 12-C ) :   1.2226
B( 11-C , 73-H ) :   0.9806 B( 12-C , 13-C ) :   1.4426 B( 12-C , 17-C ) :   1.0016
B( 13-C , 14-S ) :   1.1293 B( 13-C , 15-C ) :   1.1756 B( 15-C , 16-C ) :   1.4548
B( 15-C , 25-S ) :   1.1184 B( 16-C , 17-C ) :   0.9864 B( 16-C , 23-C ) :   1.2988
B( 17-C , 18-C ) :   1.7119 B( 18-C , 19-C ) :   1.1311 B( 18-C , 21-C ) :   1.1385
B( 19-C , 20-N ) :   2.9910 B( 21-C , 22-N ) :   2.9929 B( 23-C , 24-C ) :   1.4604
B( 23-C , 74-H ) :   0.9868 B( 24-C , 25-S ) :   1.1072 B( 24-C , 26-C ) :   1.1669
B( 26-C , 27-C ) :   1.4618 B( 26-C , 30-S ) :   1.1080 B( 27-C , 28-C ) :   1.2982
B( 27-C , 75-H ) :   0.9864 B( 28-C , 29-C ) :   1.4486 B( 28-C , 33-C ) :   0.9937
B( 29-C , 30-S ) :   1.1196 B( 29-C , 31-C ) :   1.1841 B( 31-C , 32-C ) :   1.4488
B( 31-C , 41-S ) :   1.1190 B( 32-C , 33-C ) :   0.9930 B( 32-C , 39-C ) :   1.2977
B( 33-C , 34-C ) :   1.7150 B( 34-C , 35-C ) :   1.1328 B( 34-C , 37-C ) :   1.1326
B( 35-C , 36-N ) :   2.9932 B( 37-C , 38-N ) :   2.9913 B( 39-C , 40-C ) :   1.4605
B( 39-C , 76-H ) :   0.9874 B( 40-C , 41-S ) :   1.1089 B( 40-C , 42-C ) :   1.1668
B( 42-C , 43-C ) :   1.4594 B( 42-C , 46-S ) :   1.1075 B( 43-C , 44-C ) :   1.2999
B( 43-C , 77-H ) :   0.9867 B( 44-C , 45-C ) :   1.4549 B( 44-C , 49-C ) :   0.9855
B( 45-C , 46-S ) :   1.1177 B( 45-C , 47-C ) :   1.1744 B( 47-C , 48-C ) :   1.4428
B( 47-C , 57-S ) :   1.1296 B( 48-C , 49-C ) :   1.0037 B( 48-C , 55-C ) :   1.2128
B( 49-C , 50-C ) :   1.7100 B( 50-C , 51-C ) :   1.1387 B( 50-C , 53-C ) :   1.1317
B( 51-C , 52-N ) :   2.9920 B( 53-C , 54-N ) :   2.9920 B( 55-C , 56-C ) :   1.5079
B( 55-C , 78-H ) :   0.9772 B( 56-C , 57-S ) :   1.0874 B( 56-C , 58-C ) :   1.0926
B( 58-C , 59-C ) :   1.4436 B( 58-C , 61-C ) :   0.1076 B( 58-C , 67-C ) :   1.2058
B( 59-C , 60-C ) :   1.2635 B( 59-C , 79-H ) :   0.9865 B( 60-C , 61-C ) :   1.4341
B( 60-C , 80-H ) :   0.9857 B( 61-C , 62-C ) :   1.2550 B( 61-C , 81-H ) :   1.0109
B( 62-C , 63-N ) :   1.4232 B( 62-C , 67-C ) :   1.2368 B( 63-N , 64-C ) :   1.6721
B( 64-C , 65-C ) :   1.2280 B( 64-C , 82-H ) :   0.9749 B( 65-C , 66-N ) :   1.6381
B( 65-C , 83-H ) :   0.9740 B( 66-N , 67-C ) :   1.4646

-----------------------------------------------------------------------------
         ABSORPTION SPECTRUM VIA TRANSITION ELECTRIC DIPOLE MOMENTS
-----------------------------------------------------------------------------
State   Energy  Wavelength   fosc         T2         TX        TY        TZ
        (cm-1)    (nm)                  (au**2)     (au)      (au)      (au)
-----------------------------------------------------------------------------
   0   10405.9    961.0   0.273286670   8.64595  -0.18312   2.81499  -0.82961
   1   12076.0    828.1   0.185690430   5.06223  -0.10597   2.15472  -0.63889
   2   12294.9    813.3   0.003106961   0.08319   0.20606  -0.19969  -0.02922
   3   19365.0    516.4   0.001350198   0.02295  -0.14028   0.01482   0.05529
   4   21352.5    468.3   0.458952211   7.07612   0.16287  -2.54787   0.74698
   5   21762.8    459.5   0.001060578   0.01604  -0.00560   0.10738  -0.06695
   6   23844.6    419.4   2.019540530  27.88289   0.30481  -5.05827   1.48455
   7   25712.9    388.9   0.198534003   2.54191   0.12503   1.54405  -0.37706
   8   25793.8    387.7   0.134808382   1.72059   0.35953  -1.18265   0.43892
   9   27434.4    364.5   0.059726812   0.71672  -0.07278   0.80167  -0.26221
  10   27801.1    359.7   0.001768662   0.02094   0.01780   0.05645   0.13206
  11   28270.6    353.7   0.063811094   0.74308  -0.11613   0.81714  -0.24876
  12   30008.4    333.2   0.041308463   0.45318  -0.12709   0.02558   0.66059
  13   30034.4    333.0   0.002615209   0.02867   0.11457   0.10156   0.07229
  14   30578.9    327.0   0.336275104   3.62033   1.03841  -0.44144  -1.53205
  15   31198.3    320.5   0.071307916   0.75246  -0.49965   0.09536   0.70265
  16   31444.3    318.0   0.381769086   3.99700   0.58301  -1.66140  -0.94702
  17   31499.1    317.5   0.820108876   8.57134  -1.34576  -0.02175   2.59996
  18   32430.7    308.3   0.011186878   0.11356  -0.03540  -0.31533   0.11346
  19   32697.8    305.8   0.015162601   0.15266  -0.16383  -0.25460   0.24699
  20   32713.8    305.7   0.284147705   2.85949   0.22866  -1.59320   0.51859
  21   32834.2    304.6   0.034872282   0.34965   0.15782   0.05651  -0.56705
  22   32914.2    303.8   0.005040350   0.05041   0.02473  -0.13269  -0.17943
  23   32951.1    303.5   0.477904305   4.77470   1.03098  -0.50841  -1.85831
  24   32994.4    303.1   0.155587116   1.55242   0.66160  -0.28219  -1.01739
  25   33939.8    294.6   0.293047482   2.84253   0.06044  -1.62255   0.45410
  26   34146.1    292.9   0.050079141   0.48283   0.27569  -0.21044  -0.60211
  27   34415.7    290.6   0.022316587   0.21347  -0.01900   0.41253  -0.20721
  28   34485.3    290.0   0.056606799   0.54039   0.45123  -0.14082  -0.56299
  29   34636.8    288.7   0.061412908   0.58371  -0.09037   0.72678  -0.21755
  30   34981.1    285.9   0.078570219   0.73944   0.44447  -0.03985  -0.73504
  31   35177.8    284.3   0.020559038   0.19240   0.08183  -0.38629  -0.19101
  32   35837.5    279.0   0.000821951   0.00755   0.04465  -0.00024   0.07455
  33   36003.6    277.7   0.000997231   0.00912  -0.03007  -0.08825   0.02063
  34   36596.4    273.3   0.014971490   0.13468  -0.20466   0.05600   0.29943
  35   37216.6    268.7   0.002690954   0.02380   0.00115  -0.14175   0.06090
  36   37317.9    268.0   0.140367579   1.23830   0.05590  -1.07195   0.29342
  37   37483.4    266.8   0.012350261   0.10847  -0.00247   0.29910  -0.13785
  38   38054.4    262.8   0.011063291   0.09571  -0.03253   0.13092   0.27841
  39   38156.9    262.1   0.017906284   0.15449  -0.05255   0.38827  -0.03125
  40   38310.1    261.0   0.061547712   0.52890   0.13496   0.44347  -0.56037
  41   38391.6    260.5   0.060433769   0.51823  -0.15446   0.68631   0.15279
  42   38898.3    257.1   0.002399690   0.02031  -0.01714   0.13700   0.03532
  43   39102.2    255.7   0.001202668   0.01013  -0.05457   0.04372   0.07236
  44   39192.9    255.1   0.006958812   0.05845  -0.11490   0.00743   0.21259
  45   39466.7    253.4   0.212008771   1.76847  -0.10218   1.28812  -0.31428
  46   39497.8    253.2   0.032975765   0.27485   0.02289   0.25939  -0.45502
  47   39814.2    251.2   0.042889108   0.35464   0.28431  -0.18405  -0.48983
  48   39964.1    250.2   0.001192493   0.00982  -0.04130  -0.04352   0.07889

FINAL SINGLE POINT ENERGY     -4923.722358790921

DIPOLE MOMENT
-------------
                                X             Y             Z
Electronic contribution:      4.12688       0.41069       0.53993
Nuclear contribution   :     -3.48447      -0.84869      -2.18737
                        -----------------------------------------
Total Dipole Moment    :      0.64240      -0.43800      -1.64744
                        -----------------------------------------
Magnitude (a.u.)       :      1.82170
Magnitude (Debye)      :      4.63038

Rotational constants in cm-1:     0.003224     0.000206     0.000194
Rotational constants in MHz :    96.647764     6.179707     5.828868

                             ****ORCA TERMINATED NORMALLY****
TOTAL RUN TIME: 0 days 0 hours 11 minutes 26 seconds 919 msec
