                         Program Version 4.2.0 -  RELEASE  -
|  1> # ORCA input file
|  2> # SCF done       -159.035193737451          0.000877005903
|  3> ! CAM-B3LYP def2-SVP def2/J RIJCOSX Grid4 TightSCF
|  4> %maxcore 5000
|  5> %tddft
|  6>     Mode sTDDFT
|  7>     Ethresh 5.0
|  8>     maxcore 5000
|  9> end
| 10>
| 11> %pal
| 12>   nprocs 6
| 13>   end
| 14> * xyz 0 1
| 15>    C       -5.28147        -0.63257         2.29248
| 16>    C       -5.79859        -1.42688         1.30410
| 17>    C       -4.99762        -2.36071         0.64211
| 18>    C       -3.65730        -2.52376         0.94670
| 19>    C       -3.10922        -1.74103         2.00624
| 20>    N       -1.84640        -1.94580         2.42194
| 21>    C       -1.39475        -1.20479         3.39802
| 22>    C       -2.18717        -0.20840         4.00178
| 23>    N       -3.42910        -0.01352         3.65334
| 24>    C       -3.93198        -0.78210         2.66384
| 25>    C       -2.86029        -3.49373         0.24139
| 26>    S       -3.62352        -4.93669        -0.36298
| 27>    C       -2.13866        -5.58136        -1.01303
| 28>    C       -1.11581        -4.68617        -0.77430
| 29>    C       -1.50935        -3.50552        -0.07460
| 30>    C       -0.42692        -2.59867         0.05666
| 31>    C        0.72269        -3.08175        -0.48567
| 32>    C        2.01493        -2.39714        -0.52427
| 33>    O        2.22671        -1.30576        -0.05420
| 34>    O        2.93520        -3.13786        -1.15625
| 35>    C        4.23158        -2.57302        -1.26201
| 36>    S        0.56477        -4.67262        -1.20217
| 37>    C       -2.09479        -6.83503        -1.67102
| 38>    C       -0.97248        -7.52034        -2.10025
| 39>    C       -1.30381        -8.73064        -2.71113
| 40>    C       -2.68887        -8.96398        -2.75315
| 41>    S       -3.58319        -7.69873        -2.03221
| 42>    C       -2.92153       -10.20166        -3.39853
| 43>    C       -1.68454       -10.76053        -3.75945
| 44>    C       -0.62618        -9.85454        -3.33711
| 45>    C        0.71782       -10.02521        -3.49668
| 46>    C        1.65925        -9.07669        -3.04497
| 47>    N        2.43560        -8.31230        -2.68706
| 48>    C        1.25919       -11.16808        -4.12141
| 49>    N        1.70382       -12.09346        -4.63270
| 50>    C       -1.81268       -11.98445        -4.41634
| 51>    C       -3.13563       -12.36048        -4.56520
| 52>    S       -4.24156       -11.17684        -3.87054
| 53>    C       -3.65761       -13.51394        -5.21932
| 54>    C       -5.00702       -13.72291        -5.35265
| 55>    C       -5.59625       -14.78994        -6.03032
| 56>    C       -4.76485       -15.88951        -6.54703
| 57>    C       -3.41499       -15.89670        -6.51693
| 58>    S       -2.45784       -14.62481        -5.87426
| 59>    C       -5.68338       -16.85014        -7.05027
| 60>    C       -6.98786       -16.38210        -6.88189
| 61>    C       -7.94682       -17.29113        -7.38194
| 62>    C       -7.36016       -18.40064        -7.90133
| 63>    S       -5.62980       -18.38984        -7.81274
| 64>    C       -6.94976       -15.08182        -6.26814
| 65>    C       -8.11041       -14.29894        -6.00114
| 66>    C       -8.11870       -12.96494        -5.79160
| 67>    C       -9.25066       -12.14623        -5.44841
| 68>    C      -10.57507       -12.53130        -5.55794
| 69>    C      -11.62169       -11.67424        -5.20600
| 70>    C      -11.37819       -10.41361        -4.72723
| 71>    C      -10.04873        -9.97269        -4.58516
| 72>    N       -9.80225        -8.73646        -4.09983
| 73>    C       -8.55365        -8.37785        -3.97121
| 74>    C       -7.49205        -9.23331        -4.32192
| 75>    N       -7.69965       -10.43126        -4.80183
| 76>    C       -8.97700       -10.83440        -4.94957
| 77>    H       -5.87459         0.10595         2.80741
| 78>    H       -6.83535        -1.33214         1.01805
| 79>    H       -5.43021        -2.96329        -0.14395
| 80>    H       -0.38020        -1.39637         3.72013
| 81>    H       -1.79657         0.42288         4.78847
| 82>    H       -0.48471        -1.63554         0.52518
| 83>    H        4.84847        -3.32220        -1.75099
| 84>    H        4.62381        -2.33617        -0.27077
| 85>    H        4.19749        -1.65594        -1.85427
| 86>    H        0.02620        -7.14962        -1.96195
| 87>    H       -0.99304       -12.57797        -4.77960
| 88>    H       -5.64940       -12.99826        -4.87327
| 89>    H       -2.83020       -16.70985        -6.91750
| 90>    H       -9.01090       -17.13953        -7.36094
| 91>    H       -7.83964       -19.25104        -8.34554
| 92>    H       -9.04247       -14.85027        -5.99354
| 93>    H       -7.20048       -12.40488        -5.86511
| 94>    H      -10.81365       -13.51129        -5.94264
| 95>    H      -12.63935       -12.01898        -5.31900
| 96>    H      -12.17428        -9.74094        -4.45077
| 97>    H       -8.36935        -7.38660        -3.57855
| 98>    H       -6.45958        -8.93049        -4.20357
| 99> *
|100>
|101>                          ****END OF INPUT****

CARTESIAN COORDINATES (ANGSTROEM)
---------------------------------
  C     -5.281470   -0.632570    2.292480
  C     -5.798590   -1.426880    1.304100
  C     -4.997620   -2.360710    0.642110
  C     -3.657300   -2.523760    0.946700
  C     -3.109220   -1.741030    2.006240
  N     -1.846400   -1.945800    2.421940
  C     -1.394750   -1.204790    3.398020
  C     -2.187170   -0.208400    4.001780
  N     -3.429100   -0.013520    3.653340
  C     -3.931980   -0.782100    2.663840
  C     -2.860290   -3.493730    0.241390
  S     -3.623520   -4.936690   -0.362980
  C     -2.138660   -5.581360   -1.013030
  C     -1.115810   -4.686170   -0.774300
  C     -1.509350   -3.505520   -0.074600
  C     -0.426920   -2.598670    0.056660
  C      0.722690   -3.081750   -0.485670
  C      2.014930   -2.397140   -0.524270
  O      2.226710   -1.305760   -0.054200
  O      2.935200   -3.137860   -1.156250
  C      4.231580   -2.573020   -1.262010
  S      0.564770   -4.672620   -1.202170
  C     -2.094790   -6.835030   -1.671020
  C     -0.972480   -7.520340   -2.100250
  C     -1.303810   -8.730640   -2.711130
  C     -2.688870   -8.963980   -2.753150
  S     -3.583190   -7.698730   -2.032210
  C     -2.921530  -10.201660   -3.398530
  C     -1.684540  -10.760530   -3.759450
  C     -0.626180   -9.854540   -3.337110
  C      0.717820  -10.025210   -3.496680
  C      1.659250   -9.076690   -3.044970
  N      2.435600   -8.312300   -2.687060
  C      1.259190  -11.168080   -4.121410
  N      1.703820  -12.093460   -4.632700
  C     -1.812680  -11.984450   -4.416340
  C     -3.135630  -12.360480   -4.565200
  S     -4.241560  -11.176840   -3.870540
  C     -3.657610  -13.513940   -5.219320
  C     -5.007020  -13.722910   -5.352650
  C     -5.596250  -14.789940   -6.030320
  C     -4.764850  -15.889510   -6.547030
  C     -3.414990  -15.896700   -6.516930
  S     -2.457840  -14.624810   -5.874260
  C     -5.683380  -16.850140   -7.050270
  C     -6.987860  -16.382100   -6.881890
  C     -7.946820  -17.291130   -7.381940
  C     -7.360160  -18.400640   -7.901330
  S     -5.629800  -18.389840   -7.812740
  C     -6.949760  -15.081820   -6.268140
  C     -8.110410  -14.298940   -6.001140
  C     -8.118700  -12.964940   -5.791600
  C     -9.250660  -12.146230   -5.448410
  C    -10.575070  -12.531300   -5.557940
  C    -11.621690  -11.674240   -5.206000
  C    -11.378190  -10.413610   -4.727230
  C    -10.048730   -9.972690   -4.585160
  N     -9.802250   -8.736460   -4.099830
  C     -8.553650   -8.377850   -3.971210
  C     -7.492050   -9.233310   -4.321920
  N     -7.699650  -10.431260   -4.801830
  C     -8.977000  -10.834400   -4.949570
  H     -5.874590    0.105950    2.807410
  H     -6.835350   -1.332140    1.018050
  H     -5.430210   -2.963290   -0.143950
  H     -0.380200   -1.396370    3.720130
  H     -1.796570    0.422880    4.788470
  H     -0.484710   -1.635540    0.525180
  H      4.848470   -3.322200   -1.750990
  H      4.623810   -2.336170   -0.270770
  H      4.197490   -1.655940   -1.854270
  H      0.026200   -7.149620   -1.961950
  H     -0.993040  -12.577970   -4.779600
  H     -5.649400  -12.998260   -4.873270
  H     -2.830200  -16.709850   -6.917500
  H     -9.010900  -17.139530   -7.360940
  H     -7.839640  -19.251040   -8.345540
  H     -9.042470  -14.850270   -5.993540
  H     -7.200480  -12.404880   -5.865110
  H    -10.813650  -13.511290   -5.942640
  H    -12.639350  -12.018980   -5.319000
  H    -12.174280   -9.740940   -4.450770
  H     -8.369350   -7.386600   -3.578550
  H     -6.459580   -8.930490   -4.203570

 Total Charge           Charge          ....    0
 Multiplicity           Mult            ....    1
 Number of Electrons    NEL             ....  464
 Basis Dimension        Dim             .... 1002

ORBITAL ENERGIES
----------------

  NO   OCC          E(Eh)            E(eV)
   0   2.0000     -88.985414     -2421.4162
   1   2.0000     -88.982831     -2421.3459
   2   2.0000     -88.970204     -2421.0023
   3   2.0000     -88.969985     -2420.9964
   4   2.0000     -88.951475     -2420.4927
   5   2.0000     -88.951122     -2420.4831
   6   2.0000     -19.258092      -524.0393
   7   2.0000     -19.198901      -522.4287
   8   2.0000     -14.425656      -392.5421
   9   2.0000     -14.425458      -392.5367
  10   2.0000     -14.424880      -392.5210
  11   2.0000     -14.423794      -392.4914
  12   2.0000     -14.422820      -392.4649
  13   2.0000     -14.418303      -392.3420
  14   2.0000     -10.399223      -282.9772
  15   2.0000     -10.359351      -281.8923
  16   2.0000     -10.346420      -281.5404
  17   2.0000     -10.326043      -280.9859
  18   2.0000     -10.325104      -280.9604
  19   2.0000     -10.325069      -280.9594
  20   2.0000     -10.324572      -280.9459
  21   2.0000     -10.324166      -280.9348
  22   2.0000     -10.322276      -280.8834
  23   2.0000     -10.321577      -280.8644
  24   2.0000     -10.321287      -280.8565
  25   2.0000     -10.320525      -280.8357
  26   2.0000     -10.319461      -280.8068
  27   2.0000     -10.318679      -280.7855
  28   2.0000     -10.318393      -280.7777
  29   2.0000     -10.317324      -280.7487
  30   2.0000     -10.317045      -280.7411
  31   2.0000     -10.315523      -280.6996
  32   2.0000     -10.314734      -280.6782
  33   2.0000     -10.313569      -280.6465
  34   2.0000     -10.310065      -280.5511
  35   2.0000     -10.309194      -280.5274
  36   2.0000     -10.304600      -280.4024
  37   2.0000     -10.301743      -280.3247
  38   2.0000     -10.301631      -280.3216
  39   2.0000     -10.297308      -280.2040
  40   2.0000     -10.295744      -280.1614
  41   2.0000     -10.294343      -280.1233
  42   2.0000     -10.294310      -280.1224
  43   2.0000     -10.292020      -280.0601
  44   2.0000     -10.291742      -280.0525
  45   2.0000     -10.289084      -279.9802
  46   2.0000     -10.288920      -279.9758
  47   2.0000     -10.288142      -279.9546
  48   2.0000     -10.287076      -279.9256
  49   2.0000     -10.283991      -279.8416
  50   2.0000     -10.282142      -279.7913
  51   2.0000     -10.281134      -279.7639
  52   2.0000     -10.280350      -279.7425
  53   2.0000     -10.278353      -279.6882
  54   2.0000     -10.278254      -279.6855
  55   2.0000     -10.275661      -279.6150
  56   2.0000     -10.271925      -279.5133
  57   2.0000     -10.270674      -279.4793
  58   2.0000     -10.270243      -279.4675
  59   2.0000     -10.268369      -279.4165
  60   2.0000     -10.266910      -279.3768
  61   2.0000     -10.260453      -279.2011
  62   2.0000      -8.080102      -219.8708
  63   2.0000      -8.076826      -219.7816
  64   2.0000      -8.065420      -219.4712
  65   2.0000      -8.064989      -219.4595
  66   2.0000      -8.046546      -218.9576
  67   2.0000      -8.046372      -218.9529
  68   2.0000      -6.049418      -164.6130
  69   2.0000      -6.046160      -164.5244
  70   2.0000      -6.045265      -164.5000
  71   2.0000      -6.042315      -164.4198
  72   2.0000      -6.041960      -164.4101
  73   2.0000      -6.039085      -164.3318
  74   2.0000      -6.035090      -164.2231
  75   2.0000      -6.034363      -164.2034
  76   2.0000      -6.030518      -164.0987
  77   2.0000      -6.030161      -164.0890
  78   2.0000      -6.027130      -164.0065
  79   2.0000      -6.027113      -164.0061
  80   2.0000      -6.016256      -163.7106
  81   2.0000      -6.015999      -163.7036
  82   2.0000      -6.011932      -163.5930
  83   2.0000      -6.011771      -163.5886
  84   2.0000      -6.008544      -163.5008
  85   2.0000      -6.007447      -163.4709
  86   2.0000      -1.188820       -32.3494
  87   2.0000      -1.093032       -29.7429
  88   2.0000      -1.081593       -29.4316
  89   2.0000      -1.074817       -29.2472
  90   2.0000      -1.038726       -28.2652
  91   2.0000      -1.017655       -27.6918
  92   2.0000      -1.013625       -27.5821
  93   2.0000      -1.003532       -27.3075
  94   2.0000      -1.002515       -27.2798
  95   2.0000      -1.000525       -27.2257
  96   2.0000      -0.997965       -27.1560
  97   2.0000      -0.990552       -26.9543
  98   2.0000      -0.966912       -26.3110
  99   2.0000      -0.961797       -26.1718
 100   2.0000      -0.951521       -25.8922
 101   2.0000      -0.947785       -25.7905
 102   2.0000      -0.941782       -25.6272
 103   2.0000      -0.921915       -25.0866
 104   2.0000      -0.909215       -24.7410
 105   2.0000      -0.889146       -24.1949
 106   2.0000      -0.880340       -23.9553
 107   2.0000      -0.872959       -23.7544
 108   2.0000      -0.861643       -23.4465
 109   2.0000      -0.859317       -23.3832
 110   2.0000      -0.851900       -23.1814
 111   2.0000      -0.850400       -23.1405
 112   2.0000      -0.847848       -23.0711
 113   2.0000      -0.842441       -22.9240
 114   2.0000      -0.837726       -22.7957
 115   2.0000      -0.821626       -22.3576
 116   2.0000      -0.815772       -22.1983
 117   2.0000      -0.800672       -21.7874
 118   2.0000      -0.797966       -21.7138
 119   2.0000      -0.780629       -21.2420
 120   2.0000      -0.769578       -20.9413
 121   2.0000      -0.762684       -20.7537
 122   2.0000      -0.756760       -20.5925
 123   2.0000      -0.751880       -20.4597
 124   2.0000      -0.742449       -20.2031
 125   2.0000      -0.734954       -19.9991
 126   2.0000      -0.733584       -19.9618
 127   2.0000      -0.726851       -19.7786
 128   2.0000      -0.713351       -19.4113
 129   2.0000      -0.705700       -19.2031
 130   2.0000      -0.694574       -18.9003
 131   2.0000      -0.687729       -18.7141
 132   2.0000      -0.674477       -18.3534
 133   2.0000      -0.672395       -18.2968
 134   2.0000      -0.656032       -17.8515
 135   2.0000      -0.645659       -17.5693
 136   2.0000      -0.642359       -17.4795
 137   2.0000      -0.634862       -17.2755
 138   2.0000      -0.633353       -17.2344
 139   2.0000      -0.630125       -17.1466
 140   2.0000      -0.625747       -17.0274
 141   2.0000      -0.622955       -16.9515
 142   2.0000      -0.619706       -16.8631
 143   2.0000      -0.617507       -16.8032
 144   2.0000      -0.612846       -16.6764
 145   2.0000      -0.608179       -16.5494
 146   2.0000      -0.599071       -16.3015
 147   2.0000      -0.596004       -16.2181
 148   2.0000      -0.591166       -16.0865
 149   2.0000      -0.583864       -15.8877
 150   2.0000      -0.575083       -15.6488
 151   2.0000      -0.569437       -15.4952
 152   2.0000      -0.568100       -15.4588
 153   2.0000      -0.564767       -15.3681
 154   2.0000      -0.556918       -15.1545
 155   2.0000      -0.552442       -15.0327
 156   2.0000      -0.549904       -14.9637
 157   2.0000      -0.546663       -14.8754
 158   2.0000      -0.543526       -14.7901
 159   2.0000      -0.541736       -14.7414
 160   2.0000      -0.531643       -14.4668
 161   2.0000      -0.528642       -14.3851
 162   2.0000      -0.526730       -14.3331
 163   2.0000      -0.524067       -14.2606
 164   2.0000      -0.521862       -14.2006
 165   2.0000      -0.519305       -14.1310
 166   2.0000      -0.518804       -14.1174
 167   2.0000      -0.513383       -13.9699
 168   2.0000      -0.511932       -13.9304
 169   2.0000      -0.508993       -13.8504
 170   2.0000      -0.506849       -13.7921
 171   2.0000      -0.505723       -13.7614
 172   2.0000      -0.497450       -13.5363
 173   2.0000      -0.497076       -13.5261
 174   2.0000      -0.496476       -13.5098
 175   2.0000      -0.493624       -13.4322
 176   2.0000      -0.491050       -13.3621
 177   2.0000      -0.484649       -13.1880
 178   2.0000      -0.479239       -13.0408
 179   2.0000      -0.477294       -12.9878
 180   2.0000      -0.472843       -12.8667
 181   2.0000      -0.471748       -12.8369
 182   2.0000      -0.466333       -12.6896
 183   2.0000      -0.460718       -12.5368
 184   2.0000      -0.456633       -12.4256
 185   2.0000      -0.454877       -12.3778
 186   2.0000      -0.454474       -12.3669
 187   2.0000      -0.452596       -12.3158
 188   2.0000      -0.448741       -12.2109
 189   2.0000      -0.447459       -12.1760
 190   2.0000      -0.446717       -12.1558
 191   2.0000      -0.443056       -12.0562
 192   2.0000      -0.440941       -11.9986
 193   2.0000      -0.439656       -11.9637
 194   2.0000      -0.439405       -11.9568
 195   2.0000      -0.437321       -11.9001
 196   2.0000      -0.435333       -11.8460
 197   2.0000      -0.434214       -11.8156
 198   2.0000      -0.428412       -11.6577
 199   2.0000      -0.426806       -11.6140
 200   2.0000      -0.425391       -11.5755
 201   2.0000      -0.422375       -11.4934
 202   2.0000      -0.421525       -11.4703
 203   2.0000      -0.419641       -11.4190
 204   2.0000      -0.416593       -11.3361
 205   2.0000      -0.413214       -11.2441
 206   2.0000      -0.409032       -11.1303
 207   2.0000      -0.405812       -11.0427
 208   2.0000      -0.403283       -10.9739
 209   2.0000      -0.401278       -10.9193
 210   2.0000      -0.391290       -10.6475
 211   2.0000      -0.387862       -10.5543
 212   2.0000      -0.380196       -10.3456
 213   2.0000      -0.376222       -10.2375
 214   2.0000      -0.373955       -10.1758
 215   2.0000      -0.361082        -9.8255
 216   2.0000      -0.351882        -9.5752
 217   2.0000      -0.343791        -9.3550
 218   2.0000      -0.342144        -9.3102
 219   2.0000      -0.332394        -9.0449
 220   2.0000      -0.329525        -8.9668
 221   2.0000      -0.324786        -8.8379
 222   2.0000      -0.324619        -8.8333
 223   2.0000      -0.317968        -8.6523
 224   2.0000      -0.316980        -8.6255
 225   2.0000      -0.314589        -8.5604
 226   2.0000      -0.309578        -8.4241
 227   2.0000      -0.295249        -8.0341
 228   2.0000      -0.293241        -7.9795
 229   2.0000      -0.269287        -7.3277
 230   2.0000      -0.242095        -6.5877
 231   2.0000      -0.217990        -5.9318
 232   0.0000      -0.100381        -2.7315
 233   0.0000      -0.064412        -1.7527
 234   0.0000      -0.057237        -1.5575
 235   0.0000      -0.034951        -0.9511
 236   0.0000      -0.030163        -0.8208

MULLIKEN ATOMIC CHARGES
-----------------------
   0 C :    0.008380
   1 C :    0.043406
   2 C :   -0.048464
   3 C :    0.102461
   4 C :   -0.040553
   5 N :   -0.030713
   6 C :    0.038155
   7 C :    0.021103
   8 N :   -0.015810
   9 C :   -0.023536
  10 C :   -0.159474
  11 S :    0.139493
  12 C :   -0.123265
  13 C :   -0.056984
  14 C :    0.170323
  15 C :    0.018411
  16 C :   -0.119619
  17 C :    0.197584
  18 O :   -0.202459
  19 O :   -0.304228
  20 C :    0.189378
  21 S :    0.146126
  22 C :   -0.056055
  23 C :   -0.066924
  24 C :    0.008844
  25 C :   -0.097619
  26 S :    0.172214
  27 C :   -0.098199
  28 C :    0.012899
  29 C :    0.307817
  30 C :   -0.300139
  31 C :   -0.188076
  32 N :    0.172262
  33 C :   -0.188421
  34 N :    0.172133
  35 C :   -0.058834
  36 C :   -0.059988
  37 S :    0.174588
  38 C :   -0.023349
  39 C :   -0.106262
  40 C :    0.050186
  41 C :    0.060396
  42 C :   -0.124769
  43 S :    0.127239
  44 C :   -0.109897
  45 C :    0.053898
  46 C :    0.004146
  47 C :   -0.070050
  48 S :    0.124303
  49 C :    0.070796
  50 C :   -0.000958
  51 C :   -0.043448
  52 C :    0.090184
  53 C :   -0.046103
  54 C :    0.050224
  55 C :   -0.002616
  56 C :   -0.010919
  57 N :   -0.015718
  58 C :    0.022987
  59 C :    0.025187
  60 N :   -0.030820
  61 C :   -0.031534
  62 H :   -0.020391
  63 H :   -0.003335
  64 H :   -0.011133
  65 H :    0.018385
  66 H :    0.014749
  67 H :   -0.003798
  68 H :    0.041570
  69 H :    0.033302
  70 H :    0.032900
  71 H :    0.008907
  72 H :    0.016821
  73 H :    0.006916
  74 H :    0.036033
  75 H :   -0.019978
  76 H :    0.024589
  77 H :   -0.029755
  78 H :    0.002544
  79 H :   -0.024211
  80 H :   -0.009825
  81 H :   -0.027657
  82 H :    0.006636
  83 H :   -0.012589
Sum of atomic charges:   -0.0000000

LOEWDIN ATOMIC CHARGES
----------------------
   0 C :   -0.010974
   1 C :   -0.012738
   2 C :   -0.018458
   3 C :   -0.038400
   4 C :   -0.007830
   5 N :   -0.030253
   6 C :    0.007732
   7 C :    0.004784
   8 N :   -0.037035
   9 C :   -0.009970
  10 C :   -0.154424
  11 S :    0.448696
  12 C :   -0.218811
  13 C :   -0.180449
  14 C :   -0.063357
  15 C :    0.006463
  16 C :   -0.203677
  17 C :    0.067596
  18 O :   -0.178994
  19 O :   -0.096362
  20 C :    0.083308
  21 S :    0.419945
  22 C :   -0.176361
  23 C :   -0.037765
  24 C :   -0.067885
  25 C :   -0.185037
  26 S :    0.456492
  27 C :   -0.181021
  28 C :   -0.072201
  29 C :    0.084133
  30 C :   -0.101978
  31 C :   -0.017898
  32 N :   -0.031135
  33 C :   -0.015903
  34 N :   -0.034353
  35 C :   -0.042166
  36 C :   -0.176900
  37 S :    0.490880
  38 C :   -0.184527
  39 C :   -0.030817
  40 C :   -0.021960
  41 C :   -0.047605
  42 C :   -0.140154
  43 S :    0.452951
  44 C :   -0.204832
  45 C :   -0.040446
  46 C :   -0.065742
  47 C :   -0.166999
  48 S :    0.418129
  49 C :   -0.049626
  50 C :   -0.008659
  51 C :   -0.030489
  52 C :   -0.018271
  53 C :   -0.014806
  54 C :   -0.011925
  55 C :   -0.022247
  56 C :   -0.011463
  57 N :   -0.038804
  58 C :   -0.001673
  59 C :   -0.005907
  60 N :   -0.041924
  61 C :   -0.007465
  62 H :    0.036550
  63 H :    0.034467
  64 H :    0.024681
  65 H :    0.028761
  66 H :    0.027366
  67 H :    0.037035
  68 H :    0.029049
  69 H :    0.023810
  70 H :    0.023932
  71 H :    0.031019
  72 H :    0.034724
  73 H :    0.029260
  74 H :    0.036578
  75 H :    0.028899
  76 H :    0.022402
  77 H :    0.023621
  78 H :    0.025746
  79 H :    0.027510
  80 H :    0.031742
  81 H :    0.033629
  82 H :    0.024238
  83 H :    0.012545

  Mayer bond orders larger than 0.100000
B(  0-C ,  1-C ) :   1.4322 B(  0-C ,  3-C ) :   0.1040 B(  0-C ,  9-C ) :   1.2594
B(  0-C , 62-H ) :   1.0116 B(  1-C ,  2-C ) :   1.2528 B(  1-C , 63-H ) :   0.9880
B(  2-C ,  3-C ) :   1.4521 B(  2-C , 64-H ) :   0.9938 B(  3-C ,  4-C ) :   1.2224
B(  3-C , 10-C ) :   1.0441 B(  4-C ,  5-N ) :   1.4726 B(  4-C ,  9-C ) :   1.2334
B(  5-N ,  6-C ) :   1.6396 B(  6-C ,  7-C ) :   1.2269 B(  6-C , 65-H ) :   0.9735
B(  7-C ,  8-N ) :   1.6747 B(  7-C , 66-H ) :   0.9754 B(  8-N ,  9-C ) :   1.4223
B( 10-C , 11-S ) :   1.1393 B( 10-C , 12-C ) :   0.1244 B( 10-C , 14-C ) :   1.4344
B( 11-S , 12-C ) :   1.1153 B( 12-C , 13-C ) :   1.5458 B( 12-C , 22-C ) :   1.1456
B( 13-C , 14-C ) :   1.2249 B( 13-C , 21-S ) :   1.0511 B( 14-C , 15-C ) :   1.1238
B( 15-C , 16-C ) :   1.6399 B( 15-C , 67-H ) :   0.9986 B( 16-C , 17-C ) :   0.9568
B( 16-C , 21-S ) :   1.0378 B( 17-C , 18-O ) :   2.1386 B( 17-C , 19-O ) :   1.2384
B( 19-O , 20-C ) :   0.9194 B( 20-C , 68-H ) :   0.9814 B( 20-C , 69-H ) :   0.9756
B( 20-C , 70-H ) :   0.9777 B( 22-C , 23-C ) :   1.4786 B( 22-C , 26-S ) :   1.0920
B( 23-C , 24-C ) :   1.2932 B( 23-C , 71-H ) :   0.9852 B( 24-C , 25-C ) :   1.4495
B( 24-C , 29-C ) :   0.9923 B( 25-C , 26-S ) :   1.1100 B( 25-C , 27-C ) :   1.1866
B( 27-C , 28-C ) :   1.4469 B( 27-C , 37-S ) :   1.1232 B( 28-C , 29-C ) :   0.9981
B( 28-C , 35-C ) :   1.2949 B( 29-C , 30-C ) :   1.7090 B( 30-C , 31-C ) :   1.1348
B( 30-C , 33-C ) :   1.1335 B( 31-C , 32-N ) :   2.9887 B( 33-C , 34-N ) :   2.9925
B( 35-C , 36-C ) :   1.4612 B( 35-C , 72-H ) :   0.9818 B( 36-C , 37-S ) :   1.1060
B( 36-C , 38-C ) :   1.1654 B( 38-C , 39-C ) :   1.5267 B( 38-C , 43-S ) :   1.0508
B( 39-C , 40-C ) :   1.2374 B( 39-C , 73-H ) :   0.9567 B( 40-C , 41-C ) :   1.0498
B( 40-C , 49-C ) :   1.4110 B( 41-C , 42-C ) :   1.6163 B( 41-C , 44-C ) :   1.1756
B( 42-C , 43-S ) :   1.1332 B( 42-C , 74-H ) :   0.9401 B( 44-C , 45-C ) :   1.4425
B( 44-C , 48-S ) :   1.0724 B( 45-C , 46-C ) :   1.2158 B( 45-C , 49-C ) :   1.1007
B( 46-C , 47-C ) :   1.5849 B( 46-C , 75-H ) :   0.9985 B( 47-C , 48-S ) :   1.1543
B( 47-C , 76-H ) :   0.9663 B( 49-C , 50-C ) :   1.1348 B( 50-C , 51-C ) :   1.6530
B( 50-C , 77-H ) :   0.9585 B( 51-C , 52-C ) :   1.1020 B( 51-C , 78-H ) :   0.9660
B( 52-C , 53-C ) :   1.4450 B( 52-C , 55-C ) :   0.1036 B( 52-C , 61-C ) :   1.1848
B( 53-C , 54-C ) :   1.2583 B( 53-C , 79-H ) :   0.9947 B( 54-C , 55-C ) :   1.4288
B( 54-C , 80-H ) :   0.9872 B( 55-C , 56-C ) :   1.2584 B( 55-C , 81-H ) :   1.0094
B( 56-C , 57-N ) :   1.4238 B( 56-C , 61-C ) :   1.2386 B( 57-N , 58-C ) :   1.6756
B( 58-C , 59-C ) :   1.2342 B( 58-C , 82-H ) :   0.9739 B( 59-C , 60-N ) :   1.6509
B( 59-C , 83-H ) :   0.9682 B( 60-N , 61-C ) :   1.4625

-----------------------------------------------------------------------------
         ABSORPTION SPECTRUM VIA TRANSITION ELECTRIC DIPOLE MOMENTS
-----------------------------------------------------------------------------
State   Energy  Wavelength   fosc         T2         TX        TY        TZ
        (cm-1)    (nm)                  (au**2)     (au)      (au)      (au)
-----------------------------------------------------------------------------
   0    9293.6   1076.0   0.135319914   4.79350  -0.75389  -1.77705  -1.03308
   1   15440.8    647.6   0.022128080   0.47179   0.54560  -0.39929  -0.12117
   2   18186.0    549.9   0.529086956   9.57778  -2.30417  -1.63123  -1.26793
   3   21196.1    471.8   0.774935197  12.03605  -1.04548   2.84755   1.68360
   4   22306.8    448.3   0.047858043   0.70631   0.35271  -0.64801  -0.40247
   5   22781.2    439.0   0.172139704   2.48759  -0.91399   1.17721   0.51614
   6   24617.3    406.2   0.278855291   3.72918  -1.49480  -1.13660  -0.45045
   7   25695.0    389.2   0.370671922   4.74915  -0.63952   1.88455   0.88805
   8   26937.9    371.2   0.003600418   0.04400   0.20542   0.02232   0.03612
   9   27369.2    365.4   0.086147828   1.03623  -0.65417   0.76089   0.17130
  10   28282.9    353.6   0.029667042   0.34532   0.03222   0.41403   0.41577
  11   29773.8    335.9   0.037313735   0.41258  -0.61254   0.19326   0.00533
  12   29973.2    333.6   0.008549610   0.09391   0.13701  -0.20779  -0.17877
  13   30159.3    331.6   0.008671616   0.09466  -0.17716  -0.08669   0.23613
  14   30499.3    327.9   0.009272864   0.10009   0.12914   0.23616   0.16627
  15   30728.3    325.4   0.010087471   0.10807   0.20247  -0.07934   0.24655
  16   31204.7    320.5   0.220685450   2.32825  -1.02121   1.02933   0.47524
  17   31710.3    315.4   0.552754515   5.73861  -2.38980  -0.00503   0.16560
  18   32452.2    308.1   0.207686216   2.10688  -0.47113  -1.28995  -0.47006
  19   32817.9    304.7   0.242420628   2.43184   0.03446  -1.37713  -0.73086
  20   32841.0    304.5   0.011861365   0.11890   0.34175   0.02259   0.03998
  21   33166.5    301.5   0.123860185   1.22944   0.85578   0.67877   0.19065
  22   33394.7    299.4   0.099044904   0.97640   0.91443   0.36783   0.07019
  23   33481.9    298.7   0.088943880   0.87454  -0.62212  -0.61350  -0.33335
  24   33751.4    296.3   0.138013722   1.34619  -1.06350  -0.41823  -0.20059
  25   34089.4    293.3   0.047598227   0.45967  -0.27806   0.59718   0.16040
  26   34252.4    292.0   0.005476506   0.05264   0.20969  -0.09289   0.00636
  27   34985.3    285.8   0.112136916   1.05521  -1.02286   0.04374  -0.08394
  28   35227.4    283.9   0.013750689   0.12850   0.31912  -0.16301   0.00965
  29   35482.6    281.8   0.317433164   2.94518  -0.03962  -1.64635  -0.48284
  30   36202.3    276.2   0.020815744   0.18929   0.11668   0.33311   0.25440
  31   36221.8    276.1   0.052456541   0.47677  -0.36149  -0.52905  -0.25728
  32   36622.8    273.1   0.132419569   1.19035   0.32483   1.01736   0.22323
  33   36873.0    271.2   0.464879021   4.15056   1.10792  -1.41521  -0.95930
  34   37135.2    269.3   0.027321858   0.24221   0.28546   0.32821   0.23023
  35   37986.2    263.3   0.006511476   0.05643  -0.22340   0.03832  -0.07113
  36   38111.1    262.4   0.015041858   0.12993  -0.13664   0.19201   0.27276
  37   38346.0    260.8   0.013860614   0.11900   0.15820   0.14197   0.27169
  38   38429.4    260.2   0.011577000   0.09918   0.30004  -0.08132   0.05038
  39   38721.5    258.3   0.020951973   0.17813  -0.31346   0.16903  -0.22651
  40   38966.5    256.6   0.218304822   1.84437   1.08057   0.60440   0.55807
  41   39373.6    254.0   0.011576832   0.09680   0.11650   0.28839   0.00764
  42   39605.7    252.5   0.004522730   0.03759  -0.16629  -0.09949  -0.00658
  43   39903.2    250.6   0.016777080   0.13842   0.27590  -0.22919  -0.09881
  44   40242.9    248.5   0.050348758   0.41188   0.31882   0.48771   0.26903

FINAL SINGLE POINT ENERGY     -4706.733769105634

DIPOLE MOMENT
-------------
                                X             Y             Z
Electronic contribution:     18.13957     -13.14356      -2.22978
Nuclear contribution   :    -19.90318      13.17543       2.43934
                        -----------------------------------------
Total Dipole Moment    :     -1.76361       0.03187       0.20957
                        -----------------------------------------
Magnitude (a.u.)       :      1.77630
Magnitude (Debye)      :      4.51500

Rotational constants in cm-1:     0.001780     0.000453     0.000367
Rotational constants in MHz :    53.367409    13.565910    11.009490

                             ****ORCA TERMINATED NORMALLY****
TOTAL RUN TIME: 0 days 0 hours 7 minutes 45 seconds 257 msec
