                         Program Version 4.2.0 -  RELEASE  -
|  1> # ORCA input file
|  2> # SCF done       -165.765469120321          0.000353525362
|  3> ! CAM-B3LYP def2-SVP def2/J RIJCOSX Grid4 TightSCF
|  4> %maxcore 5000
|  5> %tddft
|  6>     Mode sTDDFT
|  7>     Ethresh 5.0
|  8>     maxcore 5000
|  9> end
| 10>
| 11> %pal
| 12>   nprocs 6
| 13>   end
| 14> * xyz 0 1
| 15>    C        2.52318       -14.94559         2.94295
| 16>    S        2.80199       -13.42188         3.65389
| 17>    C        2.38260       -12.57709         2.19016
| 18>    C        2.02454       -13.49064         1.18929
| 19>    C        2.10966       -14.84863         1.63139
| 20>    C        1.77004       -15.89398         0.73933
| 21>    C        1.34681       -15.61241        -0.52290
| 22>    C        0.97231       -16.68388        -1.49556
| 23>    C        1.24479       -14.24688        -0.95265
| 24>    O        0.79493       -14.09789        -2.22626
| 25>    C        0.64926       -12.79900        -2.74404
| 26>    C        1.58004       -13.21229        -0.11769
| 27>    C        2.39967       -11.17190         2.08428
| 28>    C        2.59193       -10.30585         3.10889
| 29>    C        2.64593        -8.87852         3.04130
| 30>    C        2.17275        -8.04592         2.05438
| 31>    O        2.52055        -6.69850         1.99722
| 32>    C        3.20601        -6.21357         3.06611
| 33>    C        3.58780        -7.05383         4.15131
| 34>    C        4.23966        -6.38399         5.13328
| 35>    S        4.40019        -4.71094         4.74597
| 36>    C        3.57624        -4.92189         3.24443
| 37>    O        3.32915        -8.38914         4.14420
| 38>    C        1.29279        -8.36028         0.97174
| 39>    C        0.32515        -9.31015         0.96420
| 40>    C       -0.50758        -9.60908        -0.14013
| 41>    S       -1.79298       -10.79208         0.07235
| 42>    C       -2.25217       -10.61905        -1.56598
| 43>    C       -1.43816        -9.70628        -2.24895
| 44>    C       -0.46040        -9.13487        -1.44635
| 45>    C       -1.87448        -9.62852        -3.67275
| 46>    O       -1.39338        -8.97317        -4.56429
| 47>    C       -3.02702       -10.56143        -3.72764
| 48>    C       -3.22318       -11.13180        -2.46458
| 49>    S       -4.55233       -12.19900        -2.42879
| 50>    C       -4.89482       -11.85006        -4.12069
| 51>    C       -3.96235       -10.98917        -4.66636
| 52>    C       -5.95313       -12.50782        -4.81547
| 53>    S       -5.62564       -13.17796        -6.38249
| 54>    C       -7.18865       -13.92140        -6.49804
| 55>    C       -7.97412       -13.58364        -5.39176
| 56>    C       -7.26433       -12.78221        -4.42922
| 57>    C       -7.96546       -12.27105        -3.30199
| 58>    C       -7.41854       -11.30711        -2.42880
| 59>    N       -7.07332       -10.47615        -1.71667
| 60>    C       -9.28942       -12.61282        -3.10306
| 61>    C       -9.98127       -13.37785        -4.04208
| 62>    C       -9.36157       -13.82283        -5.19552
| 63>    C      -10.20396       -14.38635        -6.17991
| 64>    N      -10.97919       -14.77395        -6.93192
| 65>    C       -7.45073       -14.78280        -7.59884
| 66>    C       -8.22014       -15.89600        -7.52760
| 67>    C       -8.53681       -16.74272        -8.61824
| 68>    S       -9.53471       -18.15440        -8.31739
| 69>    C       -9.49718       -18.56718        -9.97120
| 70>    C       -8.74915       -17.66012       -10.71872
| 71>    C       -8.20644       -16.62922        -9.96287
| 72>    C       -8.79205       -18.11670       -12.12650
| 73>    O       -8.27270       -17.62693       -13.09762
| 74>    C       -9.64455       -19.36639       -12.09231
| 75>    C      -10.03629       -19.59739       -10.80798
| 76>    C       -9.91688       -20.09235       -13.29898
| 77>    C      -10.65917       -21.19672       -13.39124
| 78>    H        2.67002       -15.83663         3.52041
| 79>    H        1.84645       -16.91627         1.07810
| 80>    H        1.09817       -17.66851        -1.05405
| 81>    H        1.58969       -16.60887        -2.38915
| 82>    H       -0.06341       -16.55911        -1.80715
| 83>    H        0.26933       -12.92250        -3.75691
| 84>    H        1.60627       -12.26905        -2.77950
| 85>    H       -0.06640       -12.21291        -2.16005
| 86>    H        1.50472       -12.18614        -0.43871
| 87>    H        2.23652       -10.78473         1.08977
| 88>    H        2.83144       -10.69880         4.08900
| 89>    H        4.63202        -6.77145         6.04980
| 90>    H        3.41568        -4.09174         2.58940
| 91>    H        1.36790        -7.66855         0.14363
| 92>    H        0.16213        -9.90574         1.85163
| 93>    H        0.25748        -8.41279        -1.78774
| 94>    H       -3.99688       -10.66451        -5.69066
| 95>    H       -9.81095       -12.22735        -2.23999
| 96>    H      -11.03291       -13.57505        -3.89801
| 97>    H       -6.92391       -14.55294        -8.51440
| 98>    H       -8.63134       -16.19477        -6.57331
| 99>    H       -7.60646       -15.83248       -10.36139
|100>    H      -10.64883       -20.40622       -10.45438
|101>    H       -9.46032       -19.66637       -14.18370
|102>    H      -11.12741       -21.64360       -12.53072
|103>    H      -10.82104       -21.68699       -14.33499
|104> *
|105>
|106>                          ****END OF INPUT****

CARTESIAN COORDINATES (ANGSTROEM)
---------------------------------
  C      2.523180  -14.945590    2.942950
  S      2.801990  -13.421880    3.653890
  C      2.382600  -12.577090    2.190160
  C      2.024540  -13.490640    1.189290
  C      2.109660  -14.848630    1.631390
  C      1.770040  -15.893980    0.739330
  C      1.346810  -15.612410   -0.522900
  C      0.972310  -16.683880   -1.495560
  C      1.244790  -14.246880   -0.952650
  O      0.794930  -14.097890   -2.226260
  C      0.649260  -12.799000   -2.744040
  C      1.580040  -13.212290   -0.117690
  C      2.399670  -11.171900    2.084280
  C      2.591930  -10.305850    3.108890
  C      2.645930   -8.878520    3.041300
  C      2.172750   -8.045920    2.054380
  O      2.520550   -6.698500    1.997220
  C      3.206010   -6.213570    3.066110
  C      3.587800   -7.053830    4.151310
  C      4.239660   -6.383990    5.133280
  S      4.400190   -4.710940    4.745970
  C      3.576240   -4.921890    3.244430
  O      3.329150   -8.389140    4.144200
  C      1.292790   -8.360280    0.971740
  C      0.325150   -9.310150    0.964200
  C     -0.507580   -9.609080   -0.140130
  S     -1.792980  -10.792080    0.072350
  C     -2.252170  -10.619050   -1.565980
  C     -1.438160   -9.706280   -2.248950
  C     -0.460400   -9.134870   -1.446350
  C     -1.874480   -9.628520   -3.672750
  O     -1.393380   -8.973170   -4.564290
  C     -3.027020  -10.561430   -3.727640
  C     -3.223180  -11.131800   -2.464580
  S     -4.552330  -12.199000   -2.428790
  C     -4.894820  -11.850060   -4.120690
  C     -3.962350  -10.989170   -4.666360
  C     -5.953130  -12.507820   -4.815470
  S     -5.625640  -13.177960   -6.382490
  C     -7.188650  -13.921400   -6.498040
  C     -7.974120  -13.583640   -5.391760
  C     -7.264330  -12.782210   -4.429220
  C     -7.965460  -12.271050   -3.301990
  C     -7.418540  -11.307110   -2.428800
  N     -7.073320  -10.476150   -1.716670
  C     -9.289420  -12.612820   -3.103060
  C     -9.981270  -13.377850   -4.042080
  C     -9.361570  -13.822830   -5.195520
  C    -10.203960  -14.386350   -6.179910
  N    -10.979190  -14.773950   -6.931920
  C     -7.450730  -14.782800   -7.598840
  C     -8.220140  -15.896000   -7.527600
  C     -8.536810  -16.742720   -8.618240
  S     -9.534710  -18.154400   -8.317390
  C     -9.497180  -18.567180   -9.971200
  C     -8.749150  -17.660120  -10.718720
  C     -8.206440  -16.629220   -9.962870
  C     -8.792050  -18.116700  -12.126500
  O     -8.272700  -17.626930  -13.097620
  C     -9.644550  -19.366390  -12.092310
  C    -10.036290  -19.597390  -10.807980
  C     -9.916880  -20.092350  -13.298980
  C    -10.659170  -21.196720  -13.391240
  H      2.670020  -15.836630    3.520410
  H      1.846450  -16.916270    1.078100
  H      1.098170  -17.668510   -1.054050
  H      1.589690  -16.608870   -2.389150
  H     -0.063410  -16.559110   -1.807150
  H      0.269330  -12.922500   -3.756910
  H      1.606270  -12.269050   -2.779500
  H     -0.066400  -12.212910   -2.160050
  H      1.504720  -12.186140   -0.438710
  H      2.236520  -10.784730    1.089770
  H      2.831440  -10.698800    4.089000
  H      4.632020   -6.771450    6.049800
  H      3.415680   -4.091740    2.589400
  H      1.367900   -7.668550    0.143630
  H      0.162130   -9.905740    1.851630
  H      0.257480   -8.412790   -1.787740
  H     -3.996880  -10.664510   -5.690660
  H     -9.810950  -12.227350   -2.239990
  H    -11.032910  -13.575050   -3.898010
  H     -6.923910  -14.552940   -8.514400
  H     -8.631340  -16.194770   -6.573310
  H     -7.606460  -15.832480  -10.361390
  H    -10.648830  -20.406220  -10.454380
  H     -9.460320  -19.666370  -14.183700
  H    -11.127410  -21.643600  -12.530720
  H    -10.821040  -21.686990  -14.334990

 Total Charge           Charge          ....    0
 Multiplicity           Mult            ....    1
 Number of Electrons    NEL             ....  476
 Basis Dimension        Dim             .... 1036

ORBITAL ENERGIES
----------------

  NO   OCC          E(Eh)            E(eV)
   0   2.0000     -88.985189     -2421.4101
   1   2.0000     -88.980913     -2421.2937
   2   2.0000     -88.978750     -2421.2349
   3   2.0000     -88.975586     -2421.1488
   4   2.0000     -88.956168     -2420.6204
   5   2.0000     -88.947264     -2420.3781
   6   2.0000     -19.262319      -524.1544
   7   2.0000     -19.259191      -524.0692
   8   2.0000     -19.245624      -523.7000
   9   2.0000     -19.225532      -523.1533
  10   2.0000     -19.220141      -523.0066
  11   2.0000     -14.416063      -392.2810
  12   2.0000     -14.414956      -392.2509
  13   2.0000     -10.370619      -282.1989
  14   2.0000     -10.366804      -282.0951
  15   2.0000     -10.337765      -281.3049
  16   2.0000     -10.336640      -281.2743
  17   2.0000     -10.335441      -281.2416
  18   2.0000     -10.331739      -281.1409
  19   2.0000     -10.329736      -281.0864
  20   2.0000     -10.329606      -281.0829
  21   2.0000     -10.329366      -281.0763
  22   2.0000     -10.328721      -281.0588
  23   2.0000     -10.326917      -281.0097
  24   2.0000     -10.323428      -280.9148
  25   2.0000     -10.320062      -280.8232
  26   2.0000     -10.318760      -280.7877
  27   2.0000     -10.318100      -280.7698
  28   2.0000     -10.316483      -280.7258
  29   2.0000     -10.315820      -280.7077
  30   2.0000     -10.314525      -280.6725
  31   2.0000     -10.314444      -280.6703
  32   2.0000     -10.313537      -280.6456
  33   2.0000     -10.312942      -280.6294
  34   2.0000     -10.311952      -280.6025
  35   2.0000     -10.311938      -280.6021
  36   2.0000     -10.310203      -280.5549
  37   2.0000     -10.300983      -280.3040
  38   2.0000     -10.298470      -280.2356
  39   2.0000     -10.293506      -280.1005
  40   2.0000     -10.292899      -280.0840
  41   2.0000     -10.291469      -280.0451
  42   2.0000     -10.290923      -280.0303
  43   2.0000     -10.289586      -279.9939
  44   2.0000     -10.288203      -279.9562
  45   2.0000     -10.285003      -279.8692
  46   2.0000     -10.284681      -279.8604
  47   2.0000     -10.284499      -279.8554
  48   2.0000     -10.283489      -279.8280
  49   2.0000     -10.282554      -279.8025
  50   2.0000     -10.281953      -279.7862
  51   2.0000     -10.279505      -279.7195
  52   2.0000     -10.279129      -279.7093
  53   2.0000     -10.275853      -279.6202
  54   2.0000     -10.275241      -279.6035
  55   2.0000     -10.274842      -279.5927
  56   2.0000     -10.273673      -279.5609
  57   2.0000     -10.271288      -279.4959
  58   2.0000     -10.270675      -279.4793
  59   2.0000     -10.269368      -279.4437
  60   2.0000     -10.268183      -279.4115
  61   2.0000     -10.262413      -279.2545
  62   2.0000     -10.256169      -279.0845
  63   2.0000      -8.080542      -219.8827
  64   2.0000      -8.075230      -219.7382
  65   2.0000      -8.073090      -219.6799
  66   2.0000      -8.070692      -219.6147
  67   2.0000      -8.051518      -219.0929
  68   2.0000      -8.043141      -218.8650
  69   2.0000      -6.049455      -164.6141
  70   2.0000      -6.045294      -164.5008
  71   2.0000      -6.044503      -164.4793
  72   2.0000      -6.043411      -164.4496
  73   2.0000      -6.042278      -164.4187
  74   2.0000      -6.040319      -164.3654
  75   2.0000      -6.039681      -164.3481
  76   2.0000      -6.038150      -164.3064
  77   2.0000      -6.037565      -164.2905
  78   2.0000      -6.035718      -164.2402
  79   2.0000      -6.035604      -164.2371
  80   2.0000      -6.033320      -164.1750
  81   2.0000      -6.020470      -163.8253
  82   2.0000      -6.016329      -163.7126
  83   2.0000      -6.014439      -163.6612
  84   2.0000      -6.012657      -163.6127
  85   2.0000      -6.008527      -163.5003
  86   2.0000      -6.004745      -163.3974
  87   2.0000      -1.187185       -32.3050
  88   2.0000      -1.149639       -31.2833
  89   2.0000      -1.149394       -31.2766
  90   2.0000      -1.136068       -30.9140
  91   2.0000      -1.132122       -30.8066
  92   2.0000      -1.030605       -28.0442
  93   2.0000      -1.018819       -27.7235
  94   2.0000      -1.007178       -27.4067
  95   2.0000      -1.002982       -27.2925
  96   2.0000      -0.998697       -27.1759
  97   2.0000      -0.986211       -26.8362
  98   2.0000      -0.985544       -26.8180
  99   2.0000      -0.975704       -26.5503
 100   2.0000      -0.962888       -26.2015
 101   2.0000      -0.944963       -25.7137
 102   2.0000      -0.930265       -25.3138
 103   2.0000      -0.926899       -25.2222
 104   2.0000      -0.917621       -24.9697
 105   2.0000      -0.905692       -24.6451
 106   2.0000      -0.894956       -24.3530
 107   2.0000      -0.883150       -24.0317
 108   2.0000      -0.867917       -23.6172
 109   2.0000      -0.864824       -23.5331
 110   2.0000      -0.862535       -23.4708
 111   2.0000      -0.855692       -23.2846
 112   2.0000      -0.851640       -23.1743
 113   2.0000      -0.846799       -23.0426
 114   2.0000      -0.841020       -22.8853
 115   2.0000      -0.838554       -22.8182
 116   2.0000      -0.829157       -22.5625
 117   2.0000      -0.823674       -22.4133
 118   2.0000      -0.802690       -21.8423
 119   2.0000      -0.796952       -21.6862
 120   2.0000      -0.788576       -21.4583
 121   2.0000      -0.780332       -21.2339
 122   2.0000      -0.776668       -21.1342
 123   2.0000      -0.768165       -20.9028
 124   2.0000      -0.755325       -20.5535
 125   2.0000      -0.752240       -20.4695
 126   2.0000      -0.743904       -20.2427
 127   2.0000      -0.736184       -20.0326
 128   2.0000      -0.730889       -19.8885
 129   2.0000      -0.717848       -19.5336
 130   2.0000      -0.706007       -19.2114
 131   2.0000      -0.696020       -18.9397
 132   2.0000      -0.683835       -18.6081
 133   2.0000      -0.681941       -18.5566
 134   2.0000      -0.672448       -18.2982
 135   2.0000      -0.666085       -18.1251
 136   2.0000      -0.663720       -18.0607
 137   2.0000      -0.657787       -17.8993
 138   2.0000      -0.646971       -17.6050
 139   2.0000      -0.646368       -17.5886
 140   2.0000      -0.641212       -17.4483
 141   2.0000      -0.636730       -17.3263
 142   2.0000      -0.634366       -17.2620
 143   2.0000      -0.624113       -16.9830
 144   2.0000      -0.622901       -16.9500
 145   2.0000      -0.613574       -16.6962
 146   2.0000      -0.606510       -16.5040
 147   2.0000      -0.602761       -16.4020
 148   2.0000      -0.596208       -16.2237
 149   2.0000      -0.593757       -16.1570
 150   2.0000      -0.590682       -16.0733
 151   2.0000      -0.582048       -15.8383
 152   2.0000      -0.573213       -15.5979
 153   2.0000      -0.570351       -15.5200
 154   2.0000      -0.568305       -15.4644
 155   2.0000      -0.561764       -15.2864
 156   2.0000      -0.558433       -15.1957
 157   2.0000      -0.554589       -15.0911
 158   2.0000      -0.552925       -15.0459
 159   2.0000      -0.551496       -15.0070
 160   2.0000      -0.550251       -14.9731
 161   2.0000      -0.540869       -14.7178
 162   2.0000      -0.538714       -14.6592
 163   2.0000      -0.535920       -14.5831
 164   2.0000      -0.532814       -14.4986
 165   2.0000      -0.530604       -14.4385
 166   2.0000      -0.526852       -14.3364
 167   2.0000      -0.524199       -14.2642
 168   2.0000      -0.522509       -14.2182
 169   2.0000      -0.518645       -14.1131
 170   2.0000      -0.514996       -14.0137
 171   2.0000      -0.513766       -13.9803
 172   2.0000      -0.502498       -13.6737
 173   2.0000      -0.500979       -13.6323
 174   2.0000      -0.498384       -13.5617
 175   2.0000      -0.493865       -13.4388
 176   2.0000      -0.492274       -13.3955
 177   2.0000      -0.491338       -13.3700
 178   2.0000      -0.490070       -13.3355
 179   2.0000      -0.489802       -13.3282
 180   2.0000      -0.488483       -13.2923
 181   2.0000      -0.482699       -13.1349
 182   2.0000      -0.482169       -13.1205
 183   2.0000      -0.481189       -13.0938
 184   2.0000      -0.479611       -13.0509
 185   2.0000      -0.477973       -13.0063
 186   2.0000      -0.475187       -12.9305
 187   2.0000      -0.473346       -12.8804
 188   2.0000      -0.471495       -12.8300
 189   2.0000      -0.469286       -12.7699
 190   2.0000      -0.467846       -12.7307
 191   2.0000      -0.463497       -12.6124
 192   2.0000      -0.461782       -12.5657
 193   2.0000      -0.461126       -12.5479
 194   2.0000      -0.458172       -12.4675
 195   2.0000      -0.454777       -12.3751
 196   2.0000      -0.453897       -12.3512
 197   2.0000      -0.450180       -12.2500
 198   2.0000      -0.449021       -12.2185
 199   2.0000      -0.445722       -12.1287
 200   2.0000      -0.440652       -11.9908
 201   2.0000      -0.440493       -11.9864
 202   2.0000      -0.439022       -11.9464
 203   2.0000      -0.434927       -11.8350
 204   2.0000      -0.433949       -11.8084
 205   2.0000      -0.430978       -11.7275
 206   2.0000      -0.429120       -11.6769
 207   2.0000      -0.427025       -11.6199
 208   2.0000      -0.424486       -11.5509
 209   2.0000      -0.422566       -11.4986
 210   2.0000      -0.418512       -11.3883
 211   2.0000      -0.413481       -11.2514
 212   2.0000      -0.411165       -11.1884
 213   2.0000      -0.410264       -11.1638
 214   2.0000      -0.406926       -11.0730
 215   2.0000      -0.399587       -10.8733
 216   2.0000      -0.397810       -10.8250
 217   2.0000      -0.393332       -10.7031
 218   2.0000      -0.387936       -10.5563
 219   2.0000      -0.369537       -10.0556
 220   2.0000      -0.366775        -9.9805
 221   2.0000      -0.354034        -9.6338
 222   2.0000      -0.344611        -9.3773
 223   2.0000      -0.341432        -9.2908
 224   2.0000      -0.339869        -9.2483
 225   2.0000      -0.337282        -9.1779
 226   2.0000      -0.337077        -9.1723
 227   2.0000      -0.336575        -9.1587
 228   2.0000      -0.332916        -9.0591
 229   2.0000      -0.330951        -9.0056
 230   2.0000      -0.310558        -8.4507
 231   2.0000      -0.296455        -8.0669
 232   2.0000      -0.288451        -7.8492
 233   2.0000      -0.285923        -7.7804
 234   2.0000      -0.266189        -7.2434
 235   2.0000      -0.255677        -6.9573
 236   2.0000      -0.236235        -6.4283
 237   2.0000      -0.213984        -5.8228
 238   0.0000      -0.091398        -2.4871
 239   0.0000      -0.074099        -2.0163
 240   0.0000      -0.071567        -1.9474
 241   0.0000      -0.049642        -1.3508
 242   0.0000      -0.030847        -0.8394

MULLIKEN ATOMIC CHARGES
-----------------------
   0 C :   -0.125164
   1 S :    0.141400
   2 C :   -0.147164
   3 C :    0.153901
   4 C :    0.112952
   5 C :   -0.077369
   6 C :   -0.093632
   7 C :    0.135725
   8 C :    0.225106
   9 O :   -0.311368
  10 C :    0.188770
  11 C :   -0.176326
  12 C :   -0.001286
  13 C :   -0.040887
  14 C :    0.154797
  15 C :    0.119099
  16 O :   -0.261517
  17 C :    0.218403
  18 C :    0.213641
  19 C :   -0.174525
  20 S :    0.100442
  21 C :   -0.176845
  22 O :   -0.254744
  23 C :   -0.023331
  24 C :    0.034023
  25 C :   -0.102286
  26 S :    0.193197
  27 C :   -0.101093
  28 C :   -0.054703
  29 C :   -0.021908
  30 C :    0.193322
  31 O :   -0.107040
  32 C :   -0.043894
  33 C :   -0.083477
  34 S :    0.215689
  35 C :   -0.115688
  36 C :   -0.006695
  37 C :   -0.179934
  38 S :    0.209072
  39 C :   -0.169173
  40 C :    0.152062
  41 C :    0.170422
  42 C :   -0.078588
  43 C :   -0.215534
  44 N :    0.126417
  45 C :    0.018918
  46 C :    0.008306
  47 C :   -0.084414
  48 C :   -0.215186
  49 N :    0.128087
  50 C :    0.017157
  51 C :    0.074209
  52 C :   -0.120830
  53 S :    0.185550
  54 C :   -0.066667
  55 C :   -0.008858
  56 C :    0.003680
  57 C :    0.153967
  58 O :   -0.110070
  59 C :   -0.049179
  60 C :   -0.021275
  61 C :    0.013884
  62 C :   -0.004795
  63 H :    0.014179
  64 H :   -0.041949
  65 H :   -0.001299
  66 H :    0.025010
  67 H :    0.023060
  68 H :    0.035098
  69 H :    0.023010
  70 H :    0.028244
  71 H :   -0.047430
  72 H :    0.016567
  73 H :   -0.003762
  74 H :    0.021223
  75 H :    0.022192
  76 H :    0.005174
  77 H :    0.011040
  78 H :   -0.004960
  79 H :   -0.004257
  80 H :    0.007099
  81 H :    0.008044
  82 H :   -0.003871
  83 H :    0.002425
  84 H :   -0.006690
  85 H :   -0.008581
  86 H :    0.003464
  87 H :    0.011253
  88 H :    0.028960
Sum of atomic charges:   -0.0000000

LOEWDIN ATOMIC CHARGES
----------------------
   0 C :   -0.186862
   1 S :    0.469302
   2 C :   -0.200654
   3 C :   -0.030920
   4 C :   -0.060981
   5 C :   -0.018583
   6 C :   -0.037063
   7 C :   -0.040868
   8 C :    0.062905
   9 O :   -0.094844
  10 C :    0.075624
  11 C :   -0.091022
  12 C :   -0.017665
  13 C :   -0.065323
  14 C :    0.029091
  15 C :    0.004680
  16 O :   -0.066350
  17 C :   -0.007690
  18 C :   -0.009115
  19 C :   -0.212787
  20 S :    0.426829
  21 C :   -0.214516
  22 O :   -0.058384
  23 C :   -0.027066
  24 C :   -0.043353
  25 C :   -0.165400
  26 S :    0.475677
  27 C :   -0.196932
  28 C :   -0.094976
  29 C :   -0.029743
  30 C :    0.089882
  31 O :   -0.114048
  32 C :   -0.105158
  33 C :   -0.173990
  34 S :    0.501936
  35 C :   -0.201662
  36 C :   -0.022903
  37 C :   -0.196693
  38 S :    0.507046
  39 C :   -0.164378
  40 C :   -0.040884
  41 C :   -0.038107
  42 C :   -0.050071
  43 C :   -0.045222
  44 N :   -0.049117
  45 C :    0.013462
  46 C :    0.007790
  47 C :   -0.045751
  48 C :   -0.028869
  49 N :   -0.049850
  50 C :   -0.063313
  51 C :   -0.014376
  52 C :   -0.173201
  53 S :    0.480950
  54 C :   -0.171776
  55 C :   -0.105617
  56 C :   -0.012116
  57 C :    0.098227
  58 O :   -0.102446
  59 C :   -0.056832
  60 C :    0.005442
  61 C :   -0.025134
  62 C :   -0.025211
  63 H :    0.022834
  64 H :    0.027091
  65 H :    0.025749
  66 H :    0.036014
  67 H :    0.035326
  68 H :    0.029032
  69 H :    0.017065
  70 H :    0.015110
  71 H :    0.024274
  72 H :    0.035982
  73 H :    0.027696
  74 H :    0.027563
  75 H :    0.027664
  76 H :    0.034357
  77 H :    0.034030
  78 H :    0.038291
  79 H :    0.037363
  80 H :    0.045870
  81 H :    0.045437
  82 H :    0.030478
  83 H :    0.031040
  84 H :    0.036933
  85 H :    0.031107
  86 H :    0.035415
  87 H :    0.019547
  88 H :    0.027714

  Mayer bond orders larger than 0.100000
B(  0-C ,  1-S ) :   1.2021 B(  0-C ,  2-C ) :   0.1007 B(  0-C ,  4-C ) :   1.4219
B(  0-C , 63-H ) :   0.9688 B(  1-S ,  2-C ) :   1.1266 B(  2-C ,  3-C ) :   1.3378
B(  2-C , 12-C ) :   1.2144 B(  3-C ,  4-C ) :   1.2055 B(  3-C , 11-C ) :   1.1634
B(  4-C ,  5-C ) :   1.1215 B(  5-C ,  6-C ) :   1.6022 B(  5-C , 64-H ) :   1.0061
B(  6-C ,  7-C ) :   1.0702 B(  6-C ,  8-C ) :   1.1910 B(  7-C , 65-H ) :   0.9526
B(  7-C , 66-H ) :   0.9471 B(  7-C , 67-H ) :   0.9469 B(  8-C ,  9-O ) :   1.1861
B(  8-C , 11-C ) :   1.4636 B(  9-O , 10-C ) :   0.9584 B( 10-C , 68-H ) :   0.9739
B( 10-C , 69-H ) :   0.9661 B( 10-C , 70-H ) :   0.9732 B( 11-C , 71-H ) :   0.9947
B( 12-C , 13-C ) :   1.6561 B( 12-C , 72-H ) :   0.9474 B( 13-C , 14-C ) :   1.1350
B( 13-C , 73-H ) :   0.9505 B( 14-C , 15-C ) :   1.5225 B( 14-C , 22-O ) :   1.0400
B( 15-C , 16-O ) :   1.0271 B( 15-C , 23-C ) :   1.1189 B( 16-O , 17-C ) :   1.0676
B( 17-C , 18-C ) :   1.1982 B( 17-C , 21-C ) :   1.5758 B( 18-C , 19-C ) :   1.5754
B( 18-C , 22-O ) :   1.0620 B( 19-C , 20-S ) :   1.1380 B( 19-C , 74-H ) :   0.9716
B( 20-S , 21-C ) :   1.1351 B( 21-C , 75-H ) :   0.9711 B( 23-C , 24-C ) :   1.7105
B( 23-C , 76-H ) :   0.9465 B( 24-C , 25-C ) :   1.1392 B( 24-C , 77-H ) :   0.9513
B( 25-C , 26-S ) :   1.1082 B( 25-C , 29-C ) :   1.4434 B( 26-S , 27-C ) :   1.1266
B( 27-C , 28-C ) :   1.4570 B( 27-C , 33-C ) :   1.1365 B( 28-C , 29-C ) :   1.3191
B( 28-C , 30-C ) :   0.9029 B( 29-C , 78-H ) :   1.0025 B( 30-C , 31-O ) :   2.3323
B( 30-C , 32-C ) :   0.9076 B( 32-C , 33-C ) :   1.4608 B( 32-C , 36-C ) :   1.3026
B( 33-C , 34-S ) :   1.1595 B( 34-S , 35-C ) :   1.1136 B( 35-C , 36-C ) :   1.4657
B( 35-C , 37-C ) :   1.0806 B( 36-C , 79-H ) :   1.0034 B( 37-C , 38-S ) :   1.1718
B( 37-C , 39-C ) :   0.1152 B( 37-C , 41-C ) :   1.3915 B( 38-S , 39-C ) :   1.1626
B( 39-C , 40-C ) :   1.3703 B( 39-C , 50-C ) :   1.1100 B( 40-C , 41-C ) :   1.1642
B( 40-C , 47-C ) :   1.2080 B( 41-C , 42-C ) :   1.1981 B( 42-C , 43-C ) :   1.0817
B( 42-C , 45-C ) :   1.5377 B( 43-C , 44-N ) :   3.0260 B( 45-C , 46-C ) :   1.1966
B( 45-C , 80-H ) :   0.9946 B( 46-C , 47-C ) :   1.5316 B( 46-C , 81-H ) :   0.9939
B( 47-C , 48-C ) :   1.0868 B( 48-C , 49-N ) :   3.0247 B( 50-C , 51-C ) :   1.6968
B( 50-C , 82-H ) :   0.9444 B( 51-C , 52-C ) :   1.1639 B( 51-C , 83-H ) :   0.9455
B( 52-C , 53-S ) :   1.1156 B( 52-C , 56-C ) :   1.4475 B( 53-S , 54-C ) :   1.1546
B( 54-C , 55-C ) :   1.4558 B( 54-C , 60-C ) :   1.0517 B( 55-C , 56-C ) :   1.3234
B( 55-C , 57-C ) :   0.9142 B( 56-C , 84-H ) :   0.9985 B( 57-C , 58-O ) :   2.2791
B( 57-C , 59-C ) :   0.9240 B( 59-C , 60-C ) :   1.6653 B( 59-C , 61-C ) :   1.1154
B( 60-C , 85-H ) :   1.0146 B( 61-C , 62-C ) :   1.9067 B( 61-C , 86-H ) :   0.9594
B( 62-C , 87-H ) :   0.9534 B( 62-C , 88-H ) :   0.9511

-----------------------------------------------------------------------------
         ABSORPTION SPECTRUM VIA TRANSITION ELECTRIC DIPOLE MOMENTS
-----------------------------------------------------------------------------
State   Energy  Wavelength   fosc         T2         TX        TY        TZ
        (cm-1)    (nm)                  (au**2)     (au)      (au)      (au)
-----------------------------------------------------------------------------
   0   13103.0    763.2   0.689392996  17.32100  -2.93472  -0.96769  -2.78783
   1   15596.7    641.2   0.336324695   7.09908   0.40063   2.30804   1.26945
   2   17926.3    557.8   0.220671476   4.05258  -0.51583  -1.51402  -1.22239
   3   18426.6    542.7   0.104763730   1.87172  -0.06990  -1.34967  -0.21269
   4   19000.2    526.3   0.096860640   1.67828  -0.60902   0.90700  -0.69622
   5   20907.9    478.3   0.076477807   1.20420  -0.96362  -0.18951  -0.48961
   6   23463.8    426.2   0.010577077   0.14840  -0.00790   0.16510   0.34797
   7   23950.5    417.5   0.034069306   0.46830  -0.22911  -0.49701  -0.41084
   8   24684.3    405.1   0.037961891   0.50629  -0.34569   0.56055   0.26940
   9   25747.1    388.4   0.233430481   2.98472   0.70903   1.28428   0.91248
  10   26172.1    382.1   0.671960274   8.45243   1.24067   2.02339   1.67900
  11   26806.3    373.0   0.000205622   0.00253  -0.04882  -0.01092  -0.00474
  12   27179.1    367.9   0.047071435   0.57016   0.08447   0.38085   0.64651
  13   28156.3    355.2   0.062787785   0.73413   0.73559   0.34624   0.27047
  14   28318.0    353.1   0.431065355   5.01137   1.24036   1.50200   1.10311
  15   28750.2    347.8   0.017285197   0.19793   0.25248   0.28606   0.22880
  16   29211.3    342.3   0.021793008   0.24561  -0.01243   0.36334   0.33680
  17   29862.0    334.9   0.016256963   0.17922  -0.19793   0.17023  -0.33327
  18   30331.2    329.7   0.014949260   0.16226  -0.19487  -0.29499   0.19304
  19   31023.2    322.3   0.057654641   0.61182  -0.12508  -0.45748  -0.62200
  20   31516.1    317.3   0.063346522   0.66171   0.32200  -0.57467  -0.47726
  21   32741.8    305.4   0.085964246   0.86435  -0.82321  -0.32946  -0.27951
  22   33175.5    301.4   0.111369775   1.10516  -0.49631  -0.70463  -0.60194
  23   33277.1    300.5   0.042843030   0.42385   0.53696   0.22046   0.29482
  24   33834.3    295.6   0.035598107   0.34637  -0.25616  -0.51597  -0.12054
  25   33920.8    294.8   0.035457059   0.34412   0.26018  -0.39780   0.34377
  26   34100.3    293.3   0.006268700   0.06052   0.22025  -0.08902  -0.06393
  27   34622.4    288.8   0.014918625   0.14186  -0.25237  -0.26655  -0.08435
  28   34777.3    287.5   0.037005711   0.35031  -0.02334  -0.37061  -0.46088
  29   35229.6    283.9   0.007525500   0.07032   0.20894  -0.12698  -0.10268
  30   35422.7    282.3   0.107986671   1.00361  -0.59463  -0.00029  -0.80624
  31   35627.8    280.7   0.020249824   0.18711  -0.03198   0.09822   0.42005
  32   35870.7    278.8   0.068767328   0.63113   0.37771   0.54973   0.43159
  33   36520.3    273.8   0.023810889   0.21464   0.30359  -0.23823  -0.25636
  34   36605.2    273.2   0.016742260   0.15057  -0.30979  -0.03554   0.23095
  35   36742.5    272.2   0.150092375   1.34482  -0.25627  -0.81543  -0.78372
  36   37138.9    269.3   0.021980116   0.19484   0.32736   0.22274   0.19510
  37   37445.3    267.1   0.011909198   0.10470   0.10562  -0.01399   0.30554
  38   37964.3    263.4   0.045869930   0.39777   0.61608   0.12510   0.05061
  39   38142.0    262.2   0.215835630   1.86293  -0.54135   0.09279   1.24950
  40   38295.5    261.1   0.060067137   0.51637  -0.66042   0.26121   0.10947
  41   38469.8    259.9   0.038630886   0.33059   0.38943   0.37417   0.19731
  42   39267.8    254.7   0.367973970   3.08500   0.61758   1.07844   1.24120
  43   39432.8    253.6   0.061576343   0.51408  -0.53534   0.06938   0.47189
  44   39447.2    253.5   0.049272236   0.41121   0.50432  -0.05104  -0.39276
  45   39595.7    252.6   0.019315873   0.16060   0.32665   0.23208  -0.00602
  46   39709.6    251.8   0.022997038   0.19066  -0.11816   0.21346   0.36212
  47   39992.3    250.0   0.027935606   0.22996  -0.38610  -0.05908   0.27821
  48   40151.2    249.1   0.118553547   0.97206   0.48071   0.68865   0.51646

FINAL SINGLE POINT ENERGY     -4791.787020842265

DIPOLE MOMENT
-------------
                                X             Y             Z
Electronic contribution:    -12.54708      25.69108      12.79150
Nuclear contribution   :     11.98391     -27.83769     -12.10337
                        -----------------------------------------
Total Dipole Moment    :     -0.56317      -2.14661       0.68813
                        -----------------------------------------
Magnitude (a.u.)       :      2.32349
Magnitude (Debye)      :      5.90585

Rotational constants in cm-1:     0.002219     0.000305     0.000286
Rotational constants in MHz :    66.509378     9.129749     8.571000

                             ****ORCA TERMINATED NORMALLY****
TOTAL RUN TIME: 0 days 0 hours 7 minutes 57 seconds 263 msec
