                         Program Version 4.2.0 -  RELEASE  -
|  1> # ORCA input file
|  2> # SCF done       -142.930398482086          0.000788762720
|  3> ! CAM-B3LYP def2-SVP def2/J RIJCOSX Grid4 TightSCF
|  4> %maxcore 5000
|  5> %tddft
|  6>     Mode sTDDFT
|  7>     Ethresh 5.0
|  8>     maxcore 5000
|  9> end
| 10>
| 11> %pal
| 12>   nprocs 6
| 13>   end
| 14> * xyz 0 1
| 15>    C        0.76706        -0.01723         3.60284
| 16>    S        0.93942        -1.63383         4.10464
| 17>    C       -0.41850        -2.15458         3.14149
| 18>    C       -0.97561        -1.06011         2.45778
| 19>    C       -0.28915         0.16319         2.73200
| 20>    C       -0.73801         1.36335         2.13246
| 21>    C       -1.82471         1.35766         1.31168
| 22>    C       -2.34072         2.60207         0.66359
| 23>    C       -2.51255         0.12679         1.05007
| 24>    O       -3.58593         0.25216         0.22934
| 25>    C       -4.35018        -0.89405        -0.05704
| 26>    C       -2.09159        -1.05738         1.60425
| 27>    C       -0.86187        -3.48485         3.10904
| 28>    C       -0.36523        -4.50440         3.86930
| 29>    C       -0.86464        -5.81851         3.83882
| 30>    C       -0.49056        -6.90675         4.62587
| 31>    C       -1.29213        -8.02276         4.25165
| 32>    C       -2.18534        -7.58913         3.18265
| 33>    O       -3.02837        -8.19963         2.55150
| 34>    N       -1.86920        -6.25913         2.99936
| 35>    C       -0.85766        -9.10331         4.97950
| 36>    O        0.15991        -8.73312         5.79651
| 37>    C        0.43391        -7.35953         5.62942
| 38>    O        1.29959        -6.81540         6.26110
| 39>    C       -1.31578       -10.45991         4.89624
| 40>    O       -0.51581       -11.40613         5.50005
| 41>    C       -0.49558       -12.63610         4.92381
| 42>    C        0.51645       -13.53536         5.10641
| 43>    F        1.56010       -13.40371         5.91912
| 44>    S        0.32911       -14.98636         4.17618
| 45>    C       -2.45136       -10.72858         4.22013
| 46>    S       -3.01892       -12.33646         3.87567
| 47>    C       -1.45957       -13.12863         4.00603
| 48>    C       -1.13190       -14.34025         3.43241
| 49>    C       -1.70879       -15.00240         2.32443
| 50>    C       -2.30543       -14.39089         1.25121
| 51>    C       -2.86633       -15.04615         0.12143
| 52>    C       -3.30713       -14.20767        -0.85440
| 53>    C       -3.11710       -12.83589        -0.55742
| 54>    S       -2.35822       -12.65359         1.00038
| 55>    C       -3.47078       -11.73756        -1.32100
| 56>    C       -4.03909       -11.74467        -2.61336
| 57>    C       -4.26049       -10.49963        -3.11686
| 58>    C       -3.88756        -9.44233        -2.24818
| 59>    S       -3.24704       -10.09022        -0.75927
| 60>    C       -3.99600        -8.10738        -2.57792
| 61>    C       -3.69413        -6.96935        -1.82104
| 62>    C       -3.77708        -5.62471        -2.45134
| 63>    C       -3.45833        -4.69305        -1.55743
| 64>    C       -3.16432        -5.37557        -0.26270
| 65>    O       -2.86908        -4.80420         0.78442
| 66>    C       -3.31700        -6.79512        -0.51003
| 67>    H        1.44291         0.72968         3.97042
| 68>    H       -0.21155         2.28264         2.34056
| 69>    H       -1.74565         3.46414         0.95188
| 70>    H       -3.37773         2.76862         0.95041
| 71>    H       -2.31823         2.49629        -0.42000
| 72>    H       -5.15263        -0.55934        -0.71256
| 73>    H       -4.77891        -1.32902         0.85083
| 74>    H       -3.75321        -1.65302        -0.57012
| 75>    H       -2.59840        -1.98619         1.40251
| 76>    H       -1.67295        -3.68636         2.42399
| 77>    H        0.43931        -4.32382         4.56884
| 78>    H       -2.30168        -5.70015         2.26026
| 79>    H       -3.05166        -9.94697         3.78792
| 80>    H       -1.56120       -16.07250         2.26653
| 81>    H       -2.92883       -16.11900         0.07633
| 82>    H       -3.76733       -14.53449        -1.76914
| 83>    H       -4.25929       -12.65786        -3.13597
| 84>    H       -4.68303       -10.30316        -4.08660
| 85>    H       -4.36447        -7.91731        -3.58000
| 86>    H       -4.04443        -5.48275        -3.48353
| 87>    H       -3.40400        -3.62945        -1.69352
| 88>    H       -3.19641        -7.54604         0.24828
| 89> *
| 90>
| 91>                          ****END OF INPUT****

CARTESIAN COORDINATES (ANGSTROEM)
---------------------------------
  C      0.767060   -0.017230    3.602840
  S      0.939420   -1.633830    4.104640
  C     -0.418500   -2.154580    3.141490
  C     -0.975610   -1.060110    2.457780
  C     -0.289150    0.163190    2.732000
  C     -0.738010    1.363350    2.132460
  C     -1.824710    1.357660    1.311680
  C     -2.340720    2.602070    0.663590
  C     -2.512550    0.126790    1.050070
  O     -3.585930    0.252160    0.229340
  C     -4.350180   -0.894050   -0.057040
  C     -2.091590   -1.057380    1.604250
  C     -0.861870   -3.484850    3.109040
  C     -0.365230   -4.504400    3.869300
  C     -0.864640   -5.818510    3.838820
  C     -0.490560   -6.906750    4.625870
  C     -1.292130   -8.022760    4.251650
  C     -2.185340   -7.589130    3.182650
  O     -3.028370   -8.199630    2.551500
  N     -1.869200   -6.259130    2.999360
  C     -0.857660   -9.103310    4.979500
  O      0.159910   -8.733120    5.796510
  C      0.433910   -7.359530    5.629420
  O      1.299590   -6.815400    6.261100
  C     -1.315780  -10.459910    4.896240
  O     -0.515810  -11.406130    5.500050
  C     -0.495580  -12.636100    4.923810
  C      0.516450  -13.535360    5.106410
  F      1.560100  -13.403710    5.919120
  S      0.329110  -14.986360    4.176180
  C     -2.451360  -10.728580    4.220130
  S     -3.018920  -12.336460    3.875670
  C     -1.459570  -13.128630    4.006030
  C     -1.131900  -14.340250    3.432410
  C     -1.708790  -15.002400    2.324430
  C     -2.305430  -14.390890    1.251210
  C     -2.866330  -15.046150    0.121430
  C     -3.307130  -14.207670   -0.854400
  C     -3.117100  -12.835890   -0.557420
  S     -2.358220  -12.653590    1.000380
  C     -3.470780  -11.737560   -1.321000
  C     -4.039090  -11.744670   -2.613360
  C     -4.260490  -10.499630   -3.116860
  C     -3.887560   -9.442330   -2.248180
  S     -3.247040  -10.090220   -0.759270
  C     -3.996000   -8.107380   -2.577920
  C     -3.694130   -6.969350   -1.821040
  C     -3.777080   -5.624710   -2.451340
  C     -3.458330   -4.693050   -1.557430
  C     -3.164320   -5.375570   -0.262700
  O     -2.869080   -4.804200    0.784420
  C     -3.317000   -6.795120   -0.510030
  H      1.442910    0.729680    3.970420
  H     -0.211550    2.282640    2.340560
  H     -1.745650    3.464140    0.951880
  H     -3.377730    2.768620    0.950410
  H     -2.318230    2.496290   -0.420000
  H     -5.152630   -0.559340   -0.712560
  H     -4.778910   -1.329020    0.850830
  H     -3.753210   -1.653020   -0.570120
  H     -2.598400   -1.986190    1.402510
  H     -1.672950   -3.686360    2.423990
  H      0.439310   -4.323820    4.568840
  H     -2.301680   -5.700150    2.260260
  H     -3.051660   -9.946970    3.787920
  H     -1.561200  -16.072500    2.266530
  H     -2.928830  -16.119000    0.076330
  H     -3.767330  -14.534490   -1.769140
  H     -4.259290  -12.657860   -3.135970
  H     -4.683030  -10.303160   -4.086600
  H     -4.364470   -7.917310   -3.580000
  H     -4.044430   -5.482750   -3.483530
  H     -3.404000   -3.629450   -1.693520
  H     -3.196410   -7.546040    0.248280

 Total Charge           Charge          ....    0
 Multiplicity           Mult            ....    1
 Number of Electrons    NEL             ....  400
 Basis Dimension        Dim             ....  858

ORBITAL ENERGIES
----------------

  NO   OCC          E(Eh)            E(eV)
   0   2.0000     -88.969341     -2420.9789
   1   2.0000     -88.958158     -2420.6745
   2   2.0000     -88.957876     -2420.6669
   3   2.0000     -88.955753     -2420.6091
   4   2.0000     -88.951647     -2420.4974
   5   2.0000     -24.799229      -674.8213
   6   2.0000     -19.273467      -524.4577
   7   2.0000     -19.255945      -523.9809
   8   2.0000     -19.247919      -523.7625
   9   2.0000     -19.217617      -522.9380
  10   2.0000     -19.183738      -522.0160
  11   2.0000     -19.177368      -521.8427
  12   2.0000     -14.427930      -392.6039
  13   2.0000     -10.381302      -282.4896
  14   2.0000     -10.378080      -282.4019
  15   2.0000     -10.368723      -282.1473
  16   2.0000     -10.354569      -281.7621
  17   2.0000     -10.348688      -281.6021
  18   2.0000     -10.348495      -281.5969
  19   2.0000     -10.346170      -281.5336
  20   2.0000     -10.330690      -281.1124
  21   2.0000     -10.328501      -281.0528
  22   2.0000     -10.325613      -280.9742
  23   2.0000     -10.323375      -280.9133
  24   2.0000     -10.321662      -280.8667
  25   2.0000     -10.320526      -280.8358
  26   2.0000     -10.319723      -280.8139
  27   2.0000     -10.318645      -280.7846
  28   2.0000     -10.318536      -280.7816
  29   2.0000     -10.306974      -280.4670
  30   2.0000     -10.302070      -280.3336
  31   2.0000     -10.299978      -280.2766
  32   2.0000     -10.298262      -280.2299
  33   2.0000     -10.296063      -280.1701
  34   2.0000     -10.295558      -280.1564
  35   2.0000     -10.292188      -280.0647
  36   2.0000     -10.291140      -280.0362
  37   2.0000     -10.289559      -279.9931
  38   2.0000     -10.286266      -279.9035
  39   2.0000     -10.285399      -279.8799
  40   2.0000     -10.281022      -279.7608
  41   2.0000     -10.278361      -279.6884
  42   2.0000     -10.274371      -279.5799
  43   2.0000     -10.272678      -279.5338
  44   2.0000     -10.270088      -279.4633
  45   2.0000     -10.269268      -279.4410
  46   2.0000     -10.266724      -279.3718
  47   2.0000     -10.261161      -279.2204
  48   2.0000     -10.256811      -279.1020
  49   2.0000     -10.256407      -279.0910
  50   2.0000     -10.248722      -278.8819
  51   2.0000     -10.246682      -278.8264
  52   2.0000      -8.065687      -219.4785
  53   2.0000      -8.053389      -219.1439
  54   2.0000      -8.053313      -219.1418
  55   2.0000      -8.051667      -219.0970
  56   2.0000      -8.046876      -218.9666
  57   2.0000      -6.035152      -164.2248
  58   2.0000      -6.031478      -164.1249
  59   2.0000      -6.026723      -163.9955
  60   2.0000      -6.022965      -163.8932
  61   2.0000      -6.022298      -163.8751
  62   2.0000      -6.021376      -163.8500
  63   2.0000      -6.018814      -163.7803
  64   2.0000      -6.018144      -163.7620
  65   2.0000      -6.017136      -163.7346
  66   2.0000      -6.017109      -163.7338
  67   2.0000      -6.016383      -163.7141
  68   2.0000      -6.014548      -163.6642
  69   2.0000      -6.012903      -163.6194
  70   2.0000      -6.012671      -163.6131
  71   2.0000      -6.006953      -163.4575
  72   2.0000      -1.315000       -35.7830
  73   2.0000      -1.189692       -32.3732
  74   2.0000      -1.176813       -32.0227
  75   2.0000      -1.151863       -31.3438
  76   2.0000      -1.121452       -30.5163
  77   2.0000      -1.117148       -30.3991
  78   2.0000      -1.086786       -29.5729
  79   2.0000      -1.039425       -28.2842
  80   2.0000      -1.009346       -27.4657
  81   2.0000      -0.999897       -27.2086
  82   2.0000      -0.987278       -26.8652
  83   2.0000      -0.983550       -26.7638
  84   2.0000      -0.958100       -26.0712
  85   2.0000      -0.933830       -25.4108
  86   2.0000      -0.927526       -25.2393
  87   2.0000      -0.905879       -24.6502
  88   2.0000      -0.896240       -24.3879
  89   2.0000      -0.890956       -24.2441
  90   2.0000      -0.881741       -23.9934
  91   2.0000      -0.875892       -23.8342
  92   2.0000      -0.860091       -23.4043
  93   2.0000      -0.858270       -23.3547
  94   2.0000      -0.842225       -22.9181
  95   2.0000      -0.834415       -22.7056
  96   2.0000      -0.832623       -22.6568
  97   2.0000      -0.821028       -22.3413
  98   2.0000      -0.811111       -22.0714
  99   2.0000      -0.804612       -21.8946
 100   2.0000      -0.790097       -21.4996
 101   2.0000      -0.784773       -21.3548
 102   2.0000      -0.771150       -20.9840
 103   2.0000      -0.765370       -20.8268
 104   2.0000      -0.754819       -20.5397
 105   2.0000      -0.743113       -20.2211
 106   2.0000      -0.731709       -19.9108
 107   2.0000      -0.726567       -19.7709
 108   2.0000      -0.709936       -19.3183
 109   2.0000      -0.693936       -18.8830
 110   2.0000      -0.691109       -18.8060
 111   2.0000      -0.683090       -18.5878
 112   2.0000      -0.676269       -18.4022
 113   2.0000      -0.666803       -18.1446
 114   2.0000      -0.651808       -17.7366
 115   2.0000      -0.648085       -17.6353
 116   2.0000      -0.641541       -17.4572
 117   2.0000      -0.634498       -17.2656
 118   2.0000      -0.634187       -17.2571
 119   2.0000      -0.633307       -17.2332
 120   2.0000      -0.626660       -17.0523
 121   2.0000      -0.622732       -16.9454
 122   2.0000      -0.618386       -16.8271
 123   2.0000      -0.605351       -16.4724
 124   2.0000      -0.596222       -16.2240
 125   2.0000      -0.592251       -16.1160
 126   2.0000      -0.588656       -16.0182
 127   2.0000      -0.585586       -15.9346
 128   2.0000      -0.578157       -15.7324
 129   2.0000      -0.570564       -15.5258
 130   2.0000      -0.566821       -15.4240
 131   2.0000      -0.562029       -15.2936
 132   2.0000      -0.555909       -15.1271
 133   2.0000      -0.555492       -15.1157
 134   2.0000      -0.554968       -15.1014
 135   2.0000      -0.551447       -15.0056
 136   2.0000      -0.545893       -14.8545
 137   2.0000      -0.535066       -14.5599
 138   2.0000      -0.529779       -14.4160
 139   2.0000      -0.528726       -14.3874
 140   2.0000      -0.524534       -14.2733
 141   2.0000      -0.519373       -14.1329
 142   2.0000      -0.514069       -13.9885
 143   2.0000      -0.509684       -13.8692
 144   2.0000      -0.507635       -13.8135
 145   2.0000      -0.507107       -13.7991
 146   2.0000      -0.502166       -13.6646
 147   2.0000      -0.501114       -13.6360
 148   2.0000      -0.499879       -13.6024
 149   2.0000      -0.499052       -13.5799
 150   2.0000      -0.496675       -13.5152
 151   2.0000      -0.493933       -13.4406
 152   2.0000      -0.492889       -13.4122
 153   2.0000      -0.489651       -13.3241
 154   2.0000      -0.486818       -13.2470
 155   2.0000      -0.482900       -13.1404
 156   2.0000      -0.481783       -13.1100
 157   2.0000      -0.478546       -13.0219
 158   2.0000      -0.470787       -12.8108
 159   2.0000      -0.467202       -12.7132
 160   2.0000      -0.462929       -12.5969
 161   2.0000      -0.461590       -12.5605
 162   2.0000      -0.459131       -12.4936
 163   2.0000      -0.456651       -12.4261
 164   2.0000      -0.449793       -12.2395
 165   2.0000      -0.448239       -12.1972
 166   2.0000      -0.443649       -12.0723
 167   2.0000      -0.441034       -12.0012
 168   2.0000      -0.439671       -11.9641
 169   2.0000      -0.438154       -11.9228
 170   2.0000      -0.436611       -11.8808
 171   2.0000      -0.432156       -11.7596
 172   2.0000      -0.426466       -11.6047
 173   2.0000      -0.425286       -11.5726
 174   2.0000      -0.422467       -11.4959
 175   2.0000      -0.420894       -11.4531
 176   2.0000      -0.413483       -11.2514
 177   2.0000      -0.408865       -11.1258
 178   2.0000      -0.406763       -11.0686
 179   2.0000      -0.399115       -10.8605
 180   2.0000      -0.388929       -10.5833
 181   2.0000      -0.385504       -10.4901
 182   2.0000      -0.384586       -10.4651
 183   2.0000      -0.366010        -9.9596
 184   2.0000      -0.356738        -9.7073
 185   2.0000      -0.349244        -9.5034
 186   2.0000      -0.344932        -9.3861
 187   2.0000      -0.344789        -9.3822
 188   2.0000      -0.334106        -9.0915
 189   2.0000      -0.331741        -9.0271
 190   2.0000      -0.328332        -8.9344
 191   2.0000      -0.325880        -8.8676
 192   2.0000      -0.321439        -8.7468
 193   2.0000      -0.306588        -8.3427
 194   2.0000      -0.286916        -7.8074
 195   2.0000      -0.280389        -7.6298
 196   2.0000      -0.275064        -7.4849
 197   2.0000      -0.257331        -7.0023
 198   2.0000      -0.227081        -6.1792
 199   2.0000      -0.217112        -5.9079
 200   0.0000      -0.103074        -2.8048
 201   0.0000      -0.067683        -1.8417
 202   0.0000      -0.049813        -1.3555
 203   0.0000      -0.020106        -0.5471
 204   0.0000      -0.000538        -0.0146

MULLIKEN ATOMIC CHARGES
-----------------------
   0 C :   -0.111452
   1 S :    0.162337
   2 C :   -0.137299
   3 C :    0.152526
   4 C :    0.102648
   5 C :   -0.066375
   6 C :   -0.099641
   7 C :    0.132812
   8 C :    0.219563
   9 O :   -0.310397
  10 C :    0.187357
  11 C :   -0.169763
  12 C :    0.009182
  13 C :   -0.024985
  14 C :    0.077701
  15 C :   -0.097796
  16 C :   -0.066925
  17 C :    0.179598
  18 O :   -0.219653
  19 N :   -0.124240
  20 C :    0.152433
  21 O :   -0.244836
  22 C :    0.197590
  23 O :   -0.151690
  24 C :    0.160529
  25 O :   -0.243483
  26 C :    0.236395
  27 C :    0.059333
  28 F :   -0.145727
  29 S :    0.112935
  30 C :   -0.146422
  31 S :    0.138353
  32 C :   -0.079102
  33 C :   -0.183429
  34 C :    0.015239
  35 C :   -0.046942
  36 C :    0.050848
  37 C :    0.027603
  38 C :   -0.045566
  39 S :    0.134380
  40 C :   -0.054205
  41 C :    0.038801
  42 C :    0.025397
  43 C :    0.003403
  44 S :    0.136533
  45 C :   -0.050710
  46 C :    0.087175
  47 C :    0.040559
  48 C :   -0.025067
  49 C :    0.198087
  50 O :   -0.235043
  51 C :   -0.151346
  52 H :    0.019083
  53 H :   -0.041053
  54 H :    0.000062
  55 H :    0.025546
  56 H :    0.026063
  57 H :    0.034672
  58 H :    0.030197
  59 H :    0.022093
  60 H :   -0.033734
  61 H :   -0.000981
  62 H :   -0.001372
  63 H :    0.139623
  64 H :    0.062439
  65 H :    0.000822
  66 H :   -0.002946
  67 H :   -0.010880
  68 H :   -0.008276
  69 H :   -0.010294
  70 H :   -0.025317
  71 H :   -0.010207
  72 H :   -0.028222
  73 H :    0.005462
Sum of atomic charges:   -0.0000000

LOEWDIN ATOMIC CHARGES
----------------------
   0 C :   -0.174297
   1 S :    0.485575
   2 C :   -0.202338
   3 C :   -0.020367
   4 C :   -0.062958
   5 C :   -0.016928
   6 C :   -0.036987
   7 C :   -0.041339
   8 C :    0.063733
   9 O :   -0.093328
  10 C :    0.078006
  11 C :   -0.085160
  12 C :    0.007458
  13 C :   -0.068752
  14 C :    0.085240
  15 C :   -0.147060
  16 C :   -0.114603
  17 C :    0.080881
  18 O :   -0.204445
  19 N :    0.032705
  20 C :    0.076737
  21 O :   -0.052868
  22 C :    0.098659
  23 O :   -0.161214
  24 C :    0.015217
  25 O :   -0.046415
  26 C :   -0.030150
  27 C :   -0.093751
  28 F :   -0.040137
  29 S :    0.415207
  30 C :   -0.178545
  31 S :    0.393901
  32 C :   -0.211785
  33 C :   -0.203146
  34 C :   -0.058353
  35 C :   -0.155906
  36 C :   -0.011945
  37 C :   -0.042008
  38 C :   -0.153183
  39 S :    0.414673
  40 C :   -0.190733
  41 C :   -0.017722
  42 C :   -0.041294
  43 C :   -0.111973
  44 S :    0.430101
  45 C :   -0.086657
  46 C :    0.005767
  47 C :    0.021585
  48 C :   -0.053671
  49 C :    0.100500
  50 O :   -0.166312
  51 C :   -0.118617
  52 H :    0.025186
  53 H :    0.027635
  54 H :    0.026275
  55 H :    0.036091
  56 H :    0.036203
  57 H :    0.028435
  58 H :    0.020535
  59 H :    0.014411
  60 H :    0.028240
  61 H :    0.036293
  62 H :    0.034451
  63 H :    0.065232
  64 H :    0.036781
  65 H :    0.037324
  66 H :    0.036858
  67 H :    0.032522
  68 H :    0.033950
  69 H :    0.033988
  70 H :    0.031809
  71 H :    0.026575
  72 H :    0.022347
  73 H :    0.017857

  Mayer bond orders larger than 0.100000
B(  0-C ,  1-S ) :   1.2216 B(  0-C ,  4-C ) :   1.4088 B(  0-C , 52-H ) :   0.9677
B(  1-S ,  2-C ) :   1.1197 B(  2-C ,  3-C ) :   1.3128 B(  2-C , 12-C ) :   1.2315
B(  3-C ,  4-C ) :   1.2093 B(  3-C , 11-C ) :   1.1893 B(  4-C ,  5-C ) :   1.1277
B(  5-C ,  6-C ) :   1.6011 B(  5-C , 53-H ) :   1.0042 B(  6-C ,  7-C ) :   1.0703
B(  6-C ,  8-C ) :   1.1979 B(  7-C , 54-H ) :   0.9520 B(  7-C , 55-H ) :   0.9469
B(  7-C , 56-H ) :   0.9478 B(  8-C ,  9-O ) :   1.1863 B(  8-C , 11-C ) :   1.4476
B(  9-O , 10-C ) :   0.9561 B( 10-C , 57-H ) :   0.9743 B( 10-C , 58-H ) :   0.9663
B( 10-C , 59-H ) :   0.9733 B( 11-C , 60-H ) :   0.9909 B( 12-C , 13-C ) :   1.5253
B( 12-C , 61-H ) :   0.9668 B( 13-C , 14-C ) :   1.2349 B( 13-C , 62-H ) :   0.9602
B( 14-C , 15-C ) :   1.2938 B( 14-C , 19-N ) :   1.2072 B( 15-C , 16-C ) :   1.1862
B( 15-C , 22-C ) :   1.0113 B( 16-C , 17-C ) :   0.9396 B( 16-C , 20-C ) :   1.4638
B( 17-C , 18-O ) :   1.9974 B( 17-C , 19-N ) :   1.1497 B( 19-N , 63-H ) :   0.8524
B( 20-C , 21-O ) :   1.1835 B( 20-C , 24-C ) :   1.0870 B( 21-O , 22-C ) :   0.9753
B( 22-C , 23-O ) :   2.2377 B( 24-C , 25-O ) :   1.0706 B( 24-C , 30-C ) :   1.7425
B( 25-O , 26-C ) :   1.0897 B( 26-C , 27-C ) :   1.4817 B( 26-C , 32-C ) :   1.1902
B( 27-C , 28-F ) :   1.1604 B( 27-C , 29-S ) :   1.1134 B( 29-S , 33-C ) :   1.0821
B( 30-C , 31-S ) :   1.0172 B( 30-C , 64-H ) :   0.8913 B( 31-S , 32-C ) :   1.0199
B( 32-C , 33-C ) :   1.5176 B( 33-C , 34-C ) :   1.1469 B( 34-C , 35-C ) :   1.6186
B( 34-C , 65-H ) :   0.9532 B( 35-C , 36-C ) :   1.1313 B( 35-C , 39-S ) :   1.0439
B( 36-C , 37-C ) :   1.6102 B( 36-C , 66-H ) :   0.9969 B( 37-C , 38-C ) :   1.1703
B( 37-C , 67-H ) :   0.9927 B( 38-C , 39-S ) :   1.0877 B( 38-C , 40-C ) :   1.4899
B( 40-C , 41-C ) :   1.1973 B( 40-C , 44-S ) :   1.0399 B( 41-C , 42-C ) :   1.5653
B( 41-C , 68-H ) :   0.9942 B( 42-C , 43-C ) :   1.1623 B( 42-C , 69-H ) :   1.0003
B( 43-C , 44-S ) :   1.0912 B( 43-C , 45-C ) :   1.4903 B( 45-C , 46-C ) :   1.2104
B( 45-C , 70-H ) :   0.9656 B( 46-C , 47-C ) :   0.9868 B( 46-C , 51-C ) :   1.5165
B( 47-C , 48-C ) :   1.7710 B( 47-C , 71-H ) :   1.0048 B( 48-C , 49-C ) :   0.9887
B( 48-C , 72-H ) :   1.0099 B( 49-C , 50-O ) :   1.8763 B( 49-C , 51-C ) :   1.0701
B( 50-O , 63-H ) :   0.1363 B( 51-C , 73-H ) :   1.0010

-----------------------------------------------------------------------------
         ABSORPTION SPECTRUM VIA TRANSITION ELECTRIC DIPOLE MOMENTS
-----------------------------------------------------------------------------
State   Energy  Wavelength   fosc         T2         TX        TY        TZ
        (cm-1)    (nm)                  (au**2)     (au)      (au)      (au)
-----------------------------------------------------------------------------
   0   10739.2    931.2   0.007557687   0.23168   0.02839   0.41247   0.24647
   1   12865.0    777.3   0.411063953  10.51901   0.93843  -2.68237   1.56309
   2   17398.0    574.8   1.257881328  23.80215   0.27696  -4.70449   1.26223
   3   18741.8    533.6   0.256356249   4.50307  -0.17099  -2.01718   0.63624
   4   20566.3    486.2   0.021910025   0.35072   0.15102   0.29971   0.48795
   5   22194.7    450.6   0.003134284   0.04649   0.17349   0.11294  -0.06030
   6   22472.5    445.0   0.101206148   1.48263   0.48508   0.52241   0.98712
   7   23020.2    434.4   0.005807674   0.08306   0.05661   0.26589  -0.09568
   8   23338.1    428.5   0.441921775   6.23383  -1.02115   0.33508  -2.25362
   9   25274.4    395.7   0.028951115   0.37710  -0.09324   0.53960  -0.27792
  10   26671.3    374.9   0.001623305   0.02004  -0.02067  -0.12894  -0.05462
  11   26813.7    372.9   0.019855166   0.24378   0.04062  -0.47966   0.10980
  12   27138.9    368.5   0.068995426   0.83696  -0.14858  -0.87282  -0.23037
  13   27907.5    358.3   0.149060395   1.75840   0.63528   0.93651   0.69120
  14   29053.7    344.2   0.000112024   0.00127   0.02579   0.00784  -0.02329
  15   29604.1    337.8   0.013349157   0.14845   0.07734   0.27359   0.26003
  16   30796.0    324.7   0.017731079   0.18955  -0.26267  -0.32918   0.11041
  17   30967.6    322.9   0.035134596   0.37351  -0.17304  -0.56216  -0.16595
  18   31270.2    319.8   0.047846496   0.50373  -0.29905   0.61345   0.19486
  19   31698.2    315.5   0.053055794   0.55103   0.56989   0.02921   0.47477
  20   32033.1    312.2   0.008592276   0.08830  -0.03574   0.24193  -0.16881
  21   32421.9    308.4   0.030092079   0.30555  -0.12303  -0.47793  -0.24899
  22   33144.1    301.7   0.015020334   0.14919   0.06764   0.37740   0.04678
  23   33273.4    300.5   0.081276373   0.80416   0.26266   0.81457   0.26767
  24   33634.3    297.3   0.133748351   1.30913   0.64917   0.41512   0.84580
  25   33760.5    296.2   0.211748231   2.06484   0.41600   1.07589   0.85688
  26   34398.1    290.7   0.109757714   1.05045  -0.81935   0.34857  -0.50757
  27   34799.0    287.4   0.037899306   0.35854  -0.16351   0.56983  -0.08427
  28   35012.3    285.6   0.016769490   0.15768  -0.12960   0.26957   0.26118
  29   35830.6    279.1   0.049571939   0.45547   0.24095   0.62918  -0.03934
  30   36194.1    276.3   0.000390356   0.00355   0.00769   0.04962   0.03209
  31   36269.1    275.7   0.006957088   0.06315   0.01958  -0.02687   0.24909
  32   36701.0    272.5   0.114862327   1.03033   0.47475   0.27028   0.85550
  33   36734.1    272.2   0.000182025   0.00163  -0.02025   0.00787  -0.03405
  34   37430.4    267.2   0.025630730   0.22543  -0.26942   0.11107  -0.37484
  35   37619.5    265.8   0.030559597   0.26743  -0.02494   0.48616   0.17451
  36   38156.3    262.1   0.000249349   0.00215   0.00535  -0.04373   0.01450
  37   39148.2    255.4   0.056227980   0.47284  -0.30094   0.56604  -0.24874
  38   39253.6    254.8   0.058050334   0.48686  -0.38335   0.28558  -0.50827
  39   39645.8    252.2   0.045352122   0.37660   0.14841  -0.58996   0.08071
  40   39867.7    250.8   0.012411539   0.10249  -0.29632  -0.12006   0.01650
  41   40180.5    248.9   0.004623070   0.03788   0.09491   0.13091   0.10832

FINAL SINGLE POINT ENERGY     -4092.977134395836

DIPOLE MOMENT
-------------
                                X             Y             Z
Electronic contribution:     22.48575     -63.26960      37.01588
Nuclear contribution   :    -24.39954      62.45532     -40.81330
                        -----------------------------------------
Total Dipole Moment    :     -1.91379      -0.81429      -3.79742
                        -----------------------------------------
Magnitude (a.u.)       :      4.32967
Magnitude (Debye)      :     11.00516

Rotational constants in cm-1:     0.002315     0.000801     0.000614
Rotational constants in MHz :    69.401540    24.012749    18.399233

                             ****ORCA TERMINATED NORMALLY****
TOTAL RUN TIME: 0 days 0 hours 12 minutes 26 seconds 406 msec
