                         Program Version 4.2.0 -  RELEASE  -
|  1> # ORCA input file
|  2> # SCF done       -163.836228413008          0.000923471621
|  3> ! CAM-B3LYP def2-SVP def2/J RIJCOSX Grid4 TightSCF
|  4> %maxcore 5000
|  5> %tddft
|  6>     Mode sTDDFT
|  7>     Ethresh 5.0
|  8>     maxcore 5000
|  9> end
| 10>
| 11> %pal
| 12>   nprocs 6
| 13>   end
| 14> * xyz 0 1
| 15>    C       -2.17807        -0.88201        -3.76365
| 16>    S       -2.37322        -2.54949        -3.51125
| 17>    C       -3.84376        -2.32737        -2.58873
| 18>    C       -4.16412        -0.95810        -2.51598
| 19>    C       -3.19327        -0.14549        -3.19022
| 20>    C       -3.34160         1.26060        -3.22369
| 21>    C       -4.41434         1.85445        -2.63546
| 22>    C       -4.61640         3.33498        -2.64785
| 23>    C       -5.39997         1.04132        -1.98498
| 24>    O       -6.42971         1.74446        -1.46335
| 25>    C       -7.47881         1.05720        -0.81796
| 26>    C       -5.27423        -0.32772        -1.92441
| 27>    C       -4.42686        -3.50649        -2.09112
| 28>    C       -5.47603        -3.65731        -1.23097
| 29>    C       -5.94719        -4.91553        -0.81266
| 30>    S       -5.23998        -6.38626        -1.41182
| 31>    C       -6.29769        -7.39991        -0.47529
| 32>    C       -7.17165        -6.61623         0.29600
| 33>    C       -6.97958        -5.20926         0.09976
| 34>    C       -7.80027        -4.29907         0.81098
| 35>    C       -7.71823        -2.90025         0.66538
| 36>    N       -7.72856        -1.75388         0.59462
| 37>    C       -8.75664        -4.77093         1.69656
| 38>    C       -8.93035        -6.13641         1.89744
| 39>    C       -8.15970        -7.06053         1.21096
| 40>    C       -8.42525        -8.42073         1.47910
| 41>    N       -8.71731        -9.49747         1.75120
| 42>    C       -6.20266        -8.79811        -0.52413
| 43>    C       -5.32425        -9.49755        -1.29780
| 44>    C       -5.21401       -10.90284        -1.27626
| 45>    S       -4.73312       -11.73802        -2.72023
| 46>    C       -5.07367       -13.30408        -2.04542
| 47>    C       -5.49593       -13.18049        -0.71041
| 48>    C       -5.52553       -11.82060        -0.25797
| 49>    C       -5.73106       -11.55501         1.12107
| 50>    C       -5.47380       -10.29859         1.71389
| 51>    N       -5.20070        -9.33852         2.28064
| 52>    C       -6.06410       -12.59112         1.97614
| 53>    C       -6.16277       -13.89911         1.50802
| 54>    C       -5.85248       -14.21390         0.19532
| 55>    C       -5.92779       -15.57982        -0.15473
| 56>    N       -6.04094       -16.70660        -0.34473
| 57>    C       -4.89050       -14.48372        -2.79231
| 58>    C       -4.45579       -14.51664        -4.08116
| 59>    C       -4.18538       -15.68862        -4.84228
| 60>    C       -3.85334       -16.91758        -4.32518
| 61>    O       -3.72788       -18.04626        -5.10712
| 62>    C       -3.87462       -17.84795        -6.44612
| 63>    C       -4.12969       -16.55629        -6.99457
| 64>    C       -4.21658       -16.56696        -8.34700
| 65>    S       -3.99035       -18.15766        -8.97575
| 66>    C       -3.77539       -18.81163        -7.39503
| 67>    O       -4.28421       -15.45661        -6.20566
| 68>    C       -3.54191       -17.12868        -2.94345
| 69>    C       -3.55790       -18.32279        -2.32411
| 70>    C       -3.25175       -18.44387        -0.91578
| 71>    N       -2.93070       -17.33256        -0.24057
| 72>    C       -2.71103       -17.46513         1.05197
| 73>    C       -2.79121       -18.68550         1.70381
| 74>    C       -3.10405       -19.79775         0.91424
| 75>    N       -3.33137       -19.66036        -0.38881
| 76>    C       -3.18736       -21.13435         1.49203
| 77>    C       -3.47921       -22.21332         0.77676
| 78>    H       -1.33697        -0.51407        -4.31726
| 79>    H       -2.59189         1.85114        -3.72869
| 80>    H       -3.80450         3.83192        -3.17190
| 81>    H       -4.67087         3.71200        -1.62772
| 82>    H       -5.56056         3.57838        -3.13284
| 83>    H       -8.17877         1.82746        -0.49872
| 84>    H       -7.12513         0.50174         0.05286
| 85>    H       -7.98505         0.36845        -1.50043
| 86>    H       -6.02925        -0.91588        -1.43427
| 87>    H       -3.94297        -4.41661        -2.43051
| 88>    H       -5.96982        -2.79730        -0.81524
| 89>    H       -9.37236        -4.06620         2.23494
| 90>    H       -9.67703        -6.48465         2.59508
| 91>    H       -6.90502        -9.34266         0.08638
| 92>    H       -4.72739        -8.97026        -2.03152
| 93>    H       -6.23110       -12.38005         3.02127
| 94>    H       -6.44529       -14.69030         2.18632
| 95>    H       -5.13818       -15.40459        -2.28953
| 96>    H       -4.35896       -13.59023        -4.63344
| 97>    H       -4.39878       -15.74212        -9.00321
| 98>    H       -3.58937       -19.85586        -7.25683
| 99>    H       -3.24653       -16.26406        -2.36900
|100>    H       -3.85280       -19.22879        -2.82932
|101>    H       -2.45901       -16.55432         1.58364
|102>    H       -2.61568       -18.77624         2.76380
|103>    H       -2.99400       -21.19710         2.55494
|104>    H       -3.66872       -22.12644        -0.27932
|105>    H       -3.53644       -23.19403         1.21696
|106> *
|107>
|108>                          ****END OF INPUT****

CARTESIAN COORDINATES (ANGSTROEM)
---------------------------------
  C     -2.178070   -0.882010   -3.763650
  S     -2.373220   -2.549490   -3.511250
  C     -3.843760   -2.327370   -2.588730
  C     -4.164120   -0.958100   -2.515980
  C     -3.193270   -0.145490   -3.190220
  C     -3.341600    1.260600   -3.223690
  C     -4.414340    1.854450   -2.635460
  C     -4.616400    3.334980   -2.647850
  C     -5.399970    1.041320   -1.984980
  O     -6.429710    1.744460   -1.463350
  C     -7.478810    1.057200   -0.817960
  C     -5.274230   -0.327720   -1.924410
  C     -4.426860   -3.506490   -2.091120
  C     -5.476030   -3.657310   -1.230970
  C     -5.947190   -4.915530   -0.812660
  S     -5.239980   -6.386260   -1.411820
  C     -6.297690   -7.399910   -0.475290
  C     -7.171650   -6.616230    0.296000
  C     -6.979580   -5.209260    0.099760
  C     -7.800270   -4.299070    0.810980
  C     -7.718230   -2.900250    0.665380
  N     -7.728560   -1.753880    0.594620
  C     -8.756640   -4.770930    1.696560
  C     -8.930350   -6.136410    1.897440
  C     -8.159700   -7.060530    1.210960
  C     -8.425250   -8.420730    1.479100
  N     -8.717310   -9.497470    1.751200
  C     -6.202660   -8.798110   -0.524130
  C     -5.324250   -9.497550   -1.297800
  C     -5.214010  -10.902840   -1.276260
  S     -4.733120  -11.738020   -2.720230
  C     -5.073670  -13.304080   -2.045420
  C     -5.495930  -13.180490   -0.710410
  C     -5.525530  -11.820600   -0.257970
  C     -5.731060  -11.555010    1.121070
  C     -5.473800  -10.298590    1.713890
  N     -5.200700   -9.338520    2.280640
  C     -6.064100  -12.591120    1.976140
  C     -6.162770  -13.899110    1.508020
  C     -5.852480  -14.213900    0.195320
  C     -5.927790  -15.579820   -0.154730
  N     -6.040940  -16.706600   -0.344730
  C     -4.890500  -14.483720   -2.792310
  C     -4.455790  -14.516640   -4.081160
  C     -4.185380  -15.688620   -4.842280
  C     -3.853340  -16.917580   -4.325180
  O     -3.727880  -18.046260   -5.107120
  C     -3.874620  -17.847950   -6.446120
  C     -4.129690  -16.556290   -6.994570
  C     -4.216580  -16.566960   -8.347000
  S     -3.990350  -18.157660   -8.975750
  C     -3.775390  -18.811630   -7.395030
  O     -4.284210  -15.456610   -6.205660
  C     -3.541910  -17.128680   -2.943450
  C     -3.557900  -18.322790   -2.324110
  C     -3.251750  -18.443870   -0.915780
  N     -2.930700  -17.332560   -0.240570
  C     -2.711030  -17.465130    1.051970
  C     -2.791210  -18.685500    1.703810
  C     -3.104050  -19.797750    0.914240
  N     -3.331370  -19.660360   -0.388810
  C     -3.187360  -21.134350    1.492030
  C     -3.479210  -22.213320    0.776760
  H     -1.336970   -0.514070   -4.317260
  H     -2.591890    1.851140   -3.728690
  H     -3.804500    3.831920   -3.171900
  H     -4.670870    3.712000   -1.627720
  H     -5.560560    3.578380   -3.132840
  H     -8.178770    1.827460   -0.498720
  H     -7.125130    0.501740    0.052860
  H     -7.985050    0.368450   -1.500430
  H     -6.029250   -0.915880   -1.434270
  H     -3.942970   -4.416610   -2.430510
  H     -5.969820   -2.797300   -0.815240
  H     -9.372360   -4.066200    2.234940
  H     -9.677030   -6.484650    2.595080
  H     -6.905020   -9.342660    0.086380
  H     -4.727390   -8.970260   -2.031520
  H     -6.231100  -12.380050    3.021270
  H     -6.445290  -14.690300    2.186320
  H     -5.138180  -15.404590   -2.289530
  H     -4.358960  -13.590230   -4.633440
  H     -4.398780  -15.742120   -9.003210
  H     -3.589370  -19.855860   -7.256830
  H     -3.246530  -16.264060   -2.369000
  H     -3.852800  -19.228790   -2.829320
  H     -2.459010  -16.554320    1.583640
  H     -2.615680  -18.776240    2.763800
  H     -2.994000  -21.197100    2.554940
  H     -3.668720  -22.126440   -0.279320
  H     -3.536440  -23.194030    1.216960

 Total Charge           Charge          ....    0
 Multiplicity           Mult            ....    1
 Number of Electrons    NEL             ....  458
 Basis Dimension        Dim             .... 1038

ORBITAL ENERGIES
----------------

  NO   OCC          E(Eh)            E(eV)
   0   2.0000     -88.973938     -2421.1039
   1   2.0000     -88.972666     -2421.0693
   2   2.0000     -88.964259     -2420.8406
   3   2.0000     -88.948807     -2420.4201
   4   2.0000     -19.264021      -524.2007
   5   2.0000     -19.263505      -524.1866
   6   2.0000     -19.244945      -523.6816
   7   2.0000     -14.426840      -392.5743
   8   2.0000     -14.416565      -392.2947
   9   2.0000     -14.409396      -392.0996
  10   2.0000     -14.406093      -392.0097
  11   2.0000     -14.391631      -391.6162
  12   2.0000     -14.389331      -391.5536
  13   2.0000     -10.336627      -281.2739
  14   2.0000     -10.335113      -281.2327
  15   2.0000     -10.334672      -281.2207
  16   2.0000     -10.333508      -281.1891
  17   2.0000     -10.331898      -281.1452
  18   2.0000     -10.331409      -281.1319
  19   2.0000     -10.331012      -281.1211
  20   2.0000     -10.328518      -281.0533
  21   2.0000     -10.326154      -280.9889
  22   2.0000     -10.325823      -280.9799
  23   2.0000     -10.324801      -280.9521
  24   2.0000     -10.324401      -280.9412
  25   2.0000     -10.318314      -280.7756
  26   2.0000     -10.316657      -280.7305
  27   2.0000     -10.313598      -280.6473
  28   2.0000     -10.312791      -280.6253
  29   2.0000     -10.311221      -280.5826
  30   2.0000     -10.310783      -280.5707
  31   2.0000     -10.309807      -280.5441
  32   2.0000     -10.309715      -280.5416
  33   2.0000     -10.309334      -280.5313
  34   2.0000     -10.308695      -280.5139
  35   2.0000     -10.307727      -280.4875
  36   2.0000     -10.307000      -280.4677
  37   2.0000     -10.306304      -280.4488
  38   2.0000     -10.306276      -280.4480
  39   2.0000     -10.304718      -280.4056
  40   2.0000     -10.303128      -280.3624
  41   2.0000     -10.301074      -280.3065
  42   2.0000     -10.300955      -280.3032
  43   2.0000     -10.299751      -280.2705
  44   2.0000     -10.295676      -280.1596
  45   2.0000     -10.290297      -280.0132
  46   2.0000     -10.287709      -279.9428
  47   2.0000     -10.285281      -279.8767
  48   2.0000     -10.285138      -279.8728
  49   2.0000     -10.285045      -279.8703
  50   2.0000     -10.283984      -279.8414
  51   2.0000     -10.282123      -279.7908
  52   2.0000     -10.280920      -279.7581
  53   2.0000     -10.278263      -279.6858
  54   2.0000     -10.277048      -279.6527
  55   2.0000     -10.272874      -279.5391
  56   2.0000     -10.268295      -279.4145
  57   2.0000     -10.266501      -279.3657
  58   2.0000     -10.264422      -279.3091
  59   2.0000     -10.264123      -279.3010
  60   2.0000     -10.261189      -279.2211
  61   2.0000     -10.258038      -279.1354
  62   2.0000     -10.255045      -279.0540
  63   2.0000      -8.068845      -219.5644
  64   2.0000      -8.067905      -219.5389
  65   2.0000      -8.059881      -219.3205
  66   2.0000      -8.044616      -218.9051
  67   2.0000      -6.037832      -164.2978
  68   2.0000      -6.036789      -164.2694
  69   2.0000      -6.033854      -164.1895
  70   2.0000      -6.032850      -164.1622
  71   2.0000      -6.031530      -164.1263
  72   2.0000      -6.030682      -164.1032
  73   2.0000      -6.028815      -164.0524
  74   2.0000      -6.024649      -163.9390
  75   2.0000      -6.022809      -163.8890
  76   2.0000      -6.014144      -163.6532
  77   2.0000      -6.009979      -163.5399
  78   2.0000      -6.006259      -163.4386
  79   2.0000      -1.190169       -32.3861
  80   2.0000      -1.153264       -31.3819
  81   2.0000      -1.149190       -31.2711
  82   2.0000      -1.064494       -28.9664
  83   2.0000      -1.025273       -27.8991
  84   2.0000      -1.017936       -27.6994
  85   2.0000      -1.009833       -27.4789
  86   2.0000      -0.998929       -27.1822
  87   2.0000      -0.994714       -27.0675
  88   2.0000      -0.992451       -27.0060
  89   2.0000      -0.989222       -26.9181
  90   2.0000      -0.977122       -26.5889
  91   2.0000      -0.963963       -26.2308
  92   2.0000      -0.961485       -26.1633
  93   2.0000      -0.954167       -25.9642
  94   2.0000      -0.932763       -25.3818
  95   2.0000      -0.928494       -25.2656
  96   2.0000      -0.920152       -25.0386
  97   2.0000      -0.908643       -24.7254
  98   2.0000      -0.896129       -24.3849
  99   2.0000      -0.894417       -24.3383
 100   2.0000      -0.885730       -24.1019
 101   2.0000      -0.871234       -23.7075
 102   2.0000      -0.862209       -23.4619
 103   2.0000      -0.853870       -23.2350
 104   2.0000      -0.852339       -23.1933
 105   2.0000      -0.850089       -23.1321
 106   2.0000      -0.842068       -22.9138
 107   2.0000      -0.836006       -22.7489
 108   2.0000      -0.823873       -22.4187
 109   2.0000      -0.814397       -22.1609
 110   2.0000      -0.807659       -21.9775
 111   2.0000      -0.797040       -21.6886
 112   2.0000      -0.784325       -21.3426
 113   2.0000      -0.780901       -21.2494
 114   2.0000      -0.774528       -21.0760
 115   2.0000      -0.773407       -21.0455
 116   2.0000      -0.766370       -20.8540
 117   2.0000      -0.751447       -20.4479
 118   2.0000      -0.737553       -20.0698
 119   2.0000      -0.733668       -19.9641
 120   2.0000      -0.721541       -19.6341
 121   2.0000      -0.714890       -19.4531
 122   2.0000      -0.698578       -19.0093
 123   2.0000      -0.695090       -18.9144
 124   2.0000      -0.684147       -18.6166
 125   2.0000      -0.682382       -18.5686
 126   2.0000      -0.681499       -18.5445
 127   2.0000      -0.675215       -18.3735
 128   2.0000      -0.668618       -18.1940
 129   2.0000      -0.659970       -17.9587
 130   2.0000      -0.655413       -17.8347
 131   2.0000      -0.651019       -17.7151
 132   2.0000      -0.642814       -17.4919
 133   2.0000      -0.640976       -17.4419
 134   2.0000      -0.633068       -17.2266
 135   2.0000      -0.627896       -17.0859
 136   2.0000      -0.611652       -16.6439
 137   2.0000      -0.602550       -16.3962
 138   2.0000      -0.599286       -16.3074
 139   2.0000      -0.597998       -16.2723
 140   2.0000      -0.592287       -16.1170
 141   2.0000      -0.590690       -16.0735
 142   2.0000      -0.589840       -16.0504
 143   2.0000      -0.582591       -15.8531
 144   2.0000      -0.570883       -15.5345
 145   2.0000      -0.565777       -15.3956
 146   2.0000      -0.563529       -15.3344
 147   2.0000      -0.556825       -15.1520
 148   2.0000      -0.555138       -15.1061
 149   2.0000      -0.553665       -15.0660
 150   2.0000      -0.548904       -14.9364
 151   2.0000      -0.546420       -14.8688
 152   2.0000      -0.540141       -14.6980
 153   2.0000      -0.534130       -14.5344
 154   2.0000      -0.532730       -14.4963
 155   2.0000      -0.531278       -14.4568
 156   2.0000      -0.529575       -14.4105
 157   2.0000      -0.527469       -14.3532
 158   2.0000      -0.518775       -14.1166
 159   2.0000      -0.516560       -14.0563
 160   2.0000      -0.509841       -13.8735
 161   2.0000      -0.508973       -13.8499
 162   2.0000      -0.507569       -13.8116
 163   2.0000      -0.503718       -13.7069
 164   2.0000      -0.500574       -13.6213
 165   2.0000      -0.499808       -13.6005
 166   2.0000      -0.495220       -13.4756
 167   2.0000      -0.492541       -13.4027
 168   2.0000      -0.490694       -13.3524
 169   2.0000      -0.489340       -13.3156
 170   2.0000      -0.485877       -13.2214
 171   2.0000      -0.483891       -13.1673
 172   2.0000      -0.481553       -13.1037
 173   2.0000      -0.479455       -13.0466
 174   2.0000      -0.476864       -12.9761
 175   2.0000      -0.475354       -12.9351
 176   2.0000      -0.473876       -12.8948
 177   2.0000      -0.473183       -12.8760
 178   2.0000      -0.472099       -12.8465
 179   2.0000      -0.469611       -12.7788
 180   2.0000      -0.468266       -12.7422
 181   2.0000      -0.466419       -12.6919
 182   2.0000      -0.463846       -12.6219
 183   2.0000      -0.461539       -12.5591
 184   2.0000      -0.460303       -12.5255
 185   2.0000      -0.455823       -12.4036
 186   2.0000      -0.451516       -12.2864
 187   2.0000      -0.446611       -12.1529
 188   2.0000      -0.443145       -12.0586
 189   2.0000      -0.439254       -11.9527
 190   2.0000      -0.438350       -11.9281
 191   2.0000      -0.437236       -11.8978
 192   2.0000      -0.434649       -11.8274
 193   2.0000      -0.432322       -11.7641
 194   2.0000      -0.431406       -11.7392
 195   2.0000      -0.427541       -11.6340
 196   2.0000      -0.426575       -11.6077
 197   2.0000      -0.424439       -11.5496
 198   2.0000      -0.422923       -11.5083
 199   2.0000      -0.417518       -11.3612
 200   2.0000      -0.416410       -11.3311
 201   2.0000      -0.414490       -11.2788
 202   2.0000      -0.409695       -11.1484
 203   2.0000      -0.408179       -11.1071
 204   2.0000      -0.406737       -11.0679
 205   2.0000      -0.403627       -10.9833
 206   2.0000      -0.401335       -10.9209
 207   2.0000      -0.399168       -10.8619
 208   2.0000      -0.395792       -10.7701
 209   2.0000      -0.393238       -10.7006
 210   2.0000      -0.381266       -10.3748
 211   2.0000      -0.380233       -10.3467
 212   2.0000      -0.368257       -10.0208
 213   2.0000      -0.362906        -9.8752
 214   2.0000      -0.358977        -9.7683
 215   2.0000      -0.341826        -9.3016
 216   2.0000      -0.339388        -9.2352
 217   2.0000      -0.336292        -9.1510
 218   2.0000      -0.333831        -9.0840
 219   2.0000      -0.330419        -8.9912
 220   2.0000      -0.312790        -8.5114
 221   2.0000      -0.307589        -8.3699
 222   2.0000      -0.301596        -8.2068
 223   2.0000      -0.291770        -7.9395
 224   2.0000      -0.288185        -7.8419
 225   2.0000      -0.285040        -7.7563
 226   2.0000      -0.263367        -7.1666
 227   2.0000      -0.236767        -6.4428
 228   2.0000      -0.210628        -5.7315
 229   0.0000      -0.098289        -2.6746
 230   0.0000      -0.074249        -2.0204
 231   0.0000      -0.044819        -1.2196
 232   0.0000      -0.037329        -1.0158
 233   0.0000      -0.018684        -0.5084

MULLIKEN ATOMIC CHARGES
-----------------------
   0 C :   -0.113439
   1 S :    0.146149
   2 C :   -0.162884
   3 C :    0.175856
   4 C :    0.090614
   5 C :   -0.068064
   6 C :   -0.100050
   7 C :    0.134155
   8 C :    0.221952
   9 O :   -0.307117
  10 C :    0.181761
  11 C :   -0.166488
  12 C :    0.060493
  13 C :   -0.040016
  14 C :   -0.101005
  15 S :    0.132774
  16 C :   -0.136537
  17 C :    0.183964
  18 C :    0.147121
  19 C :   -0.094607
  20 C :   -0.159473
  21 N :    0.098687
  22 C :    0.015064
  23 C :    0.018607
  24 C :   -0.096504
  25 C :   -0.157790
  26 N :    0.096334
  27 C :    0.004289
  28 C :    0.015799
  29 C :   -0.148675
  30 S :    0.166891
  31 C :   -0.147204
  32 C :    0.163089
  33 C :    0.153133
  34 C :   -0.076867
  35 C :   -0.206450
  36 N :    0.113764
  37 C :    0.022017
  38 C :    0.020036
  39 C :   -0.098311
  40 C :   -0.167025
  41 N :    0.106088
  42 C :   -0.027213
  43 C :   -0.021606
  44 C :    0.166314
  45 C :    0.160586
  46 O :   -0.246797
  47 C :    0.215557
  48 C :    0.219987
  49 C :   -0.174666
  50 S :    0.101752
  51 C :   -0.173106
  52 O :   -0.255121
  53 C :   -0.041966
  54 C :    0.042442
  55 C :   -0.038291
  56 N :   -0.091472
  57 C :    0.085970
  58 C :   -0.052891
  59 C :    0.038822
  60 N :   -0.055938
  61 C :   -0.018040
  62 C :    0.034573
  63 H :    0.020424
  64 H :   -0.039055
  65 H :   -0.000491
  66 H :    0.027218
  67 H :    0.026673
  68 H :    0.026286
  69 H :    0.044264
  70 H :    0.021147
  71 H :   -0.045583
  72 H :   -0.012827
  73 H :   -0.017118
  74 H :    0.003407
  75 H :    0.005665
  76 H :    0.017261
  77 H :   -0.010344
  78 H :    0.006265
  79 H :    0.003455
  80 H :    0.035703
  81 H :    0.004985
  82 H :    0.022233
  83 H :    0.025564
  84 H :    0.034267
  85 H :   -0.010829
  86 H :   -0.004091
  87 H :   -0.013066
  88 H :   -0.020121
  89 H :    0.038090
  90 H :    0.021585
Sum of atomic charges:   -0.0000000

LOEWDIN ATOMIC CHARGES
----------------------
   0 C :   -0.179393
   1 S :    0.475114
   2 C :   -0.194977
   3 C :   -0.024614
   4 C :   -0.059803
   5 C :   -0.016582
   6 C :   -0.034701
   7 C :   -0.040737
   8 C :    0.071167
   9 O :   -0.088935
  10 C :    0.074365
  11 C :   -0.087651
  12 C :   -0.022568
  13 C :   -0.080615
  14 C :   -0.141256
  15 S :    0.483009
  16 C :   -0.177034
  17 C :   -0.019775
  18 C :   -0.040785
  19 C :   -0.046344
  20 C :   -0.003500
  21 N :   -0.058198
  22 C :    0.005689
  23 C :    0.014896
  24 C :   -0.042022
  25 C :   -0.016022
  26 N :   -0.057480
  27 C :   -0.018540
  28 C :   -0.069353
  29 C :   -0.161104
  30 S :    0.487899
  31 C :   -0.172673
  32 C :   -0.027408
  33 C :   -0.036400
  34 C :   -0.042172
  35 C :   -0.021701
  36 N :   -0.058374
  37 C :    0.012846
  38 C :    0.013501
  39 C :   -0.046198
  40 C :   -0.023146
  41 N :   -0.048684
  42 C :   -0.035043
  43 C :   -0.035366
  44 C :    0.019851
  45 C :    0.028247
  46 O :   -0.049236
  47 C :   -0.007132
  48 C :   -0.007359
  49 C :   -0.212755
  50 S :    0.429933
  51 C :   -0.210708
  52 O :   -0.062408
  53 C :   -0.010620
  54 C :   -0.022823
  55 C :    0.037703
  56 N :   -0.092927
  57 C :    0.047418
  58 C :   -0.075142
  59 C :    0.037132
  60 N :   -0.085558
  61 C :   -0.045317
  62 C :    0.003948
  63 H :    0.025476
  64 H :    0.028391
  65 H :    0.026002
  66 H :    0.037360
  67 H :    0.037037
  68 H :    0.026338
  69 H :    0.017055
  70 H :    0.016124
  71 H :    0.028450
  72 H :    0.018133
  73 H :    0.033219
  74 H :    0.043829
  75 H :    0.045455
  76 H :    0.040091
  77 H :    0.021402
  78 H :    0.045690
  79 H :    0.044334
  80 H :    0.044762
  81 H :    0.027473
  82 H :    0.027946
  83 H :    0.029151
  84 H :    0.038252
  85 H :    0.032934
  86 H :    0.021790
  87 H :    0.029718
  88 H :    0.026148
  89 H :    0.030284
  90 H :    0.025572

  Mayer bond orders larger than 0.100000
B(  0-C ,  1-S ) :   1.2168 B(  0-C ,  4-C ) :   1.4013 B(  0-C , 63-H ) :   0.9695
B(  1-S ,  2-C ) :   1.1345 B(  2-C ,  3-C ) :   1.3135 B(  2-C , 12-C ) :   1.2127
B(  3-C ,  4-C ) :   1.2103 B(  3-C , 11-C ) :   1.1777 B(  4-C ,  5-C ) :   1.1360
B(  5-C ,  6-C ) :   1.5935 B(  5-C , 64-H ) :   1.0059 B(  6-C ,  7-C ) :   1.0697
B(  6-C ,  8-C ) :   1.1950 B(  7-C , 65-H ) :   0.9525 B(  7-C , 66-H ) :   0.9470
B(  7-C , 67-H ) :   0.9465 B(  8-C ,  9-O ) :   1.2097 B(  8-C , 11-C ) :   1.4485
B(  9-O , 10-C ) :   0.9407 B( 10-C , 68-H ) :   0.9737 B( 10-C , 69-H ) :   0.9635
B( 10-C , 70-H ) :   0.9689 B( 11-C , 71-H ) :   0.9951 B( 12-C , 13-C ) :   1.5702
B( 12-C , 72-H ) :   0.9418 B( 13-C , 14-C ) :   1.2359 B( 13-C , 73-H ) :   0.9563
B( 14-C , 15-S ) :   1.1406 B( 14-C , 18-C ) :   1.3064 B( 15-S , 16-C ) :   1.0986
B( 16-C , 17-C ) :   1.3355 B( 16-C , 27-C ) :   1.2616 B( 17-C , 18-C ) :   1.1774
B( 17-C , 24-C ) :   1.2139 B( 18-C , 19-C ) :   1.2224 B( 19-C , 20-C ) :   1.0884
B( 19-C , 22-C ) :   1.5092 B( 20-C , 21-N ) :   2.9675 B( 22-C , 23-C ) :   1.2144
B( 22-C , 74-H ) :   0.9938 B( 23-C , 24-C ) :   1.5212 B( 23-C , 75-H ) :   0.9930
B( 24-C , 25-C ) :   1.0946 B( 25-C , 26-N ) :   2.9438 B( 27-C , 28-C ) :   1.5836
B( 27-C , 76-H ) :   0.9384 B( 28-C , 29-C ) :   1.1632 B( 28-C , 77-H ) :   0.9495
B( 29-C , 30-S ) :   1.1476 B( 29-C , 33-C ) :   1.3292 B( 30-S , 31-C ) :   1.1259
B( 31-C , 32-C ) :   1.3344 B( 31-C , 42-C ) :   1.2070 B( 32-C , 33-C ) :   1.1880
B( 32-C , 39-C ) :   1.2081 B( 33-C , 34-C ) :   1.2175 B( 34-C , 35-C ) :   1.0938
B( 34-C , 37-C ) :   1.5227 B( 35-C , 36-N ) :   3.0011 B( 37-C , 38-C ) :   1.2092
B( 37-C , 78-H ) :   0.9929 B( 38-C , 39-C ) :   1.5302 B( 38-C , 79-H ) :   0.9918
B( 39-C , 40-C ) :   1.0876 B( 40-C , 41-N ) :   2.9450 B( 42-C , 43-C ) :   1.6115
B( 42-C , 80-H ) :   0.9499 B( 43-C , 44-C ) :   1.1523 B( 43-C , 81-H ) :   0.9536
B( 44-C , 45-C ) :   1.4977 B( 44-C , 52-O ) :   1.0397 B( 45-C , 46-O ) :   1.0726
B( 45-C , 53-C ) :   1.1221 B( 46-O , 47-C ) :   1.0589 B( 47-C , 48-C ) :   1.1969
B( 47-C , 51-C ) :   1.5752 B( 48-C , 49-C ) :   1.5758 B( 48-C , 52-O ) :   1.0605
B( 49-C , 50-S ) :   1.1377 B( 49-C , 82-H ) :   0.9713 B( 50-S , 51-C ) :   1.1386
B( 51-C , 83-H ) :   0.9718 B( 53-C , 54-C ) :   1.6879 B( 53-C , 84-H ) :   0.9438
B( 54-C , 55-C ) :   1.0348 B( 54-C , 85-H ) :   0.9833 B( 55-C , 56-N ) :   1.4891
B( 55-C , 60-N ) :   1.5315 B( 56-N , 57-C ) :   1.5581 B( 57-C , 58-C ) :   1.3604
B( 57-C , 86-H ) :   0.9799 B( 58-C , 59-C ) :   1.3453 B( 58-C , 87-H ) :   0.9731
B( 59-C , 60-N ) :   1.5137 B( 59-C , 61-C ) :   1.0627 B( 61-C , 62-C ) :   1.9590
B( 61-C , 88-H ) :   0.9660 B( 62-C , 89-H ) :   0.9376 B( 62-C , 90-H ) :   0.9474

-----------------------------------------------------------------------------
         ABSORPTION SPECTRUM VIA TRANSITION ELECTRIC DIPOLE MOMENTS
-----------------------------------------------------------------------------
State   Energy  Wavelength   fosc         T2         TX        TY        TZ
        (cm-1)    (nm)                  (au**2)     (au)      (au)      (au)
-----------------------------------------------------------------------------
   0   10164.7    983.8   0.959041846  31.06134  -0.09607  -5.57241   0.01818
   1   14034.8    712.5   0.112186900   2.63155  -0.83980   1.01412   0.94755
   2   16768.3    596.4   0.063427228   1.24527  -0.76060  -0.35727   0.73424
   3   20235.4    494.2   0.371472218   6.04352  -0.17457   2.45045  -0.09126
   4   21055.8    474.9   0.119539837   1.86903  -0.28467  -1.25384   0.46462
   5   22791.0    438.8   0.231986426   3.35100  -1.51383   0.05796   1.02759
   6   23767.5    420.7   0.087061123   1.20591  -0.07685   1.08584   0.14477
   7   26263.9    380.8   0.059691415   0.74822  -0.50538   0.28074   0.64343
   8   26820.2    372.9   0.048063267   0.58997   0.26803   0.08290  -0.71502
   9   27920.0    358.2   0.026695456   0.31477  -0.50545   0.06280   0.23526
  10   28521.4    350.6   0.129613195   1.49608  -0.90777   0.17811   0.80019
  11   28751.5    347.8   0.001146395   0.01313  -0.02393   0.01763   0.11065
  12   29311.0    341.2   0.068241622   0.76647  -0.07042   0.01787   0.87246
  13   30110.7    332.1   0.077003936   0.84191   0.10662   0.79972  -0.43702
  14   30277.2    330.3   0.061363941   0.66723  -0.22421   0.01678  -0.78529
  15   31301.6    319.5   0.000713581   0.00751   0.06781  -0.00167   0.05389
  16   31646.1    316.0   0.043757140   0.45520   0.04082  -0.36502  -0.56595
  17   32284.6    309.7   0.125420933   1.27894  -0.16927   0.44105  -1.02750
  18   32708.1    305.7   0.014337938   0.14431  -0.22016  -0.29980  -0.07722
  19   32967.7    303.3   0.058269646   0.58187   0.03686   0.20808   0.73295
  20   33639.0    297.3   0.042190002   0.41290   0.02905   0.25870   0.58747
  21   34219.0    292.2   0.008469919   0.08149   0.14647   0.11324  -0.21728
  22   34591.9    289.1   0.067540630   0.64278   0.42544   0.11538  -0.66968
  23   34878.1    286.7   0.006901016   0.06514  -0.23723   0.03617   0.08690
  24   35000.9    285.7   0.003548145   0.03337  -0.10079   0.13317  -0.07404
  25   35531.9    281.4   0.016754990   0.15524  -0.15534   0.11713  -0.34262
  26   35874.5    278.7   0.033865154   0.31077   0.52178   0.06249   0.18604
  27   36140.2    276.7   0.012561833   0.11443  -0.19395  -0.11334   0.25292
  28   36387.6    274.8   0.080450097   0.72786   0.76097  -0.36638  -0.12063
  29   36512.9    273.9   0.141042579   1.27169  -0.34303  -0.21942   1.05161
  30   36903.6    271.0   0.018689576   0.16673   0.37572   0.05321  -0.15078
  31   37270.3    268.3   0.019794547   0.17485   0.37304  -0.09184  -0.16508
  32   37338.1    267.8   0.022413071   0.19762   0.26063  -0.19393  -0.30345
  33   38170.3    262.0   0.123433456   1.06459  -0.53375   0.46033   0.75353
  34   38269.6    261.3   0.168711162   1.45133  -0.92110   0.70436   0.32677
  35   38515.2    259.6   0.014725577   0.12587   0.17091   0.25613  -0.17623
  36   38820.4    257.6   0.018001694   0.15266   0.04670  -0.04099  -0.38575
  37   38989.4    256.5   0.044600765   0.37659   0.33082  -0.51203  -0.07054
  38   39380.5    253.9   0.100275100   0.83828   0.32841  -0.06421   0.85223
  39   39628.3    252.3   0.094413888   0.78434   0.32735  -0.25203   0.78337
  40   39718.7    251.8   0.005282322   0.04378   0.12417  -0.04453  -0.16242
  41   39963.2    250.2   0.421038647   3.46847  -0.36162  -0.27567   1.80602
  42   40090.6    249.4   0.055317064   0.45425  -0.01840   0.18336  -0.64830

FINAL SINGLE POINT ENERGY     -4065.336272249154

DIPOLE MOMENT
-------------
                                X             Y             Z
Electronic contribution:      0.23835     -26.87239     -12.43230
Nuclear contribution   :     -0.09310      28.86475      12.44090
                        -----------------------------------------
Total Dipole Moment    :      0.14525       1.99236       0.00860
                        -----------------------------------------
Magnitude (a.u.)       :      1.99766
Magnitude (Debye)      :      5.07766

Rotational constants in cm-1:     0.001854     0.000362     0.000321
Rotational constants in MHz :    55.592701    10.849134     9.634194

                             ****ORCA TERMINATED NORMALLY****
TOTAL RUN TIME: 0 days 0 hours 10 minutes 16 seconds 772 msec
