                         Program Version 4.2.0 -  RELEASE  -
|  1> # ORCA input file
|  2> # SCF done       -168.359738430321          0.000340223638
|  3> ! CAM-B3LYP def2-SVP def2/J RIJCOSX Grid4 TightSCF
|  4> %maxcore 5000
|  5> %tddft
|  6>     Mode sTDDFT
|  7>     Ethresh 5.0
|  8>     maxcore 5000
|  9> end
| 10>
| 11> %pal
| 12>   nprocs 6
| 13>   end
| 14> * xyz 0 1
| 15>    C        3.57494        -2.73084         6.28124
| 16>    C        3.61157        -3.99251         5.85731
| 17>    C        3.47086        -4.46035         4.50392
| 18>    S        4.06099        -6.05105         4.13724
| 19>    C        3.55994        -5.92438         2.47069
| 20>    C        3.76484        -7.09725         1.68611
| 21>    C        3.21875        -7.42253         0.49338
| 22>    C        3.47981        -8.64846        -0.18068
| 23>    S        4.54570        -9.83796         0.52023
| 24>    C        4.33708       -10.92060        -0.82240
| 25>    C        5.02170       -12.17011        -0.80126
| 26>    C        4.92956       -13.12312        -1.75373
| 27>    C        5.60506       -14.38344        -1.74627
| 28>    S        6.08862       -15.03042        -3.29226
| 29>    C        6.83636       -16.41553        -2.55749
| 30>    C        7.47094       -17.37918        -3.39288
| 31>    C        8.18337       -18.43945        -2.94914
| 32>    C        8.80720       -19.43695        -3.75424
| 33>    S       10.14270       -20.31022        -3.03959
| 34>    C       10.42594       -21.22163        -4.49093
| 35>    C       11.48699       -22.16946        -4.53006
| 36>    C       11.72231       -23.02620        -5.54689
| 37>    C       12.78567       -23.97184        -5.57365
| 38>    S       13.93482       -24.10092        -4.26378
| 39>    C       14.74308       -25.39084        -5.05696
| 40>    C       14.18065       -25.71035        -6.25621
| 41>    C       13.06219       -24.89699        -6.55897
| 42>    C       12.25591       -25.08042        -7.80640
| 43>    C       13.04264       -25.86934        -8.85025
| 44>    C       13.64157       -27.12566        -8.22643
| 45>    C       14.69921       -26.78192        -7.17191
| 46>    C       16.01781       -26.33236        -7.81076
| 47>    C        9.49596       -20.86478        -5.45605
| 48>    C        8.56617       -19.88676        -5.03783
| 49>    C        7.39162       -19.53729        -5.89870
| 50>    C        7.79864       -18.80765        -7.18244
| 51>    C        8.37666       -19.77225        -8.21564
| 52>    C        9.66856       -20.45493        -7.76256
| 53>    O        9.50647       -21.40236        -6.71853
| 54>    C        6.67887       -16.36532        -1.17923
| 55>    C        5.97682       -15.22655        -0.71702
| 56>    C        5.62646       -14.99912         0.72275
| 57>    C        4.91251       -16.18703         1.37580
| 58>    C        5.83503       -17.36625         1.66830
| 59>    C        6.30188       -18.08427         0.40492
| 60>    O        7.21516       -17.33741        -0.37782
| 61>    C        3.47220       -10.36413        -1.75357
| 62>    C        2.97966        -9.09035        -1.39310
| 63>    C        1.97872        -8.35480        -2.23101
| 64>    C        2.47989        -8.05722        -3.64758
| 65>    C        2.46841        -9.29343        -4.54265
| 66>    C        3.47096       -10.36291        -4.11185
| 67>    O        3.13564       -11.02622        -2.90467
| 68>    C        2.99815        -4.68180         2.22448
| 69>    C        2.91993        -3.87546         3.38275
| 70>    C        2.18701        -2.57133         3.38410
| 71>    C        1.20739        -2.53671         2.21588
| 72>    C        1.97947        -2.77365         0.92676
| 73>    C        2.57044        -4.18927         0.86679
| 74>    C        3.75919        -4.18988        -0.10117
| 75>    H        3.69627        -2.49975         7.32537
| 76>    H        3.45048        -1.89347         5.61992
| 77>    H        3.79809        -4.78086         6.57693
| 78>    H        4.40718        -7.83529         2.15377
| 79>    H        2.53190        -6.75205         0.00308
| 80>    H        5.67619       -12.30978         0.04793
| 81>    H        4.34346       -12.91690        -2.63780
| 82>    H        7.36799       -17.19182        -4.45223
| 83>    H        8.36014       -18.53044        -1.88730
| 84>    H       12.12922       -22.19111        -3.65822
| 85>    H       11.06342       -23.02235        -6.40190
| 86>    H       15.59155       -25.84511        -4.58428
| 87>    H       11.95974       -24.11054        -8.21210
| 88>    H       11.33779       -25.62323        -7.55558
| 89>    H       13.83900       -25.24469        -9.25784
| 90>    H       12.38102       -26.14339        -9.67450
| 91>    H       14.09262       -27.75087        -8.99960
| 92>    H       12.84043       -27.70080        -7.75566
| 93>    H       14.90834       -27.68041        -6.57864
| 94>    H       15.88307       -25.41237        -8.37386
| 95>    H       16.39351       -27.10064        -8.48332
| 96>    H       16.76436       -26.15002        -7.04158
| 97>    H        6.89385       -20.47162        -6.17930
| 98>    H        6.68089       -18.94297        -5.32757
| 99>    H        6.91920       -18.32354        -7.61247
|100>    H        8.52992       -18.02967        -6.94894
|101>    H        8.59614       -19.23074        -9.13840
|102>    H        7.63787       -20.54402        -8.44296
|103>    H       10.08013       -21.03189        -8.59688
|104>    H       10.40605       -19.69787        -7.46449
|105>    H        6.53791       -14.77734         1.28655
|106>    H        4.96598       -14.13507         0.78683
|107>    H        4.48077       -15.84249         2.31828
|108>    H        4.08990       -16.51322         0.73391
|109>    H        5.30893       -18.09343         2.29049
|110>    H        6.71205       -17.01897         2.21867
|111>    H        6.85349       -18.98893         0.67764
|112>    H        5.43526       -18.37306        -0.20587
|113>    H        1.07181        -8.96394        -2.30147
|114>    H        1.71139        -7.41784        -1.74329
|115>    H        1.83007        -7.30082        -4.09352
|116>    H        3.49029        -7.64316        -3.59914
|117>    H        2.71283        -9.00285        -5.56652
|118>    H        1.46854        -9.73305        -4.54403
|119>    H        3.49852       -11.15847        -4.86267
|120>    H        4.47484        -9.92476        -4.02951
|121>    H        2.89310        -1.74047         3.28686
|122>    H        1.65895        -2.45387         4.33309
|123>    H        0.70181        -1.57003         2.18201
|124>    H        0.45022        -3.31310         2.34609
|125>    H        2.78901        -2.04218         0.86918
|126>    H        1.33464        -2.62049         0.05928
|127>    H        1.79449        -4.86492         0.48685
|128>    H        4.53392        -3.52133         0.26833
|129>    H        3.44097        -3.84082        -1.08145
|130>    H        4.19065        -5.18049        -0.20661
|131> *
|132>
|133>                          ****END OF INPUT****

CARTESIAN COORDINATES (ANGSTROEM)
---------------------------------
  C      3.574940   -2.730840    6.281240
  C      3.611570   -3.992510    5.857310
  C      3.470860   -4.460350    4.503920
  S      4.060990   -6.051050    4.137240
  C      3.559940   -5.924380    2.470690
  C      3.764840   -7.097250    1.686110
  C      3.218750   -7.422530    0.493380
  C      3.479810   -8.648460   -0.180680
  S      4.545700   -9.837960    0.520230
  C      4.337080  -10.920600   -0.822400
  C      5.021700  -12.170110   -0.801260
  C      4.929560  -13.123120   -1.753730
  C      5.605060  -14.383440   -1.746270
  S      6.088620  -15.030420   -3.292260
  C      6.836360  -16.415530   -2.557490
  C      7.470940  -17.379180   -3.392880
  C      8.183370  -18.439450   -2.949140
  C      8.807200  -19.436950   -3.754240
  S     10.142700  -20.310220   -3.039590
  C     10.425940  -21.221630   -4.490930
  C     11.486990  -22.169460   -4.530060
  C     11.722310  -23.026200   -5.546890
  C     12.785670  -23.971840   -5.573650
  S     13.934820  -24.100920   -4.263780
  C     14.743080  -25.390840   -5.056960
  C     14.180650  -25.710350   -6.256210
  C     13.062190  -24.896990   -6.558970
  C     12.255910  -25.080420   -7.806400
  C     13.042640  -25.869340   -8.850250
  C     13.641570  -27.125660   -8.226430
  C     14.699210  -26.781920   -7.171910
  C     16.017810  -26.332360   -7.810760
  C      9.495960  -20.864780   -5.456050
  C      8.566170  -19.886760   -5.037830
  C      7.391620  -19.537290   -5.898700
  C      7.798640  -18.807650   -7.182440
  C      8.376660  -19.772250   -8.215640
  C      9.668560  -20.454930   -7.762560
  O      9.506470  -21.402360   -6.718530
  C      6.678870  -16.365320   -1.179230
  C      5.976820  -15.226550   -0.717020
  C      5.626460  -14.999120    0.722750
  C      4.912510  -16.187030    1.375800
  C      5.835030  -17.366250    1.668300
  C      6.301880  -18.084270    0.404920
  O      7.215160  -17.337410   -0.377820
  C      3.472200  -10.364130   -1.753570
  C      2.979660   -9.090350   -1.393100
  C      1.978720   -8.354800   -2.231010
  C      2.479890   -8.057220   -3.647580
  C      2.468410   -9.293430   -4.542650
  C      3.470960  -10.362910   -4.111850
  O      3.135640  -11.026220   -2.904670
  C      2.998150   -4.681800    2.224480
  C      2.919930   -3.875460    3.382750
  C      2.187010   -2.571330    3.384100
  C      1.207390   -2.536710    2.215880
  C      1.979470   -2.773650    0.926760
  C      2.570440   -4.189270    0.866790
  C      3.759190   -4.189880   -0.101170
  H      3.696270   -2.499750    7.325370
  H      3.450480   -1.893470    5.619920
  H      3.798090   -4.780860    6.576930
  H      4.407180   -7.835290    2.153770
  H      2.531900   -6.752050    0.003080
  H      5.676190  -12.309780    0.047930
  H      4.343460  -12.916900   -2.637800
  H      7.367990  -17.191820   -4.452230
  H      8.360140  -18.530440   -1.887300
  H     12.129220  -22.191110   -3.658220
  H     11.063420  -23.022350   -6.401900
  H     15.591550  -25.845110   -4.584280
  H     11.959740  -24.110540   -8.212100
  H     11.337790  -25.623230   -7.555580
  H     13.839000  -25.244690   -9.257840
  H     12.381020  -26.143390   -9.674500
  H     14.092620  -27.750870   -8.999600
  H     12.840430  -27.700800   -7.755660
  H     14.908340  -27.680410   -6.578640
  H     15.883070  -25.412370   -8.373860
  H     16.393510  -27.100640   -8.483320
  H     16.764360  -26.150020   -7.041580
  H      6.893850  -20.471620   -6.179300
  H      6.680890  -18.942970   -5.327570
  H      6.919200  -18.323540   -7.612470
  H      8.529920  -18.029670   -6.948940
  H      8.596140  -19.230740   -9.138400
  H      7.637870  -20.544020   -8.442960
  H     10.080130  -21.031890   -8.596880
  H     10.406050  -19.697870   -7.464490
  H      6.537910  -14.777340    1.286550
  H      4.965980  -14.135070    0.786830
  H      4.480770  -15.842490    2.318280
  H      4.089900  -16.513220    0.733910
  H      5.308930  -18.093430    2.290490
  H      6.712050  -17.018970    2.218670
  H      6.853490  -18.988930    0.677640
  H      5.435260  -18.373060   -0.205870
  H      1.071810   -8.963940   -2.301470
  H      1.711390   -7.417840   -1.743290
  H      1.830070   -7.300820   -4.093520
  H      3.490290   -7.643160   -3.599140
  H      2.712830   -9.002850   -5.566520
  H      1.468540   -9.733050   -4.544030
  H      3.498520  -11.158470   -4.862670
  H      4.474840   -9.924760   -4.029510
  H      2.893100   -1.740470    3.286860
  H      1.658950   -2.453870    4.333090
  H      0.701810   -1.570030    2.182010
  H      0.450220   -3.313100    2.346090
  H      2.789010   -2.042180    0.869180
  H      1.334640   -2.620490    0.059280
  H      1.794490   -4.864920    0.486850
  H      4.533920   -3.521330    0.268330
  H      3.440970   -3.840820   -1.081450
  H      4.190650   -5.180490   -0.206610

 Total Charge           Charge          ....    0
 Multiplicity           Mult            ....    1
 Number of Electrons    NEL             ....  472
 Basis Dimension        Dim             .... 1140

ORBITAL ENERGIES
----------------

  NO   OCC          E(Eh)            E(eV)
   0   2.0000     -88.939961     -2420.1794
   1   2.0000     -88.936758     -2420.0922
   2   2.0000     -88.935254     -2420.0513
   3   2.0000     -88.931287     -2419.9434
   4   2.0000     -88.928101     -2419.8566
   5   2.0000     -19.232259      -523.3364
   6   2.0000     -19.226620      -523.1829
   7   2.0000     -19.226401      -523.1770
   8   2.0000     -10.316329      -280.7216
   9   2.0000     -10.314442      -280.6702
  10   2.0000     -10.310872      -280.5731
  11   2.0000     -10.310267      -280.5566
  12   2.0000     -10.309822      -280.5445
  13   2.0000     -10.305476      -280.4262
  14   2.0000     -10.290021      -280.0057
  15   2.0000     -10.286273      -279.9037
  16   2.0000     -10.286124      -279.8997
  17   2.0000     -10.283984      -279.8414
  18   2.0000     -10.282482      -279.8006
  19   2.0000     -10.280695      -279.7519
  20   2.0000     -10.280426      -279.7446
  21   2.0000     -10.277642      -279.6688
  22   2.0000     -10.273630      -279.5597
  23   2.0000     -10.272671      -279.5336
  24   2.0000     -10.272580      -279.5311
  25   2.0000     -10.271187      -279.4932
  26   2.0000     -10.270347      -279.4704
  27   2.0000     -10.269688      -279.4524
  28   2.0000     -10.269090      -279.4361
  29   2.0000     -10.268806      -279.4284
  30   2.0000     -10.266844      -279.3750
  31   2.0000     -10.265796      -279.3465
  32   2.0000     -10.264890      -279.3219
  33   2.0000     -10.264862      -279.3211
  34   2.0000     -10.264080      -279.2998
  35   2.0000     -10.263714      -279.2899
  36   2.0000     -10.263625      -279.2874
  37   2.0000     -10.263312      -279.2789
  38   2.0000     -10.260509      -279.2026
  39   2.0000     -10.260401      -279.1997
  40   2.0000     -10.260098      -279.1915
  41   2.0000     -10.260010      -279.1891
  42   2.0000     -10.259627      -279.1787
  43   2.0000     -10.259183      -279.1666
  44   2.0000     -10.258850      -279.1575
  45   2.0000     -10.258225      -279.1405
  46   2.0000     -10.257993      -279.1342
  47   2.0000     -10.257688      -279.1259
  48   2.0000     -10.257629      -279.1243
  49   2.0000     -10.257488      -279.1204
  50   2.0000     -10.255729      -279.0726
  51   2.0000     -10.255224      -279.0588
  52   2.0000     -10.255135      -279.0564
  53   2.0000     -10.254512      -279.0394
  54   2.0000     -10.252276      -278.9786
  55   2.0000     -10.250743      -278.9369
  56   2.0000     -10.250525      -278.9310
  57   2.0000     -10.249163      -278.8939
  58   2.0000     -10.247438      -278.8470
  59   2.0000     -10.244226      -278.7596
  60   2.0000      -8.035563      -218.6588
  61   2.0000      -8.032844      -218.5848
  62   2.0000      -8.031203      -218.5401
  63   2.0000      -8.027261      -218.4329
  64   2.0000      -8.023934      -218.3423
  65   2.0000      -6.004788      -163.3986
  66   2.0000      -6.001933      -163.3209
  67   2.0000      -6.001013      -163.2959
  68   2.0000      -6.000420      -163.2797
  69   2.0000      -5.998061      -163.2155
  70   2.0000      -5.997470      -163.1995
  71   2.0000      -5.996601      -163.1758
  72   2.0000      -5.996492      -163.1728
  73   2.0000      -5.995057      -163.1338
  74   2.0000      -5.993138      -163.0816
  75   2.0000      -5.993119      -163.0810
  76   2.0000      -5.992662      -163.0686
  77   2.0000      -5.989126      -162.9724
  78   2.0000      -5.989055      -162.9705
  79   2.0000      -5.986220      -162.8933
  80   2.0000      -1.136497       -30.9256
  81   2.0000      -1.131013       -30.7764
  82   2.0000      -1.129794       -30.7433
  83   2.0000      -0.976797       -26.5800
  84   2.0000      -0.971358       -26.4320
  85   2.0000      -0.966079       -26.2883
  86   2.0000      -0.964189       -26.2369
  87   2.0000      -0.960633       -26.1402
  88   2.0000      -0.910126       -24.7658
  89   2.0000      -0.905593       -24.6424
  90   2.0000      -0.903060       -24.5735
  91   2.0000      -0.896908       -24.4061
  92   2.0000      -0.894428       -24.3386
  93   2.0000      -0.892176       -24.2774
  94   2.0000      -0.878552       -23.9066
  95   2.0000      -0.873523       -23.7698
  96   2.0000      -0.865027       -23.5386
  97   2.0000      -0.858745       -23.3676
  98   2.0000      -0.848912       -23.1001
  99   2.0000      -0.847177       -23.0529
 100   2.0000      -0.845828       -23.0162
 101   2.0000      -0.843165       -22.9437
 102   2.0000      -0.837843       -22.7989
 103   2.0000      -0.818793       -22.2805
 104   2.0000      -0.811500       -22.0820
 105   2.0000      -0.801660       -21.8143
 106   2.0000      -0.800988       -21.7960
 107   2.0000      -0.783626       -21.3236
 108   2.0000      -0.773135       -21.0381
 109   2.0000      -0.766994       -20.8710
 110   2.0000      -0.764493       -20.8029
 111   2.0000      -0.762148       -20.7391
 112   2.0000      -0.758676       -20.6446
 113   2.0000      -0.750864       -20.4321
 114   2.0000      -0.745634       -20.2897
 115   2.0000      -0.740699       -20.1554
 116   2.0000      -0.733363       -19.9558
 117   2.0000      -0.718608       -19.5543
 118   2.0000      -0.705693       -19.2029
 119   2.0000      -0.686436       -18.6789
 120   2.0000      -0.683202       -18.5909
 121   2.0000      -0.682488       -18.5714
 122   2.0000      -0.681187       -18.5360
 123   2.0000      -0.667021       -18.1506
 124   2.0000      -0.663213       -18.0470
 125   2.0000      -0.660547       -17.9744
 126   2.0000      -0.658952       -17.9310
 127   2.0000      -0.652730       -17.7617
 128   2.0000      -0.647139       -17.6096
 129   2.0000      -0.640703       -17.4344
 130   2.0000      -0.633394       -17.2355
 131   2.0000      -0.624707       -16.9991
 132   2.0000      -0.623775       -16.9738
 133   2.0000      -0.618434       -16.8284
 134   2.0000      -0.614844       -16.7307
 135   2.0000      -0.611313       -16.6347
 136   2.0000      -0.603778       -16.4296
 137   2.0000      -0.596583       -16.2339
 138   2.0000      -0.586485       -15.9591
 139   2.0000      -0.579798       -15.7771
 140   2.0000      -0.577067       -15.7028
 141   2.0000      -0.571845       -15.5607
 142   2.0000      -0.566373       -15.4118
 143   2.0000      -0.561938       -15.2911
 144   2.0000      -0.554749       -15.0955
 145   2.0000      -0.551555       -15.0086
 146   2.0000      -0.548421       -14.9233
 147   2.0000      -0.547137       -14.8883
 148   2.0000      -0.537684       -14.6311
 149   2.0000      -0.531505       -14.4630
 150   2.0000      -0.530885       -14.4461
 151   2.0000      -0.528314       -14.3762
 152   2.0000      -0.526527       -14.3275
 153   2.0000      -0.522269       -14.2117
 154   2.0000      -0.520781       -14.1712
 155   2.0000      -0.517679       -14.0868
 156   2.0000      -0.515970       -14.0402
 157   2.0000      -0.513600       -13.9758
 158   2.0000      -0.509263       -13.8578
 159   2.0000      -0.505095       -13.7443
 160   2.0000      -0.503924       -13.7125
 161   2.0000      -0.503488       -13.7006
 162   2.0000      -0.499522       -13.5927
 163   2.0000      -0.497106       -13.5269
 164   2.0000      -0.495942       -13.4953
 165   2.0000      -0.495290       -13.4775
 166   2.0000      -0.493989       -13.4421
 167   2.0000      -0.490506       -13.3474
 168   2.0000      -0.489750       -13.3268
 169   2.0000      -0.487898       -13.2764
 170   2.0000      -0.485827       -13.2200
 171   2.0000      -0.483161       -13.1475
 172   2.0000      -0.477714       -12.9993
 173   2.0000      -0.476773       -12.9737
 174   2.0000      -0.473115       -12.8741
 175   2.0000      -0.469509       -12.7760
 176   2.0000      -0.465553       -12.6683
 177   2.0000      -0.464842       -12.6490
 178   2.0000      -0.462826       -12.5941
 179   2.0000      -0.459934       -12.5154
 180   2.0000      -0.458060       -12.4644
 181   2.0000      -0.456200       -12.4138
 182   2.0000      -0.453219       -12.3327
 183   2.0000      -0.447817       -12.1857
 184   2.0000      -0.446667       -12.1544
 185   2.0000      -0.439511       -11.9597
 186   2.0000      -0.438749       -11.9390
 187   2.0000      -0.437641       -11.9088
 188   2.0000      -0.433759       -11.8032
 189   2.0000      -0.431015       -11.7285
 190   2.0000      -0.430350       -11.7104
 191   2.0000      -0.430025       -11.7016
 192   2.0000      -0.426313       -11.6006
 193   2.0000      -0.425830       -11.5874
 194   2.0000      -0.421295       -11.4640
 195   2.0000      -0.419614       -11.4183
 196   2.0000      -0.418812       -11.3965
 197   2.0000      -0.416983       -11.3467
 198   2.0000      -0.413634       -11.2556
 199   2.0000      -0.413246       -11.2450
 200   2.0000      -0.410741       -11.1768
 201   2.0000      -0.407332       -11.0841
 202   2.0000      -0.403828       -10.9887
 203   2.0000      -0.402203       -10.9445
 204   2.0000      -0.401123       -10.9151
 205   2.0000      -0.396440       -10.7877
 206   2.0000      -0.395873       -10.7722
 207   2.0000      -0.394589       -10.7373
 208   2.0000      -0.393381       -10.7044
 209   2.0000      -0.391298       -10.6478
 210   2.0000      -0.389840       -10.6081
 211   2.0000      -0.388176       -10.5628
 212   2.0000      -0.386980       -10.5303
 213   2.0000      -0.385993       -10.5034
 214   2.0000      -0.382398       -10.4056
 215   2.0000      -0.380629       -10.3574
 216   2.0000      -0.378418       -10.2973
 217   2.0000      -0.375114       -10.2074
 218   2.0000      -0.372794       -10.1442
 219   2.0000      -0.370669       -10.0864
 220   2.0000      -0.367892       -10.0108
 221   2.0000      -0.353473        -9.6185
 222   2.0000      -0.348764        -9.4904
 223   2.0000      -0.344419        -9.3721
 224   2.0000      -0.339303        -9.2329
 225   2.0000      -0.330349        -8.9893
 226   2.0000      -0.304230        -8.2785
 227   2.0000      -0.295885        -8.0514
 228   2.0000      -0.295187        -8.0324
 229   2.0000      -0.289441        -7.8761
 230   2.0000      -0.286232        -7.7888
 231   2.0000      -0.285491        -7.7686
 232   2.0000      -0.278320        -7.5735
 233   2.0000      -0.252046        -6.8585
 234   2.0000      -0.225210        -6.1283
 235   2.0000      -0.205529        -5.5927
 236   0.0000      -0.044593        -1.2134
 237   0.0000      -0.024907        -0.6778
 238   0.0000      -0.000260        -0.0071
 239   0.0000       0.019770         0.5380
 240   0.0000       0.040697         1.1074

MULLIKEN ATOMIC CHARGES
-----------------------
   0 C :   -0.030561
   1 C :    0.026846
   2 C :   -0.149347
   3 S :    0.106875
   4 C :   -0.142634
   5 C :    0.032974
   6 C :   -0.000462
   7 C :   -0.113235
   8 S :    0.095927
   9 C :   -0.116772
  10 C :    0.019631
  11 C :    0.013831
  12 C :   -0.143016
  13 S :    0.105835
  14 C :   -0.120810
  15 C :    0.019143
  16 C :    0.033120
  17 C :   -0.139390
  18 S :    0.112368
  19 C :   -0.112996
  20 C :    0.025567
  21 C :   -0.026313
  22 C :   -0.111777
  23 S :    0.089029
  24 C :   -0.136301
  25 C :    0.003043
  26 C :   -0.075775
  27 C :    0.123671
  28 C :    0.019704
  29 C :    0.049220
  30 C :   -0.021442
  31 C :    0.069807
  32 C :    0.115476
  33 C :   -0.056107
  34 C :    0.118201
  35 C :    0.005030
  36 C :    0.006182
  37 C :    0.221166
  38 O :   -0.336610
  39 C :    0.113854
  40 C :   -0.043211
  41 C :    0.121505
  42 C :    0.003449
  43 C :    0.006252
  44 C :    0.225829
  45 O :   -0.336360
  46 C :    0.131938
  47 C :   -0.062628
  48 C :    0.135421
  49 C :   -0.004605
  50 C :    0.015205
  51 C :    0.220406
  52 O :   -0.334707
  53 C :   -0.009000
  54 C :   -0.080585
  55 C :    0.097208
  56 C :    0.043605
  57 C :    0.046842
  58 C :   -0.062657
  59 C :    0.071948
  60 H :    0.020938
  61 H :    0.015426
  62 H :   -0.008727
  63 H :   -0.012356
  64 H :   -0.026885
  65 H :   -0.014322
  66 H :    0.005216
  67 H :   -0.026692
  68 H :    0.000765
  69 H :   -0.023042
  70 H :    0.001255
  71 H :    0.003720
  72 H :    0.009587
  73 H :    0.013262
  74 H :    0.000806
  75 H :   -0.005378
  76 H :   -0.009610
  77 H :   -0.002279
  78 H :   -0.008480
  79 H :    0.006993
  80 H :    0.004301
  81 H :    0.003934
  82 H :    0.009090
  83 H :   -0.005479
  84 H :    0.001307
  85 H :    0.006186
  86 H :    0.006339
  87 H :    0.004907
  88 H :    0.011964
  89 H :    0.003231
  90 H :    0.012042
  91 H :    0.000972
  92 H :    0.000820
  93 H :    0.004553
  94 H :    0.008291
  95 H :    0.004430
  96 H :    0.014849
  97 H :   -0.001659
  98 H :    0.015008
  99 H :   -0.014146
 100 H :    0.003629
 101 H :    0.004900
 102 H :    0.007963
 103 H :    0.004769
 104 H :    0.016618
 105 H :    0.001430
 106 H :    0.013279
 107 H :    0.015440
 108 H :   -0.004347
 109 H :    0.004040
 110 H :   -0.009396
 111 H :   -0.004290
 112 H :    0.009033
 113 H :    0.006755
 114 H :    0.000614
 115 H :    0.019620
Sum of atomic charges:   -0.0000000

LOEWDIN ATOMIC CHARGES
----------------------
   0 C :   -0.051548
   1 C :   -0.040737
   2 C :   -0.183342
   3 S :    0.428014
   4 C :   -0.172432
   5 C :   -0.053211
   6 C :   -0.047095
   7 C :   -0.171077
   8 S :    0.423196
   9 C :   -0.189943
  10 C :   -0.046932
  11 C :   -0.043714
  12 C :   -0.173901
  13 S :    0.418434
  14 C :   -0.194104
  15 C :   -0.050245
  16 C :   -0.043979
  17 C :   -0.173202
  18 S :    0.422966
  19 C :   -0.193946
  20 C :   -0.055633
  21 C :   -0.036860
  22 C :   -0.178603
  23 S :    0.416790
  24 C :   -0.194349
  25 C :   -0.061019
  26 C :   -0.060697
  27 C :   -0.026061
  28 C :   -0.030076
  29 C :   -0.025800
  30 C :   -0.028121
  31 C :   -0.043717
  32 C :    0.004388
  33 C :   -0.076500
  34 C :   -0.024935
  35 C :   -0.031772
  36 C :   -0.049074
  37 C :    0.085087
  38 O :   -0.120090
  39 C :    0.005473
  40 C :   -0.073645
  41 C :   -0.026562
  42 C :   -0.030639
  43 C :   -0.050517
  44 C :    0.084928
  45 O :   -0.116558
  46 C :    0.004694
  47 C :   -0.073712
  48 C :   -0.022416
  49 C :   -0.031383
  50 C :   -0.048904
  51 C :    0.084576
  52 O :   -0.117840
  53 C :   -0.052113
  54 C :   -0.054081
  55 C :   -0.027340
  56 C :   -0.028461
  57 C :   -0.024415
  58 C :   -0.030313
  59 C :   -0.044432
  60 H :    0.024822
  61 H :    0.020738
  62 H :    0.027785
  63 H :    0.017689
  64 H :    0.027175
  65 H :    0.026246
  66 H :    0.028632
  67 H :    0.023236
  68 H :    0.028664
  69 H :    0.018428
  70 H :    0.030999
  71 H :    0.016544
  72 H :    0.028866
  73 H :    0.031924
  74 H :    0.019363
  75 H :    0.022468
  76 H :    0.019817
  77 H :    0.021224
  78 H :    0.027283
  79 H :    0.020967
  80 H :    0.019389
  81 H :    0.022182
  82 H :    0.032440
  83 H :    0.027409
  84 H :    0.022915
  85 H :    0.020543
  86 H :    0.027761
  87 H :    0.024411
  88 H :    0.021021
  89 H :    0.014127
  90 H :    0.031737
  91 H :    0.032012
  92 H :    0.024516
  93 H :    0.021981
  94 H :    0.028634
  95 H :    0.024363
  96 H :    0.022233
  97 H :    0.012232
  98 H :    0.034811
  99 H :    0.026418
 100 H :    0.024219
 101 H :    0.021980
 102 H :    0.028980
 103 H :    0.024895
 104 H :    0.022370
 105 H :    0.013314
 106 H :    0.027969
 107 H :    0.031925
 108 H :    0.022004
 109 H :    0.022557
 110 H :    0.019524
 111 H :    0.022366
 112 H :    0.023610
 113 H :    0.024159
 114 H :    0.020026
 115 H :    0.023599

  Mayer bond orders larger than 0.100000
B(  0-C ,  1-C ) :   1.9383 B(  0-C , 60-H ) :   0.9458 B(  0-C , 61-H ) :   0.9576
B(  1-C ,  2-C ) :   1.0867 B(  1-C , 62-H ) :   0.9480 B(  2-C ,  3-S ) :   1.1149
B(  2-C ,  4-C ) :   0.1016 B(  2-C , 54-C ) :   1.5382 B(  3-S ,  4-C ) :   1.1275
B(  4-C ,  5-C ) :   1.1220 B(  4-C , 53-C ) :   1.5013 B(  5-C ,  6-C ) :   1.6740
B(  5-C , 63-H ) :   0.9414 B(  6-C ,  7-C ) :   1.1677 B(  6-C , 64-H ) :   0.9652
B(  7-C ,  8-S ) :   1.0937 B(  7-C ,  9-C ) :   0.1042 B(  7-C , 47-C ) :   1.5005
B(  8-S ,  9-C ) :   1.1067 B(  9-C , 10-C ) :   1.1331 B(  9-C , 46-C ) :   1.4904
B( 10-C , 11-C ) :   1.7282 B( 10-C , 65-H ) :   0.9496 B( 11-C , 12-C ) :   1.0667
B( 11-C , 66-H ) :   0.9450 B( 12-C , 13-S ) :   1.1035 B( 12-C , 14-C ) :   0.1045
B( 12-C , 40-C ) :   1.5368 B( 13-S , 14-C ) :   1.1096 B( 14-C , 15-C ) :   1.1355
B( 14-C , 39-C ) :   1.4864 B( 15-C , 16-C ) :   1.7065 B( 15-C , 67-H ) :   0.9506
B( 16-C , 17-C ) :   1.0975 B( 16-C , 68-H ) :   0.9453 B( 17-C , 18-S ) :   1.1040
B( 17-C , 19-C ) :   0.1040 B( 17-C , 33-C ) :   1.5154 B( 18-S , 19-C ) :   1.1067
B( 19-C , 20-C ) :   1.1227 B( 19-C , 32-C ) :   1.4914 B( 20-C , 21-C ) :   1.6885
B( 20-C , 69-H ) :   0.9546 B( 21-C , 22-C ) :   1.1377 B( 21-C , 70-H ) :   0.9655
B( 22-C , 23-S ) :   1.1167 B( 22-C , 26-C ) :   1.5095 B( 23-S , 24-C ) :   1.1475
B( 24-C , 25-C ) :   1.5709 B( 24-C , 71-H ) :   0.9689 B( 25-C , 26-C ) :   1.3034
B( 25-C , 30-C ) :   0.9736 B( 26-C , 27-C ) :   1.0565 B( 27-C , 28-C ) :   1.0888
B( 27-C , 72-H ) :   0.9136 B( 27-C , 73-H ) :   0.9121 B( 28-C , 29-C ) :   1.0679
B( 28-C , 74-H ) :   0.9477 B( 28-C , 75-H ) :   0.9315 B( 29-C , 30-C ) :   1.0686
B( 29-C , 76-H ) :   0.9368 B( 29-C , 77-H ) :   0.9410 B( 30-C , 31-C ) :   1.0737
B( 30-C , 78-H ) :   0.9079 B( 31-C , 79-H ) :   0.9613 B( 31-C , 80-H ) :   0.9646
B( 31-C , 81-H ) :   0.9641 B( 32-C , 33-C ) :   1.2447 B( 32-C , 38-O ) :   1.1140
B( 33-C , 34-C ) :   1.0620 B( 34-C , 35-C ) :   1.0692 B( 34-C , 82-H ) :   0.9172
B( 34-C , 83-H ) :   0.9122 B( 35-C , 36-C ) :   1.0867 B( 35-C , 84-H ) :   0.9391
B( 35-C , 85-H ) :   0.9444 B( 36-C , 37-C ) :   1.0870 B( 36-C , 86-H ) :   0.9357
B( 36-C , 87-H ) :   0.9313 B( 37-C , 38-O ) :   0.9569 B( 37-C , 88-H ) :   0.9521
B( 37-C , 89-H ) :   0.9345 B( 39-C , 40-C ) :   1.2340 B( 39-C , 45-O ) :   1.1169
B( 40-C , 41-C ) :   1.0634 B( 41-C , 42-C ) :   1.0813 B( 41-C , 90-H ) :   0.9122
B( 41-C , 91-H ) :   0.9041 B( 42-C , 43-C ) :   1.0829 B( 42-C , 92-H ) :   0.9361
B( 42-C , 93-H ) :   0.9454 B( 43-C , 44-C ) :   1.0869 B( 43-C , 94-H ) :   0.9355
B( 43-C , 95-H ) :   0.9313 B( 44-C , 45-O ) :   0.9539 B( 44-C , 96-H ) :   0.9522
B( 44-C , 97-H ) :   0.9352 B( 46-C , 47-C ) :   1.2407 B( 46-C , 52-O ) :   1.1243
B( 47-C , 48-C ) :   1.0702 B( 48-C , 49-C ) :   1.0758 B( 48-C , 98-H ) :   0.9151
B( 48-C , 99-H ) :   0.9079 B( 49-C , 50-C ) :   1.0860 B( 49-C ,100-H ) :   0.9378
B( 49-C ,101-H ) :   0.9453 B( 50-C , 51-C ) :   1.0882 B( 50-C ,102-H ) :   0.9350
B( 50-C ,103-H ) :   0.9308 B( 51-C , 52-O ) :   0.9527 B( 51-C ,104-H ) :   0.9512
B( 51-C ,105-H ) :   0.9344 B( 53-C , 54-C ) :   1.3160 B( 53-C , 58-C ) :   1.0129
B( 54-C , 55-C ) :   1.0529 B( 55-C , 56-C ) :   1.0900 B( 55-C ,106-H ) :   0.9036
B( 55-C ,107-H ) :   0.9175 B( 56-C , 57-C ) :   1.0846 B( 56-C ,108-H ) :   0.9338
B( 56-C ,109-H ) :   0.9411 B( 57-C , 58-C ) :   1.0592 B( 57-C ,110-H ) :   0.9314
B( 57-C ,111-H ) :   0.9319 B( 58-C , 59-C ) :   1.0848 B( 58-C ,112-H ) :   0.8837
B( 59-C ,113-H ) :   0.9549 B( 59-C ,114-H ) :   0.9634 B( 59-C ,115-H ) :   0.9616

-----------------------------------------------------------------------------
         ABSORPTION SPECTRUM VIA TRANSITION ELECTRIC DIPOLE MOMENTS
-----------------------------------------------------------------------------
State   Energy  Wavelength   fosc         T2         TX        TY        TZ
        (cm-1)    (nm)                  (au**2)     (au)      (au)      (au)
-----------------------------------------------------------------------------
   0   21084.6    474.3   2.881399576  44.98970  -2.62439   5.59478   2.60783
   1   25724.0    388.7   0.266255568   3.40750   1.70617  -0.14316   0.68992
   2   27404.1    364.9   0.150549216   1.80858  -0.45415   1.08459   0.65268
   3   30956.0    323.0   0.068976357   0.73355   0.40513  -0.54019  -0.52689
   4   31317.4    319.3   0.223598486   2.35049   0.26369  -0.97109  -1.15669
   5   33925.5    294.8   0.002219077   0.02153   0.03129  -0.12946  -0.06160
   6   34576.5    289.2   0.063120805   0.60099   0.43716  -0.63912  -0.03746
   7   36447.9    274.4   0.365095903   3.29769  -0.80728   0.16349  -1.61841
   8   37680.8    265.4   0.063976722   0.55896   0.04026  -0.55746   0.49656
   9   38358.0    260.7   0.063653536   0.54631  -0.12299  -0.27538  -0.67480
  10   39128.9    255.6   0.176847980   1.48792   0.23767   0.31945   1.15299
  11   39246.7    254.8   0.005315697   0.04459   0.20678   0.01798  -0.03884
  12   39401.0    253.8   0.063734017   0.53253   0.46283  -0.22863   0.51579

FINAL SINGLE POINT ENERGY     -4228.351729031478

DIPOLE MOMENT
-------------
                                X             Y             Z
Electronic contribution:     11.78874     -13.71207      29.01728
Nuclear contribution   :    -13.02191      14.97921     -29.97847
                        -----------------------------------------
Total Dipole Moment    :     -1.23317       1.26714      -0.96119
                        -----------------------------------------
Magnitude (a.u.)       :      2.01252
Magnitude (Debye)      :      5.11542

Rotational constants in cm-1:     0.003233     0.000230     0.000222
Rotational constants in MHz :    96.929621     6.893994     6.648792

                             ****ORCA TERMINATED NORMALLY****
TOTAL RUN TIME: 0 days 0 hours 8 minutes 9 seconds 375 msec
