                         Program Version 4.2.0 -  RELEASE  -
|  1> # ORCA input file
|  2> # SCF done       -166.025715680274          0.000448545072
|  3> ! CAM-B3LYP def2-SVP def2/J RIJCOSX Grid4 TightSCF
|  4> %maxcore 5000
|  5> %tddft
|  6>     Mode sTDDFT
|  7>     Ethresh 5.0
|  8>     maxcore 5000
|  9> end
| 10>
| 11> %pal
| 12>   nprocs 6
| 13>   end
| 14> * xyz 0 1
| 15>    C       -3.26562         0.63266         0.85715
| 16>    S       -4.44909        -0.31809         0.10886
| 17>    C       -5.33664        -0.50001         1.58731
| 18>    C       -4.70303         0.15222         2.65188
| 19>    C       -3.50215         0.81538         2.20524
| 20>    C       -2.68478         1.56540         3.09526
| 21>    C       -1.45193         2.24575         2.59047
| 22>    C       -3.07129         1.62815         4.40227
| 23>    C       -4.22296         0.95940         4.85393
| 24>    C       -5.03989         0.22419         4.03383
| 25>    C       -6.21858        -0.47951         4.61759
| 26>    C       -6.53467        -1.26821         1.37113
| 27>    N       -7.49114        -1.40721         2.28923
| 28>    C       -8.54995        -2.12198         1.95685
| 29>    C       -8.70032        -2.71412         0.71136
| 30>    C       -7.65685        -2.50590        -0.20122
| 31>    N       -6.59396        -1.78953         0.14294
| 32>    C       -7.68981        -3.05473        -1.54297
| 33>    C       -6.68712        -2.85150        -2.41928
| 34>    C       -6.65819        -3.36599        -3.74571
| 35>    O       -7.67980        -4.11753        -4.23428
| 36>    C       -5.69926        -3.24476        -4.73402
| 37>    C       -4.39006        -2.66621        -5.05854
| 38>    O       -3.63370        -1.99331        -4.41044
| 39>    N       -4.16994        -3.07959        -6.37269
| 40>    C       -5.18156        -3.85668        -6.93534
| 41>    O       -5.17175        -4.30642        -8.05213
| 42>    C       -6.17170        -3.95707        -5.86187
| 43>    C       -7.40541        -4.48740        -5.51851
| 44>    C       -8.31461        -5.27852        -6.25213
| 45>    C       -9.49499        -5.71152        -5.71790
| 46>    C      -10.44537        -6.49805        -6.37861
| 47>    C      -11.61470        -6.90474        -5.77500
| 48>    C      -12.65573        -7.69343        -6.31740
| 49>    C      -13.68924        -7.92426        -5.45539
| 50>    C      -13.51344        -7.32907        -4.18861
| 51>    S      -12.00191        -6.46704        -4.12089
| 52>    C      -14.34779        -7.35695        -3.08007
| 53>    C      -15.59931        -7.97991        -2.91569
| 54>    C      -16.14108        -7.79817        -1.67288
| 55>    C      -15.34210        -7.02632        -0.80272
| 56>    S      -13.87539        -6.53231        -1.61432
| 57>    C      -15.61092        -6.67397         0.50936
| 58>    C      -14.72629        -5.90717         1.25641
| 59>    C      -14.90546        -5.50818         2.56687
| 60>    C      -13.99563        -4.71287         3.34451
| 61>    C      -12.78225        -4.19901         2.94195
| 62>    C      -11.93838        -3.41651         3.75265
| 63>    N      -11.18936        -2.77054         4.33838
| 64>    C      -12.18635        -4.35810         1.67734
| 65>    N      -11.60614        -4.42074         0.68558
| 66>    C      -14.58580        -4.52892         4.66877
| 67>    C      -15.83414        -5.19675         4.70504
| 68>    C      -16.08139        -5.83576         3.39351
| 69>    O      -17.05823        -6.48951         3.08315
| 70>    C      -16.63712        -5.20474         5.81775
| 71>    C      -16.18751        -4.51875         6.95226
| 72>    C      -14.93889        -3.85710         6.90747
| 73>    C      -14.12507        -3.85057         5.78013
| 74>    S      -14.57708        -3.07163         8.41511
| 75>    C      -16.08970        -3.63464         9.07500
| 76>    C      -16.82780        -4.37354         8.21346
| 77>   Br      -16.55178        -3.19228        10.83849
| 78>    H       -2.44601         1.01627         0.28321
| 79>    H       -1.70267         2.95890         1.80607
| 80>    H       -0.75841         1.51736         2.17164
| 81>    H       -0.95314         2.77673         3.39711
| 82>    H       -2.48258         2.18837         5.11431
| 83>    H       -4.46648         1.02639         5.90477
| 84>    H       -6.24263        -0.34321         5.69611
| 85>    H       -6.17651        -1.54300         4.39529
| 86>    H       -7.14330        -0.10366         4.18850
| 87>    H       -9.30482        -2.21785         2.72761
| 88>    H       -9.57097        -3.29690         0.45917
| 89>    H       -8.55938        -3.63856        -1.80994
| 90>    H       -5.83047        -2.26256        -2.12353
| 91>    H       -3.33281        -2.83391        -6.88169
| 92>    H       -8.02347        -5.52489        -7.26219
| 93>    H       -9.71792        -5.42549        -4.69727
| 94>    H      -10.26191        -6.80222        -7.39991
| 95>    H      -12.61041        -8.06609        -7.32542
| 96>    H      -14.56309        -8.50247        -5.69648
| 97>    H      -16.06776        -8.54054        -3.70479
| 98>    H      -17.08902        -8.19638        -1.35756
| 99>    H      -16.53484        -7.00893         0.95729
|100>    H      -13.81540        -5.59870         0.75697
|101>    H      -17.58356        -5.72233         5.81513
|102>    H      -13.18146        -3.33114         5.79630
|103>    H      -17.78488        -4.79870         8.45476
|104> *
|105>
|106>                          ****END OF INPUT****

CARTESIAN COORDINATES (ANGSTROEM)
---------------------------------
  C     -3.265620    0.632660    0.857150
  S     -4.449090   -0.318090    0.108860
  C     -5.336640   -0.500010    1.587310
  C     -4.703030    0.152220    2.651880
  C     -3.502150    0.815380    2.205240
  C     -2.684780    1.565400    3.095260
  C     -1.451930    2.245750    2.590470
  C     -3.071290    1.628150    4.402270
  C     -4.222960    0.959400    4.853930
  C     -5.039890    0.224190    4.033830
  C     -6.218580   -0.479510    4.617590
  C     -6.534670   -1.268210    1.371130
  N     -7.491140   -1.407210    2.289230
  C     -8.549950   -2.121980    1.956850
  C     -8.700320   -2.714120    0.711360
  C     -7.656850   -2.505900   -0.201220
  N     -6.593960   -1.789530    0.142940
  C     -7.689810   -3.054730   -1.542970
  C     -6.687120   -2.851500   -2.419280
  C     -6.658190   -3.365990   -3.745710
  O     -7.679800   -4.117530   -4.234280
  C     -5.699260   -3.244760   -4.734020
  C     -4.390060   -2.666210   -5.058540
  O     -3.633700   -1.993310   -4.410440
  N     -4.169940   -3.079590   -6.372690
  C     -5.181560   -3.856680   -6.935340
  O     -5.171750   -4.306420   -8.052130
  C     -6.171700   -3.957070   -5.861870
  C     -7.405410   -4.487400   -5.518510
  C     -8.314610   -5.278520   -6.252130
  C     -9.494990   -5.711520   -5.717900
  C    -10.445370   -6.498050   -6.378610
  C    -11.614700   -6.904740   -5.775000
  C    -12.655730   -7.693430   -6.317400
  C    -13.689240   -7.924260   -5.455390
  C    -13.513440   -7.329070   -4.188610
  S    -12.001910   -6.467040   -4.120890
  C    -14.347790   -7.356950   -3.080070
  C    -15.599310   -7.979910   -2.915690
  C    -16.141080   -7.798170   -1.672880
  C    -15.342100   -7.026320   -0.802720
  S    -13.875390   -6.532310   -1.614320
  C    -15.610920   -6.673970    0.509360
  C    -14.726290   -5.907170    1.256410
  C    -14.905460   -5.508180    2.566870
  C    -13.995630   -4.712870    3.344510
  C    -12.782250   -4.199010    2.941950
  C    -11.938380   -3.416510    3.752650
  N    -11.189360   -2.770540    4.338380
  C    -12.186350   -4.358100    1.677340
  N    -11.606140   -4.420740    0.685580
  C    -14.585800   -4.528920    4.668770
  C    -15.834140   -5.196750    4.705040
  C    -16.081390   -5.835760    3.393510
  O    -17.058230   -6.489510    3.083150
  C    -16.637120   -5.204740    5.817750
  C    -16.187510   -4.518750    6.952260
  C    -14.938890   -3.857100    6.907470
  C    -14.125070   -3.850570    5.780130
  S    -14.577080   -3.071630    8.415110
  C    -16.089700   -3.634640    9.075000
  C    -16.827800   -4.373540    8.213460
  Br   -16.551780   -3.192280   10.838490
  H     -2.446010    1.016270    0.283210
  H     -1.702670    2.958900    1.806070
  H     -0.758410    1.517360    2.171640
  H     -0.953140    2.776730    3.397110
  H     -2.482580    2.188370    5.114310
  H     -4.466480    1.026390    5.904770
  H     -6.242630   -0.343210    5.696110
  H     -6.176510   -1.543000    4.395290
  H     -7.143300   -0.103660    4.188500
  H     -9.304820   -2.217850    2.727610
  H     -9.570970   -3.296900    0.459170
  H     -8.559380   -3.638560   -1.809940
  H     -5.830470   -2.262560   -2.123530
  H     -3.332810   -2.833910   -6.881690
  H     -8.023470   -5.524890   -7.262190
  H     -9.717920   -5.425490   -4.697270
  H    -10.261910   -6.802220   -7.399910
  H    -12.610410   -8.066090   -7.325420
  H    -14.563090   -8.502470   -5.696480
  H    -16.067760   -8.540540   -3.704790
  H    -17.089020   -8.196380   -1.357560
  H    -16.534840   -7.008930    0.957290
  H    -13.815400   -5.598700    0.756970
  H    -17.583560   -5.722330    5.815130
  H    -13.181460   -3.331140    5.796300
  H    -17.784880   -4.798700    8.454760

 Total Charge           Charge          ....    0
 Multiplicity           Mult            ....    1
 Number of Electrons    NEL             ....  486
 Basis Dimension        Dim             .... 1046

ORBITAL ENERGIES
----------------

  NO   OCC          E(Eh)            E(eV)
   0   2.0000    -482.880700    -13139.8519
   1   2.0000     -88.970246     -2421.0035
   2   2.0000     -88.969277     -2420.9771
   3   2.0000     -88.965380     -2420.8711
   4   2.0000     -88.939914     -2420.1781
   5   2.0000     -62.558374     -1702.2999
   6   2.0000     -56.392319     -1534.5130
   7   2.0000     -56.389616     -1534.4395
   8   2.0000     -56.389580     -1534.4385
   9   2.0000     -19.313193      -525.5387
  10   2.0000     -19.211291      -522.7658
  11   2.0000     -19.208937      -522.7017
  12   2.0000     -19.206070      -522.6237
  13   2.0000     -14.453526      -393.3004
  14   2.0000     -14.414801      -392.2467
  15   2.0000     -14.408834      -392.0843
  16   2.0000     -14.391729      -391.6189
  17   2.0000     -14.386745      -391.4832
  18   2.0000     -10.400851      -283.0215
  19   2.0000     -10.398653      -282.9617
  20   2.0000     -10.364860      -282.0422
  21   2.0000     -10.364448      -282.0310
  22   2.0000     -10.356188      -281.8062
  23   2.0000     -10.352721      -281.7119
  24   2.0000     -10.343571      -281.4629
  25   2.0000     -10.333493      -281.1886
  26   2.0000     -10.332373      -281.1582
  27   2.0000     -10.332255      -281.1550
  28   2.0000     -10.331909      -281.1455
  29   2.0000     -10.329403      -281.0773
  30   2.0000     -10.329025      -281.0671
  31   2.0000     -10.320334      -280.8306
  32   2.0000     -10.318080      -280.7692
  33   2.0000     -10.314427      -280.6698
  34   2.0000     -10.314043      -280.6594
  35   2.0000     -10.314019      -280.6587
  36   2.0000     -10.313116      -280.6342
  37   2.0000     -10.312302      -280.6120
  38   2.0000     -10.311622      -280.5935
  39   2.0000     -10.308728      -280.5148
  40   2.0000     -10.304758      -280.4067
  41   2.0000     -10.302581      -280.3475
  42   2.0000     -10.300187      -280.2823
  43   2.0000     -10.299674      -280.2684
  44   2.0000     -10.299591      -280.2661
  45   2.0000     -10.298833      -280.2455
  46   2.0000     -10.298026      -280.2235
  47   2.0000     -10.295872      -280.1649
  48   2.0000     -10.292987      -280.0864
  49   2.0000     -10.292009      -280.0598
  50   2.0000     -10.290748      -280.0255
  51   2.0000     -10.287565      -279.9389
  52   2.0000     -10.284959      -279.8680
  53   2.0000     -10.283413      -279.8259
  54   2.0000     -10.282575      -279.8031
  55   2.0000     -10.281066      -279.7620
  56   2.0000     -10.271779      -279.5093
  57   2.0000     -10.270573      -279.4765
  58   2.0000     -10.261130      -279.2195
  59   2.0000     -10.260999      -279.2160
  60   2.0000     -10.252646      -278.9887
  61   2.0000     -10.252266      -278.9783
  62   2.0000     -10.249843      -278.9124
  63   2.0000     -10.247122      -278.8384
  64   2.0000     -10.240429      -278.6562
  65   2.0000     -10.238998      -278.6173
  66   2.0000     -10.220311      -278.1088
  67   2.0000      -8.787776      -239.1276
  68   2.0000      -8.066722      -219.5067
  69   2.0000      -8.065239      -219.4663
  70   2.0000      -8.061455      -219.3633
  71   2.0000      -8.034307      -218.6246
  72   2.0000      -6.624026      -180.2489
  73   2.0000      -6.609524      -179.8543
  74   2.0000      -6.609348      -179.8495
  75   2.0000      -6.036345      -164.2573
  76   2.0000      -6.034919      -164.2185
  77   2.0000      -6.032285      -164.1468
  78   2.0000      -6.031027      -164.1126
  79   2.0000      -6.030670      -164.1029
  80   2.0000      -6.027761      -164.0237
  81   2.0000      -6.026987      -164.0027
  82   2.0000      -6.026475      -163.9887
  83   2.0000      -6.022670      -163.8852
  84   2.0000      -6.003211      -163.3557
  85   2.0000      -5.998756      -163.2345
  86   2.0000      -5.997665      -163.2048
  87   2.0000      -2.739947       -74.5578
  88   2.0000      -2.735829       -74.4457
  89   2.0000      -2.735670       -74.4414
  90   2.0000      -2.724161       -74.1282
  91   2.0000      -2.724149       -74.1279
  92   2.0000      -1.228824       -33.4380
  93   2.0000      -1.154696       -31.4209
  94   2.0000      -1.134087       -30.8601
  95   2.0000      -1.119257       -30.4565
  96   2.0000      -1.067556       -29.0497
  97   2.0000      -1.042040       -28.3553
  98   2.0000      -1.020946       -27.7813
  99   2.0000      -1.016268       -27.6541
 100   2.0000      -1.009022       -27.4569
 101   2.0000      -0.997453       -27.1421
 102   2.0000      -0.990880       -26.9632
 103   2.0000      -0.981940       -26.7199
 104   2.0000      -0.968798       -26.3623
 105   2.0000      -0.965718       -26.2785
 106   2.0000      -0.943704       -25.6795
 107   2.0000      -0.936519       -25.4840
 108   2.0000      -0.924686       -25.1620
 109   2.0000      -0.919912       -25.0321
 110   2.0000      -0.911529       -24.8040
 111   2.0000      -0.905373       -24.6364
 112   2.0000      -0.901451       -24.5297
 113   2.0000      -0.889189       -24.1961
 114   2.0000      -0.879305       -23.9271
 115   2.0000      -0.878613       -23.9083
 116   2.0000      -0.870526       -23.6882
 117   2.0000      -0.867250       -23.5991
 118   2.0000      -0.856339       -23.3022
 119   2.0000      -0.844191       -22.9716
 120   2.0000      -0.841502       -22.8984
 121   2.0000      -0.823601       -22.4113
 122   2.0000      -0.821199       -22.3460
 123   2.0000      -0.801181       -21.8012
 124   2.0000      -0.798114       -21.7178
 125   2.0000      -0.789108       -21.4727
 126   2.0000      -0.779055       -21.1992
 127   2.0000      -0.778475       -21.1834
 128   2.0000      -0.769184       -20.9306
 129   2.0000      -0.762490       -20.7484
 130   2.0000      -0.752533       -20.4775
 131   2.0000      -0.744400       -20.2561
 132   2.0000      -0.730818       -19.8866
 133   2.0000      -0.723547       -19.6887
 134   2.0000      -0.714084       -19.4312
 135   2.0000      -0.705251       -19.1908
 136   2.0000      -0.702473       -19.1153
 137   2.0000      -0.692841       -18.8532
 138   2.0000      -0.689609       -18.7652
 139   2.0000      -0.683777       -18.6065
 140   2.0000      -0.673850       -18.3364
 141   2.0000      -0.666419       -18.1342
 142   2.0000      -0.661098       -17.9894
 143   2.0000      -0.653125       -17.7724
 144   2.0000      -0.648822       -17.6553
 145   2.0000      -0.644100       -17.5269
 146   2.0000      -0.634814       -17.2742
 147   2.0000      -0.633463       -17.2374
 148   2.0000      -0.625506       -17.0209
 149   2.0000      -0.623974       -16.9792
 150   2.0000      -0.616168       -16.7668
 151   2.0000      -0.607794       -16.5389
 152   2.0000      -0.597116       -16.2484
 153   2.0000      -0.594870       -16.1872
 154   2.0000      -0.592156       -16.1134
 155   2.0000      -0.588291       -16.0082
 156   2.0000      -0.586108       -15.9488
 157   2.0000      -0.582382       -15.8474
 158   2.0000      -0.575747       -15.6669
 159   2.0000      -0.568470       -15.4689
 160   2.0000      -0.560368       -15.2484
 161   2.0000      -0.553551       -15.0629
 162   2.0000      -0.551876       -15.0173
 163   2.0000      -0.548106       -14.9147
 164   2.0000      -0.544227       -14.8092
 165   2.0000      -0.543762       -14.7965
 166   2.0000      -0.537353       -14.6221
 167   2.0000      -0.532393       -14.4872
 168   2.0000      -0.531765       -14.4701
 169   2.0000      -0.527214       -14.3462
 170   2.0000      -0.523146       -14.2355
 171   2.0000      -0.521647       -14.1947
 172   2.0000      -0.520842       -14.1728
 173   2.0000      -0.519575       -14.1383
 174   2.0000      -0.515848       -14.0369
 175   2.0000      -0.514428       -13.9983
 176   2.0000      -0.513455       -13.9718
 177   2.0000      -0.510309       -13.8862
 178   2.0000      -0.503338       -13.6965
 179   2.0000      -0.502615       -13.6769
 180   2.0000      -0.502495       -13.6736
 181   2.0000      -0.500319       -13.6144
 182   2.0000      -0.491176       -13.3656
 183   2.0000      -0.490186       -13.3386
 184   2.0000      -0.489303       -13.3146
 185   2.0000      -0.488844       -13.3021
 186   2.0000      -0.486104       -13.2276
 187   2.0000      -0.485898       -13.2220
 188   2.0000      -0.484602       -13.1867
 189   2.0000      -0.481934       -13.1141
 190   2.0000      -0.481604       -13.1051
 191   2.0000      -0.478406       -13.0181
 192   2.0000      -0.465246       -12.6600
 193   2.0000      -0.464978       -12.6527
 194   2.0000      -0.463944       -12.6246
 195   2.0000      -0.460262       -12.5244
 196   2.0000      -0.457138       -12.4394
 197   2.0000      -0.454964       -12.3802
 198   2.0000      -0.451832       -12.2950
 199   2.0000      -0.451313       -12.2809
 200   2.0000      -0.450263       -12.2523
 201   2.0000      -0.444888       -12.1060
 202   2.0000      -0.443422       -12.0661
 203   2.0000      -0.441755       -12.0208
 204   2.0000      -0.440477       -11.9860
 205   2.0000      -0.438905       -11.9432
 206   2.0000      -0.437433       -11.9032
 207   2.0000      -0.432832       -11.7780
 208   2.0000      -0.425529       -11.5792
 209   2.0000      -0.424367       -11.5476
 210   2.0000      -0.422656       -11.5011
 211   2.0000      -0.420071       -11.4307
 212   2.0000      -0.416113       -11.3230
 213   2.0000      -0.413191       -11.2435
 214   2.0000      -0.407281       -11.0827
 215   2.0000      -0.402308       -10.9473
 216   2.0000      -0.399883       -10.8814
 217   2.0000      -0.398365       -10.8401
 218   2.0000      -0.384444       -10.4613
 219   2.0000      -0.382975       -10.4213
 220   2.0000      -0.380304       -10.3486
 221   2.0000      -0.379409       -10.3242
 222   2.0000      -0.375960       -10.2304
 223   2.0000      -0.370045       -10.0694
 224   2.0000      -0.369291       -10.0489
 225   2.0000      -0.363049        -9.8791
 226   2.0000      -0.360819        -9.8184
 227   2.0000      -0.357590        -9.7305
 228   2.0000      -0.354765        -9.6536
 229   2.0000      -0.350512        -9.5379
 230   2.0000      -0.344525        -9.3750
 231   2.0000      -0.343585        -9.3494
 232   2.0000      -0.336421        -9.1545
 233   2.0000      -0.326582        -8.8868
 234   2.0000      -0.310891        -8.4598
 235   2.0000      -0.308685        -8.3998
 236   2.0000      -0.303330        -8.2540
 237   2.0000      -0.299516        -8.1502
 238   2.0000      -0.288082        -7.8391
 239   2.0000      -0.286655        -7.8003
 240   2.0000      -0.274397        -7.4667
 241   2.0000      -0.231295        -6.2939
 242   2.0000      -0.228443        -6.2163
 243   0.0000      -0.121893        -3.3169
 244   0.0000      -0.073165        -1.9909
 245   0.0000      -0.055978        -1.5232
 246   0.0000      -0.050008        -1.3608
 247   0.0000      -0.024438        -0.6650

MULLIKEN ATOMIC CHARGES
-----------------------
   0 C :   -0.140054
   1 S :    0.194565
   2 C :   -0.200862
   3 C :    0.154820
   4 C :    0.046777
   5 C :   -0.056448
   6 C :    0.098221
   7 C :   -0.044309
   8 C :   -0.043661
   9 C :   -0.127077
  10 C :    0.183826
  11 C :   -0.002949
  12 N :   -0.078098
  13 C :    0.086674
  14 C :   -0.039940
  15 C :    0.051593
  16 N :   -0.112689
  17 C :    0.006784
  18 C :    0.003447
  19 C :    0.107372
  20 O :   -0.215977
  21 C :   -0.028810
  22 C :    0.165769
  23 O :   -0.134041
  24 N :   -0.168983
  25 C :    0.162633
  26 O :   -0.143453
  27 C :   -0.026217
  28 C :    0.089690
  29 C :   -0.018905
  30 C :    0.012524
  31 C :    0.021267
  32 C :   -0.032785
  33 C :    0.055620
  34 C :    0.023621
  35 C :   -0.024365
  36 S :    0.103507
  37 C :   -0.047679
  38 C :    0.044616
  39 C :    0.027044
  40 C :    0.006348
  41 S :    0.097471
  42 C :   -0.017588
  43 C :   -0.049840
  44 C :   -0.087940
  45 C :    0.342954
  46 C :   -0.372445
  47 C :   -0.153870
  48 N :    0.114928
  49 C :   -0.152219
  50 N :    0.101635
  51 C :    0.008536
  52 C :   -0.009216
  53 C :    0.139029
  54 O :   -0.162368
  55 C :   -0.076470
  56 C :    0.116824
  57 C :   -0.093195
  58 C :   -0.023945
  59 S :    0.183042
  60 C :   -0.123043
  61 C :    0.038616
  62 Br:    0.018703
  63 H :    0.012281
  64 H :    0.021755
  65 H :    0.021431
  66 H :    0.003289
  67 H :   -0.042886
  68 H :   -0.039313
  69 H :   -0.019455
  70 H :    0.007115
  71 H :    0.031233
  72 H :    0.003379
  73 H :   -0.018318
  74 H :    0.002765
  75 H :    0.034174
  76 H :    0.138849
  77 H :    0.016217
  78 H :    0.027272
  79 H :    0.000511
  80 H :    0.000557
  81 H :   -0.003600
  82 H :   -0.003459
  83 H :    0.000493
  84 H :    0.016836
  85 H :    0.018328
  86 H :   -0.015027
  87 H :   -0.007576
  88 H :   -0.005868
Sum of atomic charges:   -0.0000000

LOEWDIN ATOMIC CHARGES
----------------------
   0 C :   -0.195579
   1 S :    0.526043
   2 C :   -0.213752
   3 C :   -0.025949
   4 C :   -0.055743
   5 C :   -0.023994
   6 C :   -0.045692
   7 C :   -0.044071
   8 C :   -0.036595
   9 C :   -0.016294
  10 C :   -0.046944
  11 C :    0.021136
  12 N :   -0.075424
  13 C :    0.058799
  14 C :   -0.066556
  15 C :    0.025218
  16 N :   -0.114400
  17 C :    0.002358
  18 C :   -0.014275
  19 C :    0.079171
  20 O :    0.014473
  21 C :   -0.094931
  22 C :    0.085341
  23 O :   -0.151658
  24 N :   -0.006867
  25 C :    0.083246
  26 O :   -0.161349
  27 C :   -0.086881
  28 C :    0.061649
  29 C :   -0.014881
  30 C :   -0.021980
  31 C :   -0.021664
  32 C :   -0.147664
  33 C :   -0.010732
  34 C :   -0.034013
  35 C :   -0.146926
  36 S :    0.407228
  37 C :   -0.192827
  38 C :   -0.006180
  39 C :   -0.042136
  40 C :   -0.101805
  41 S :    0.414787
  42 C :   -0.071084
  43 C :    0.047465
  44 C :   -0.109811
  45 C :    0.078056
  46 C :   -0.165276
  47 C :   -0.012471
  48 N :   -0.071451
  49 C :   -0.005778
  50 N :   -0.077871
  51 C :   -0.019859
  52 C :   -0.048012
  53 C :    0.082212
  54 O :   -0.156498
  55 C :    0.018295
  56 C :   -0.034512
  57 C :   -0.145885
  58 C :   -0.012756
  59 S :    0.429797
  60 C :   -0.273516
  61 C :   -0.070776
  62 Br:    0.132920
  63 H :    0.019739
  64 H :    0.031485
  65 H :    0.031704
  66 H :    0.028820
  67 H :    0.021345
  68 H :    0.022578
  69 H :    0.018773
  70 H :    0.029386
  71 H :    0.033381
  72 H :    0.026193
  73 H :    0.029662
  74 H :    0.035261
  75 H :    0.049674
  76 H :    0.094886
  77 H :    0.047985
  78 H :    0.027531
  79 H :    0.039479
  80 H :    0.039334
  81 H :    0.036035
  82 H :    0.036214
  83 H :    0.039155
  84 H :    0.039433
  85 H :    0.029441
  86 H :    0.039344
  87 H :    0.040414
  88 H :    0.037871

  Mayer bond orders larger than 0.100000
B(  0-C ,  1-S ) :   1.2179 B(  0-C ,  2-C ) :   0.1178 B(  0-C ,  4-C ) :   1.4304
B(  0-C , 63-H ) :   0.9569 B(  1-S ,  2-C ) :   1.1960 B(  2-C ,  3-C ) :   1.3745
B(  2-C , 11-C ) :   1.0107 B(  3-C ,  4-C ) :   1.2033 B(  3-C ,  9-C ) :   1.1950
B(  4-C ,  5-C ) :   1.1800 B(  5-C ,  6-C ) :   1.0887 B(  5-C ,  7-C ) :   1.5734
B(  6-C , 64-H ) :   0.9452 B(  6-C , 65-H ) :   0.9450 B(  6-C , 66-H ) :   0.9536
B(  7-C ,  8-C ) :   1.1720 B(  7-C , 67-H ) :   0.9890 B(  8-C ,  9-C ) :   1.5583
B(  8-C , 68-H ) :   0.9836 B(  9-C , 10-C ) :   1.1304 B( 10-C , 69-H ) :   0.9364
B( 10-C , 70-H ) :   0.9329 B( 10-C , 71-H ) :   0.9239 B( 11-C , 12-N ) :   1.5473
B( 11-C , 16-N ) :   1.5407 B( 12-N , 13-C ) :   1.5199 B( 13-C , 14-C ) :   1.3607
B( 13-C , 72-H ) :   0.9715 B( 14-C , 15-C ) :   1.3327 B( 14-C , 73-H ) :   0.9616
B( 15-C , 16-N ) :   1.5366 B( 15-C , 17-C ) :   1.0400 B( 17-C , 18-C ) :   1.6693
B( 17-C , 74-H ) :   0.9889 B( 18-C , 19-C ) :   1.1350 B( 18-C , 75-H ) :   0.9585
B( 19-C , 20-O ) :   1.1579 B( 19-C , 21-C ) :   1.3978 B( 20-O , 28-C ) :   1.1363
B( 21-C , 22-C ) :   0.8751 B( 21-C , 27-C ) :   1.2817 B( 22-C , 23-O ) :   2.2774
B( 22-C , 24-N ) :   1.0709 B( 24-N , 25-C ) :   1.0814 B( 24-N , 76-H ) :   0.9139
B( 25-C , 26-O ) :   2.2680 B( 25-C , 27-C ) :   0.8792 B( 27-C , 28-C ) :   1.3774
B( 28-C , 29-C ) :   1.1958 B( 29-C , 30-C ) :   1.5696 B( 29-C , 77-H ) :   0.9703
B( 30-C , 31-C ) :   1.1598 B( 30-C , 78-H ) :   0.9750 B( 31-C , 32-C ) :   1.5330
B( 31-C , 79-H ) :   0.9877 B( 32-C , 33-C ) :   1.1609 B( 32-C , 36-S ) :   1.0354
B( 33-C , 34-C ) :   1.5660 B( 33-C , 80-H ) :   0.9989 B( 34-C , 35-C ) :   1.2099
B( 34-C , 81-H ) :   0.9949 B( 35-C , 36-S ) :   1.0889 B( 35-C , 37-C ) :   1.4412
B( 37-C , 38-C ) :   1.2311 B( 37-C , 41-S ) :   1.0512 B( 38-C , 39-C ) :   1.5266
B( 38-C , 82-H ) :   0.9952 B( 39-C , 40-C ) :   1.1901 B( 39-C , 83-H ) :   1.0019
B( 40-C , 41-S ) :   1.0928 B( 40-C , 42-C ) :   1.3949 B( 42-C , 43-C ) :   1.2778
B( 42-C , 84-H ) :   0.9828 B( 43-C , 44-C ) :   1.4637 B( 43-C , 85-H ) :   0.9394
B( 44-C , 45-C ) :   1.1299 B( 44-C , 53-C ) :   0.9624 B( 45-C , 46-C ) :   1.5557
B( 45-C , 51-C ) :   0.9866 B( 46-C , 47-C ) :   1.1596 B( 46-C , 49-C ) :   1.1702
B( 47-C , 48-N ) :   2.8679 B( 49-C , 50-N ) :   2.8496 B( 51-C , 52-C ) :   1.2780
B( 51-C , 58-C ) :   1.4189 B( 52-C , 53-C ) :   0.9322 B( 52-C , 55-C ) :   1.4334
B( 53-C , 54-O ) :   2.1953 B( 55-C , 56-C ) :   1.2367 B( 55-C , 86-H ) :   1.0158
B( 56-C , 57-C ) :   1.3183 B( 56-C , 61-C ) :   1.1622 B( 57-C , 58-C ) :   1.3216
B( 57-C , 59-S ) :   1.0841 B( 58-C , 87-H ) :   0.9788 B( 59-S , 60-C ) :   1.0871
B( 60-C , 61-C ) :   1.6178 B( 60-C , 62-Br) :   1.0162 B( 61-C , 88-H ) :   1.0001

-----------------------------------------------------------------------------
         ABSORPTION SPECTRUM VIA TRANSITION ELECTRIC DIPOLE MOMENTS
-----------------------------------------------------------------------------
State   Energy  Wavelength   fosc         T2         TX        TY        TZ
        (cm-1)    (nm)                  (au**2)     (au)      (au)      (au)
-----------------------------------------------------------------------------
   0   10282.4    972.5   0.848317210  27.16064  -3.25236  -0.22843   4.06578
   1   13628.4    733.8   0.017778830   0.42947  -0.07769   0.20538   0.61746
   2   18955.1    527.6   0.029463569   0.51172  -0.07554  -0.29192  -0.64869
   3   20702.8    483.0   1.237011550  19.67074   2.66009   2.45995   2.55798
   4   21720.6    460.4   0.029725249   0.45054  -0.53020  -0.10532   0.39791
   5   23189.9    431.2   0.204016669   2.89630   0.76119   0.90130   1.22660
   6   24205.1    413.1   0.380856261   5.18000   0.90280  -0.30761  -2.06648
   7   24846.1    402.5   0.000560131   0.00742   0.05895   0.06281  -0.00101
   8   25385.1    393.9   0.156672414   2.03184  -0.01413  -0.55682  -1.31210
   9   25941.1    385.5   0.002446759   0.03105  -0.06666  -0.16306   0.00445
  10   26581.3    376.2   0.002987849   0.03700   0.15444   0.11465  -0.00325
  11   26596.2    376.0   0.005014552   0.06207  -0.20232  -0.14415   0.01900
  12   26769.2    373.6   0.003592429   0.04418  -0.10328  -0.16779  -0.07322
  13   27309.8    366.2   0.467995586   5.64156  -2.04050  -1.21080  -0.10896
  14   27680.7    361.3   0.017929625   0.21324  -0.36455  -0.25543  -0.12287
  15   28948.1    345.4   0.000195834   0.00223   0.04230   0.01919  -0.00831
  16   29420.0    339.9   0.132022795   1.47735  -0.51336  -0.61070  -0.91698
  17   29777.6    335.8   0.107585105   1.18943  -0.14186   0.33705   1.02747
  18   30280.4    330.2   0.319286571   3.47132  -1.14383  -0.07915   1.46857
  19   30761.8    325.1   0.006210170   0.06646   0.11233   0.19429  -0.12686
  20   30824.2    324.4   0.021076294   0.22510  -0.36088   0.03488   0.30602
  21   31753.0    314.9   0.000685286   0.00710  -0.05134   0.02387   0.06244
  22   31919.0    313.3   0.486524465   5.01800  -1.17308   0.09596   1.90596
  23   32297.7    309.6   0.026627842   0.27142   0.25710   0.28156   0.35502
  24   33327.4    300.1   0.251850257   2.48781  -0.88272   0.04353   1.30641
  25   33355.7    299.8   0.000445558   0.00440   0.04037  -0.05200   0.00802
  26   34133.7    293.0   0.004464273   0.04306  -0.15834  -0.12359  -0.05207
  27   34361.3    291.0   0.028561370   0.27364   0.45784   0.25251  -0.01615
  28   34484.9    290.0   0.000044944   0.00043  -0.01344  -0.01361   0.00795
  29   34651.4    288.6   0.058556237   0.55632   0.58305   0.40529   0.22830
  30   34768.3    287.6   0.001508036   0.01428  -0.05721  -0.09700  -0.03996
  31   34901.5    286.5   0.055914061   0.52741  -0.58246  -0.17013   0.39900
  32   35065.4    285.2   0.018079787   0.16974   0.35524   0.12528  -0.16688
  33   35430.5    282.2   0.034607064   0.32156  -0.16434   0.11228   0.53099
  34   35863.8    278.8   0.077169056   0.70837  -0.37354   0.08667   0.74922
  35   36740.5    272.2   0.374934766   3.35959  -1.43999  -0.34390   1.08062
  36   37146.6    269.2   0.012613696   0.11179  -0.26463  -0.13938   0.14944
  37   37498.3    266.7   0.046244633   0.40600  -0.51404  -0.34218  -0.15710
  38   37874.3    264.0   0.001118942   0.00973  -0.07410  -0.04397  -0.04798
  39   38006.7    263.1   0.001281672   0.01110  -0.04434  -0.00638   0.09537
  40   38291.7    261.2   0.005963494   0.05127   0.16002   0.03860  -0.15549
  41   38553.9    259.4   0.003455612   0.02951   0.14622   0.08910   0.01372
  42   38699.4    258.4   0.017880236   0.15211  -0.24435  -0.21475  -0.21513
  43   38880.1    257.2   0.001835725   0.01554   0.03641   0.06399   0.10061
  44   39309.5    254.4   0.015712057   0.13159   0.20057   0.17589   0.24580
  45   39508.5    253.1   0.050114498   0.41759   0.56617   0.31025  -0.02804
  46   39599.2    252.5   0.000584426   0.00486  -0.04977  -0.04669   0.01421
  47   39762.1    251.5   0.000819110   0.00678  -0.06253   0.05351  -0.00288
  48   39912.2    250.5   0.053055212   0.43762   0.34585  -0.04144  -0.56240
  49   40283.5    248.2   0.099728168   0.81502   0.22873   0.45083   0.74797

FINAL SINGLE POINT ENERGY     -6620.632618352775

DIPOLE MOMENT
-------------
                                X             Y             Z
Electronic contribution:    -94.65829     -10.30000     105.57986
Nuclear contribution   :     91.97521       7.91342    -108.00800
                        -----------------------------------------
Total Dipole Moment    :     -2.68307      -2.38658      -2.42814
                        -----------------------------------------
Magnitude (a.u.)       :      4.33481
Magnitude (Debye)      :     11.01820

Rotational constants in cm-1:     0.000880     0.000480     0.000311
Rotational constants in MHz :    26.370976    14.402478     9.319982

                             ****ORCA TERMINATED NORMALLY****
TOTAL RUN TIME: 0 days 0 hours 8 minutes 58 seconds 956 msec
