                         Program Version 4.2.0 -  RELEASE  -
|  1> # ORCA input file
|  2> # SCF done       -173.122092548474          0.000859030140
|  3> ! CAM-B3LYP def2-SVP def2/J RIJCOSX Grid4 TightSCF
|  4> %maxcore 5000
|  5> %tddft
|  6>     Mode sTDDFT
|  7>     Ethresh 5.0
|  8>     maxcore 5000
|  9> end
| 10>
| 11> %pal
| 12>   nprocs 6
| 13>   end
| 14> * xyz 0 1
| 15>    C       -2.79970        -9.06547        -4.80237
| 16>    S       -2.58454        -9.23585        -3.11872
| 17>    C       -0.92519        -9.70662        -3.31141
| 18>    C       -0.57151        -9.76910        -4.64938
| 19>    C       -1.66286        -9.38640        -5.50492
| 20>    C       -1.43277        -9.33547        -6.90846
| 21>    C       -2.55900        -8.89718        -7.79421
| 22>    F       -2.98335        -7.65166        -7.49589
| 23>    F       -2.23732        -8.88186        -9.09324
| 24>    F       -3.64331        -9.68850        -7.68029
| 25>    C       -0.20625        -9.65540        -7.41280
| 26>    C        0.85274       -10.03977        -6.55867
| 27>    C        0.68573       -10.09489        -5.20848
| 28>    N       -0.10283        -9.94816        -2.22121
| 29>    C       -0.09572        -9.15993        -1.10577
| 30>    S        0.23538        -9.85705         0.44357
| 31>    C        0.03033        -8.29511         1.17669
| 32>    N        0.23059        -8.20642         2.55719
| 33>    O        0.09077        -7.11972         3.08447
| 34>    O        0.53383        -9.24053         3.13048
| 35>    C       -0.28437        -7.31183         0.27842
| 36>    C       -0.34558        -7.78367        -1.04649
| 37>    C       -0.57480        -6.98469        -2.22016
| 38>    C       -1.15066        -5.76976        -2.26863
| 39>    C       -1.42460        -5.11041        -3.50244
| 40>    C       -1.97390        -3.84735        -3.66582
| 41>    C       -2.27881        -3.04390        -2.55455
| 42>    N       -2.51319        -2.43923        -1.60932
| 43>    C       -2.18592        -3.51203        -5.03033
| 44>    C       -1.79819        -4.55251        -5.86817
| 45>    S       -1.15915        -5.91610        -5.03860
| 46>    S       -2.04311        -4.27556        -7.55844
| 47>    C       -2.67823        -2.71354        -7.14832
| 48>    C       -2.69726        -2.41824        -5.78927
| 49>    C       -3.20765        -1.11799        -5.55154
| 50>    C       -3.34250        -0.49792        -4.30471
| 51>    N       -3.46653         0.05817        -3.30752
| 52>    C       -3.57503        -0.45815        -6.73211
| 53>    S       -3.28878        -1.45175        -8.15064
| 54>    C       -4.09642         0.84163        -6.80211
| 55>    C       -4.50588         1.51564        -7.92563
| 56>    C       -5.01088         2.84023        -7.95928
| 57>    C       -5.36161         3.27622        -9.20090
| 58>    C       -5.16165         2.32085       -10.21954
| 59>    S       -4.49292         0.84593        -9.54321
| 60>    C       -5.43398         2.42828       -11.56920
| 61>    C       -5.95062         3.53856       -12.27459
| 62>    C       -6.11445         3.31454       -13.60675
| 63>    C       -5.74564         2.01445       -14.04088
| 64>    S       -5.16397         1.09191       -12.66009
| 65>    C       -5.83882         1.55823       -15.32948
| 66>    C       -5.52673         0.28435       -15.85093
| 67>    C       -5.66952        -0.07032       -17.19564
| 68>    C       -5.28136        -1.42336       -17.35803
| 69>    C       -5.24127        -2.24423       -18.46294
| 70>    C       -4.80553        -3.56669       -18.27846
| 71>    C       -4.65950        -4.62060       -19.16912
| 72>    C       -4.18060        -5.76806       -18.46128
| 73>    C       -4.03081        -5.41867       -17.13170
| 74>    C       -4.40990        -4.04969       -16.96709
| 75>    C       -4.44530        -3.23801       -15.86619
| 76>    C       -4.88427        -1.90805       -16.04792
| 77>    C       -5.03456        -0.87093       -15.14948
| 78>    C       -3.89830        -7.07109       -19.01369
| 79>    C       -4.03661        -7.41795       -20.29036
| 80>    H       -3.74556        -8.73509        -5.18050
| 81>    H       -0.03286        -9.61069        -8.47665
| 82>    H        1.80654       -10.28181        -6.99978
| 83>    H        1.49841       -10.37243        -4.55481
| 84>    H        0.28809       -10.87605        -2.12185
| 85>    H       -0.42707        -6.28746         0.56984
| 86>    H       -0.25992        -7.42831        -3.15560
| 87>    H       -1.47343        -5.25521        -1.37455
| 88>    H       -4.18251         1.36138        -5.85614
| 89>    H       -5.09620         3.42368        -7.05990
| 90>    H       -5.76325         4.25193        -9.40799
| 91>    H       -6.18330         4.46529       -11.78173
| 92>    H       -6.49569         4.04326       -14.30075
| 93>    H       -6.21399         2.27524       -16.05077
| 94>    H       -6.01885         0.57572       -17.98013
| 95>    H       -5.53532        -1.89222       -19.44178
| 96>    H       -4.87189        -4.58434       -20.22189
| 97>    H       -3.68785        -6.06191       -16.34196
| 98>    H       -4.15340        -3.58749       -14.88602
| 99>    H       -4.82214        -0.91933       -14.09813
|100>    H       -3.54678        -7.80212       -18.29606
|101>    H       -4.38221        -6.72717       -21.04018
|102>    H       -3.80673        -8.41251       -20.63113
|103> *
|104>
|105>                          ****END OF INPUT****

CARTESIAN COORDINATES (ANGSTROEM)
---------------------------------
  C     -2.799700   -9.065470   -4.802370
  S     -2.584540   -9.235850   -3.118720
  C     -0.925190   -9.706620   -3.311410
  C     -0.571510   -9.769100   -4.649380
  C     -1.662860   -9.386400   -5.504920
  C     -1.432770   -9.335470   -6.908460
  C     -2.559000   -8.897180   -7.794210
  F     -2.983350   -7.651660   -7.495890
  F     -2.237320   -8.881860   -9.093240
  F     -3.643310   -9.688500   -7.680290
  C     -0.206250   -9.655400   -7.412800
  C      0.852740  -10.039770   -6.558670
  C      0.685730  -10.094890   -5.208480
  N     -0.102830   -9.948160   -2.221210
  C     -0.095720   -9.159930   -1.105770
  S      0.235380   -9.857050    0.443570
  C      0.030330   -8.295110    1.176690
  N      0.230590   -8.206420    2.557190
  O      0.090770   -7.119720    3.084470
  O      0.533830   -9.240530    3.130480
  C     -0.284370   -7.311830    0.278420
  C     -0.345580   -7.783670   -1.046490
  C     -0.574800   -6.984690   -2.220160
  C     -1.150660   -5.769760   -2.268630
  C     -1.424600   -5.110410   -3.502440
  C     -1.973900   -3.847350   -3.665820
  C     -2.278810   -3.043900   -2.554550
  N     -2.513190   -2.439230   -1.609320
  C     -2.185920   -3.512030   -5.030330
  C     -1.798190   -4.552510   -5.868170
  S     -1.159150   -5.916100   -5.038600
  S     -2.043110   -4.275560   -7.558440
  C     -2.678230   -2.713540   -7.148320
  C     -2.697260   -2.418240   -5.789270
  C     -3.207650   -1.117990   -5.551540
  C     -3.342500   -0.497920   -4.304710
  N     -3.466530    0.058170   -3.307520
  C     -3.575030   -0.458150   -6.732110
  S     -3.288780   -1.451750   -8.150640
  C     -4.096420    0.841630   -6.802110
  C     -4.505880    1.515640   -7.925630
  C     -5.010880    2.840230   -7.959280
  C     -5.361610    3.276220   -9.200900
  C     -5.161650    2.320850  -10.219540
  S     -4.492920    0.845930   -9.543210
  C     -5.433980    2.428280  -11.569200
  C     -5.950620    3.538560  -12.274590
  C     -6.114450    3.314540  -13.606750
  C     -5.745640    2.014450  -14.040880
  S     -5.163970    1.091910  -12.660090
  C     -5.838820    1.558230  -15.329480
  C     -5.526730    0.284350  -15.850930
  C     -5.669520   -0.070320  -17.195640
  C     -5.281360   -1.423360  -17.358030
  C     -5.241270   -2.244230  -18.462940
  C     -4.805530   -3.566690  -18.278460
  C     -4.659500   -4.620600  -19.169120
  C     -4.180600   -5.768060  -18.461280
  C     -4.030810   -5.418670  -17.131700
  C     -4.409900   -4.049690  -16.967090
  C     -4.445300   -3.238010  -15.866190
  C     -4.884270   -1.908050  -16.047920
  C     -5.034560   -0.870930  -15.149480
  C     -3.898300   -7.071090  -19.013690
  C     -4.036610   -7.417950  -20.290360
  H     -3.745560   -8.735090   -5.180500
  H     -0.032860   -9.610690   -8.476650
  H      1.806540  -10.281810   -6.999780
  H      1.498410  -10.372430   -4.554810
  H      0.288090  -10.876050   -2.121850
  H     -0.427070   -6.287460    0.569840
  H     -0.259920   -7.428310   -3.155600
  H     -1.473430   -5.255210   -1.374550
  H     -4.182510    1.361380   -5.856140
  H     -5.096200    3.423680   -7.059900
  H     -5.763250    4.251930   -9.407990
  H     -6.183300    4.465290  -11.781730
  H     -6.495690    4.043260  -14.300750
  H     -6.213990    2.275240  -16.050770
  H     -6.018850    0.575720  -17.980130
  H     -5.535320   -1.892220  -19.441780
  H     -4.871890   -4.584340  -20.221890
  H     -3.687850   -6.061910  -16.341960
  H     -4.153400   -3.587490  -14.886020
  H     -4.822140   -0.919330  -14.098130
  H     -3.546780   -7.802120  -18.296060
  H     -4.382210   -6.727170  -21.040180
  H     -3.806730   -8.412510  -20.631130

 Total Charge           Charge          ....    0
 Multiplicity           Mult            ....    1
 Number of Electrons    NEL             ....  500
 Basis Dimension        Dim             .... 1053

ORBITAL ENERGIES
----------------

  NO   OCC          E(Eh)            E(eV)
   0   2.0000     -88.985878     -2421.4288
   1   2.0000     -88.983891     -2421.3748
   2   2.0000     -88.976642     -2421.1775
   3   2.0000     -88.976431     -2421.1718
   4   2.0000     -88.971524     -2421.0383
   5   2.0000     -88.948381     -2420.4085
   6   2.0000     -88.947666     -2420.3890
   7   2.0000     -24.806675      -675.0239
   8   2.0000     -24.802492      -674.9101
   9   2.0000     -24.800325      -674.8511
  10   2.0000     -19.232444      -523.3414
  11   2.0000     -19.232373      -523.3395
  12   2.0000     -14.644545      -398.4983
  13   2.0000     -14.483483      -394.1156
  14   2.0000     -14.394914      -391.7055
  15   2.0000     -14.387348      -391.4997
  16   2.0000     -10.521640      -286.3084
  17   2.0000     -10.369829      -282.1774
  18   2.0000     -10.352584      -281.7081
  19   2.0000     -10.340038      -281.3667
  20   2.0000     -10.328127      -281.0426
  21   2.0000     -10.325326      -280.9664
  22   2.0000     -10.322228      -280.8821
  23   2.0000     -10.320841      -280.8444
  24   2.0000     -10.316423      -280.7241
  25   2.0000     -10.313771      -280.6520
  26   2.0000     -10.311801      -280.5984
  27   2.0000     -10.309902      -280.5467
  28   2.0000     -10.308241      -280.5015
  29   2.0000     -10.307816      -280.4899
  30   2.0000     -10.307329      -280.4767
  31   2.0000     -10.306980      -280.4672
  32   2.0000     -10.306745      -280.4608
  33   2.0000     -10.303632      -280.3761
  34   2.0000     -10.302588      -280.3477
  35   2.0000     -10.302028      -280.3324
  36   2.0000     -10.300962      -280.3034
  37   2.0000     -10.300751      -280.2977
  38   2.0000     -10.300187      -280.2823
  39   2.0000     -10.299380      -280.2604
  40   2.0000     -10.299317      -280.2587
  41   2.0000     -10.297075      -280.1977
  42   2.0000     -10.294930      -280.1393
  43   2.0000     -10.294606      -280.1305
  44   2.0000     -10.293377      -280.0970
  45   2.0000     -10.292540      -280.0743
  46   2.0000     -10.291226      -280.0385
  47   2.0000     -10.289894      -280.0022
  48   2.0000     -10.288304      -279.9590
  49   2.0000     -10.288024      -279.9514
  50   2.0000     -10.287782      -279.9448
  51   2.0000     -10.287214      -279.9293
  52   2.0000     -10.287155      -279.9277
  53   2.0000     -10.281396      -279.7710
  54   2.0000     -10.280890      -279.7572
  55   2.0000     -10.280043      -279.7342
  56   2.0000     -10.278834      -279.7013
  57   2.0000     -10.277307      -279.6597
  58   2.0000     -10.273104      -279.5454
  59   2.0000     -10.272799      -279.5371
  60   2.0000     -10.271076      -279.4902
  61   2.0000     -10.270520      -279.4751
  62   2.0000     -10.269845      -279.4567
  63   2.0000     -10.269608      -279.4503
  64   2.0000     -10.261740      -279.2361
  65   2.0000      -8.080743      -219.8882
  66   2.0000      -8.079813      -219.8629
  67   2.0000      -8.071424      -219.6346
  68   2.0000      -8.071292      -219.6310
  69   2.0000      -8.066396      -219.4978
  70   2.0000      -8.044390      -218.8990
  71   2.0000      -8.043885      -218.8852
  72   2.0000      -6.049688      -164.6204
  73   2.0000      -6.049478      -164.6147
  74   2.0000      -6.045400      -164.5037
  75   2.0000      -6.045102      -164.4956
  76   2.0000      -6.043800      -164.4602
  77   2.0000      -6.041360      -164.3938
  78   2.0000      -6.041191      -164.3892
  79   2.0000      -6.040841      -164.3796
  80   2.0000      -6.037210      -164.2808
  81   2.0000      -6.036687      -164.2666
  82   2.0000      -6.036067      -164.2497
  83   2.0000      -6.032969      -164.1654
  84   2.0000      -6.032277      -164.1466
  85   2.0000      -6.031729      -164.1317
  86   2.0000      -6.027930      -164.0283
  87   2.0000      -6.014171      -163.6539
  88   2.0000      -6.013642      -163.6395
  89   2.0000      -6.010103      -163.5432
  90   2.0000      -6.009561      -163.5285
  91   2.0000      -6.005282      -163.4120
  92   2.0000      -6.004778      -163.3983
  93   2.0000      -1.392562       -37.8935
  94   2.0000      -1.313856       -35.7518
  95   2.0000      -1.297158       -35.2975
  96   2.0000      -1.291329       -35.1389
  97   2.0000      -1.132961       -30.8294
  98   2.0000      -1.091590       -29.7037
  99   2.0000      -1.029587       -28.0165
 100   2.0000      -1.014459       -27.6048
 101   2.0000      -1.000082       -27.2136
 102   2.0000      -0.995830       -27.0979
 103   2.0000      -0.994370       -27.0582
 104   2.0000      -0.991518       -26.9806
 105   2.0000      -0.979062       -26.6416
 106   2.0000      -0.974711       -26.5232
 107   2.0000      -0.967101       -26.3162
 108   2.0000      -0.964955       -26.2578
 109   2.0000      -0.950927       -25.8760
 110   2.0000      -0.941712       -25.6253
 111   2.0000      -0.914859       -24.8946
 112   2.0000      -0.906176       -24.6583
 113   2.0000      -0.898344       -24.4452
 114   2.0000      -0.890338       -24.2273
 115   2.0000      -0.884234       -24.0612
 116   2.0000      -0.878379       -23.9019
 117   2.0000      -0.868850       -23.6426
 118   2.0000      -0.868189       -23.6246
 119   2.0000      -0.859813       -23.3967
 120   2.0000      -0.852566       -23.1995
 121   2.0000      -0.850488       -23.1430
 122   2.0000      -0.849110       -23.1055
 123   2.0000      -0.844304       -22.9747
 124   2.0000      -0.824938       -22.4477
 125   2.0000      -0.819061       -22.2878
 126   2.0000      -0.818007       -22.2591
 127   2.0000      -0.804706       -21.8972
 128   2.0000      -0.802412       -21.8347
 129   2.0000      -0.789896       -21.4942
 130   2.0000      -0.785777       -21.3821
 131   2.0000      -0.776330       -21.1250
 132   2.0000      -0.761783       -20.7292
 133   2.0000      -0.750096       -20.4112
 134   2.0000      -0.738984       -20.1088
 135   2.0000      -0.729182       -19.8421
 136   2.0000      -0.726805       -19.7774
 137   2.0000      -0.713639       -19.4191
 138   2.0000      -0.705337       -19.1932
 139   2.0000      -0.698794       -19.0152
 140   2.0000      -0.690129       -18.7794
 141   2.0000      -0.682690       -18.5769
 142   2.0000      -0.680369       -18.5138
 143   2.0000      -0.675043       -18.3689
 144   2.0000      -0.674393       -18.3512
 145   2.0000      -0.673776       -18.3344
 146   2.0000      -0.671423       -18.2703
 147   2.0000      -0.666344       -18.1321
 148   2.0000      -0.655601       -17.8398
 149   2.0000      -0.649513       -17.6742
 150   2.0000      -0.646329       -17.5875
 151   2.0000      -0.639381       -17.3984
 152   2.0000      -0.632311       -17.2061
 153   2.0000      -0.631455       -17.1828
 154   2.0000      -0.629582       -17.1318
 155   2.0000      -0.625946       -17.0329
 156   2.0000      -0.620015       -16.8715
 157   2.0000      -0.618318       -16.8253
 158   2.0000      -0.615232       -16.7413
 159   2.0000      -0.603724       -16.4282
 160   2.0000      -0.598435       -16.2842
 161   2.0000      -0.595873       -16.2145
 162   2.0000      -0.590847       -16.0778
 163   2.0000      -0.584056       -15.8930
 164   2.0000      -0.579572       -15.7709
 165   2.0000      -0.579245       -15.7620
 166   2.0000      -0.576082       -15.6760
 167   2.0000      -0.572535       -15.5795
 168   2.0000      -0.562397       -15.3036
 169   2.0000      -0.555245       -15.1090
 170   2.0000      -0.553651       -15.0656
 171   2.0000      -0.552729       -15.0405
 172   2.0000      -0.547911       -14.9094
 173   2.0000      -0.543953       -14.8017
 174   2.0000      -0.540233       -14.7005
 175   2.0000      -0.533444       -14.5158
 176   2.0000      -0.532273       -14.4839
 177   2.0000      -0.530339       -14.4313
 178   2.0000      -0.527834       -14.3631
 179   2.0000      -0.524369       -14.2688
 180   2.0000      -0.520258       -14.1569
 181   2.0000      -0.511279       -13.9126
 182   2.0000      -0.508669       -13.8416
 183   2.0000      -0.507829       -13.8187
 184   2.0000      -0.505281       -13.7494
 185   2.0000      -0.504957       -13.7406
 186   2.0000      -0.502685       -13.6788
 187   2.0000      -0.501786       -13.6543
 188   2.0000      -0.498504       -13.5650
 189   2.0000      -0.497343       -13.5334
 190   2.0000      -0.496360       -13.5066
 191   2.0000      -0.495594       -13.4858
 192   2.0000      -0.491114       -13.3639
 193   2.0000      -0.489344       -13.3157
 194   2.0000      -0.488726       -13.2989
 195   2.0000      -0.487492       -13.2653
 196   2.0000      -0.481828       -13.1112
 197   2.0000      -0.479014       -13.0346
 198   2.0000      -0.477643       -12.9973
 199   2.0000      -0.471402       -12.8275
 200   2.0000      -0.469647       -12.7797
 201   2.0000      -0.467969       -12.7341
 202   2.0000      -0.465455       -12.6657
 203   2.0000      -0.462880       -12.5956
 204   2.0000      -0.457446       -12.4477
 205   2.0000      -0.455476       -12.3941
 206   2.0000      -0.455439       -12.3931
 207   2.0000      -0.454381       -12.3643
 208   2.0000      -0.452078       -12.3017
 209   2.0000      -0.447486       -12.1767
 210   2.0000      -0.446595       -12.1525
 211   2.0000      -0.442308       -12.0358
 212   2.0000      -0.437056       -11.8929
 213   2.0000      -0.435026       -11.8377
 214   2.0000      -0.433081       -11.7847
 215   2.0000      -0.428150       -11.6506
 216   2.0000      -0.424687       -11.5563
 217   2.0000      -0.423624       -11.5274
 218   2.0000      -0.420397       -11.4396
 219   2.0000      -0.419227       -11.4078
 220   2.0000      -0.415696       -11.3117
 221   2.0000      -0.414992       -11.2925
 222   2.0000      -0.413855       -11.2616
 223   2.0000      -0.410102       -11.1594
 224   2.0000      -0.408197       -11.1076
 225   2.0000      -0.404530       -11.0078
 226   2.0000      -0.393754       -10.7146
 227   2.0000      -0.391175       -10.6444
 228   2.0000      -0.380598       -10.3566
 229   2.0000      -0.378335       -10.2950
 230   2.0000      -0.377050       -10.2600
 231   2.0000      -0.375174       -10.2090
 232   2.0000      -0.371721       -10.1150
 233   2.0000      -0.371504       -10.1091
 234   2.0000      -0.363168        -9.8823
 235   2.0000      -0.361080        -9.8255
 236   2.0000      -0.353016        -9.6061
 237   2.0000      -0.341371        -9.2892
 238   2.0000      -0.336982        -9.1698
 239   2.0000      -0.333401        -9.0723
 240   2.0000      -0.327436        -8.9100
 241   2.0000      -0.321996        -8.7619
 242   2.0000      -0.312402        -8.5009
 243   2.0000      -0.304036        -8.2732
 244   2.0000      -0.283417        -7.7122
 245   2.0000      -0.273506        -7.4425
 246   2.0000      -0.273488        -7.4420
 247   2.0000      -0.256885        -6.9902
 248   2.0000      -0.252254        -6.8642
 249   2.0000      -0.207762        -5.6535
 250   0.0000      -0.101908        -2.7731
 251   0.0000      -0.078472        -2.1353
 252   0.0000      -0.060610        -1.6493
 253   0.0000      -0.048413        -1.3174
 254   0.0000      -0.042742        -1.1631

MULLIKEN ATOMIC CHARGES
-----------------------
   0 C :   -0.119411
   1 S :    0.193996
   2 C :   -0.230849
   3 C :    0.165674
   4 C :    0.071826
   5 C :   -0.090904
   6 C :    0.504874
   7 F :   -0.173240
   8 F :   -0.152973
   9 F :   -0.168743
  10 C :   -0.015114
  11 C :    0.025352
  12 C :   -0.005836
  13 N :   -0.053098
  14 C :   -0.110874
  15 S :    0.171270
  16 C :   -0.013147
  17 N :    0.279261
  18 O :   -0.246773
  19 O :   -0.270000
  20 C :    0.006081
  21 C :    0.089310
  22 C :   -0.026924
  23 C :    0.002220
  24 C :   -0.089564
  25 C :   -0.022729
  26 C :   -0.323868
  27 N :    0.209052
  28 C :    0.154558
  29 C :   -0.223735
  30 S :    0.137706
  31 S :    0.184638
  32 C :   -0.233604
  33 C :    0.165192
  34 C :   -0.039229
  35 C :   -0.323215
  36 N :    0.192077
  37 C :   -0.062701
  38 S :    0.133754
  39 C :   -0.061722
  40 C :   -0.017214
  41 C :    0.022311
  42 C :    0.040276
  43 C :   -0.043884
  44 S :    0.052392
  45 C :   -0.023443
  46 C :    0.023215
  47 C :    0.043303
  48 C :   -0.030798
  49 S :    0.048541
  50 C :   -0.001471
  51 C :    0.053655
  52 C :   -0.033313
  53 C :    0.066285
  54 C :    0.001252
  55 C :    0.045536
  56 C :   -0.017517
  57 C :    0.059525
  58 C :   -0.023719
  59 C :    0.060106
  60 C :    0.000903
  61 C :    0.040520
  62 C :   -0.027783
  63 C :    0.010433
  64 C :   -0.023059
  65 H :    0.035810
  66 H :   -0.000418
  67 H :   -0.004336
  68 H :   -0.026175
  69 H :    0.150992
  70 H :    0.018798
  71 H :    0.023935
  72 H :    0.015516
  73 H :    0.011329
  74 H :   -0.005978
  75 H :   -0.012744
  76 H :   -0.013626
  77 H :   -0.010426
  78 H :   -0.021452
  79 H :   -0.027881
  80 H :   -0.023715
  81 H :   -0.021708
  82 H :   -0.025971
  83 H :   -0.022389
  84 H :   -0.005280
  85 H :   -0.018331
  86 H :    0.008068
  87 H :    0.021344
Sum of atomic charges:   -0.0000000

LOEWDIN ATOMIC CHARGES
----------------------
   0 C :   -0.197520
   1 S :    0.506824
   2 C :   -0.169551
   3 C :   -0.066102
   4 C :   -0.049982
   5 C :   -0.078994
   6 C :    0.171760
   7 F :   -0.070475
   8 F :   -0.052560
   9 F :   -0.065602
  10 C :   -0.001776
  11 C :   -0.025638
  12 C :   -0.003492
  13 N :   -0.003955
  14 C :   -0.111266
  15 S :    0.450789
  16 C :   -0.210072
  17 N :    0.273608
  18 O :   -0.212580
  19 O :   -0.235841
  20 C :    0.010253
  21 C :   -0.107815
  22 C :   -0.027744
  23 C :   -0.037348
  24 C :   -0.128496
  25 C :   -0.098057
  26 C :   -0.040486
  27 N :   -0.036648
  28 C :   -0.064576
  29 C :   -0.332254
  30 S :    0.453618
  31 S :    0.421550
  32 C :   -0.343396
  33 C :   -0.059608
  34 C :   -0.115517
  35 C :   -0.041833
  36 N :   -0.049840
  37 C :   -0.125453
  38 S :    0.432261
  39 C :   -0.089808
  40 C :   -0.136802
  41 C :   -0.039378
  42 C :   -0.025543
  43 C :   -0.192480
  44 S :    0.361841
  45 C :   -0.162033
  46 C :   -0.044933
  47 C :   -0.018594
  48 C :   -0.160818
  49 S :    0.377390
  50 C :   -0.031034
  51 C :   -0.066961
  52 C :    0.018148
  53 C :   -0.061213
  54 C :    0.076092
  55 C :   -0.063866
  56 C :    0.050945
  57 C :   -0.058816
  58 C :    0.017963
  59 C :   -0.058346
  60 C :    0.072102
  61 C :   -0.061162
  62 C :    0.029029
  63 C :   -0.021356
  64 C :   -0.052998
  65 H :    0.027297
  66 H :    0.036041
  67 H :    0.033657
  68 H :    0.028974
  69 H :    0.091316
  70 H :    0.049155
  71 H :    0.024364
  72 H :    0.042060
  73 H :    0.048343
  74 H :    0.036049
  75 H :    0.033022
  76 H :    0.032089
  77 H :    0.034363
  78 H :    0.036496
  79 H :    0.024025
  80 H :    0.035300
  81 H :    0.025825
  82 H :    0.025020
  83 H :    0.036055
  84 H :    0.014401
  85 H :    0.029766
  86 H :    0.017884
  87 H :    0.024945

  Mayer bond orders larger than 0.100000
B(  0-C ,  1-S ) :   1.1972 B(  0-C ,  2-C ) :   0.1041 B(  0-C ,  4-C ) :   1.4778
B(  0-C , 65-H ) :   0.9442 B(  1-S ,  2-C ) :   1.1976 B(  2-C ,  3-C ) :   1.3520
B(  2-C , 13-N ) :   1.0768 B(  3-C ,  4-C ) :   1.2014 B(  3-C , 12-C ) :   1.1682
B(  4-C ,  5-C ) :   1.1716 B(  5-C ,  6-C ) :   0.9480 B(  5-C , 10-C ) :   1.5995
B(  6-C ,  7-F ) :   1.1387 B(  6-C ,  8-F ) :   1.1729 B(  6-C ,  9-F ) :   1.1502
B( 10-C , 11-C ) :   1.1744 B( 10-C , 66-H ) :   0.9931 B( 11-C , 12-C ) :   1.5678
B( 11-C , 67-H ) :   0.9863 B( 12-C , 68-H ) :   0.9982 B( 13-N , 14-C ) :   1.1900
B( 13-N , 69-H ) :   0.9084 B( 14-C , 15-S ) :   1.1404 B( 14-C , 21-C ) :   1.3805
B( 15-S , 16-C ) :   1.0760 B( 16-C , 17-N ) :   0.9719 B( 16-C , 20-C ) :   1.4873
B( 17-N , 18-O ) :   1.5373 B( 17-N , 19-O ) :   1.5058 B( 18-O , 19-O ) :   0.2572
B( 20-C , 21-C ) :   1.2369 B( 20-C , 70-H ) :   1.0042 B( 21-C , 22-C ) :   1.0723
B( 22-C , 23-C ) :   1.6868 B( 22-C , 71-H ) :   0.9586 B( 23-C , 24-C ) :   1.1722
B( 23-C , 72-H ) :   0.9653 B( 24-C , 25-C ) :   1.4941 B( 24-C , 30-S ) :   1.1154
B( 25-C , 26-C ) :   1.1773 B( 25-C , 28-C ) :   1.2421 B( 26-C , 27-N ) :   2.9892
B( 28-C , 29-C ) :   1.4150 B( 28-C , 33-C ) :   1.0532 B( 29-C , 30-S ) :   1.0937
B( 29-C , 31-S ) :   1.0894 B( 31-S , 32-C ) :   1.0750 B( 32-C , 33-C ) :   1.4083
B( 32-C , 38-S ) :   1.0825 B( 33-C , 34-C ) :   1.2649 B( 34-C , 35-C ) :   1.1941
B( 34-C , 37-C ) :   1.4397 B( 35-C , 36-N ) :   2.9705 B( 37-C , 38-S ) :   1.0978
B( 37-C , 39-C ) :   1.2328 B( 39-C , 40-C ) :   1.5404 B( 39-C , 73-H ) :   0.9622
B( 40-C , 41-C ) :   1.1486 B( 40-C , 44-S ) :   1.0469 B( 41-C , 42-C ) :   1.5810
B( 41-C , 74-H ) :   1.0018 B( 42-C , 43-C ) :   1.1942 B( 42-C , 75-H ) :   0.9922
B( 43-C , 44-S ) :   1.0277 B( 43-C , 45-C ) :   1.5058 B( 45-C , 46-C ) :   1.1869
B( 45-C , 49-S ) :   1.0549 B( 46-C , 47-C ) :   1.5906 B( 46-C , 76-H ) :   0.9929
B( 47-C , 48-C ) :   1.1414 B( 47-C , 77-H ) :   0.9984 B( 48-C , 49-S ) :   1.0140
B( 48-C , 50-C ) :   1.5793 B( 50-C , 51-C ) :   1.1359 B( 50-C , 78-H ) :   0.9678
B( 51-C , 52-C ) :   1.4277 B( 51-C , 62-C ) :   1.1353 B( 52-C , 53-C ) :   1.1227
B( 52-C , 79-H ) :   1.0186 B( 53-C , 54-C ) :   1.4157 B( 53-C , 61-C ) :   1.1319
B( 54-C , 55-C ) :   1.1498 B( 54-C , 80-H ) :   1.0050 B( 55-C , 56-C ) :   1.4194
B( 55-C , 59-C ) :   1.1262 B( 56-C , 57-C ) :   1.1569 B( 56-C , 81-H ) :   1.0077
B( 57-C , 58-C ) :   1.4977 B( 57-C , 63-C ) :   1.0827 B( 58-C , 59-C ) :   1.0894
B( 58-C , 82-H ) :   1.0162 B( 59-C , 60-C ) :   1.4616 B( 60-C , 61-C ) :   1.1258
B( 60-C , 83-H ) :   1.0050 B( 61-C , 62-C ) :   1.4604 B( 62-C , 84-H ) :   0.9899
B( 63-C , 64-C ) :   1.9367 B( 63-C , 85-H ) :   0.9658 B( 64-C , 86-H ) :   0.9523
B( 64-C , 87-H ) :   0.9490

-----------------------------------------------------------------------------
         ABSORPTION SPECTRUM VIA TRANSITION ELECTRIC DIPOLE MOMENTS
-----------------------------------------------------------------------------
State   Energy  Wavelength   fosc         T2         TX        TY        TZ
        (cm-1)    (nm)                  (au**2)     (au)      (au)      (au)
-----------------------------------------------------------------------------
   0    6630.3   1508.2   0.016645777   0.82650  -0.10441  -0.20240  -0.88014
   1   14443.5    692.4   1.486882858  33.89074   1.06728   0.11837   5.72168
   2   15216.5    657.2   0.028297074   0.61221   0.21809  -0.26933   0.70151
   3   22321.8    448.0   0.085558979   1.26186   0.09230  -0.81342  -0.76921
   4   22884.5    437.0   0.024568619   0.35344   0.09384  -0.53384  -0.24422
   5   23982.1    417.0   0.137710967   1.89041   0.38585  -1.31773  -0.07157
   6   24456.0    408.9   0.095997469   1.29226  -0.43750  -0.15998  -1.03695
   7   24680.3    405.2   0.207205536   2.76393  -0.10557   1.49511   0.71934
   8   25444.2    393.0   0.205885286   2.66387   0.56227  -1.48154   0.39085
   9   25789.0    387.8   0.225499057   2.87863   0.55142  -1.53375   0.47136
  10   26968.3    370.8   0.947832653  11.57056  -0.96804   3.25699  -0.15964
  11   27264.8    366.8   0.143509479   1.73282   0.32819  -0.82577  -0.97120
  12   27567.5    362.7   0.018253622   0.21798  -0.10205  -0.15858  -0.42711
  13   27928.9    358.1   0.119363962   1.40701  -0.32323   1.12457   0.19461
  14   28005.6    357.1   0.339226387   3.98768  -0.70789   1.86719   0.01358
  15   28261.8    353.8   0.513173736   5.97777   0.28581   0.77266   2.30197
  16   29620.5    337.6   0.003180850   0.03535  -0.09717  -0.02336  -0.15926
  17   30048.8    332.8   0.280159360   3.06940   0.87093  -1.24328   0.87473
  18   30167.9    331.5   0.021700595   0.23681   0.21197   0.02463   0.43735
  19   30795.6    324.7   0.001708026   0.01826  -0.03855  -0.12911  -0.01023
  20   31680.6    315.7   0.133219189   1.38436   0.32902  -1.12955  -0.01464
  21   31750.6    315.0   0.240682336   2.49556  -0.35355   0.51302  -1.45168
  22   32294.3    309.7   0.003184101   0.03246   0.02051   0.04300   0.17375
  23   32697.8    305.8   0.046008198   0.46322   0.09039  -0.02445  -0.67413
  24   32902.9    303.9   0.006201069   0.06205   0.14857  -0.14064  -0.14209
  25   33310.3    300.2   0.074934890   0.74060   0.09492  -0.66129  -0.54248
  26   34048.2    293.7   0.084935578   0.82124   0.09830  -0.80165  -0.41101
  27   34463.3    290.2   0.057166562   0.54609   0.03978  -0.30034  -0.67402
  28   34923.6    286.3   0.010987523   0.10358  -0.09805   0.25832  -0.16502
  29   35061.9    285.2   0.011037205   0.10363  -0.14117   0.28931   0.00139
  30   35973.7    278.0   0.000935314   0.00856  -0.00932  -0.01361  -0.09103
  31   36485.7    274.1   0.044847441   0.40466  -0.14889   0.61509   0.06448
  32   36721.6    272.3   0.027206525   0.24391   0.08852  -0.48196  -0.06154
  33   37135.9    269.3   0.089377686   0.79234  -0.17483   0.85221   0.18845
  34   37349.8    267.7   0.006312395   0.05564  -0.08313   0.20606  -0.07918
  35   37523.4    266.5   0.220574758   1.93521   0.24674  -1.16683  -0.71613
  36   37585.5    266.1   0.009798820   0.08583  -0.09421   0.17464  -0.21553
  37   37817.2    264.4   0.111033926   0.96659   0.06734   0.29655   0.93494
  38   38374.5    260.6   0.029377510   0.25203  -0.22637   0.43714  -0.09843
  39   38484.0    259.8   0.086241999   0.73776   0.56153  -0.59344  -0.26508
  40   39358.7    254.1   0.000442928   0.00370  -0.00625   0.05848  -0.01567
  41   39501.0    253.2   0.051530918   0.42947  -0.15656   0.61835  -0.15035
  42   40002.0    250.0   0.030876124   0.25411   0.17508  -0.47252  -0.01354
  43   40319.9    248.0   0.123562557   1.00889  -0.28578   0.12116   0.95527

FINAL SINGLE POINT ENERGY     -5333.131936361503

DIPOLE MOMENT
-------------
                                X             Y             Z
Electronic contribution:     10.87853     -23.99242      66.82575
Nuclear contribution   :    -10.79506      22.56063     -72.58855
                        -----------------------------------------
Total Dipole Moment    :      0.08347      -1.43180      -5.76280
                        -----------------------------------------
Magnitude (a.u.)       :      5.93859
Magnitude (Debye)      :     15.09471

Rotational constants in cm-1:     0.001295     0.000374     0.000295
Rotational constants in MHz :    38.815019    11.221846     8.837137

                             ****ORCA TERMINATED NORMALLY****
TOTAL RUN TIME: 0 days 0 hours 15 minutes 37 seconds 341 msec
