                         Program Version 4.2.0 -  RELEASE  -
|  1> # ORCA input file
|  2> # SCF done       -167.901581496296          0.000359423365
|  3> ! CAM-B3LYP def2-SVP def2/J RIJCOSX Grid4 TightSCF
|  4> %maxcore 5000
|  5> %tddft
|  6>     Mode sTDDFT
|  7>     Ethresh 5.0
|  8>     maxcore 5000
|  9> end
| 10>
| 11> %pal
| 12>   nprocs 6
| 13>   end
| 14> * xyz 0 1
| 15>    C       -2.03692        -4.74173        -5.63553
| 16>    S       -1.18855        -3.53316        -6.48770
| 17>    C        0.04546        -3.42418        -5.27768
| 18>    C       -0.19727        -4.33161        -4.24912
| 19>    C       -1.40695        -5.08114        -4.46104
| 20>    C       -1.79880        -6.03460        -3.48076
| 21>    C       -3.06350        -6.80405        -3.70380
| 22>    F       -3.04394        -7.51656        -4.84726
| 23>    F       -3.33378        -7.67729        -2.72365
| 24>    F       -4.14371        -5.99927        -3.79504
| 25>    C       -1.03484        -6.22309        -2.36526
| 26>    C        0.14209        -5.47054        -2.16262
| 27>    C        0.55440        -4.54315        -3.07269
| 28>    C        1.17699        -2.56208        -5.45174
| 29>    S        2.77441        -3.17291        -5.10619
| 30>    C        3.49244        -1.73451        -5.71292
| 31>    C        2.58185        -0.83581        -6.16433
| 32>    C        2.93878         0.49735        -6.73200
| 33>    C        1.23619        -1.29558        -6.00559
| 34>    C        0.10297        -0.46010        -6.32997
| 35>    C       -1.06000        -0.44874        -5.65446
| 36>    C       -2.20293         0.37825        -5.92817
| 37>    C       -2.33410         1.24343        -6.95238
| 38>    C       -3.48719         2.05520        -7.25470
| 39>    C       -4.40348         2.55864        -6.41613
| 40>    C       -4.37532         2.42643        -4.92413
| 41>    C       -5.57263         3.34647        -6.96656
| 42>    N       -5.49975         4.74888        -6.62551
| 43>    C       -5.23085         5.73281        -7.48464
| 44>    C       -5.11703         7.04826        -7.11824
| 45>    C       -4.89385         8.14039        -7.96770
| 46>    C       -4.69252         8.18265        -9.33044
| 47>    C       -4.51980         9.36230       -10.08959
| 48>    C       -4.34064         9.16002       -11.42848
| 49>    C       -4.35185         7.80258       -11.80144
| 50>    S       -4.60474         6.79354       -10.40510
| 51>    C       -4.19431         7.23755       -13.05967
| 52>    C       -4.01924         7.87207       -14.29969
| 53>    C       -3.90021         6.99994       -15.34949
| 54>    C       -3.96857         5.64281       -14.98205
| 55>    S       -4.19943         5.49785       -13.25787
| 56>    C       -3.87068         4.53634       -15.81481
| 57>    C       -3.91771         3.24043       -15.33327
| 58>    C       -3.83555         2.08938       -16.10298
| 59>    C       -3.85422         0.74064       -15.61805
| 60>    C       -3.91840         0.31964       -14.30518
| 61>    C       -3.91794        -1.03003       -13.90823
| 62>    N       -3.91804        -2.10837       -13.50885
| 63>    C       -3.98279         1.14556       -13.16827
| 64>    N       -4.03395         1.72348       -12.17412
| 65>    C       -3.77652        -0.15042       -16.77699
| 66>    C       -3.69758         0.64055       -17.94802
| 67>    C       -3.72598         2.07223       -17.56750
| 68>    O       -3.67201         3.01621       -18.33526
| 69>    C       -3.61480         0.09827       -19.20514
| 70>    C       -3.61068        -1.29763       -19.31519
| 71>    C       -3.69080        -2.07892       -18.14146
| 72>    C       -3.77387        -1.52817       -16.86694
| 73>    S       -3.67313        -3.78003       -18.50355
| 74>    C       -3.55968        -3.41879       -20.20550
| 75>    C       -3.53592        -2.09612       -20.49018
| 76>   Br       -3.48335        -4.82436       -21.44751
| 77>    H       -2.94450        -5.13703        -6.04447
| 78>    H       -1.33198        -6.94844        -1.62357
| 79>    H        0.71331        -5.64040        -1.26357
| 80>    H        1.45010        -3.96583        -2.90471
| 81>    H        4.56016        -1.63816        -5.69522
| 82>    H        4.01578         0.64125        -6.70865
| 83>    H        2.46426         1.29376        -6.16014
| 84>    H        2.60076         0.57272        -7.76513
| 85>    H        0.26105         0.23378        -7.14315
| 86>    H       -1.16505        -1.11078        -4.80393
| 87>    H       -3.03385         0.23205        -5.25478
| 88>    H       -1.53539         1.32197        -7.67780
| 89>    H       -3.59292         2.28635        -8.30831
| 90>    H       -3.35353         2.34099        -4.56247
| 91>    H       -4.92682         1.53995        -4.60840
| 92>    H       -4.84322         3.28584        -4.44613
| 93>    H       -6.50328         2.93940        -6.55146
| 94>    H       -5.60817         3.26068        -8.05335
| 95>    H       -5.55361         4.98270        -5.64377
| 96>    H       -5.14045         5.42842        -8.51572
| 97>    H       -5.23000         7.28267        -6.06703
| 98>    H       -4.88227         9.11057        -7.48539
| 99>    H       -4.53708        10.33275        -9.62465
|100>    H       -4.19718         9.94672       -12.14684
|101>    H       -3.98829         8.94285       -14.39619
|102>    H       -3.76233         7.29656       -16.37395
|103>    H       -3.74838         4.70588       -16.87428
|104>    H       -4.02682         3.12229       -14.26148
|105>    H       -3.55599         0.72854       -20.07876
|106>    H       -3.83397        -2.16933       -16.00360
|107>    H       -3.46910        -1.69697       -21.48589
|108> *
|109>
|110>                          ****END OF INPUT****

CARTESIAN COORDINATES (ANGSTROEM)
---------------------------------
  C     -2.036920   -4.741730   -5.635530
  S     -1.188550   -3.533160   -6.487700
  C      0.045460   -3.424180   -5.277680
  C     -0.197270   -4.331610   -4.249120
  C     -1.406950   -5.081140   -4.461040
  C     -1.798800   -6.034600   -3.480760
  C     -3.063500   -6.804050   -3.703800
  F     -3.043940   -7.516560   -4.847260
  F     -3.333780   -7.677290   -2.723650
  F     -4.143710   -5.999270   -3.795040
  C     -1.034840   -6.223090   -2.365260
  C      0.142090   -5.470540   -2.162620
  C      0.554400   -4.543150   -3.072690
  C      1.176990   -2.562080   -5.451740
  S      2.774410   -3.172910   -5.106190
  C      3.492440   -1.734510   -5.712920
  C      2.581850   -0.835810   -6.164330
  C      2.938780    0.497350   -6.732000
  C      1.236190   -1.295580   -6.005590
  C      0.102970   -0.460100   -6.329970
  C     -1.060000   -0.448740   -5.654460
  C     -2.202930    0.378250   -5.928170
  C     -2.334100    1.243430   -6.952380
  C     -3.487190    2.055200   -7.254700
  C     -4.403480    2.558640   -6.416130
  C     -4.375320    2.426430   -4.924130
  C     -5.572630    3.346470   -6.966560
  N     -5.499750    4.748880   -6.625510
  C     -5.230850    5.732810   -7.484640
  C     -5.117030    7.048260   -7.118240
  C     -4.893850    8.140390   -7.967700
  C     -4.692520    8.182650   -9.330440
  C     -4.519800    9.362300  -10.089590
  C     -4.340640    9.160020  -11.428480
  C     -4.351850    7.802580  -11.801440
  S     -4.604740    6.793540  -10.405100
  C     -4.194310    7.237550  -13.059670
  C     -4.019240    7.872070  -14.299690
  C     -3.900210    6.999940  -15.349490
  C     -3.968570    5.642810  -14.982050
  S     -4.199430    5.497850  -13.257870
  C     -3.870680    4.536340  -15.814810
  C     -3.917710    3.240430  -15.333270
  C     -3.835550    2.089380  -16.102980
  C     -3.854220    0.740640  -15.618050
  C     -3.918400    0.319640  -14.305180
  C     -3.917940   -1.030030  -13.908230
  N     -3.918040   -2.108370  -13.508850
  C     -3.982790    1.145560  -13.168270
  N     -4.033950    1.723480  -12.174120
  C     -3.776520   -0.150420  -16.776990
  C     -3.697580    0.640550  -17.948020
  C     -3.725980    2.072230  -17.567500
  O     -3.672010    3.016210  -18.335260
  C     -3.614800    0.098270  -19.205140
  C     -3.610680   -1.297630  -19.315190
  C     -3.690800   -2.078920  -18.141460
  C     -3.773870   -1.528170  -16.866940
  S     -3.673130   -3.780030  -18.503550
  C     -3.559680   -3.418790  -20.205500
  C     -3.535920   -2.096120  -20.490180
  Br    -3.483350   -4.824360  -21.447510
  H     -2.944500   -5.137030   -6.044470
  H     -1.331980   -6.948440   -1.623570
  H      0.713310   -5.640400   -1.263570
  H      1.450100   -3.965830   -2.904710
  H      4.560160   -1.638160   -5.695220
  H      4.015780    0.641250   -6.708650
  H      2.464260    1.293760   -6.160140
  H      2.600760    0.572720   -7.765130
  H      0.261050    0.233780   -7.143150
  H     -1.165050   -1.110780   -4.803930
  H     -3.033850    0.232050   -5.254780
  H     -1.535390    1.321970   -7.677800
  H     -3.592920    2.286350   -8.308310
  H     -3.353530    2.340990   -4.562470
  H     -4.926820    1.539950   -4.608400
  H     -4.843220    3.285840   -4.446130
  H     -6.503280    2.939400   -6.551460
  H     -5.608170    3.260680   -8.053350
  H     -5.553610    4.982700   -5.643770
  H     -5.140450    5.428420   -8.515720
  H     -5.230000    7.282670   -6.067030
  H     -4.882270    9.110570   -7.485390
  H     -4.537080   10.332750   -9.624650
  H     -4.197180    9.946720  -12.146840
  H     -3.988290    8.942850  -14.396190
  H     -3.762330    7.296560  -16.373950
  H     -3.748380    4.705880  -16.874280
  H     -4.026820    3.122290  -14.261480
  H     -3.555990    0.728540  -20.078760
  H     -3.833970   -2.169330  -16.003600
  H     -3.469100   -1.696970  -21.485890

 Total Charge           Charge          ....    0
 Multiplicity           Mult            ....    1
 Number of Electrons    NEL             ....  496
 Basis Dimension        Dim             .... 1061

ORBITAL ENERGIES
----------------

  NO   OCC          E(Eh)            E(eV)
   0   2.0000    -482.868704    -13139.5254
   1   2.0000     -88.963380     -2420.8166
   2   2.0000     -88.960913     -2420.7495
   3   2.0000     -88.954102     -2420.5642
   4   2.0000     -88.950194     -2420.4578
   5   2.0000     -88.946765     -2420.3645
   6   2.0000     -62.546388     -1701.9737
   7   2.0000     -56.380313     -1534.1863
   8   2.0000     -56.377648     -1534.1138
   9   2.0000     -56.377603     -1534.1126
  10   2.0000     -24.789600      -674.5593
  11   2.0000     -24.783974      -674.4062
  12   2.0000     -24.783363      -674.3896
  13   2.0000     -19.182792      -521.9903
  14   2.0000     -14.471764      -393.7967
  15   2.0000     -14.389227      -391.5508
  16   2.0000     -14.383813      -391.4035
  17   2.0000     -10.504069      -285.8303
  18   2.0000     -10.349982      -281.6373
  19   2.0000     -10.338071      -281.3132
  20   2.0000     -10.333039      -281.1763
  21   2.0000     -10.330202      -281.0991
  22   2.0000     -10.328012      -281.0395
  23   2.0000     -10.312155      -280.6080
  24   2.0000     -10.311116      -280.5797
  25   2.0000     -10.308199      -280.5003
  26   2.0000     -10.307790      -280.4892
  27   2.0000     -10.304135      -280.3898
  28   2.0000     -10.303627      -280.3759
  29   2.0000     -10.302881      -280.3557
  30   2.0000     -10.301621      -280.3214
  31   2.0000     -10.301171      -280.3091
  32   2.0000     -10.300898      -280.3017
  33   2.0000     -10.294820      -280.1363
  34   2.0000     -10.292653      -280.0773
  35   2.0000     -10.290375      -280.0153
  36   2.0000     -10.289648      -279.9956
  37   2.0000     -10.288544      -279.9655
  38   2.0000     -10.287524      -279.9378
  39   2.0000     -10.286654      -279.9141
  40   2.0000     -10.283740      -279.8348
  41   2.0000     -10.282746      -279.8077
  42   2.0000     -10.282226      -279.7936
  43   2.0000     -10.281843      -279.7832
  44   2.0000     -10.280758      -279.7537
  45   2.0000     -10.280089      -279.7355
  46   2.0000     -10.279768      -279.7267
  47   2.0000     -10.279705      -279.7250
  48   2.0000     -10.279011      -279.7061
  49   2.0000     -10.278897      -279.7030
  50   2.0000     -10.278054      -279.6801
  51   2.0000     -10.276731      -279.6441
  52   2.0000     -10.275284      -279.6047
  53   2.0000     -10.274933      -279.5951
  54   2.0000     -10.274884      -279.5938
  55   2.0000     -10.274529      -279.5842
  56   2.0000     -10.273718      -279.5621
  57   2.0000     -10.273545      -279.5574
  58   2.0000     -10.273538      -279.5572
  59   2.0000     -10.273303      -279.5508
  60   2.0000     -10.272673      -279.5336
  61   2.0000     -10.270316      -279.4695
  62   2.0000     -10.266856      -279.3754
  63   2.0000     -10.263769      -279.2914
  64   2.0000     -10.254890      -279.0498
  65   2.0000     -10.253887      -279.0224
  66   2.0000      -8.775792      -238.8014
  67   2.0000      -8.058159      -219.2736
  68   2.0000      -8.056656      -219.2328
  69   2.0000      -8.050152      -219.0558
  70   2.0000      -8.045812      -218.9377
  71   2.0000      -8.042660      -218.8519
  72   2.0000      -6.611952      -179.9204
  73   2.0000      -6.597567      -179.5289
  74   2.0000      -6.597438      -179.5254
  75   2.0000      -6.027119      -164.0062
  76   2.0000      -6.026255      -163.9827
  77   2.0000      -6.022685      -163.8856
  78   2.0000      -6.022201      -163.8724
  79   2.0000      -6.021372      -163.8499
  80   2.0000      -6.019844      -163.8083
  81   2.0000      -6.017977      -163.7575
  82   2.0000      -6.015601      -163.6928
  83   2.0000      -6.015128      -163.6799
  84   2.0000      -6.012173      -163.5995
  85   2.0000      -6.011343      -163.5770
  86   2.0000      -6.010783      -163.5617
  87   2.0000      -6.008188      -163.4911
  88   2.0000      -6.008106      -163.4889
  89   2.0000      -6.004031      -163.3780
  90   2.0000      -2.727890       -74.2297
  91   2.0000      -2.723775       -74.1177
  92   2.0000      -2.723695       -74.1155
  93   2.0000      -2.712247       -73.8040
  94   2.0000      -2.712237       -73.8037
  95   2.0000      -1.374867       -37.4120
  96   2.0000      -1.279366       -34.8133
  97   2.0000      -1.273580       -34.6559
  98   2.0000      -1.095485       -29.8097
  99   2.0000      -1.068776       -29.0829
 100   2.0000      -1.002600       -27.2821
 101   2.0000      -0.998865       -27.1805
 102   2.0000      -0.997244       -27.1364
 103   2.0000      -0.986379       -26.8407
 104   2.0000      -0.977237       -26.5920
 105   2.0000      -0.975406       -26.5421
 106   2.0000      -0.965974       -26.2855
 107   2.0000      -0.960503       -26.1366
 108   2.0000      -0.933503       -25.4019
 109   2.0000      -0.930203       -25.3121
 110   2.0000      -0.918023       -24.9807
 111   2.0000      -0.913038       -24.8450
 112   2.0000      -0.898842       -24.4587
 113   2.0000      -0.888850       -24.1868
 114   2.0000      -0.882208       -24.0061
 115   2.0000      -0.881911       -23.9980
 116   2.0000      -0.867620       -23.6091
 117   2.0000      -0.861238       -23.4355
 118   2.0000      -0.860114       -23.4049
 119   2.0000      -0.855398       -23.2766
 120   2.0000      -0.851313       -23.1654
 121   2.0000      -0.840620       -22.8744
 122   2.0000      -0.828107       -22.5339
 123   2.0000      -0.825396       -22.4602
 124   2.0000      -0.823035       -22.3959
 125   2.0000      -0.815160       -22.1816
 126   2.0000      -0.804840       -21.9008
 127   2.0000      -0.799919       -21.7669
 128   2.0000      -0.795386       -21.6436
 129   2.0000      -0.776614       -21.1328
 130   2.0000      -0.768180       -20.9032
 131   2.0000      -0.760447       -20.6928
 132   2.0000      -0.750860       -20.4319
 133   2.0000      -0.748141       -20.3579
 134   2.0000      -0.731220       -19.8975
 135   2.0000      -0.725455       -19.7406
 136   2.0000      -0.711022       -19.3479
 137   2.0000      -0.709142       -19.2967
 138   2.0000      -0.702455       -19.1148
 139   2.0000      -0.688531       -18.7359
 140   2.0000      -0.684971       -18.6390
 141   2.0000      -0.676994       -18.4219
 142   2.0000      -0.670634       -18.2489
 143   2.0000      -0.662450       -18.0262
 144   2.0000      -0.659354       -17.9419
 145   2.0000      -0.657061       -17.8795
 146   2.0000      -0.653309       -17.7774
 147   2.0000      -0.651311       -17.7231
 148   2.0000      -0.642736       -17.4897
 149   2.0000      -0.638178       -17.3657
 150   2.0000      -0.634766       -17.2729
 151   2.0000      -0.631186       -17.1754
 152   2.0000      -0.623163       -16.9571
 153   2.0000      -0.618178       -16.8215
 154   2.0000      -0.611046       -16.6274
 155   2.0000      -0.605182       -16.4678
 156   2.0000      -0.600763       -16.3476
 157   2.0000      -0.596511       -16.2319
 158   2.0000      -0.584527       -15.9058
 159   2.0000      -0.580879       -15.8065
 160   2.0000      -0.575717       -15.6661
 161   2.0000      -0.573833       -15.6148
 162   2.0000      -0.572430       -15.5766
 163   2.0000      -0.567854       -15.4521
 164   2.0000      -0.554863       -15.0986
 165   2.0000      -0.554517       -15.0892
 166   2.0000      -0.550837       -14.9890
 167   2.0000      -0.543066       -14.7776
 168   2.0000      -0.539901       -14.6915
 169   2.0000      -0.538175       -14.6445
 170   2.0000      -0.536160       -14.5897
 171   2.0000      -0.535463       -14.5707
 172   2.0000      -0.532781       -14.4977
 173   2.0000      -0.527953       -14.3663
 174   2.0000      -0.522732       -14.2243
 175   2.0000      -0.516258       -14.0481
 176   2.0000      -0.510997       -13.9049
 177   2.0000      -0.509336       -13.8597
 178   2.0000      -0.508159       -13.8277
 179   2.0000      -0.505674       -13.7601
 180   2.0000      -0.504317       -13.7232
 181   2.0000      -0.503100       -13.6900
 182   2.0000      -0.502808       -13.6821
 183   2.0000      -0.501794       -13.6545
 184   2.0000      -0.500073       -13.6077
 185   2.0000      -0.497741       -13.5442
 186   2.0000      -0.496429       -13.5085
 187   2.0000      -0.488666       -13.2973
 188   2.0000      -0.486250       -13.2315
 189   2.0000      -0.485674       -13.2159
 190   2.0000      -0.484672       -13.1886
 191   2.0000      -0.480182       -13.0664
 192   2.0000      -0.479338       -13.0434
 193   2.0000      -0.477449       -12.9920
 194   2.0000      -0.474799       -12.9199
 195   2.0000      -0.471878       -12.8405
 196   2.0000      -0.471606       -12.8331
 197   2.0000      -0.471077       -12.8187
 198   2.0000      -0.468582       -12.7508
 199   2.0000      -0.465398       -12.6641
 200   2.0000      -0.464023       -12.6267
 201   2.0000      -0.460820       -12.5396
 202   2.0000      -0.457166       -12.4401
 203   2.0000      -0.455164       -12.3856
 204   2.0000      -0.452925       -12.3247
 205   2.0000      -0.448764       -12.2115
 206   2.0000      -0.445734       -12.1290
 207   2.0000      -0.439157       -11.9501
 208   2.0000      -0.437836       -11.9141
 209   2.0000      -0.436575       -11.8798
 210   2.0000      -0.434371       -11.8198
 211   2.0000      -0.431640       -11.7455
 212   2.0000      -0.429790       -11.6952
 213   2.0000      -0.429035       -11.6746
 214   2.0000      -0.425343       -11.5742
 215   2.0000      -0.424020       -11.5382
 216   2.0000      -0.420840       -11.4516
 217   2.0000      -0.418452       -11.3867
 218   2.0000      -0.417030       -11.3480
 219   2.0000      -0.415519       -11.3069
 220   2.0000      -0.413661       -11.2563
 221   2.0000      -0.404775       -11.0145
 222   2.0000      -0.404264       -11.0006
 223   2.0000      -0.403279       -10.9738
 224   2.0000      -0.400221       -10.8906
 225   2.0000      -0.400047       -10.8858
 226   2.0000      -0.396286       -10.7835
 227   2.0000      -0.387437       -10.5427
 228   2.0000      -0.379930       -10.3384
 229   2.0000      -0.370677       -10.0866
 230   2.0000      -0.364079        -9.9071
 231   2.0000      -0.362045        -9.8517
 232   2.0000      -0.360939        -9.8216
 233   2.0000      -0.358351        -9.7512
 234   2.0000      -0.345388        -9.3985
 235   2.0000      -0.339989        -9.2516
 236   2.0000      -0.325065        -8.8455
 237   2.0000      -0.319065        -8.6822
 238   2.0000      -0.312922        -8.5150
 239   2.0000      -0.310884        -8.4596
 240   2.0000      -0.308203        -8.3866
 241   2.0000      -0.304062        -8.2739
 242   2.0000      -0.291582        -7.9344
 243   2.0000      -0.274167        -7.4605
 244   2.0000      -0.269873        -7.3436
 245   2.0000      -0.265648        -7.2286
 246   2.0000      -0.241057        -6.5595
 247   2.0000      -0.209635        -5.7045
 248   0.0000      -0.093306        -2.5390
 249   0.0000      -0.049739        -1.3535
 250   0.0000      -0.044178        -1.2021
 251   0.0000      -0.025329        -0.6892
 252   0.0000      -0.022702        -0.6177

MULLIKEN ATOMIC CHARGES
-----------------------
   0 C :   -0.125772
   1 S :    0.209285
   2 C :   -0.190043
   3 C :    0.120956
   4 C :    0.059643
   5 C :   -0.083086
   6 C :    0.504364
   7 F :   -0.171537
   8 F :   -0.157744
   9 F :   -0.176253
  10 C :   -0.014863
  11 C :    0.019319
  12 C :   -0.002396
  13 C :   -0.191211
  14 S :    0.130043
  15 C :   -0.133422
  16 C :   -0.077739
  17 C :    0.115814
  18 C :    0.134471
  19 C :   -0.040090
  20 C :    0.012678
  21 C :   -0.007679
  22 C :    0.017882
  23 C :    0.008031
  24 C :   -0.187175
  25 C :    0.087744
  26 C :    0.187868
  27 N :   -0.130299
  28 C :    0.082433
  29 C :   -0.054204
  30 C :    0.045529
  31 C :   -0.065445
  32 C :    0.058246
  33 C :    0.002057
  34 C :   -0.000549
  35 S :    0.058645
  36 C :   -0.059118
  37 C :    0.042855
  38 C :    0.012317
  39 C :    0.009226
  40 S :    0.091528
  41 C :   -0.028643
  42 C :   -0.044474
  43 C :   -0.097608
  44 C :    0.332447
  45 C :   -0.375837
  46 C :   -0.197766
  47 N :    0.123947
  48 C :   -0.193652
  49 N :    0.109668
  50 C :    0.009104
  51 C :   -0.007826
  52 C :    0.130035
  53 O :   -0.173374
  54 C :   -0.081639
  55 C :    0.115418
  56 C :   -0.090759
  57 C :   -0.028303
  58 S :    0.171415
  59 C :   -0.124127
  60 C :    0.035116
  61 Br:    0.005856
  62 H :    0.031792
  63 H :   -0.006269
  64 H :   -0.012297
  65 H :   -0.020461
  66 H :    0.014794
  67 H :    0.008555
  68 H :    0.028289
  69 H :    0.032976
  70 H :   -0.011853
  71 H :    0.004363
  72 H :   -0.017952
  73 H :   -0.000721
  74 H :    0.005913
  75 H :    0.038630
  76 H :    0.041939
  77 H :   -0.017808
  78 H :    0.026953
  79 H :    0.037404
  80 H :    0.129879
  81 H :    0.038511
  82 H :   -0.020929
  83 H :   -0.001711
  84 H :   -0.008164
  85 H :   -0.012342
  86 H :   -0.010252
  87 H :   -0.007888
  88 H :    0.009580
  89 H :    0.009459
  90 H :   -0.019205
  91 H :   -0.013175
  92 H :   -0.009316
Sum of atomic charges:   -0.0000000

LOEWDIN ATOMIC CHARGES
----------------------
   0 C :   -0.197383
   1 S :    0.524364
   2 C :   -0.206485
   3 C :   -0.049980
   4 C :   -0.049334
   5 C :   -0.079067
   6 C :    0.173224
   7 F :   -0.067779
   8 F :   -0.056440
   9 F :   -0.072606
  10 C :   -0.005237
  11 C :   -0.032942
  12 C :   -0.004940
  13 C :   -0.187891
  14 S :    0.443187
  15 C :   -0.196975
  16 C :   -0.056011
  17 C :   -0.044901
  18 C :   -0.064164
  19 C :   -0.019771
  20 C :   -0.031226
  21 C :   -0.026472
  22 C :   -0.020481
  23 C :   -0.035572
  24 C :   -0.045740
  25 C :   -0.052843
  26 C :    0.049482
  27 N :    0.044631
  28 C :    0.085598
  29 C :   -0.142490
  30 C :    0.010534
  31 C :   -0.197711
  32 C :    0.000827
  33 C :   -0.070186
  34 C :   -0.132296
  35 S :    0.398901
  36 C :   -0.215577
  37 C :   -0.007200
  38 C :   -0.061048
  39 C :   -0.100947
  40 S :    0.408027
  41 C :   -0.088456
  42 C :    0.043499
  43 C :   -0.126809
  44 C :    0.074164
  45 C :   -0.175561
  46 C :   -0.020369
  47 N :   -0.084994
  48 C :   -0.017168
  49 N :   -0.094747
  50 C :   -0.016818
  51 C :   -0.046372
  52 C :    0.079153
  53 O :   -0.168107
  54 C :    0.012837
  55 C :   -0.038943
  56 C :   -0.148023
  57 C :   -0.016981
  58 S :    0.421274
  59 C :   -0.277848
  60 C :   -0.071495
  61 Br:    0.122927
  62 H :    0.025206
  63 H :    0.033611
  64 H :    0.030423
  65 H :    0.021064
  66 H :    0.021112
  67 H :    0.033080
  68 H :    0.035568
  69 H :    0.036057
  70 H :    0.025540
  71 H :    0.029104
  72 H :    0.027322
  73 H :    0.029266
  74 H :    0.035598
  75 H :    0.038854
  76 H :    0.039676
  77 H :    0.016763
  78 H :    0.030691
  79 H :    0.039885
  80 H :    0.082209
  81 H :    0.019563
  82 H :    0.026273
  83 H :    0.042281
  84 H :    0.035581
  85 H :    0.032195
  86 H :    0.033253
  87 H :    0.035315
  88 H :    0.036308
  89 H :    0.027983
  90 H :    0.036987
  91 H :    0.038764
  92 H :    0.036226

  Mayer bond orders larger than 0.100000
B(  0-C ,  1-S ) :   1.2009 B(  0-C ,  2-C ) :   0.1179 B(  0-C ,  4-C ) :   1.4737
B(  0-C , 62-H ) :   0.9429 B(  1-S ,  2-C ) :   1.2153 B(  2-C ,  3-C ) :   1.3755
B(  2-C , 13-C ) :   1.0636 B(  3-C ,  4-C ) :   1.1923 B(  3-C , 12-C ) :   1.1905
B(  4-C ,  5-C ) :   1.1698 B(  5-C ,  6-C ) :   0.9513 B(  5-C , 10-C ) :   1.5932
B(  6-C ,  7-F ) :   1.1453 B(  6-C ,  8-F ) :   1.1660 B(  6-C ,  9-F ) :   1.1415
B( 10-C , 11-C ) :   1.1782 B( 10-C , 63-H ) :   0.9930 B( 11-C , 12-C ) :   1.5680
B( 11-C , 64-H ) :   0.9859 B( 12-C , 65-H ) :   0.9810 B( 13-C , 14-S ) :   1.1494
B( 13-C , 18-C ) :   1.4949 B( 14-S , 15-C ) :   1.1357 B( 15-C , 16-C ) :   1.6034
B( 15-C , 66-H ) :   0.9666 B( 16-C , 17-C ) :   1.0961 B( 16-C , 18-C ) :   1.2167
B( 17-C , 67-H ) :   0.9500 B( 17-C , 68-H ) :   0.9440 B( 17-C , 69-H ) :   0.9429
B( 18-C , 19-C ) :   1.0819 B( 19-C , 20-C ) :   1.7582 B( 19-C , 70-H ) :   0.9430
B( 20-C , 21-C ) :   1.1197 B( 20-C , 71-H ) :   0.9749 B( 21-C , 22-C ) :   1.7510
B( 21-C , 72-H ) :   0.9726 B( 22-C , 23-C ) :   1.1012 B( 22-C , 73-H ) :   0.9486
B( 23-C , 24-C ) :   1.8485 B( 23-C , 74-H ) :   0.9506 B( 24-C , 25-C ) :   1.0739
B( 24-C , 26-C ) :   1.0343 B( 25-C , 75-H ) :   0.9465 B( 25-C , 76-H ) :   0.9419
B( 25-C , 77-H ) :   0.9474 B( 26-C , 27-N ) :   0.9736 B( 26-C , 78-H ) :   0.9356
B( 26-C , 79-H ) :   0.9382 B( 27-N , 28-C ) :   1.3484 B( 27-N , 80-H ) :   0.9342
B( 28-C , 29-C ) :   1.4559 B( 28-C , 81-H ) :   0.9481 B( 29-C , 30-C ) :   1.3099
B( 29-C , 82-H ) :   0.9608 B( 30-C , 31-C ) :   1.4951 B( 30-C , 83-H ) :   0.9619
B( 31-C , 32-C ) :   1.2064 B( 31-C , 35-S ) :   1.0141 B( 32-C , 33-C ) :   1.5197
B( 32-C , 84-H ) :   0.9982 B( 33-C , 34-C ) :   1.2443 B( 33-C , 85-H ) :   0.9942
B( 34-C , 35-S ) :   1.1007 B( 34-C , 36-C ) :   1.3960 B( 36-C , 37-C ) :   1.2715
B( 36-C , 40-S ) :   1.0405 B( 37-C , 38-C ) :   1.4785 B( 37-C , 86-H ) :   0.9953
B( 38-C , 39-C ) :   1.2314 B( 38-C , 87-H ) :   1.0020 B( 39-C , 40-S ) :   1.1069
B( 39-C , 41-C ) :   1.3370 B( 41-C , 42-C ) :   1.3407 B( 41-C , 88-H ) :   0.9813
B( 42-C , 43-C ) :   1.3995 B( 42-C , 89-H ) :   0.9414 B( 43-C , 44-C ) :   1.1586
B( 43-C , 52-C ) :   0.9840 B( 44-C , 45-C ) :   1.5394 B( 44-C , 50-C ) :   0.9792
B( 45-C , 46-C ) :   1.1566 B( 45-C , 48-C ) :   1.1608 B( 46-C , 47-N ) :   2.9574
B( 48-C , 49-N ) :   2.9573 B( 50-C , 51-C ) :   1.2796 B( 50-C , 57-C ) :   1.4288
B( 51-C , 52-C ) :   0.9289 B( 51-C , 54-C ) :   1.4394 B( 52-C , 53-O ) :   2.1824
B( 54-C , 55-C ) :   1.2339 B( 54-C , 90-H ) :   1.0161 B( 55-C , 56-C ) :   1.3252
B( 55-C , 60-C ) :   1.1574 B( 56-C , 57-C ) :   1.3125 B( 56-C , 58-S ) :   1.0787
B( 57-C , 91-H ) :   0.9795 B( 58-S , 59-C ) :   1.0846 B( 59-C , 60-C ) :   1.6227
B( 59-C , 61-Br) :   1.0086 B( 60-C , 92-H ) :   1.0007

-----------------------------------------------------------------------------
         ABSORPTION SPECTRUM VIA TRANSITION ELECTRIC DIPOLE MOMENTS
-----------------------------------------------------------------------------
State   Energy  Wavelength   fosc         T2         TX        TY        TZ
        (cm-1)    (nm)                  (au**2)     (au)      (au)      (au)
-----------------------------------------------------------------------------
   0   11263.7    887.8   0.956731324  27.96310   0.53711  -3.14384  -4.21792
   1   20987.9    476.5   0.163224840   2.56031   0.10098   0.89395  -1.32324
   2   22301.8    448.4   0.127004683   1.87480  -0.10483   1.21754  -0.61759
   3   23143.8    432.1   0.227764045   3.23986   0.17642   1.02263  -1.47070
   4   23604.6    423.6   0.311723769   4.34760   0.18425   2.04865  -0.34157
   5   24802.6    403.2   0.063320510   0.84047  -0.13501   0.74938  -0.51055
   6   25564.8    391.2   0.302134866   3.89075  -0.13158  -1.28802   1.48810
   7   26755.3    373.8   0.519780681   6.39566  -0.00042   2.52122   0.19773
   8   28062.3    356.4   0.000044233   0.00052  -0.00138   0.02078  -0.00923
   9   28214.8    354.4   0.010894329   0.12712   0.12291   0.25191  -0.22034
  10   28721.7    348.2   0.017193256   0.19707   0.28824  -0.29626   0.16192
  11   29642.3    337.4   0.017324151   0.19240   0.02023   0.43730   0.02762
  12   30459.0    328.3   0.002143992   0.02317  -0.10076   0.05738   0.09863
  13   31044.8    322.1   0.016681719   0.17690   0.08912  -0.40176  -0.08688
  14   31654.7    315.9   0.525301781   5.46318  -2.29003   0.46038  -0.08354
  15   31910.1    313.4   0.000375096   0.00387  -0.01470  -0.02722  -0.05397
  16   32095.0    311.6   0.249733222   2.56162  -0.00234  -1.26534  -0.98006
  17   32615.0    306.6   0.261673890   2.64130   0.01997  -0.79982  -1.41464
  18   32939.8    303.6   0.013987437   0.13980  -0.06314   0.25201   0.26888
  19   33328.5    300.0   0.111518660   1.10156  -0.07426   0.43141   0.95390
  20   33640.9    297.3   0.104968653   1.02723   0.10828  -0.40002  -0.92493
  21   34844.3    287.0   0.058200059   0.54988  -0.05630  -0.05836   0.73709
  22   36138.5    276.7   0.250000276   2.27744  -0.11583   1.13353  -0.98951
  23   36482.3    274.1   0.069138340   0.62390  -0.47402   0.56304   0.28668
  24   36697.9    272.5   0.013577992   0.12181   0.14907   0.00763   0.31548
  25   36937.5    270.7   0.238611462   2.12666  -1.35633   0.52148  -0.12289
  26   37154.9    269.1   0.130941213   1.16021   0.70655  -0.80938   0.07683
  27   37262.6    268.4   0.060616686   0.53554   0.32170  -0.64842  -0.10771
  28   37850.4    264.2   0.115934042   1.00836   0.21018  -0.25909  -0.94713
  29   38158.6    262.1   0.040009420   0.34518   0.38321   0.10434   0.43295
  30   38465.6    260.0   0.150747144   1.29019  -0.16247  -0.91958   0.64666
  31   38721.5    258.3   0.015007239   0.12759   0.26607  -0.02746   0.23673
  32   38947.4    256.8   0.068416675   0.57831  -0.71668  -0.25329  -0.02269
  33   39577.2    252.7   0.103273783   0.85905  -0.21866   0.65432  -0.61896
  34   39614.8    252.4   0.042332319   0.35180   0.12440  -0.31146   0.48919
  35   39902.3    250.6   0.089308873   0.73684  -0.16408   0.59937  -0.59218

FINAL SINGLE POINT ENERGY     -6986.065327767313

DIPOLE MOMENT
-------------
                                X             Y             Z
Electronic contribution:    -15.26924    -119.86040    -142.07045
Nuclear contribution   :     15.57015     124.32842     145.73059
                        -----------------------------------------
Total Dipole Moment    :      0.30091       4.46802       3.66014
                        -----------------------------------------
Magnitude (a.u.)       :      5.78363
Magnitude (Debye)      :     14.70082

Rotational constants in cm-1:     0.000690     0.000413     0.000284
Rotational constants in MHz :    20.679708    12.390932     8.510386

                             ****ORCA TERMINATED NORMALLY****
TOTAL RUN TIME: 0 days 0 hours 8 minutes 43 seconds 139 msec
