                         Program Version 4.2.0 -  RELEASE  -
|  1> # ORCA input file
|  2> # SCF done       -132.629052831685          0.000605457323
|  3> ! CAM-B3LYP def2-SVP def2/J RIJCOSX Grid4 TightSCF
|  4> %maxcore 5000
|  5> %tddft
|  6>     Mode sTDDFT
|  7>     Ethresh 5.0
|  8>     maxcore 5000
|  9> end
| 10>
| 11> %pal
| 12>   nprocs 6
| 13>   end
| 14> * xyz 0 1
| 15>    C       -3.70144        -2.15013         3.07377
| 16>    S       -3.24484        -1.63344         4.65972
| 17>    C       -1.83765        -0.84575         4.02109
| 18>    O       -0.96675        -0.18865         4.80957
| 19>    C       -1.73210        -0.98070         2.65333
| 20>    C       -2.82503        -1.73998         2.13457
| 21>    C       -0.64384        -0.40874         1.91247
| 22>    C       -0.46023        -0.51776         0.58234
| 23>    C        0.63391         0.06004        -0.12527
| 24>    S        1.78978         1.05958         0.70318
| 25>    C        2.64725         1.33076        -0.76011
| 26>    C        2.09144         0.71842        -1.83720
| 27>    C        2.72038         0.78900        -3.19051
| 28>    C        0.91723        -0.02466        -1.48785
| 29>    C        0.12184        -0.83186        -2.37341
| 30>    C       -0.02447        -0.67986        -3.70623
| 31>    C       -0.79730        -1.53257        -4.56092
| 32>    C       -1.51424        -2.61722        -4.19726
| 33>    C       -2.21964        -3.43250        -5.13977
| 34>    C       -2.96401        -4.50853        -4.83857
| 35>    C       -3.20022        -4.98502        -3.43409
| 36>    C       -3.64131        -5.30809        -5.92205
| 37>    N       -5.07479        -5.13680        -5.87890
| 38>    C       -5.84319        -4.75943        -6.91396
| 39>    C       -7.18585        -4.54912        -6.83615
| 40>    C       -7.97820        -4.21430        -7.94675
| 41>    C       -9.33265        -4.01226        -7.90776
| 42>    C      -10.18753        -3.71207        -8.99445
| 43>    C      -11.50019        -3.57938        -8.65929
| 44>    C      -11.76363        -3.75733        -7.28132
| 45>    S      -10.28223        -4.10965        -6.42308
| 46>    C      -12.98136        -3.67258        -6.63701
| 47>    C      -14.24879        -3.42247        -7.20582
| 48>    C      -15.26538        -3.39004        -6.30189
| 49>    C      -14.86109        -3.60537        -4.95930
| 50>    S      -13.12867        -3.87025        -4.89609
| 51>    C      -15.68324        -3.59738        -3.86414
| 52>    C      -15.31556        -3.77799        -2.51987
| 53>    S      -13.68462        -4.07915        -1.94284
| 54>    C      -14.14633        -4.14347        -0.28345
| 55>    C      -15.49978        -3.94415        -0.15276
| 56>    C      -16.14413        -3.74222        -1.41138
| 57>    O      -17.47197        -3.54619        -1.25092
| 58>    C      -17.68088        -3.61985         0.09112
| 59>    N      -18.99871        -3.44746         0.56126
| 60>    O      -19.15976        -3.51771         1.76822
| 61>    O      -19.87755        -3.24464        -0.25161
| 62>    C      -16.53919        -3.85731         0.81224
| 63>    H       -4.59778        -2.72489         2.95669
| 64>    H       -1.24593        -0.21833         5.73143
| 65>    H       -2.94418        -1.96215         1.09025
| 66>    H        0.06984         0.14770         2.50544
| 67>    H       -1.17478        -1.06780        -0.01234
| 68>    H        3.53561         1.93130        -0.73840
| 69>    H        3.75451         1.11427        -3.09893
| 70>    H        2.19881         1.50569        -3.82482
| 71>    H        2.69790        -0.18553        -3.67407
| 72>    H       -0.41554        -1.63701        -1.89124
| 73>    H        0.45200         0.15175        -4.20126
| 74>    H       -0.78725        -1.26512        -5.61127
| 75>    H       -1.56553        -2.90894        -3.15944
| 76>    H       -2.11467        -3.14689        -6.17952
| 77>    H       -3.77158        -4.25151        -2.86548
| 78>    H       -2.25520        -5.14129        -2.91653
| 79>    H       -3.74531        -5.92642        -3.42898
| 80>    H       -3.40096        -6.37382        -5.78845
| 81>    H       -3.28794        -4.99878        -6.90741
| 82>    H       -5.51632        -5.22829        -4.97621
| 83>    H       -5.32820        -4.64922        -7.85897
| 84>    H       -7.68520        -4.65689        -5.88255
| 85>    H       -7.49186        -4.11942        -8.90928
| 86>    H       -9.80243        -3.60755        -9.99403
| 87>    H      -12.28399        -3.35446        -9.36001
| 88>    H      -14.37706        -3.27586        -8.26339
| 89>    H      -16.29722        -3.21352        -6.54902
| 90>    H      -16.73797        -3.42294        -4.03072
| 91>    H      -13.40815        -4.31863         0.47008
| 92>    H      -16.47770        -3.95093         1.87646
| 93> *
| 94>
| 95>                          ****END OF INPUT****

CARTESIAN COORDINATES (ANGSTROEM)
---------------------------------
  C     -3.701440   -2.150130    3.073770
  S     -3.244840   -1.633440    4.659720
  C     -1.837650   -0.845750    4.021090
  O     -0.966750   -0.188650    4.809570
  C     -1.732100   -0.980700    2.653330
  C     -2.825030   -1.739980    2.134570
  C     -0.643840   -0.408740    1.912470
  C     -0.460230   -0.517760    0.582340
  C      0.633910    0.060040   -0.125270
  S      1.789780    1.059580    0.703180
  C      2.647250    1.330760   -0.760110
  C      2.091440    0.718420   -1.837200
  C      2.720380    0.789000   -3.190510
  C      0.917230   -0.024660   -1.487850
  C      0.121840   -0.831860   -2.373410
  C     -0.024470   -0.679860   -3.706230
  C     -0.797300   -1.532570   -4.560920
  C     -1.514240   -2.617220   -4.197260
  C     -2.219640   -3.432500   -5.139770
  C     -2.964010   -4.508530   -4.838570
  C     -3.200220   -4.985020   -3.434090
  C     -3.641310   -5.308090   -5.922050
  N     -5.074790   -5.136800   -5.878900
  C     -5.843190   -4.759430   -6.913960
  C     -7.185850   -4.549120   -6.836150
  C     -7.978200   -4.214300   -7.946750
  C     -9.332650   -4.012260   -7.907760
  C    -10.187530   -3.712070   -8.994450
  C    -11.500190   -3.579380   -8.659290
  C    -11.763630   -3.757330   -7.281320
  S    -10.282230   -4.109650   -6.423080
  C    -12.981360   -3.672580   -6.637010
  C    -14.248790   -3.422470   -7.205820
  C    -15.265380   -3.390040   -6.301890
  C    -14.861090   -3.605370   -4.959300
  S    -13.128670   -3.870250   -4.896090
  C    -15.683240   -3.597380   -3.864140
  C    -15.315560   -3.777990   -2.519870
  S    -13.684620   -4.079150   -1.942840
  C    -14.146330   -4.143470   -0.283450
  C    -15.499780   -3.944150   -0.152760
  C    -16.144130   -3.742220   -1.411380
  O    -17.471970   -3.546190   -1.250920
  C    -17.680880   -3.619850    0.091120
  N    -18.998710   -3.447460    0.561260
  O    -19.159760   -3.517710    1.768220
  O    -19.877550   -3.244640   -0.251610
  C    -16.539190   -3.857310    0.812240
  H     -4.597780   -2.724890    2.956690
  H     -1.245930   -0.218330    5.731430
  H     -2.944180   -1.962150    1.090250
  H      0.069840    0.147700    2.505440
  H     -1.174780   -1.067800   -0.012340
  H      3.535610    1.931300   -0.738400
  H      3.754510    1.114270   -3.098930
  H      2.198810    1.505690   -3.824820
  H      2.697900   -0.185530   -3.674070
  H     -0.415540   -1.637010   -1.891240
  H      0.452000    0.151750   -4.201260
  H     -0.787250   -1.265120   -5.611270
  H     -1.565530   -2.908940   -3.159440
  H     -2.114670   -3.146890   -6.179520
  H     -3.771580   -4.251510   -2.865480
  H     -2.255200   -5.141290   -2.916530
  H     -3.745310   -5.926420   -3.428980
  H     -3.400960   -6.373820   -5.788450
  H     -3.287940   -4.998780   -6.907410
  H     -5.516320   -5.228290   -4.976210
  H     -5.328200   -4.649220   -7.858970
  H     -7.685200   -4.656890   -5.882550
  H     -7.491860   -4.119420   -8.909280
  H     -9.802430   -3.607550   -9.994030
  H    -12.283990   -3.354460   -9.360010
  H    -14.377060   -3.275860   -8.263390
  H    -16.297220   -3.213520   -6.549020
  H    -16.737970   -3.422940   -4.030720
  H    -13.408150   -4.318630    0.470080
  H    -16.477700   -3.950930    1.876460

 Total Charge           Charge          ....    0
 Multiplicity           Mult            ....    1
 Number of Electrons    NEL             ....  378
 Basis Dimension        Dim             ....  842

ORBITAL ENERGIES
----------------

  NO   OCC          E(Eh)            E(eV)
   0   2.0000     -88.957246     -2420.6497
   1   2.0000     -88.956617     -2420.6326
   2   2.0000     -88.940718     -2420.2000
   3   2.0000     -88.929101     -2419.8839
   4   2.0000     -88.928988     -2419.8808
   5   2.0000     -19.291585      -524.9507
   6   2.0000     -19.267207      -524.2874
   7   2.0000     -19.230035      -523.2758
   8   2.0000     -19.227612      -523.2099
   9   2.0000     -14.641229      -398.4081
  10   2.0000     -14.443776      -393.0351
  11   2.0000     -10.371198      -282.2146
  12   2.0000     -10.355397      -281.7847
  13   2.0000     -10.324682      -280.9489
  14   2.0000     -10.323746      -280.9234
  15   2.0000     -10.318876      -280.7909
  16   2.0000     -10.299138      -280.2538
  17   2.0000     -10.298788      -280.2443
  18   2.0000     -10.296938      -280.1939
  19   2.0000     -10.292119      -280.0628
  20   2.0000     -10.291053      -280.0338
  21   2.0000     -10.290280      -280.0128
  22   2.0000     -10.290187      -280.0102
  23   2.0000     -10.285741      -279.8892
  24   2.0000     -10.283487      -279.8279
  25   2.0000     -10.281694      -279.7791
  26   2.0000     -10.279995      -279.7329
  27   2.0000     -10.278113      -279.6817
  28   2.0000     -10.277445      -279.6635
  29   2.0000     -10.277031      -279.6522
  30   2.0000     -10.274127      -279.5732
  31   2.0000     -10.274058      -279.5713
  32   2.0000     -10.273841      -279.5654
  33   2.0000     -10.273666      -279.5607
  34   2.0000     -10.271368      -279.4981
  35   2.0000     -10.271200      -279.4936
  36   2.0000     -10.270221      -279.4669
  37   2.0000     -10.269729      -279.4535
  38   2.0000     -10.269650      -279.4514
  39   2.0000     -10.269380      -279.4440
  40   2.0000     -10.269121      -279.4370
  41   2.0000     -10.268970      -279.4329
  42   2.0000     -10.267728      -279.3991
  43   2.0000     -10.266824      -279.3745
  44   2.0000     -10.265180      -279.3297
  45   2.0000     -10.262836      -279.2660
  46   2.0000     -10.261952      -279.2419
  47   2.0000     -10.255855      -279.0760
  48   2.0000      -8.054239      -219.1670
  49   2.0000      -8.051087      -219.0812
  50   2.0000      -8.036770      -218.6916
  51   2.0000      -8.025218      -218.3773
  52   2.0000      -8.025061      -218.3730
  53   2.0000      -6.023662      -163.9122
  54   2.0000      -6.020438      -163.8245
  55   2.0000      -6.019495      -163.7988
  56   2.0000      -6.016049      -163.7050
  57   2.0000      -6.015948      -163.7023
  58   2.0000      -6.013486      -163.6353
  59   2.0000      -6.005961      -163.4305
  60   2.0000      -6.001866      -163.3191
  61   2.0000      -5.999016      -163.2415
  62   2.0000      -5.994961      -163.1312
  63   2.0000      -5.994853      -163.1282
  64   2.0000      -5.991016      -163.0238
  65   2.0000      -5.990799      -163.0179
  66   2.0000      -5.986087      -162.8897
  67   2.0000      -5.985951      -162.8860
  68   2.0000      -1.311599       -35.6904
  69   2.0000      -1.210899       -32.9502
  70   2.0000      -1.163060       -31.6485
  71   2.0000      -1.127357       -30.6770
  72   2.0000      -1.044153       -28.4129
  73   2.0000      -0.980515       -26.6812
  74   2.0000      -0.975759       -26.5517
  75   2.0000      -0.974002       -26.5039
  76   2.0000      -0.972194       -26.4548
  77   2.0000      -0.954600       -25.9760
  78   2.0000      -0.924101       -25.1461
  79   2.0000      -0.919637       -25.0246
  80   2.0000      -0.901198       -24.5228
  81   2.0000      -0.892297       -24.2806
  82   2.0000      -0.888475       -24.1766
  83   2.0000      -0.879134       -23.9225
  84   2.0000      -0.861741       -23.4492
  85   2.0000      -0.855654       -23.2835
  86   2.0000      -0.849767       -23.1233
  87   2.0000      -0.836411       -22.7599
  88   2.0000      -0.826313       -22.4851
  89   2.0000      -0.817143       -22.2356
  90   2.0000      -0.811647       -22.0860
  91   2.0000      -0.809245       -22.0207
  92   2.0000      -0.802216       -21.8294
  93   2.0000      -0.798119       -21.7179
  94   2.0000      -0.784838       -21.3565
  95   2.0000      -0.768583       -20.9142
  96   2.0000      -0.760216       -20.6865
  97   2.0000      -0.746555       -20.3148
  98   2.0000      -0.744301       -20.2535
  99   2.0000      -0.718169       -19.5424
 100   2.0000      -0.702479       -19.1154
 101   2.0000      -0.695120       -18.9152
 102   2.0000      -0.692730       -18.8501
 103   2.0000      -0.692402       -18.8412
 104   2.0000      -0.689123       -18.7520
 105   2.0000      -0.664554       -18.0834
 106   2.0000      -0.655525       -17.8377
 107   2.0000      -0.645024       -17.5520
 108   2.0000      -0.635949       -17.3051
 109   2.0000      -0.629834       -17.1387
 110   2.0000      -0.627218       -17.0675
 111   2.0000      -0.625956       -17.0331
 112   2.0000      -0.620525       -16.8853
 113   2.0000      -0.614336       -16.7169
 114   2.0000      -0.611609       -16.6427
 115   2.0000      -0.607135       -16.5210
 116   2.0000      -0.603417       -16.4198
 117   2.0000      -0.597643       -16.2627
 118   2.0000      -0.588172       -16.0050
 119   2.0000      -0.583681       -15.8828
 120   2.0000      -0.579389       -15.7660
 121   2.0000      -0.574046       -15.6206
 122   2.0000      -0.570335       -15.5196
 123   2.0000      -0.565565       -15.3898
 124   2.0000      -0.562519       -15.3069
 125   2.0000      -0.553252       -15.0547
 126   2.0000      -0.552358       -15.0304
 127   2.0000      -0.548212       -14.9176
 128   2.0000      -0.545025       -14.8309
 129   2.0000      -0.534468       -14.5436
 130   2.0000      -0.529267       -14.4021
 131   2.0000      -0.523044       -14.2328
 132   2.0000      -0.517677       -14.0867
 133   2.0000      -0.515486       -14.0271
 134   2.0000      -0.512845       -13.9552
 135   2.0000      -0.506256       -13.7759
 136   2.0000      -0.502854       -13.6833
 137   2.0000      -0.501844       -13.6559
 138   2.0000      -0.499673       -13.5968
 139   2.0000      -0.497252       -13.5309
 140   2.0000      -0.489250       -13.3132
 141   2.0000      -0.488119       -13.2824
 142   2.0000      -0.481419       -13.1001
 143   2.0000      -0.480152       -13.0656
 144   2.0000      -0.477482       -12.9930
 145   2.0000      -0.473880       -12.8949
 146   2.0000      -0.466888       -12.7047
 147   2.0000      -0.465726       -12.6731
 148   2.0000      -0.463056       -12.6004
 149   2.0000      -0.459286       -12.4978
 150   2.0000      -0.458982       -12.4895
 151   2.0000      -0.455590       -12.3972
 152   2.0000      -0.450711       -12.2645
 153   2.0000      -0.449653       -12.2357
 154   2.0000      -0.445801       -12.1309
 155   2.0000      -0.442421       -12.0389
 156   2.0000      -0.438465       -11.9312
 157   2.0000      -0.435452       -11.8492
 158   2.0000      -0.432990       -11.7822
 159   2.0000      -0.432160       -11.7597
 160   2.0000      -0.429056       -11.6752
 161   2.0000      -0.425911       -11.5896
 162   2.0000      -0.421347       -11.4654
 163   2.0000      -0.418226       -11.3805
 164   2.0000      -0.414874       -11.2893
 165   2.0000      -0.411913       -11.2087
 166   2.0000      -0.410109       -11.1596
 167   2.0000      -0.400687       -10.9033
 168   2.0000      -0.396974       -10.8022
 169   2.0000      -0.393188       -10.6992
 170   2.0000      -0.383874       -10.4457
 171   2.0000      -0.378976       -10.3125
 172   2.0000      -0.374709       -10.1963
 173   2.0000      -0.371098       -10.0981
 174   2.0000      -0.367113        -9.9897
 175   2.0000      -0.365513        -9.9461
 176   2.0000      -0.357196        -9.7198
 177   2.0000      -0.338127        -9.2009
 178   2.0000      -0.324470        -8.8293
 179   2.0000      -0.322554        -8.7771
 180   2.0000      -0.313739        -8.5373
 181   2.0000      -0.310783        -8.4568
 182   2.0000      -0.301796        -8.2123
 183   2.0000      -0.293985        -7.9998
 184   2.0000      -0.288814        -7.8590
 185   2.0000      -0.263653        -7.1744
 186   2.0000      -0.249725        -6.7954
 187   2.0000      -0.232190        -6.3182
 188   2.0000      -0.188287        -5.1236
 189   0.0000      -0.060165        -1.6372
 190   0.0000      -0.043458        -1.1826
 191   0.0000      -0.040478        -1.1014
 192   0.0000      -0.001346        -0.0366
 193   0.0000       0.010453         0.2844

MULLIKEN ATOMIC CHARGES
-----------------------
   0 C :   -0.084099
   1 S :    0.057845
   2 C :   -0.048907
   3 O :   -0.168721
   4 C :    0.050784
   5 C :    0.043104
   6 C :    0.003817
   7 C :    0.002528
   8 C :   -0.113935
   9 S :    0.098649
  10 C :   -0.118110
  11 C :   -0.085857
  12 C :    0.112509
  13 C :    0.115954
  14 C :   -0.024433
  15 C :    0.001831
  16 C :    0.013273
  17 C :    0.007491
  18 C :    0.024021
  19 C :   -0.220460
  20 C :    0.075629
  21 C :    0.230646
  22 N :   -0.147088
  23 C :    0.068048
  24 C :   -0.039977
  25 C :   -0.000870
  26 C :   -0.045475
  27 C :    0.048206
  28 C :    0.004828
  29 C :   -0.035325
  30 S :    0.056063
  31 C :   -0.053562
  32 C :    0.030910
  33 C :    0.021409
  34 C :   -0.016257
  35 S :    0.046171
  36 C :   -0.030730
  37 C :   -0.181479
  38 S :    0.127754
  39 C :   -0.146708
  40 C :    0.132223
  41 C :    0.183530
  42 O :   -0.188045
  43 C :    0.230252
  44 N :    0.275090
  45 O :   -0.258069
  46 O :   -0.236163
  47 C :   -0.077259
  48 H :    0.024005
  49 H :    0.194069
  50 H :   -0.015434
  51 H :   -0.003525
  52 H :   -0.031450
  53 H :    0.008128
  54 H :    0.004773
  55 H :    0.034240
  56 H :    0.026190
  57 H :   -0.013518
  58 H :   -0.029085
  59 H :   -0.020162
  60 H :   -0.023940
  61 H :   -0.032372
  62 H :    0.037791
  63 H :    0.041361
  64 H :    0.006326
  65 H :    0.016576
  66 H :    0.006475
  67 H :    0.120827
  68 H :    0.001607
  69 H :   -0.014862
  70 H :   -0.022728
  71 H :   -0.020819
  72 H :   -0.021236
  73 H :   -0.019294
  74 H :   -0.018546
  75 H :   -0.004883
  76 H :    0.021015
  77 H :    0.007434
Sum of atomic charges:   -0.0000000

LOEWDIN ATOMIC CHARGES
----------------------
   0 C :   -0.194205
   1 S :    0.380343
   2 C :   -0.099161
   3 O :   -0.045565
   4 C :   -0.116857
   5 C :   -0.042997
   6 C :   -0.011224
   7 C :   -0.058276
   8 C :   -0.157794
   9 S :    0.427846
  10 C :   -0.196654
  11 C :   -0.055586
  12 C :   -0.045892
  13 C :   -0.070144
  14 C :   -0.001726
  15 C :   -0.046090
  16 C :   -0.019589
  17 C :   -0.032155
  18 C :   -0.036016
  19 C :   -0.053196
  20 C :   -0.057314
  21 C :    0.047751
  22 N :    0.009286
  23 C :    0.058037
  24 C :   -0.131898
  25 C :   -0.024232
  26 C :   -0.184239
  27 C :   -0.022108
  28 C :   -0.058546
  29 C :   -0.160289
  30 S :    0.354581
  31 C :   -0.205243
  32 C :   -0.030388
  33 C :   -0.051739
  34 C :   -0.143666
  35 S :    0.350673
  36 C :   -0.097691
  37 C :   -0.195983
  38 S :    0.461947
  39 C :   -0.209469
  40 C :   -0.084595
  41 C :    0.009951
  42 O :   -0.001788
  43 C :    0.021144
  44 N :    0.273231
  45 O :   -0.218848
  46 O :   -0.197741
  47 C :   -0.012054
  48 H :    0.022790
  49 H :    0.098891
  50 H :    0.028333
  51 H :    0.024312
  52 H :    0.024534
  53 H :    0.018947
  54 H :    0.031168
  55 H :    0.032713
  56 H :    0.033528
  57 H :    0.024022
  58 H :    0.026244
  59 H :    0.026502
  60 H :    0.020365
  61 H :    0.024213
  62 H :    0.037738
  63 H :    0.040698
  64 H :    0.025031
  65 H :    0.022306
  66 H :    0.029217
  67 H :    0.079650
  68 H :    0.028510
  69 H :    0.017536
  70 H :    0.030272
  71 H :    0.030531
  72 H :    0.028210
  73 H :    0.029776
  74 H :    0.030620
  75 H :    0.041897
  76 H :    0.023411
  77 H :    0.044198

  Mayer bond orders larger than 0.100000
B(  0-C ,  1-S ) :   1.1057 B(  0-C ,  5-C ) :   1.6370 B(  0-C , 48-H ) :   0.9685
B(  1-S ,  2-C ) :   1.1218 B(  2-C ,  3-O ) :   1.2124 B(  2-C ,  4-C ) :   1.4579
B(  3-O , 49-H ) :   0.9533 B(  4-C ,  5-C ) :   1.2098 B(  4-C ,  6-C ) :   1.1049
B(  5-C , 50-H ) :   0.9951 B(  6-C ,  7-C ) :   1.6837 B(  6-C , 51-H ) :   0.9784
B(  7-C ,  8-C ) :   1.1508 B(  7-C , 52-H ) :   0.9637 B(  8-C ,  9-S ) :   1.1383
B(  8-C , 13-C ) :   1.4277 B(  9-S , 10-C ) :   1.1246 B( 10-C , 11-C ) :   1.6186
B( 10-C , 53-H ) :   0.9660 B( 11-C , 12-C ) :   1.0940 B( 11-C , 13-C ) :   1.2152
B( 12-C , 54-H ) :   0.9467 B( 12-C , 55-H ) :   0.9407 B( 12-C , 56-H ) :   0.9457
B( 13-C , 14-C ) :   1.1085 B( 14-C , 15-C ) :   1.7221 B( 14-C , 57-H ) :   0.9488
B( 15-C , 16-C ) :   1.1035 B( 15-C , 58-H ) :   0.9759 B( 16-C , 17-C ) :   1.7241
B( 16-C , 59-H ) :   0.9781 B( 17-C , 18-C ) :   1.1169 B( 17-C , 60-H ) :   0.9579
B( 18-C , 19-C ) :   1.7904 B( 18-C , 61-H ) :   0.9756 B( 19-C , 20-C ) :   1.0628
B( 19-C , 21-C ) :   1.0493 B( 20-C , 62-H ) :   0.9516 B( 20-C , 63-H ) :   0.9435
B( 20-C , 64-H ) :   0.9534 B( 21-C , 22-N ) :   0.9876 B( 21-C , 65-H ) :   0.9262
B( 21-C , 66-H ) :   0.9385 B( 22-N , 23-C ) :   1.2634 B( 22-N , 67-H ) :   0.9371
B( 23-C , 24-C ) :   1.5676 B( 23-C , 68-H ) :   0.9671 B( 24-C , 25-C ) :   1.1907
B( 24-C , 69-H ) :   0.9657 B( 25-C , 26-C ) :   1.5740 B( 25-C , 70-H ) :   0.9769
B( 26-C , 27-C ) :   1.1545 B( 26-C , 30-S ) :   1.0045 B( 27-C , 28-C ) :   1.5818
B( 27-C , 71-H ) :   0.9974 B( 28-C , 29-C ) :   1.1921 B( 28-C , 72-H ) :   0.9928
B( 29-C , 30-S ) :   1.0602 B( 29-C , 31-C ) :   1.5072 B( 31-C , 32-C ) :   1.1967
B( 31-C , 35-S ) :   1.0176 B( 32-C , 33-C ) :   1.5823 B( 32-C , 73-H ) :   0.9919
B( 33-C , 34-C ) :   1.1465 B( 33-C , 74-H ) :   1.0007 B( 34-C , 35-S ) :   1.0433
B( 34-C , 36-C ) :   1.5564 B( 36-C , 37-C ) :   1.1773 B( 36-C , 75-H ) :   0.9731
B( 37-C , 38-S ) :   1.1108 B( 37-C , 39-C ) :   0.1082 B( 37-C , 41-C ) :   1.4429
B( 38-S , 39-C ) :   1.1681 B( 39-C , 40-C ) :   1.4163 B( 39-C , 76-H ) :   0.9761
B( 40-C , 41-C ) :   1.2299 B( 40-C , 47-C ) :   1.0619 B( 41-C , 42-O ) :   1.1097
B( 42-O , 43-C ) :   1.1299 B( 43-C , 44-N ) :   0.9235 B( 43-C , 47-C ) :   1.5659
B( 44-N , 45-O ) :   1.5263 B( 44-N , 46-O ) :   1.5108 B( 45-O , 46-O ) :   0.2764
B( 47-C , 77-H ) :   1.0258

-----------------------------------------------------------------------------
         ABSORPTION SPECTRUM VIA TRANSITION ELECTRIC DIPOLE MOMENTS
-----------------------------------------------------------------------------
State   Energy  Wavelength   fosc         T2         TX        TY        TZ
        (cm-1)    (nm)                  (au**2)     (au)      (au)      (au)
-----------------------------------------------------------------------------
   0   14406.5    694.1   0.761022162  17.39063  -3.42287   0.12964   2.37861
   1   18251.4    547.9   0.685523104  12.36520   3.40723  -0.22134  -0.84084
   2   21884.5    456.9   0.044491691   0.66930  -0.07199   0.24175   0.77825
   3   25324.4    394.9   0.275951534   3.58731   0.40275   0.22064   1.83750
   4   25556.1    391.3   0.595629482   7.67287  -0.28881   0.69045   2.66697
   5   29365.5    340.5   0.092135949   1.03292  -0.88808   0.01203  -0.49405
   6   29738.8    336.3   0.229568448   2.54135  -1.27994   0.22886  -0.92234
   7   29990.6    333.4   0.000421520   0.00463   0.00302  -0.03124  -0.06035
   8   30648.6    326.3   0.606614387   6.51594   1.01664   0.01604   2.34140
   9   31740.9    315.1   0.145244222   1.50645   0.22879   0.65393   1.01316
  10   32064.4    311.9   0.088911267   0.91287  -0.38029  -0.82476  -0.29667
  11   33355.7    299.8   0.096259580   0.95006  -0.96428   0.10320   0.09784
  12   33997.5    294.1   0.121761530   1.17907   0.89630   0.49649  -0.35945
  13   34225.6    292.2   0.065200583   0.62716   0.77734  -0.15034   0.01720
  14   34810.1    287.3   0.864754909   8.17832  -2.13180  -1.72938   0.80185
  15   35296.1    283.3   0.040004735   0.37313   0.37670   0.40239   0.26327
  16   35988.5    277.9   0.009303990   0.08511  -0.19090  -0.14193  -0.16888
  17   36677.0    272.7   0.422098487   3.78875   1.76680  -0.30897  -0.75612
  18   37579.9    266.1   0.021801466   0.19099  -0.06058  -0.04941  -0.42997
  19   38574.1    259.2   0.019341028   0.16507  -0.33965  -0.22292   0.00277
  20   38948.0    256.8   0.001670356   0.01412  -0.08775   0.07933   0.01118
  21   39118.7    255.6   0.019847499   0.16703   0.20304  -0.09069   0.34290

FINAL SINGLE POINT ENERGY     -3826.176570885441

DIPOLE MOMENT
-------------
                                X             Y             Z
Electronic contribution:    -77.06532       0.18486      31.39238
Nuclear contribution   :     82.18247      -0.69137     -32.11993
                        -----------------------------------------
Total Dipole Moment    :      5.11715      -0.50651      -0.72755
                        -----------------------------------------
Magnitude (a.u.)       :      5.19337
Magnitude (Debye)      :     13.20050

Rotational constants in cm-1:     0.001528     0.000438     0.000352
Rotational constants in MHz :    45.802528    13.120624    10.557625

                             ****ORCA TERMINATED NORMALLY****
TOTAL RUN TIME: 0 days 0 hours 4 minutes 35 seconds 104 msec
