                         Program Version 4.2.0 -  RELEASE  -
|  1> # ORCA input file
|  2> # SCF done       -175.840662589077          0.000863542181
|  3> ! CAM-B3LYP def2-SVP def2/J RIJCOSX Grid4 TightSCF
|  4> %maxcore 5000
|  5> %tddft
|  6>     Mode sTDDFT
|  7>     Ethresh 5.0
|  8>     maxcore 5000
|  9> end
| 10>
| 11> %pal
| 12>   nprocs 6
| 13>   end
| 14> * xyz 0 1
| 15>    C        5.36006       -10.26582       -10.62185
| 16>    S        3.81014       -10.96509       -10.19139
| 17>    C        3.79146        -9.89310        -8.84928
| 18>    C        4.94226        -9.10819        -8.84202
| 19>    N        5.80112        -9.34055        -9.84461
| 20>    C        4.93860        -8.16396        -7.68195
| 21>    C        3.63082        -8.51125        -7.03178
| 22>    C        2.99136        -9.52917        -7.73912
| 23>    S        1.49083        -9.96885        -7.03461
| 24>    C        1.71037        -8.76271        -5.77429
| 25>    C        2.90341        -8.07733        -5.92741
| 26>    C        0.66340        -8.60901        -4.82861
| 27>    C        0.60556        -7.66043        -3.86123
| 28>    C       -0.49569        -7.42685        -2.98148
| 29>    C       -1.81607        -7.69820        -3.25509
| 30>    O       -2.81863        -7.55098        -2.31447
| 31>    C       -2.42864        -7.00285        -1.13019
| 32>    C       -1.07545        -6.63082        -0.87832
| 33>    C       -0.90140        -6.08188         0.34901
| 34>    S       -2.38839        -6.01186         1.22026
| 35>    C       -3.25190        -6.73026        -0.08834
| 36>    O       -0.08782        -6.84048        -1.79194
| 37>    C       -2.27474        -8.08821        -4.54457
| 38>    C       -3.50422        -8.59761        -4.81356
| 39>    C       -3.90321        -9.01268        -6.10679
| 40>    S       -5.53993        -9.58772        -6.37529
| 41>    C       -3.13730        -9.08160        -7.26464
| 42>    C       -3.83495        -9.59869        -8.34948
| 43>    C       -3.61220        -9.90327        -9.76481
| 44>    C       -2.43666        -9.92944       -10.42834
| 45>    C       -2.35005       -10.21965       -11.90136
| 46>    N       -3.19248        -9.30085       -12.66746
| 47>    C       -1.13860        -9.65009        -9.71266
| 48>    N        0.02366       -10.12493       -10.45037
| 49>    C       -5.17396        -9.89793        -8.02044
| 50>    C       -5.83610       -10.33357        -9.17585
| 51>    S       -7.40068       -10.85705        -9.63181
| 52>    C       -4.93131       -10.30310       -10.26048
| 53>    C       -5.52506       -10.68164       -11.45256
| 54>    C       -6.87053       -11.01395       -11.30589
| 55>    C       -7.79266       -11.42289       -12.28254
| 56>    C       -7.52943       -11.47965       -13.62687
| 57>    C       -8.45875       -11.89124       -14.58310
| 58>    C       -8.21906       -11.89918       -15.93992
| 59>    C       -9.10144       -12.30707       -16.96326
| 60>    C       -8.59444       -12.18702       -18.22450
| 61>    C       -7.28236       -11.67017       -18.26567
| 62>    S       -6.70431       -11.35480       -16.64667
| 63>    C       -6.50862       -11.40498       -19.38132
| 64>    C       -6.84204       -11.60682       -20.73718
| 65>    C       -5.86942       -11.22129       -21.60884
| 66>    C       -4.71116       -10.68592       -20.99068
| 67>    S       -4.90299       -10.71097       -19.24766
| 68>    C       -3.60678       -10.20040       -21.64056
| 69>    C       -2.45616        -9.63746       -21.06415
| 70>    S       -2.16174        -9.45988       -19.34154
| 71>    C       -0.62730        -8.70799       -19.55208
| 72>    C       -0.32890        -8.58536       -20.88860
| 73>    C       -1.35889        -9.11109       -21.72588
| 74>    O       -1.03993        -8.97419       -23.03079
| 75>    C        0.17808        -8.36791       -23.03637
| 76>    N        0.76879        -8.09117       -24.28883
| 77>    O        1.85788        -7.54514       -24.26629
| 78>    O        0.16202        -8.40763       -25.29073
| 79>    C        0.66599        -8.10513       -21.78310
| 80>    H        5.88162       -10.61575       -11.48894
| 81>    H        4.97722        -7.12242        -8.00592
| 82>    H        5.78743        -8.33577        -7.01762
| 83>    H        3.22092        -7.30259        -5.25444
| 84>    H       -0.14046        -9.32582        -4.91760
| 85>    H        1.46878        -7.04070        -3.66266
| 86>    H        0.00450        -5.71901         0.78696
| 87>    H       -4.30428        -6.90772        -0.01572
| 88>    H       -1.58083        -7.92359        -5.35145
| 89>    H       -4.21199        -8.73307        -4.00867
| 90>    H       -2.11697        -8.74961        -7.28447
| 91>    H       -2.71607       -11.23519       -12.09445
| 92>    H       -1.29196       -10.17253       -12.19301
| 93>    H       -2.92413        -8.34262       -12.47041
| 94>    H       -3.05239        -9.46005       -13.66015
| 95>    H       -1.19679       -10.08259        -8.70230
| 96>    H       -1.03233        -8.56348        -9.60300
| 97>    H        0.03862       -11.13994       -10.46382
| 98>    H        0.87157        -9.81795        -9.98700
| 99>    H       -5.02800       -10.68160       -12.40181
|100>    H       -8.78134       -11.69504       -11.93601
|101>    H       -6.55513       -11.17834       -13.98637
|102>    H       -9.43465       -12.22152       -14.25127
|103>    H      -10.08657       -12.67677       -16.73822
|104>    H       -9.13016       -12.44973       -19.11879
|105>    H       -7.78603       -12.02752       -21.03379
|106>    H       -5.94429       -11.29617       -22.67916
|107>    H       -3.60737       -10.23429       -22.72211
|108>    H       -0.05640        -8.40903       -18.69843
|109>    H        1.60063        -7.63492       -21.55849
|110> *
|111>
|112>                          ****END OF INPUT****

CARTESIAN COORDINATES (ANGSTROEM)
---------------------------------
  C      5.360060  -10.265820  -10.621850
  S      3.810140  -10.965090  -10.191390
  C      3.791460   -9.893100   -8.849280
  C      4.942260   -9.108190   -8.842020
  N      5.801120   -9.340550   -9.844610
  C      4.938600   -8.163960   -7.681950
  C      3.630820   -8.511250   -7.031780
  C      2.991360   -9.529170   -7.739120
  S      1.490830   -9.968850   -7.034610
  C      1.710370   -8.762710   -5.774290
  C      2.903410   -8.077330   -5.927410
  C      0.663400   -8.609010   -4.828610
  C      0.605560   -7.660430   -3.861230
  C     -0.495690   -7.426850   -2.981480
  C     -1.816070   -7.698200   -3.255090
  O     -2.818630   -7.550980   -2.314470
  C     -2.428640   -7.002850   -1.130190
  C     -1.075450   -6.630820   -0.878320
  C     -0.901400   -6.081880    0.349010
  S     -2.388390   -6.011860    1.220260
  C     -3.251900   -6.730260   -0.088340
  O     -0.087820   -6.840480   -1.791940
  C     -2.274740   -8.088210   -4.544570
  C     -3.504220   -8.597610   -4.813560
  C     -3.903210   -9.012680   -6.106790
  S     -5.539930   -9.587720   -6.375290
  C     -3.137300   -9.081600   -7.264640
  C     -3.834950   -9.598690   -8.349480
  C     -3.612200   -9.903270   -9.764810
  C     -2.436660   -9.929440  -10.428340
  C     -2.350050  -10.219650  -11.901360
  N     -3.192480   -9.300850  -12.667460
  C     -1.138600   -9.650090   -9.712660
  N      0.023660  -10.124930  -10.450370
  C     -5.173960   -9.897930   -8.020440
  C     -5.836100  -10.333570   -9.175850
  S     -7.400680  -10.857050   -9.631810
  C     -4.931310  -10.303100  -10.260480
  C     -5.525060  -10.681640  -11.452560
  C     -6.870530  -11.013950  -11.305890
  C     -7.792660  -11.422890  -12.282540
  C     -7.529430  -11.479650  -13.626870
  C     -8.458750  -11.891240  -14.583100
  C     -8.219060  -11.899180  -15.939920
  C     -9.101440  -12.307070  -16.963260
  C     -8.594440  -12.187020  -18.224500
  C     -7.282360  -11.670170  -18.265670
  S     -6.704310  -11.354800  -16.646670
  C     -6.508620  -11.404980  -19.381320
  C     -6.842040  -11.606820  -20.737180
  C     -5.869420  -11.221290  -21.608840
  C     -4.711160  -10.685920  -20.990680
  S     -4.902990  -10.710970  -19.247660
  C     -3.606780  -10.200400  -21.640560
  C     -2.456160   -9.637460  -21.064150
  S     -2.161740   -9.459880  -19.341540
  C     -0.627300   -8.707990  -19.552080
  C     -0.328900   -8.585360  -20.888600
  C     -1.358890   -9.111090  -21.725880
  O     -1.039930   -8.974190  -23.030790
  C      0.178080   -8.367910  -23.036370
  N      0.768790   -8.091170  -24.288830
  O      1.857880   -7.545140  -24.266290
  O      0.162020   -8.407630  -25.290730
  C      0.665990   -8.105130  -21.783100
  H      5.881620  -10.615750  -11.488940
  H      4.977220   -7.122420   -8.005920
  H      5.787430   -8.335770   -7.017620
  H      3.220920   -7.302590   -5.254440
  H     -0.140460   -9.325820   -4.917600
  H      1.468780   -7.040700   -3.662660
  H      0.004500   -5.719010    0.786960
  H     -4.304280   -6.907720   -0.015720
  H     -1.580830   -7.923590   -5.351450
  H     -4.211990   -8.733070   -4.008670
  H     -2.116970   -8.749610   -7.284470
  H     -2.716070  -11.235190  -12.094450
  H     -1.291960  -10.172530  -12.193010
  H     -2.924130   -8.342620  -12.470410
  H     -3.052390   -9.460050  -13.660150
  H     -1.196790  -10.082590   -8.702300
  H     -1.032330   -8.563480   -9.603000
  H      0.038620  -11.139940  -10.463820
  H      0.871570   -9.817950   -9.987000
  H     -5.028000  -10.681600  -12.401810
  H     -8.781340  -11.695040  -11.936010
  H     -6.555130  -11.178340  -13.986370
  H     -9.434650  -12.221520  -14.251270
  H    -10.086570  -12.676770  -16.738220
  H     -9.130160  -12.449730  -19.118790
  H     -7.786030  -12.027520  -21.033790
  H     -5.944290  -11.296170  -22.679160
  H     -3.607370  -10.234290  -22.722110
  H     -0.056400   -8.409030  -18.698430
  H      1.600630   -7.634920  -21.558490

 Total Charge           Charge          ....    0
 Multiplicity           Mult            ....    1
 Number of Electrons    NEL             ....  514
 Basis Dimension        Dim             .... 1092

ORBITAL ENERGIES
----------------

  NO   OCC          E(Eh)            E(eV)
   0   2.0000     -88.975382     -2421.1432
   1   2.0000     -88.972072     -2421.0532
   2   2.0000     -88.967387     -2420.9257
   3   2.0000     -88.957429     -2420.6547
   4   2.0000     -88.953047     -2420.5355
   5   2.0000     -88.953030     -2420.5350
   6   2.0000     -88.940877     -2420.2043
   7   2.0000     -88.939359     -2420.1630
   8   2.0000     -19.301174      -525.2116
   9   2.0000     -19.269330      -524.3451
  10   2.0000     -19.267271      -524.2891
  11   2.0000     -19.237369      -523.4754
  12   2.0000     -19.234981      -523.4104
  13   2.0000     -14.648764      -398.6131
  14   2.0000     -14.417301      -392.3147
  15   2.0000     -14.395551      -391.7229
  16   2.0000     -14.386134      -391.4666
  17   2.0000     -10.379763      -282.4477
  18   2.0000     -10.340407      -281.3768
  19   2.0000     -10.338863      -281.3348
  20   2.0000     -10.336204      -281.2624
  21   2.0000     -10.335874      -281.2534
  22   2.0000     -10.335475      -281.2426
  23   2.0000     -10.332726      -281.1678
  24   2.0000     -10.311587      -280.5926
  25   2.0000     -10.311212      -280.5823
  26   2.0000     -10.310311      -280.5578
  27   2.0000     -10.309707      -280.5414
  28   2.0000     -10.307409      -280.4789
  29   2.0000     -10.307005      -280.4679
  30   2.0000     -10.305360      -280.4231
  31   2.0000     -10.303151      -280.3630
  32   2.0000     -10.301877      -280.3283
  33   2.0000     -10.300697      -280.2962
  34   2.0000     -10.299918      -280.2750
  35   2.0000     -10.297849      -280.2187
  36   2.0000     -10.296555      -280.1835
  37   2.0000     -10.295320      -280.1499
  38   2.0000     -10.293906      -280.1114
  39   2.0000     -10.292941      -280.0852
  40   2.0000     -10.291054      -280.0338
  41   2.0000     -10.289962      -280.0041
  42   2.0000     -10.289957      -280.0040
  43   2.0000     -10.289576      -279.9936
  44   2.0000     -10.289379      -279.9882
  45   2.0000     -10.287805      -279.9454
  46   2.0000     -10.287264      -279.9307
  47   2.0000     -10.286720      -279.9159
  48   2.0000     -10.285536      -279.8837
  49   2.0000     -10.284248      -279.8486
  50   2.0000     -10.281241      -279.7668
  51   2.0000     -10.280877      -279.7569
  52   2.0000     -10.280298      -279.7411
  53   2.0000     -10.280155      -279.7372
  54   2.0000     -10.279667      -279.7240
  55   2.0000     -10.279543      -279.7206
  56   2.0000     -10.277479      -279.6644
  57   2.0000     -10.277324      -279.6602
  58   2.0000     -10.276145      -279.6281
  59   2.0000     -10.273640      -279.5600
  60   2.0000     -10.273513      -279.5565
  61   2.0000     -10.271284      -279.4958
  62   2.0000     -10.268278      -279.4141
  63   2.0000     -10.266885      -279.3762
  64   2.0000     -10.263914      -279.2953
  65   2.0000      -8.070677      -219.6143
  66   2.0000      -8.066627      -219.5041
  67   2.0000      -8.061883      -219.3750
  68   2.0000      -8.052334      -219.1151
  69   2.0000      -8.048893      -219.0215
  70   2.0000      -8.047988      -218.9969
  71   2.0000      -8.037044      -218.6991
  72   2.0000      -8.035526      -218.6578
  73   2.0000      -6.039867      -164.3531
  74   2.0000      -6.035979      -164.2473
  75   2.0000      -6.035734      -164.2407
  76   2.0000      -6.033071      -164.1682
  77   2.0000      -6.031913      -164.1367
  78   2.0000      -6.031215      -164.1177
  79   2.0000      -6.028806      -164.0522
  80   2.0000      -6.026835      -163.9985
  81   2.0000      -6.024297      -163.9295
  82   2.0000      -6.021596      -163.8560
  83   2.0000      -6.018394      -163.7688
  84   2.0000      -6.017625      -163.7479
  85   2.0000      -6.017307      -163.7392
  86   2.0000      -6.014515      -163.6633
  87   2.0000      -6.014253      -163.6561
  88   2.0000      -6.013324      -163.6309
  89   2.0000      -6.010537      -163.5550
  90   2.0000      -6.010085      -163.5427
  91   2.0000      -6.006792      -163.4531
  92   2.0000      -6.005212      -163.4101
  93   2.0000      -6.002747      -163.3431
  94   2.0000      -6.001308      -163.3039
  95   2.0000      -5.997947      -163.2124
  96   2.0000      -5.996475      -163.1724
  97   2.0000      -1.319494       -35.9053
  98   2.0000      -1.220821       -33.2202
  99   2.0000      -1.194002       -32.4904
 100   2.0000      -1.157190       -31.4887
 101   2.0000      -1.135540       -30.8996
 102   2.0000      -1.071597       -29.1596
 103   2.0000      -1.004907       -27.3449
 104   2.0000      -1.002613       -27.2825
 105   2.0000      -0.992003       -26.9938
 106   2.0000      -0.985086       -26.8056
 107   2.0000      -0.982402       -26.7325
 108   2.0000      -0.981461       -26.7069
 109   2.0000      -0.966960       -26.3123
 110   2.0000      -0.965585       -26.2749
 111   2.0000      -0.960493       -26.1364
 112   2.0000      -0.937173       -25.5018
 113   2.0000      -0.928220       -25.2582
 114   2.0000      -0.922167       -25.0934
 115   2.0000      -0.912822       -24.8392
 116   2.0000      -0.900682       -24.5088
 117   2.0000      -0.899616       -24.4798
 118   2.0000      -0.889559       -24.2061
 119   2.0000      -0.884086       -24.0572
 120   2.0000      -0.872335       -23.7374
 121   2.0000      -0.862802       -23.4780
 122   2.0000      -0.851432       -23.1686
 123   2.0000      -0.845298       -23.0017
 124   2.0000      -0.840287       -22.8654
 125   2.0000      -0.835869       -22.7452
 126   2.0000      -0.830646       -22.6030
 127   2.0000      -0.825252       -22.4563
 128   2.0000      -0.822066       -22.3696
 129   2.0000      -0.818657       -22.2768
 130   2.0000      -0.810210       -22.0469
 131   2.0000      -0.806463       -21.9450
 132   2.0000      -0.789484       -21.4829
 133   2.0000      -0.783738       -21.3266
 134   2.0000      -0.780383       -21.2353
 135   2.0000      -0.773004       -21.0345
 136   2.0000      -0.759972       -20.6799
 137   2.0000      -0.748614       -20.3708
 138   2.0000      -0.746640       -20.3171
 139   2.0000      -0.741835       -20.1864
 140   2.0000      -0.726946       -19.7812
 141   2.0000      -0.708115       -19.2688
 142   2.0000      -0.699308       -19.0291
 143   2.0000      -0.696413       -18.9503
 144   2.0000      -0.686050       -18.6684
 145   2.0000      -0.683811       -18.6074
 146   2.0000      -0.670597       -18.2479
 147   2.0000      -0.665805       -18.1175
 148   2.0000      -0.661585       -18.0027
 149   2.0000      -0.659539       -17.9470
 150   2.0000      -0.657854       -17.9011
 151   2.0000      -0.649129       -17.6637
 152   2.0000      -0.638086       -17.3632
 153   2.0000      -0.633616       -17.2416
 154   2.0000      -0.630106       -17.1460
 155   2.0000      -0.629478       -17.1290
 156   2.0000      -0.626368       -17.0443
 157   2.0000      -0.619937       -16.8693
 158   2.0000      -0.617709       -16.8087
 159   2.0000      -0.614204       -16.7133
 160   2.0000      -0.611492       -16.6395
 161   2.0000      -0.609477       -16.5847
 162   2.0000      -0.602007       -16.3814
 163   2.0000      -0.592973       -16.1356
 164   2.0000      -0.591300       -16.0901
 165   2.0000      -0.587367       -15.9831
 166   2.0000      -0.585482       -15.9318
 167   2.0000      -0.580055       -15.7841
 168   2.0000      -0.577998       -15.7281
 169   2.0000      -0.574474       -15.6322
 170   2.0000      -0.572926       -15.5901
 171   2.0000      -0.570275       -15.5180
 172   2.0000      -0.559328       -15.2201
 173   2.0000      -0.557904       -15.1813
 174   2.0000      -0.555624       -15.1193
 175   2.0000      -0.555043       -15.1035
 176   2.0000      -0.550725       -14.9860
 177   2.0000      -0.544837       -14.8258
 178   2.0000      -0.543049       -14.7771
 179   2.0000      -0.540575       -14.7098
 180   2.0000      -0.534723       -14.5506
 181   2.0000      -0.533464       -14.5163
 182   2.0000      -0.527840       -14.3633
 183   2.0000      -0.520511       -14.1638
 184   2.0000      -0.517748       -14.0886
 185   2.0000      -0.512940       -13.9578
 186   2.0000      -0.510133       -13.8814
 187   2.0000      -0.509248       -13.8573
 188   2.0000      -0.503101       -13.6901
 189   2.0000      -0.500697       -13.6247
 190   2.0000      -0.497536       -13.5387
 191   2.0000      -0.496244       -13.5035
 192   2.0000      -0.494917       -13.4674
 193   2.0000      -0.492060       -13.3896
 194   2.0000      -0.490574       -13.3492
 195   2.0000      -0.488101       -13.2819
 196   2.0000      -0.487942       -13.2776
 197   2.0000      -0.484407       -13.1814
 198   2.0000      -0.482751       -13.1363
 199   2.0000      -0.480102       -13.0642
 200   2.0000      -0.477949       -13.0057
 201   2.0000      -0.476859       -12.9760
 202   2.0000      -0.473777       -12.8921
 203   2.0000      -0.469633       -12.7794
 204   2.0000      -0.467399       -12.7186
 205   2.0000      -0.464772       -12.6471
 206   2.0000      -0.462929       -12.5969
 207   2.0000      -0.461953       -12.5704
 208   2.0000      -0.460080       -12.5194
 209   2.0000      -0.457110       -12.4386
 210   2.0000      -0.454081       -12.3562
 211   2.0000      -0.450585       -12.2610
 212   2.0000      -0.449341       -12.2272
 213   2.0000      -0.446416       -12.1476
 214   2.0000      -0.445631       -12.1262
 215   2.0000      -0.440643       -11.9905
 216   2.0000      -0.436299       -11.8723
 217   2.0000      -0.435320       -11.8457
 218   2.0000      -0.433833       -11.8052
 219   2.0000      -0.428989       -11.6734
 220   2.0000      -0.426962       -11.6182
 221   2.0000      -0.423194       -11.5157
 222   2.0000      -0.420138       -11.4325
 223   2.0000      -0.417268       -11.3544
 224   2.0000      -0.414772       -11.2865
 225   2.0000      -0.410339       -11.1659
 226   2.0000      -0.409353       -11.1391
 227   2.0000      -0.405337       -11.0298
 228   2.0000      -0.403358       -10.9759
 229   2.0000      -0.400571       -10.9001
 230   2.0000      -0.388670       -10.5762
 231   2.0000      -0.388350       -10.5675
 232   2.0000      -0.383014       -10.4223
 233   2.0000      -0.376081       -10.2337
 234   2.0000      -0.373664       -10.1679
 235   2.0000      -0.367419        -9.9980
 236   2.0000      -0.364680        -9.9234
 237   2.0000      -0.363785        -9.8991
 238   2.0000      -0.353456        -9.6180
 239   2.0000      -0.349288        -9.5046
 240   2.0000      -0.339398        -9.2355
 241   2.0000      -0.332996        -9.0613
 242   2.0000      -0.332751        -9.0546
 243   2.0000      -0.330373        -8.9899
 244   2.0000      -0.324772        -8.8375
 245   2.0000      -0.322012        -8.7624
 246   2.0000      -0.316839        -8.6216
 247   2.0000      -0.309221        -8.4143
 248   2.0000      -0.303018        -8.2455
 249   2.0000      -0.298230        -8.1152
 250   2.0000      -0.296241        -8.0611
 251   2.0000      -0.280077        -7.6213
 252   2.0000      -0.275603        -7.4995
 253   2.0000      -0.268236        -7.2991
 254   2.0000      -0.247250        -6.7280
 255   2.0000      -0.221298        -6.0218
 256   2.0000      -0.191987        -5.2242
 257   0.0000      -0.082248        -2.2381
 258   0.0000      -0.060476        -1.6456
 259   0.0000      -0.052326        -1.4239
 260   0.0000      -0.036615        -0.9963
 261   0.0000      -0.009068        -0.2468

MULLIKEN ATOMIC CHARGES
-----------------------
   0 C :   -0.006287
   1 S :    0.114082
   2 C :   -0.082173
   3 C :   -0.229119
   4 N :   -0.033805
   5 C :    0.372974
   6 C :   -0.163555
   7 C :   -0.111934
   8 S :    0.130703
   9 C :   -0.097213
  10 C :   -0.001946
  11 C :    0.021247
  12 C :   -0.013353
  13 C :    0.148985
  14 C :    0.168004
  15 O :   -0.256670
  16 C :    0.218883
  17 C :    0.219801
  18 C :   -0.176845
  19 S :    0.105346
  20 C :   -0.176547
  21 O :   -0.255326
  22 C :   -0.105024
  23 C :    0.050547
  24 C :   -0.068531
  25 S :    0.156187
  26 C :   -0.077616
  27 C :    0.046814
  28 C :    0.212338
  29 C :   -0.367738
  30 C :    0.195861
  31 N :   -0.224000
  32 C :    0.141568
  33 N :   -0.208947
  34 C :   -0.117424
  35 C :   -0.119605
  36 S :    0.142213
  37 C :    0.055953
  38 C :   -0.028074
  39 C :   -0.065322
  40 C :    0.040381
  41 C :   -0.008234
  42 C :    0.005339
  43 C :   -0.032522
  44 C :    0.043120
  45 C :    0.015586
  46 C :   -0.037142
  47 S :    0.063250
  48 C :   -0.044575
  49 C :    0.030152
  50 C :    0.028220
  51 C :   -0.021473
  52 S :    0.053243
  53 C :   -0.023264
  54 C :   -0.184993
  55 S :    0.131944
  56 C :   -0.139315
  57 C :    0.129339
  58 C :    0.186511
  59 O :   -0.185524
  60 C :    0.232356
  61 N :    0.275884
  62 O :   -0.254436
  63 O :   -0.233772
  64 C :   -0.073697
  65 H :    0.038953
  66 H :    0.038349
  67 H :    0.040245
  68 H :   -0.021572
  69 H :    0.010606
  70 H :    0.003333
  71 H :    0.022164
  72 H :    0.023932
  73 H :    0.020290
  74 H :   -0.008318
  75 H :   -0.031105
  76 H :    0.008783
  77 H :    0.005943
  78 H :    0.095332
  79 H :    0.097772
  80 H :    0.020981
  81 H :    0.029556
  82 H :    0.097748
  83 H :    0.093002
  84 H :   -0.030586
  85 H :   -0.022290
  86 H :    0.000725
  87 H :   -0.018398
  88 H :   -0.015540
  89 H :   -0.016511
  90 H :   -0.016786
  91 H :   -0.012598
  92 H :    0.001082
  93 H :    0.024907
  94 H :    0.009172
Sum of atomic charges:   -0.0000000

LOEWDIN ATOMIC CHARGES
----------------------
   0 C :   -0.126676
   1 S :    0.407044
   2 C :   -0.221421
   3 C :   -0.046071
   4 N :   -0.080192
   5 C :   -0.011342
   6 C :   -0.045844
   7 C :   -0.208582
   8 S :    0.434106
   9 C :   -0.166353
  10 C :   -0.050164
  11 C :   -0.045734
  12 C :   -0.028423
  13 C :    0.012132
  14 C :    0.028214
  15 O :   -0.056211
  16 C :   -0.007584
  17 C :   -0.007807
  18 C :   -0.212893
  19 S :    0.431417
  20 C :   -0.212185
  21 O :   -0.062877
  22 C :   -0.050146
  23 C :   -0.034540
  24 C :   -0.172364
  25 S :    0.440887
  26 C :   -0.056192
  27 C :   -0.048945
  28 C :   -0.027541
  29 C :    0.001687
  30 C :    0.014193
  31 N :   -0.103913
  32 C :    0.017181
  33 N :   -0.105449
  34 C :   -0.195413
  35 C :   -0.194810
  36 S :    0.428758
  37 C :   -0.039830
  38 C :   -0.026563
  39 C :   -0.176088
  40 C :   -0.027264
  41 C :   -0.044278
  42 C :   -0.040399
  43 C :   -0.159490
  44 C :   -0.027714
  45 C :   -0.043717
  46 C :   -0.168291
  47 S :    0.366591
  48 C :   -0.191445
  49 C :   -0.032375
  50 C :   -0.041589
  51 C :   -0.147469
  52 S :    0.357197
  53 C :   -0.084436
  54 C :   -0.199094
  55 S :    0.464433
  56 C :   -0.201732
  57 C :   -0.084196
  58 C :    0.014419
  59 O :    0.000106
  60 C :    0.023149
  61 N :    0.272990
  62 O :   -0.215074
  63 O :   -0.195043
  64 C :   -0.010481
  65 H :    0.017779
  66 H :    0.056496
  67 H :    0.057463
  68 H :    0.031800
  69 H :    0.031764
  70 H :    0.034312
  71 H :    0.027978
  72 H :    0.028536
  73 H :    0.033346
  74 H :    0.030416
  75 H :    0.023021
  76 H :    0.026598
  77 H :    0.009908
  78 H :    0.056180
  79 H :    0.056058
  80 H :    0.012395
  81 H :    0.035461
  82 H :    0.055753
  83 H :    0.045727
  84 H :    0.026747
  85 H :    0.027295
  86 H :    0.021584
  87 H :    0.032480
  88 H :    0.032832
  89 H :    0.030398
  90 H :    0.031196
  91 H :    0.033104
  92 H :    0.044376
  93 H :    0.025400
  94 H :    0.045335

  Mayer bond orders larger than 0.100000
B(  0-C ,  1-S ) :   1.1242 B(  0-C ,  4-N ) :   1.6994 B(  0-C , 65-H ) :   0.9667
B(  1-S ,  2-C ) :   1.0884 B(  2-C ,  3-C ) :   1.5313 B(  2-C ,  7-C ) :   1.1783
B(  3-C ,  4-N ) :   1.4064 B(  3-C ,  5-C ) :   1.0497 B(  5-C ,  6-C ) :   0.9848
B(  5-C , 66-H ) :   0.8663 B(  5-C , 67-H ) :   0.8650 B(  6-C ,  7-C ) :   1.5429
B(  6-C , 10-C ) :   1.2992 B(  7-C ,  8-S ) :   1.0794 B(  8-S ,  9-C ) :   1.1032
B(  9-C , 10-C ) :   1.4784 B(  9-C , 11-C ) :   1.1242 B( 10-C , 68-H ) :   0.9976
B( 11-C , 12-C ) :   1.6867 B( 11-C , 69-H ) :   0.9562 B( 12-C , 13-C ) :   1.1411
B( 12-C , 70-H ) :   0.9494 B( 13-C , 14-C ) :   1.4873 B( 13-C , 21-O ) :   1.0345
B( 14-C , 15-O ) :   1.0642 B( 14-C , 22-C ) :   1.1727 B( 15-O , 16-C ) :   1.0553
B( 16-C , 17-C ) :   1.1964 B( 16-C , 20-C ) :   1.5745 B( 17-C , 18-C ) :   1.5738
B( 17-C , 21-O ) :   1.0635 B( 18-C , 19-S ) :   1.1398 B( 18-C , 71-H ) :   0.9718
B( 19-S , 20-C ) :   1.1400 B( 20-C , 72-H ) :   0.9717 B( 22-C , 23-C ) :   1.6571
B( 22-C , 73-H ) :   0.9561 B( 23-C , 24-C ) :   1.1177 B( 23-C , 74-H ) :   0.9737
B( 24-C , 25-S ) :   1.0940 B( 24-C , 26-C ) :   1.4441 B( 25-S , 34-C ) :   1.0885
B( 26-C , 27-C ) :   1.2913 B( 26-C , 75-H ) :   0.9857 B( 27-C , 28-C ) :   1.0141
B( 27-C , 34-C ) :   1.4302 B( 28-C , 29-C ) :   1.7279 B( 28-C , 37-C ) :   1.0137
B( 29-C , 30-C ) :   1.0758 B( 29-C , 32-C ) :   1.0387 B( 30-C , 31-N ) :   1.0605
B( 30-C , 76-H ) :   0.9050 B( 30-C , 77-H ) :   0.9072 B( 31-N , 78-H ) :   0.9677
B( 31-N , 79-H ) :   0.9646 B( 32-C , 33-N ) :   1.0916 B( 32-C , 80-H ) :   0.9254
B( 32-C , 81-H ) :   0.9161 B( 33-N , 82-H ) :   0.9669 B( 33-N , 83-H ) :   0.9629
B( 34-C , 35-C ) :   1.2501 B( 35-C , 36-S ) :   1.0915 B( 35-C , 37-C ) :   1.4131
B( 36-S , 39-C ) :   1.0732 B( 37-C , 38-C ) :   1.3347 B( 38-C , 39-C ) :   1.4027
B( 38-C , 84-H ) :   0.9766 B( 39-C , 40-C ) :   1.1634 B( 40-C , 41-C ) :   1.6011
B( 40-C , 85-H ) :   0.9689 B( 41-C , 42-C ) :   1.1979 B( 41-C , 86-H ) :   0.9683
B( 42-C , 43-C ) :   1.5226 B( 42-C , 87-H ) :   0.9836 B( 43-C , 44-C ) :   1.1652
B( 43-C , 47-S ) :   1.0247 B( 44-C , 45-C ) :   1.5672 B( 44-C , 88-H ) :   0.9982
B( 45-C , 46-C ) :   1.2009 B( 45-C , 89-H ) :   0.9943 B( 46-C , 47-S ) :   1.0553
B( 46-C , 48-C ) :   1.4946 B( 48-C , 49-C ) :   1.1977 B( 48-C , 52-S ) :   1.0305
B( 49-C , 50-C ) :   1.5824 B( 49-C , 90-H ) :   0.9921 B( 50-C , 51-C ) :   1.1466
B( 50-C , 91-H ) :   1.0008 B( 51-C , 52-S ) :   1.0395 B( 51-C , 53-C ) :   1.5577
B( 53-C , 54-C ) :   1.1782 B( 53-C , 92-H ) :   0.9736 B( 54-C , 55-S ) :   1.1095
B( 54-C , 56-C ) :   0.1082 B( 54-C , 58-C ) :   1.4398 B( 55-S , 56-C ) :   1.1750
B( 56-C , 57-C ) :   1.4163 B( 56-C , 93-H ) :   0.9754 B( 57-C , 58-C ) :   1.2301
B( 57-C , 64-C ) :   1.0629 B( 58-C , 59-O ) :   1.1180 B( 59-O , 60-C ) :   1.1259
B( 60-C , 61-N ) :   0.9202 B( 60-C , 64-C ) :   1.5708 B( 61-N , 62-O ) :   1.5284
B( 61-N , 63-O ) :   1.5125 B( 62-O , 63-O ) :   0.2783 B( 64-C , 94-H ) :   1.0248

-----------------------------------------------------------------------------
         ABSORPTION SPECTRUM VIA TRANSITION ELECTRIC DIPOLE MOMENTS
-----------------------------------------------------------------------------
State   Energy  Wavelength   fosc         T2         TX        TY        TZ
        (cm-1)    (nm)                  (au**2)     (au)      (au)      (au)
-----------------------------------------------------------------------------
   0   11256.0    888.4   1.253732378  36.66888  -0.05650   0.04511   6.05505
   1   16232.9    616.0   0.517131275  10.48772  -2.99758  -0.95424  -0.76918
   2   18179.9    550.1   0.723434201  13.10036   3.22012   0.52118  -1.56829
   3   18412.5    543.1   0.150223752   2.68597  -1.19391  -0.51215  -0.99913
   4   20336.3    491.7   0.044367949   0.71824   0.45178   0.68476   0.21268
   5   22757.8    439.4   0.192801167   2.78904   0.07923  -0.86311  -1.42752
   6   24326.8    411.1   0.092752884   1.25521   0.52109   0.69426   0.70829
   7   25921.0    385.8   0.373022309   4.73760  -1.32344  -1.11261  -1.32220
   8   26215.6    381.5   0.116899347   1.46800  -1.20592  -0.11045   0.03957
   9   27013.8    370.2   0.303578170   3.69965   1.45316   0.68713   1.05633
  10   27931.1    358.0   0.129853518   1.53053   0.42252  -0.17111  -1.15010
  11   28690.6    348.5   0.020068770   0.23028   0.04433  -0.20155  -0.43324
  12   28945.9    345.5   0.084766859   0.96408   0.61540   0.38982   0.65834
  13   29313.1    341.1   0.583220065   6.55008  -1.69671   0.48646   1.85327
  14   29896.1    334.5   0.238686925   2.62839   0.37927  -0.47800  -1.50202
  15   30340.2    329.6   0.002571729   0.02791  -0.05850  -0.00035   0.15647
  16   30995.2    322.6   0.064785039   0.68811   0.71357   0.27398  -0.32226
  17   31548.7    317.0   0.084260143   0.87926   0.37302  -0.18269  -0.84068
  18   32383.7    308.8   0.043030346   0.43745   0.06777  -0.42043  -0.50606
  19   32658.0    306.2   0.152893842   1.54126  -0.33142   0.17546   1.18348
  20   32809.6    304.8   0.040451850   0.40589   0.40855   0.41411   0.25979
  21   33126.5    301.9   0.005955856   0.05919   0.15165   0.12375  -0.14449
  22   33567.4    297.9   0.024348487   0.23880   0.12482   0.15650   0.44579
  23   33727.8    296.5   0.021102485   0.20598   0.42894   0.07330  -0.12889
  24   34143.2    292.9   0.067647109   0.65226  -0.41411   0.20072   0.66369
  25   34663.3    288.5   0.002983115   0.02833  -0.14595   0.04993  -0.06736
  26   35103.6    284.9   0.077957459   0.73111   0.46030  -0.21158  -0.68882
  27   35591.9    281.0   0.086585733   0.80089   0.19749   0.23998   0.83922
  28   35640.0    280.6   0.076194890   0.70382   0.54710   0.28531  -0.56842
  29   35983.3    277.9   0.064845202   0.59327   0.14819   0.02477  -0.75544
  30   36374.3    274.9   0.059740412   0.54069  -0.29000  -0.50310  -0.45109
  31   36732.1    272.2   0.182981878   1.63998  -0.54508  -0.01298   1.15875
  32   37118.2    269.4   0.003349287   0.02971   0.11555   0.06406   0.11068
  33   37369.0    267.6   0.176722697   1.55688  -0.91449  -0.29826   0.79475
  34   37716.7    265.1   0.039741842   0.34689   0.53560   0.10126  -0.22309
  35   37995.0    263.2   0.083864018   0.72665  -0.78868  -0.09168  -0.31020
  36   38170.3    262.0   0.003366152   0.02903   0.04705   0.14379   0.07838
  37   38355.1    260.7   0.304444113   2.61312   0.57519   0.20077  -1.49732
  38   38432.0    260.2   0.001441300   0.01235   0.06745  -0.05519  -0.06893
  39   38773.1    257.9   0.003139664   0.02666   0.05147  -0.13952  -0.06740
  40   38832.9    257.5   0.051862408   0.43967   0.26882   0.01883  -0.60585
  41   39086.0    255.8   0.034035470   0.28667   0.44292   0.07054  -0.29244
  42   39370.4    254.0   0.005340685   0.04466   0.10790  -0.13368  -0.12307
  43   39765.8    251.5   0.049007083   0.40572  -0.33225  -0.23917  -0.48798
  44   40072.0    249.6   0.007042976   0.05786   0.05695  -0.02911  -0.23189

FINAL SINGLE POINT ENERGY     -5623.502403300202

DIPOLE MOMENT
-------------
                                X             Y             Z
Electronic contribution:     -1.49046       2.30787      -7.18164
Nuclear contribution   :      1.38574      -2.87039       9.83709
                        -----------------------------------------
Total Dipole Moment    :     -0.10472      -0.56252       2.65545
                        -----------------------------------------
Magnitude (a.u.)       :      2.71640
Magnitude (Debye)      :      6.90453

Rotational constants in cm-1:     0.001072     0.000306     0.000248
Rotational constants in MHz :    32.140496     9.158743     7.427288

                             ****ORCA TERMINATED NORMALLY****
TOTAL RUN TIME: 0 days 0 hours 11 minutes 44 seconds 51 msec
