                         Program Version 4.2.0 -  RELEASE  -
|  1> # ORCA input file
|  2> # SCF done       -198.446544831551          0.000458905243
|  3> ! CAM-B3LYP def2-SVP def2/J RIJCOSX Grid4 TightSCF
|  4> %maxcore 5000
|  5> %tddft
|  6>     Mode sTDDFT
|  7>     Ethresh 5.0
|  8>     maxcore 5000
|  9> end
| 10>
| 11> %pal
| 12>   nprocs 6
| 13>   end
| 14> * xyz 0 1
| 15>    C       -6.12058        -4.86054         6.69879
| 16>    S       -6.48840        -6.57567         6.69971
| 17>    C       -6.10073        -6.57824         5.02725
| 18>    C       -5.73183        -5.30018         4.61672
| 19>    N       -5.75215        -4.35938         5.57239
| 20>    C       -5.39070        -5.28345         3.16037
| 21>    C       -5.61617        -6.72274         2.79729
| 22>    C       -6.02974        -7.44988         3.91169
| 23>    S       -6.30156        -9.10229         3.54759
| 24>    C       -5.85539        -8.82434         1.87277
| 25>    C       -5.51869        -7.50211         1.64738
| 26>    C       -5.88843        -9.92977         0.97351
| 27>    C       -5.57049        -9.86688        -0.33540
| 28>    C       -5.59406       -10.95238        -1.28522
| 29>    C       -5.23786       -10.67226        -2.61546
| 30>    C       -5.25417       -11.66829        -3.56005
| 31>    C       -5.58340       -12.98604        -3.19209
| 32>    C       -5.93898       -13.27791        -1.88214
| 33>    C       -5.95159       -12.26447        -0.94645
| 34>    C       -5.42902       -13.84184        -4.34658
| 35>    C       -4.99939       -13.05455        -5.42936
| 36>    C       -4.92671       -11.59441        -5.03393
| 37>    C       -3.54090       -10.98792        -5.29586
| 38>    C       -2.42701       -11.77365        -4.61353
| 39>    C       -6.03072       -10.85973        -5.83087
| 40>    C       -6.27471        -9.40648        -5.44589
| 41>    C       -4.74579       -13.61678        -6.65312
| 42>    C       -4.91318       -15.00153        -6.83476
| 43>    C       -5.35369       -15.77045        -5.74438
| 44>    C       -5.60859       -15.20922        -4.51083
| 45>    C       -4.65889       -15.65007        -8.09164
| 46>    C       -4.16046       -15.05228        -9.20359
| 47>    C       -3.93006       -15.69165       -10.43717
| 48>    C       -3.42358       -15.03346       -11.52698
| 49>    C       -3.16416       -15.54463       -12.82389
| 50>    C       -2.66744       -14.63071       -13.70195
| 51>    C       -2.49790       -13.33855       -13.15285
| 52>    S       -2.99649       -13.32654       -11.47453
| 53>    C       -2.02472       -12.19249       -13.75212
| 54>    C       -1.59662       -11.98649       -15.08389
| 55>    C       -1.19575       -10.71466       -15.34241
| 56>    C       -1.27237        -9.82055       -14.23399
| 57>    S       -1.88520       -10.70249       -12.84065
| 58>    C       -0.94368        -8.49673       -14.28445
| 59>    C       -0.97129        -7.49349       -13.26440
| 60>    C       -0.71810        -6.15808       -13.64297
| 61>    C       -0.74542        -5.16089       -12.70383
| 62>    C       -1.01126        -5.45666       -11.35389
| 63>    C       -1.24930        -6.76653       -10.96167
| 64>    C       -1.22983        -7.76538       -11.91051
| 65>    C       -0.97229        -4.22975       -10.59459
| 66>    C       -0.68621        -3.16715       -11.47113
| 67>    C       -0.52359        -3.67637       -12.88575
| 68>    C       -1.58117        -3.06550       -13.82416
| 69>    C       -3.00779        -3.32264       -13.35409
| 70>    C        0.88444        -3.37875       -13.43236
| 71>    C        1.99111        -3.95517       -12.55775
| 72>    C       -0.58997        -1.87997       -11.00611
| 73>    C       -0.77716        -1.61983        -9.63785
| 74>    C       -1.05996        -2.69329        -8.77869
| 75>    C       -1.16018        -3.98842        -9.24044
| 76>    C       -0.69136        -0.29925        -9.07184
| 77>    C       -0.45353         0.85602        -9.72950
| 78>    C       -0.39009         2.10680        -9.06301
| 79>    S       -0.07688         3.59416       -10.00650
| 80>    C       -0.17092         4.46496        -8.53423
| 81>    C       -0.42393         3.59440        -7.47085
| 82>    N       -0.54022         2.30761        -7.78450
| 83>    C       -0.50771         4.34319        -6.17790
| 84>    C       -0.26986         5.74978        -6.64456
| 85>    C       -0.07753         5.78148        -8.02465
| 86>    S        0.19774         7.37023        -8.60702
| 87>    C        0.05402         8.00812        -6.98107
| 88>    C       -0.19439         7.01208        -6.05923
| 89>    C        0.20155         9.42264        -6.78659
| 90>    C        0.11394        10.05586        -5.61777
| 91>    H       -6.20936        -4.29426         7.60319
| 92>    H       -4.35880        -4.97110         2.98970
| 93>    H       -6.03943        -4.60834         2.59937
| 94>    H       -5.21730        -7.12790         0.68641
| 95>    H       -6.19765       -10.86639         1.41557
| 96>    H       -5.26496        -8.91238        -0.74420
| 97>    H       -4.93932        -9.66686        -2.87455
| 98>    H       -6.19672       -14.28703        -1.59609
| 99>    H       -6.23026       -12.49489         0.07008
|100>    H       -3.52462        -9.95968        -4.93181
|101>    H       -3.36302       -10.96572        -6.37311
|102>    H       -2.58001       -11.79745        -3.53660
|103>    H       -1.46315       -11.31150        -4.81509
|104>    H       -2.40076       -12.79818        -4.97787
|105>    H       -6.96281       -11.41616        -5.70085
|106>    H       -5.76354       -10.90867        -6.88893
|107>    H       -6.63942        -9.33218        -4.42509
|108>    H       -7.02883        -8.98180        -6.10539
|109>    H       -5.37010        -8.81226        -5.54432
|110>    H       -4.41993       -12.99815        -7.47442
|111>    H       -5.48940       -16.83403        -5.88287
|112>    H       -5.94227       -15.82394        -3.68782
|113>    H       -4.88720       -16.70828        -8.13493
|114>    H       -3.90780       -14.00064        -9.17782
|115>    H       -4.16647       -16.74239       -10.53890
|116>    H       -3.35774       -16.57556       -13.06441
|117>    H       -2.41690       -14.84644       -14.72564
|118>    H       -1.60262       -12.78046       -15.80960
|119>    H       -0.84199       -10.37482       -16.30036
|120>    H       -0.62566        -8.14688       -15.26041
|121>    H       -0.51209        -5.93475       -14.68061
|122>    H       -1.44669        -7.00390        -9.92702
|123>    H       -1.40386        -8.78047       -11.59523
|124>    H       -1.44745        -3.48693       -14.82289
|125>    H       -1.41011        -1.98886       -13.89046
|126>    H       -3.20859        -4.39051       -13.30288
|127>    H       -3.71667        -2.87129       -14.04469
|128>    H       -3.16923        -2.89584       -12.36668
|129>    H        1.00921        -2.29639       -13.50824
|130>    H        0.96400        -3.79481       -14.43911
|131>    H        1.94360        -3.53780       -11.55435
|132>    H        2.96469        -3.72132       -12.98258
|133>    H        1.89762        -5.03644       -12.48383
|134>    H       -0.36959        -1.07017       -11.68442
|135>    H       -1.20248        -2.48873        -7.72717
|136>    H       -1.37957        -4.79918        -8.56179
|137>    H       -0.83555        -0.22995        -8.00170
|138>    H       -0.30034         0.88803       -10.79807
|139>    H        0.25011         4.00808        -5.46738
|140>    H       -1.48405         4.22336        -5.70469
|141>    H       -0.31430         7.20240        -5.00848
|142>    H        0.39952         9.98768        -7.68820
|143>    H       -0.08090         9.53619        -4.69610
|144>    H        0.23819        11.12199        -5.55107
|145> *
|146>
|147>                          ****END OF INPUT****

CARTESIAN COORDINATES (ANGSTROEM)
---------------------------------
  C     -6.120580   -4.860540    6.698790
  S     -6.488400   -6.575670    6.699710
  C     -6.100730   -6.578240    5.027250
  C     -5.731830   -5.300180    4.616720
  N     -5.752150   -4.359380    5.572390
  C     -5.390700   -5.283450    3.160370
  C     -5.616170   -6.722740    2.797290
  C     -6.029740   -7.449880    3.911690
  S     -6.301560   -9.102290    3.547590
  C     -5.855390   -8.824340    1.872770
  C     -5.518690   -7.502110    1.647380
  C     -5.888430   -9.929770    0.973510
  C     -5.570490   -9.866880   -0.335400
  C     -5.594060  -10.952380   -1.285220
  C     -5.237860  -10.672260   -2.615460
  C     -5.254170  -11.668290   -3.560050
  C     -5.583400  -12.986040   -3.192090
  C     -5.938980  -13.277910   -1.882140
  C     -5.951590  -12.264470   -0.946450
  C     -5.429020  -13.841840   -4.346580
  C     -4.999390  -13.054550   -5.429360
  C     -4.926710  -11.594410   -5.033930
  C     -3.540900  -10.987920   -5.295860
  C     -2.427010  -11.773650   -4.613530
  C     -6.030720  -10.859730   -5.830870
  C     -6.274710   -9.406480   -5.445890
  C     -4.745790  -13.616780   -6.653120
  C     -4.913180  -15.001530   -6.834760
  C     -5.353690  -15.770450   -5.744380
  C     -5.608590  -15.209220   -4.510830
  C     -4.658890  -15.650070   -8.091640
  C     -4.160460  -15.052280   -9.203590
  C     -3.930060  -15.691650  -10.437170
  C     -3.423580  -15.033460  -11.526980
  C     -3.164160  -15.544630  -12.823890
  C     -2.667440  -14.630710  -13.701950
  C     -2.497900  -13.338550  -13.152850
  S     -2.996490  -13.326540  -11.474530
  C     -2.024720  -12.192490  -13.752120
  C     -1.596620  -11.986490  -15.083890
  C     -1.195750  -10.714660  -15.342410
  C     -1.272370   -9.820550  -14.233990
  S     -1.885200  -10.702490  -12.840650
  C     -0.943680   -8.496730  -14.284450
  C     -0.971290   -7.493490  -13.264400
  C     -0.718100   -6.158080  -13.642970
  C     -0.745420   -5.160890  -12.703830
  C     -1.011260   -5.456660  -11.353890
  C     -1.249300   -6.766530  -10.961670
  C     -1.229830   -7.765380  -11.910510
  C     -0.972290   -4.229750  -10.594590
  C     -0.686210   -3.167150  -11.471130
  C     -0.523590   -3.676370  -12.885750
  C     -1.581170   -3.065500  -13.824160
  C     -3.007790   -3.322640  -13.354090
  C      0.884440   -3.378750  -13.432360
  C      1.991110   -3.955170  -12.557750
  C     -0.589970   -1.879970  -11.006110
  C     -0.777160   -1.619830   -9.637850
  C     -1.059960   -2.693290   -8.778690
  C     -1.160180   -3.988420   -9.240440
  C     -0.691360   -0.299250   -9.071840
  C     -0.453530    0.856020   -9.729500
  C     -0.390090    2.106800   -9.063010
  S     -0.076880    3.594160  -10.006500
  C     -0.170920    4.464960   -8.534230
  C     -0.423930    3.594400   -7.470850
  N     -0.540220    2.307610   -7.784500
  C     -0.507710    4.343190   -6.177900
  C     -0.269860    5.749780   -6.644560
  C     -0.077530    5.781480   -8.024650
  S      0.197740    7.370230   -8.607020
  C      0.054020    8.008120   -6.981070
  C     -0.194390    7.012080   -6.059230
  C      0.201550    9.422640   -6.786590
  C      0.113940   10.055860   -5.617770
  H     -6.209360   -4.294260    7.603190
  H     -4.358800   -4.971100    2.989700
  H     -6.039430   -4.608340    2.599370
  H     -5.217300   -7.127900    0.686410
  H     -6.197650  -10.866390    1.415570
  H     -5.264960   -8.912380   -0.744200
  H     -4.939320   -9.666860   -2.874550
  H     -6.196720  -14.287030   -1.596090
  H     -6.230260  -12.494890    0.070080
  H     -3.524620   -9.959680   -4.931810
  H     -3.363020  -10.965720   -6.373110
  H     -2.580010  -11.797450   -3.536600
  H     -1.463150  -11.311500   -4.815090
  H     -2.400760  -12.798180   -4.977870
  H     -6.962810  -11.416160   -5.700850
  H     -5.763540  -10.908670   -6.888930
  H     -6.639420   -9.332180   -4.425090
  H     -7.028830   -8.981800   -6.105390
  H     -5.370100   -8.812260   -5.544320
  H     -4.419930  -12.998150   -7.474420
  H     -5.489400  -16.834030   -5.882870
  H     -5.942270  -15.823940   -3.687820
  H     -4.887200  -16.708280   -8.134930
  H     -3.907800  -14.000640   -9.177820
  H     -4.166470  -16.742390  -10.538900
  H     -3.357740  -16.575560  -13.064410
  H     -2.416900  -14.846440  -14.725640
  H     -1.602620  -12.780460  -15.809600
  H     -0.841990  -10.374820  -16.300360
  H     -0.625660   -8.146880  -15.260410
  H     -0.512090   -5.934750  -14.680610
  H     -1.446690   -7.003900   -9.927020
  H     -1.403860   -8.780470  -11.595230
  H     -1.447450   -3.486930  -14.822890
  H     -1.410110   -1.988860  -13.890460
  H     -3.208590   -4.390510  -13.302880
  H     -3.716670   -2.871290  -14.044690
  H     -3.169230   -2.895840  -12.366680
  H      1.009210   -2.296390  -13.508240
  H      0.964000   -3.794810  -14.439110
  H      1.943600   -3.537800  -11.554350
  H      2.964690   -3.721320  -12.982580
  H      1.897620   -5.036440  -12.483830
  H     -0.369590   -1.070170  -11.684420
  H     -1.202480   -2.488730   -7.727170
  H     -1.379570   -4.799180   -8.561790
  H     -0.835550   -0.229950   -8.001700
  H     -0.300340    0.888030  -10.798070
  H      0.250110    4.008080   -5.467380
  H     -1.484050    4.223360   -5.704690
  H     -0.314300    7.202400   -5.008480
  H      0.399520    9.987680   -7.688200
  H     -0.080900    9.536190   -4.696100
  H      0.238190   11.121990   -5.551070

 Total Charge           Charge          ....    0
 Multiplicity           Mult            ....    1
 Number of Electrons    NEL             ....  572
 Basis Dimension        Dim             .... 1358

ORBITAL ENERGIES
----------------

  NO   OCC          E(Eh)            E(eV)
   0   2.0000     -88.960072     -2420.7266
   1   2.0000     -88.955559     -2420.6038
   2   2.0000     -88.953823     -2420.5566
   3   2.0000     -88.951920     -2420.5048
   4   2.0000     -88.937477     -2420.1118
   5   2.0000     -88.935241     -2420.0510
   6   2.0000     -14.403763      -391.9463
   7   2.0000     -14.398412      -391.8007
   8   2.0000     -10.323353      -280.9127
   9   2.0000     -10.318624      -280.7840
  10   2.0000     -10.303147      -280.3629
  11   2.0000     -10.301235      -280.3108
  12   2.0000     -10.299710      -280.2693
  13   2.0000     -10.298658      -280.2407
  14   2.0000     -10.296389      -280.1790
  15   2.0000     -10.294787      -280.1354
  16   2.0000     -10.294209      -280.1197
  17   2.0000     -10.293651      -280.1045
  18   2.0000     -10.293583      -280.1026
  19   2.0000     -10.293069      -280.0886
  20   2.0000     -10.292104      -280.0624
  21   2.0000     -10.290262      -280.0123
  22   2.0000     -10.282385      -279.7979
  23   2.0000     -10.280220      -279.7390
  24   2.0000     -10.279561      -279.7211
  25   2.0000     -10.279437      -279.7177
  26   2.0000     -10.278139      -279.6824
  27   2.0000     -10.277973      -279.6779
  28   2.0000     -10.273939      -279.5681
  29   2.0000     -10.273847      -279.5656
  30   2.0000     -10.273588      -279.5585
  31   2.0000     -10.272194      -279.5206
  32   2.0000     -10.271934      -279.5135
  33   2.0000     -10.271808      -279.5101
  34   2.0000     -10.271726      -279.5079
  35   2.0000     -10.271504      -279.5018
  36   2.0000     -10.271291      -279.4960
  37   2.0000     -10.271016      -279.4886
  38   2.0000     -10.270829      -279.4835
  39   2.0000     -10.270087      -279.4633
  40   2.0000     -10.269184      -279.4387
  41   2.0000     -10.269023      -279.4343
  42   2.0000     -10.268220      -279.4125
  43   2.0000     -10.267906      -279.4039
  44   2.0000     -10.267054      -279.3808
  45   2.0000     -10.266941      -279.3777
  46   2.0000     -10.266324      -279.3609
  47   2.0000     -10.265356      -279.3345
  48   2.0000     -10.264920      -279.3227
  49   2.0000     -10.264870      -279.3213
  50   2.0000     -10.264666      -279.3158
  51   2.0000     -10.264580      -279.3134
  52   2.0000     -10.264117      -279.3008
  53   2.0000     -10.263605      -279.2869
  54   2.0000     -10.263566      -279.2858
  55   2.0000     -10.263405      -279.2815
  56   2.0000     -10.262961      -279.2694
  57   2.0000     -10.262686      -279.2619
  58   2.0000     -10.262659      -279.2611
  59   2.0000     -10.262570      -279.2587
  60   2.0000     -10.262036      -279.2442
  61   2.0000     -10.261963      -279.2422
  62   2.0000     -10.261764      -279.2368
  63   2.0000     -10.261295      -279.2240
  64   2.0000     -10.261053      -279.2175
  65   2.0000     -10.260681      -279.2073
  66   2.0000     -10.259960      -279.1877
  67   2.0000     -10.258151      -279.1385
  68   2.0000     -10.258040      -279.1355
  69   2.0000     -10.257683      -279.1257
  70   2.0000     -10.257372      -279.1173
  71   2.0000     -10.256980      -279.1066
  72   2.0000     -10.246387      -278.8184
  73   2.0000     -10.240899      -278.6690
  74   2.0000     -10.240808      -278.6666
  75   2.0000     -10.240487      -278.6578
  76   2.0000      -8.055652      -219.2054
  77   2.0000      -8.050798      -219.0733
  78   2.0000      -8.048919      -219.0222
  79   2.0000      -8.047127      -218.9735
  80   2.0000      -8.033311      -218.5975
  81   2.0000      -8.031531      -218.5491
  82   2.0000      -6.024828      -163.9439
  83   2.0000      -6.020727      -163.8323
  84   2.0000      -6.019951      -163.8112
  85   2.0000      -6.018226      -163.7643
  86   2.0000      -6.017967      -163.7572
  87   2.0000      -6.016412      -163.7149
  88   2.0000      -6.016107      -163.7066
  89   2.0000      -6.014213      -163.6551
  90   2.0000      -6.012971      -163.6212
  91   2.0000      -6.012407      -163.6059
  92   2.0000      -6.011027      -163.5684
  93   2.0000      -6.009250      -163.5200
  94   2.0000      -6.003091      -163.3524
  95   2.0000      -6.001283      -163.3032
  96   2.0000      -5.999069      -163.2430
  97   2.0000      -5.997349      -163.1962
  98   2.0000      -5.994168      -163.1096
  99   2.0000      -5.992314      -163.0591
 100   2.0000      -1.057374       -28.7726
 101   2.0000      -1.054911       -28.7056
 102   2.0000      -0.987470       -26.8704
 103   2.0000      -0.986757       -26.8510
 104   2.0000      -0.985314       -26.8117
 105   2.0000      -0.981353       -26.7040
 106   2.0000      -0.979530       -26.6544
 107   2.0000      -0.965155       -26.2632
 108   2.0000      -0.939634       -25.5687
 109   2.0000      -0.939153       -25.5557
 110   2.0000      -0.920980       -25.0611
 111   2.0000      -0.920085       -25.0368
 112   2.0000      -0.913166       -24.8485
 113   2.0000      -0.911492       -24.8030
 114   2.0000      -0.895756       -24.3748
 115   2.0000      -0.888564       -24.1791
 116   2.0000      -0.886037       -24.1103
 117   2.0000      -0.883016       -24.0281
 118   2.0000      -0.879956       -23.9448
 119   2.0000      -0.873126       -23.7590
 120   2.0000      -0.861541       -23.4437
 121   2.0000      -0.856668       -23.3111
 122   2.0000      -0.849686       -23.1211
 123   2.0000      -0.838203       -22.8087
 124   2.0000      -0.833976       -22.6936
 125   2.0000      -0.831885       -22.6367
 126   2.0000      -0.830377       -22.5957
 127   2.0000      -0.828005       -22.5312
 128   2.0000      -0.826941       -22.5022
 129   2.0000      -0.825741       -22.4695
 130   2.0000      -0.825425       -22.4609
 131   2.0000      -0.822451       -22.3800
 132   2.0000      -0.820136       -22.3170
 133   2.0000      -0.812378       -22.1059
 134   2.0000      -0.806585       -21.9483
 135   2.0000      -0.794139       -21.6096
 136   2.0000      -0.774817       -21.0838
 137   2.0000      -0.771246       -20.9867
 138   2.0000      -0.767804       -20.8930
 139   2.0000      -0.762385       -20.7456
 140   2.0000      -0.757334       -20.6081
 141   2.0000      -0.755019       -20.5451
 142   2.0000      -0.750723       -20.4282
 143   2.0000      -0.735603       -20.0168
 144   2.0000      -0.726174       -19.7602
 145   2.0000      -0.713311       -19.4102
 146   2.0000      -0.709490       -19.3062
 147   2.0000      -0.708164       -19.2701
 148   2.0000      -0.692263       -18.8374
 149   2.0000      -0.684820       -18.6349
 150   2.0000      -0.682540       -18.5729
 151   2.0000      -0.675851       -18.3908
 152   2.0000      -0.669846       -18.2274
 153   2.0000      -0.668949       -18.2030
 154   2.0000      -0.666478       -18.1358
 155   2.0000      -0.664329       -18.0773
 156   2.0000      -0.657845       -17.9009
 157   2.0000      -0.651408       -17.7257
 158   2.0000      -0.649224       -17.6663
 159   2.0000      -0.646954       -17.6045
 160   2.0000      -0.638514       -17.3748
 161   2.0000      -0.636854       -17.3297
 162   2.0000      -0.633565       -17.2402
 163   2.0000      -0.622943       -16.9511
 164   2.0000      -0.621301       -16.9065
 165   2.0000      -0.618020       -16.8172
 166   2.0000      -0.613340       -16.6898
 167   2.0000      -0.609697       -16.5907
 168   2.0000      -0.608906       -16.5692
 169   2.0000      -0.601997       -16.3812
 170   2.0000      -0.593709       -16.1556
 171   2.0000      -0.591655       -16.0997
 172   2.0000      -0.586039       -15.9469
 173   2.0000      -0.583822       -15.8866
 174   2.0000      -0.577880       -15.7249
 175   2.0000      -0.573167       -15.5967
 176   2.0000      -0.570805       -15.5324
 177   2.0000      -0.561430       -15.2773
 178   2.0000      -0.556673       -15.1478
 179   2.0000      -0.554094       -15.0777
 180   2.0000      -0.548144       -14.9157
 181   2.0000      -0.544667       -14.8211
 182   2.0000      -0.541391       -14.7320
 183   2.0000      -0.540649       -14.7118
 184   2.0000      -0.539596       -14.6832
 185   2.0000      -0.537893       -14.6368
 186   2.0000      -0.537421       -14.6240
 187   2.0000      -0.534006       -14.5310
 188   2.0000      -0.532642       -14.4939
 189   2.0000      -0.528162       -14.3720
 190   2.0000      -0.525829       -14.3085
 191   2.0000      -0.523588       -14.2475
 192   2.0000      -0.522699       -14.2234
 193   2.0000      -0.519331       -14.1317
 194   2.0000      -0.515034       -14.0148
 195   2.0000      -0.512622       -13.9492
 196   2.0000      -0.512087       -13.9346
 197   2.0000      -0.511661       -13.9230
 198   2.0000      -0.510278       -13.8854
 199   2.0000      -0.507122       -13.7995
 200   2.0000      -0.505299       -13.7499
 201   2.0000      -0.502464       -13.6727
 202   2.0000      -0.495991       -13.4966
 203   2.0000      -0.493157       -13.4195
 204   2.0000      -0.490678       -13.3520
 205   2.0000      -0.489941       -13.3320
 206   2.0000      -0.487889       -13.2761
 207   2.0000      -0.482547       -13.1308
 208   2.0000      -0.480640       -13.0789
 209   2.0000      -0.478913       -13.0319
 210   2.0000      -0.476552       -12.9676
 211   2.0000      -0.475935       -12.9508
 212   2.0000      -0.474303       -12.9065
 213   2.0000      -0.472029       -12.8446
 214   2.0000      -0.470744       -12.8096
 215   2.0000      -0.469168       -12.7667
 216   2.0000      -0.465281       -12.6609
 217   2.0000      -0.464955       -12.6521
 218   2.0000      -0.464560       -12.6413
 219   2.0000      -0.463025       -12.5996
 220   2.0000      -0.460303       -12.5255
 221   2.0000      -0.459756       -12.5106
 222   2.0000      -0.458793       -12.4844
 223   2.0000      -0.456725       -12.4281
 224   2.0000      -0.456271       -12.4158
 225   2.0000      -0.453738       -12.3468
 226   2.0000      -0.447880       -12.1874
 227   2.0000      -0.446084       -12.1386
 228   2.0000      -0.445014       -12.1095
 229   2.0000      -0.443870       -12.0783
 230   2.0000      -0.441392       -12.0109
 231   2.0000      -0.440456       -11.9854
 232   2.0000      -0.438079       -11.9207
 233   2.0000      -0.437097       -11.8940
 234   2.0000      -0.434087       -11.8121
 235   2.0000      -0.430906       -11.7255
 236   2.0000      -0.429491       -11.6870
 237   2.0000      -0.425812       -11.5869
 238   2.0000      -0.424895       -11.5620
 239   2.0000      -0.423207       -11.5161
 240   2.0000      -0.420591       -11.4449
 241   2.0000      -0.420066       -11.4306
 242   2.0000      -0.419468       -11.4143
 243   2.0000      -0.414495       -11.2790
 244   2.0000      -0.414236       -11.2719
 245   2.0000      -0.414164       -11.2700
 246   2.0000      -0.411803       -11.2057
 247   2.0000      -0.410136       -11.1604
 248   2.0000      -0.409605       -11.1459
 249   2.0000      -0.409162       -11.1339
 250   2.0000      -0.407927       -11.1003
 251   2.0000      -0.404638       -11.0108
 252   2.0000      -0.402258       -10.9460
 253   2.0000      -0.400754       -10.9051
 254   2.0000      -0.394370       -10.7314
 255   2.0000      -0.389160       -10.5896
 256   2.0000      -0.386516       -10.5176
 257   2.0000      -0.385642       -10.4939
 258   2.0000      -0.380748       -10.3607
 259   2.0000      -0.378842       -10.3088
 260   2.0000      -0.377840       -10.2816
 261   2.0000      -0.376091       -10.2340
 262   2.0000      -0.372886       -10.1467
 263   2.0000      -0.369632       -10.0582
 264   2.0000      -0.358522        -9.7559
 265   2.0000      -0.347298        -9.4505
 266   2.0000      -0.342811        -9.3284
 267   2.0000      -0.340308        -9.2602
 268   2.0000      -0.339002        -9.2247
 269   2.0000      -0.335657        -9.1337
 270   2.0000      -0.330279        -8.9873
 271   2.0000      -0.324213        -8.8223
 272   2.0000      -0.317841        -8.6489
 273   2.0000      -0.314541        -8.5591
 274   2.0000      -0.313614        -8.5339
 275   2.0000      -0.313130        -8.5207
 276   2.0000      -0.312227        -8.4961
 277   2.0000      -0.308774        -8.4022
 278   2.0000      -0.307099        -8.3566
 279   2.0000      -0.305134        -8.3031
 280   2.0000      -0.290545        -7.9061
 281   2.0000      -0.273021        -7.4293
 282   2.0000      -0.256560        -6.9814
 283   2.0000      -0.229772        -6.2524
 284   2.0000      -0.224264        -6.1025
 285   2.0000      -0.200130        -5.4458
 286   0.0000      -0.072767        -1.9801
 287   0.0000      -0.045103        -1.2273
 288   0.0000      -0.036756        -1.0002
 289   0.0000      -0.014470        -0.3938
 290   0.0000       0.000450         0.0122

MULLIKEN ATOMIC CHARGES
-----------------------
   0 C :   -0.012136
   1 S :    0.114411
   2 C :   -0.076093
   3 C :   -0.237728
   4 N :   -0.036251
   5 C :    0.377314
   6 C :   -0.169304
   7 C :   -0.102030
   8 S :    0.137534
   9 C :   -0.083464
  10 C :   -0.014034
  11 C :    0.072530
  12 C :   -0.018147
  13 C :    0.135373
  14 C :   -0.121243
  15 C :    0.029890
  16 C :    0.102157
  17 C :   -0.046800
  18 C :   -0.015828
  19 C :    0.096373
  20 C :    0.014820
  21 C :   -0.130908
  22 C :    0.050498
  23 C :    0.026838
  24 C :    0.079648
  25 C :    0.028746
  26 C :   -0.087118
  27 C :    0.128902
  28 C :   -0.022043
  29 C :   -0.047043
  30 C :   -0.013749
  31 C :    0.010149
  32 C :    0.000041
  33 C :   -0.024155
  34 C :    0.040055
  35 C :    0.028392
  36 C :   -0.040943
  37 S :    0.044489
  38 C :   -0.034289
  39 C :    0.028441
  40 C :    0.029781
  41 C :   -0.001955
  42 S :    0.045871
  43 C :   -0.042301
  44 C :    0.121642
  45 C :   -0.116869
  46 C :    0.022214
  47 C :    0.106501
  48 C :   -0.049786
  49 C :   -0.020728
  50 C :    0.104911
  51 C :    0.014749
  52 C :   -0.138837
  53 C :    0.069450
  54 C :    0.025795
  55 C :    0.068351
  56 C :    0.026838
  57 C :   -0.085333
  58 C :    0.121703
  59 C :   -0.016871
  60 C :   -0.047294
  61 C :   -0.008303
  62 C :    0.062214
  63 C :   -0.107024
  64 S :    0.112132
  65 C :   -0.060370
  66 C :   -0.225058
  67 N :   -0.014739
  68 C :    0.383537
  69 C :   -0.175298
  70 C :   -0.105829
  71 S :    0.139566
  72 C :   -0.097504
  73 C :   -0.004060
  74 C :    0.042408
  75 C :   -0.028649
  76 H :    0.033661
  77 H :    0.033631
  78 H :    0.034085
  79 H :   -0.029142
  80 H :   -0.025105
  81 H :   -0.031643
  82 H :   -0.041961
  83 H :   -0.038996
  84 H :   -0.034130
  85 H :    0.002879
  86 H :   -0.001876
  87 H :    0.020609
  88 H :    0.006565
  89 H :    0.021417
  90 H :    0.004500
  91 H :   -0.002369
  92 H :    0.019702
  93 H :    0.012585
  94 H :    0.001128
  95 H :   -0.046650
  96 H :   -0.031903
  97 H :   -0.038950
  98 H :   -0.029775
  99 H :    0.004883
 100 H :   -0.020907
 101 H :   -0.015191
 102 H :   -0.016135
 103 H :   -0.015351
 104 H :   -0.015968
 105 H :   -0.027665
 106 H :   -0.042856
 107 H :   -0.037931
 108 H :   -0.018158
 109 H :   -0.004767
 110 H :   -0.004652
 111 H :    0.023420
 112 H :    0.007219
 113 H :    0.021793
 114 H :   -0.004501
 115 H :   -0.004778
 116 H :    0.021619
 117 H :    0.006214
 118 H :    0.022642
 119 H :   -0.044784
 120 H :   -0.027367
 121 H :   -0.037345
 122 H :   -0.005127
 123 H :   -0.023018
 124 H :    0.032864
 125 H :    0.031828
 126 H :   -0.030484
 127 H :   -0.013796
 128 H :    0.012301
 129 H :    0.023586
Sum of atomic charges:   -0.0000000

LOEWDIN ATOMIC CHARGES
----------------------
   0 C :   -0.133148
   1 S :    0.406511
   2 C :   -0.215329
   3 C :   -0.050982
   4 N :   -0.084225
   5 C :   -0.012285
   6 C :   -0.048931
   7 C :   -0.205596
   8 S :    0.431395
   9 C :   -0.165484
  10 C :   -0.056238
  11 C :   -0.043865
  12 C :   -0.019926
  13 C :   -0.024445
  14 C :   -0.023978
  15 C :    0.002739
  16 C :   -0.018120
  17 C :   -0.018315
  18 C :   -0.016284
  19 C :   -0.018262
  20 C :    0.006925
  21 C :   -0.034507
  22 C :   -0.015989
  23 C :   -0.056586
  24 C :   -0.009013
  25 C :   -0.059894
  26 C :   -0.016970
  27 C :   -0.025984
  28 C :   -0.019655
  29 C :   -0.021630
  30 C :   -0.014253
  31 C :   -0.035676
  32 C :   -0.052491
  33 C :   -0.145348
  34 C :   -0.033938
  35 C :   -0.033592
  36 C :   -0.177631
  37 S :    0.359743
  38 C :   -0.182060
  39 C :   -0.038216
  40 C :   -0.031815
  41 C :   -0.144976
  42 S :    0.376424
  43 C :   -0.053390
  44 C :   -0.026600
  45 C :   -0.020948
  46 C :    0.001461
  47 C :   -0.019528
  48 C :   -0.016076
  49 C :   -0.026156
  50 C :   -0.014930
  51 C :    0.004401
  52 C :   -0.035189
  53 C :   -0.011779
  54 C :   -0.057794
  55 C :   -0.012280
  56 C :   -0.057686
  57 C :   -0.015820
  58 C :   -0.028247
  59 C :   -0.014078
  60 C :   -0.020976
  61 C :    0.012545
  62 C :   -0.067046
  63 C :   -0.120506
  64 S :    0.397991
  65 C :   -0.219494
  66 C :   -0.039461
  67 N :   -0.092555
  68 C :   -0.012955
  69 C :   -0.052330
  70 C :   -0.203097
  71 S :    0.431932
  72 C :   -0.174569
  73 C :   -0.051990
  74 C :   -0.041889
  75 C :   -0.050896
  76 H :    0.015173
  77 H :    0.054265
  78 H :    0.054337
  79 H :    0.028094
  80 H :    0.023459
  81 H :    0.024331
  82 H :    0.022003
  83 H :    0.025882
  84 H :    0.023910
  85 H :    0.018571
  86 H :    0.020079
  87 H :    0.025536
  88 H :    0.022919
  89 H :    0.025555
  90 H :    0.026784
  91 H :    0.020279
  92 H :    0.023967
  93 H :    0.027471
  94 H :    0.018804
  95 H :    0.022723
  96 H :    0.024624
  97 H :    0.025628
  98 H :    0.025741
  99 H :    0.017377
 100 H :    0.031061
 101 H :    0.032564
 102 H :    0.030972
 103 H :    0.031103
 104 H :    0.031537
 105 H :    0.031242
 106 H :    0.022510
 107 H :    0.026582
 108 H :    0.009623
 109 H :    0.018992
 110 H :    0.018777
 111 H :    0.026090
 112 H :    0.023325
 113 H :    0.025727
 114 H :    0.018894
 115 H :    0.018993
 116 H :    0.025743
 117 H :    0.022981
 118 H :    0.025941
 119 H :    0.021903
 120 H :    0.026961
 121 H :    0.026309
 122 H :    0.033503
 123 H :    0.023386
 124 H :    0.054175
 125 H :    0.053957
 126 H :    0.028930
 127 H :    0.027267
 128 H :    0.019798
 129 H :    0.025479

  Mayer bond orders larger than 0.100000
B(  0-C ,  1-S ) :   1.1273 B(  0-C ,  4-N ) :   1.6966 B(  0-C , 76-H ) :   0.9668
B(  1-S ,  2-C ) :   1.0908 B(  2-C ,  3-C ) :   1.5356 B(  2-C ,  7-C ) :   1.1809
B(  3-C ,  4-N ) :   1.4079 B(  3-C ,  5-C ) :   1.0477 B(  5-C ,  6-C ) :   0.9845
B(  5-C , 77-H ) :   0.8653 B(  5-C , 78-H ) :   0.8656 B(  6-C ,  7-C ) :   1.5468
B(  6-C , 10-C ) :   1.2990 B(  7-C ,  8-S ) :   1.0829 B(  8-S ,  9-C ) :   1.1087
B(  9-C , 10-C ) :   1.4863 B(  9-C , 11-C ) :   1.1054 B( 10-C , 79-H ) :   0.9972
B( 11-C , 12-C ) :   1.7052 B( 11-C , 80-H ) :   0.9527 B( 12-C , 13-C ) :   1.0802
B( 12-C , 81-H ) :   0.9833 B( 13-C , 14-C ) :   1.2762 B( 13-C , 18-C ) :   1.3426
B( 14-C , 15-C ) :   1.3831 B( 14-C , 82-H ) :   1.0068 B( 15-C , 16-C ) :   1.3828
B( 15-C , 21-C ) :   0.9174 B( 16-C , 17-C ) :   1.3247 B( 16-C , 19-C ) :   0.9999
B( 17-C , 18-C ) :   1.4019 B( 17-C , 83-H ) :   0.9892 B( 18-C , 84-H ) :   0.9849
B( 19-C , 20-C ) :   1.3607 B( 19-C , 29-C ) :   1.3410 B( 20-C , 21-C ) :   0.9259
B( 20-C , 26-C ) :   1.4238 B( 21-C , 22-C ) :   1.0324 B( 21-C , 24-C ) :   1.0151
B( 22-C , 23-C ) :   1.1051 B( 22-C , 85-H ) :   0.9375 B( 22-C , 86-H ) :   0.9392
B( 23-C , 87-H ) :   0.9646 B( 23-C , 88-H ) :   0.9646 B( 23-C , 89-H ) :   0.9629
B( 24-C , 25-C ) :   1.1143 B( 24-C , 90-H ) :   0.9385 B( 24-C , 91-H ) :   0.9373
B( 25-C , 92-H ) :   0.9607 B( 25-C , 93-H ) :   0.9596 B( 25-C , 94-H ) :   0.9630
B( 26-C , 27-C ) :   1.2902 B( 26-C , 95-H ) :   0.9936 B( 27-C , 28-C ) :   1.3308
B( 27-C , 30-C ) :   1.0705 B( 28-C , 29-C ) :   1.3794 B( 28-C , 96-H ) :   0.9926
B( 29-C , 97-H ) :   0.9890 B( 30-C , 31-C ) :   1.6506 B( 30-C , 98-H ) :   0.9905
B( 31-C , 32-C ) :   1.1449 B( 31-C , 99-H ) :   0.9593 B( 32-C , 33-C ) :   1.5711
B( 32-C ,100-H ) :   0.9865 B( 33-C , 34-C ) :   1.1372 B( 33-C , 37-S ) :   1.0270
B( 34-C , 35-C ) :   1.5963 B( 34-C ,101-H ) :   0.9976 B( 35-C , 36-C ) :   1.1848
B( 35-C ,102-H ) :   0.9928 B( 36-C , 37-S ) :   1.0431 B( 36-C , 38-C ) :   1.5220
B( 38-C , 39-C ) :   1.1757 B( 38-C , 42-S ) :   1.0321 B( 39-C , 40-C ) :   1.6062
B( 39-C ,103-H ) :   0.9933 B( 40-C , 41-C ) :   1.1281 B( 40-C ,104-H ) :   0.9986
B( 41-C , 42-S ) :   1.0265 B( 41-C , 43-C ) :   1.5967 B( 43-C , 44-C ) :   1.1073
B( 43-C ,105-H ) :   0.9710 B( 44-C , 45-C ) :   1.2616 B( 44-C , 49-C ) :   1.3185
B( 45-C , 46-C ) :   1.3921 B( 45-C ,106-H ) :   1.0138 B( 46-C , 47-C ) :   1.3538
B( 46-C , 52-C ) :   0.9146 B( 47-C , 48-C ) :   1.3337 B( 47-C , 50-C ) :   1.0036
B( 48-C , 49-C ) :   1.4143 B( 48-C ,107-H ) :   0.9897 B( 49-C ,108-H ) :   0.9674
B( 50-C , 51-C ) :   1.3511 B( 50-C , 60-C ) :   1.3424 B( 51-C , 52-C ) :   0.9157
B( 51-C , 57-C ) :   1.4163 B( 52-C , 53-C ) :   1.0374 B( 52-C , 55-C ) :   1.0391
B( 53-C , 54-C ) :   1.1021 B( 53-C ,109-H ) :   0.9388 B( 53-C ,110-H ) :   0.9390
B( 54-C ,111-H ) :   0.9642 B( 54-C ,112-H ) :   0.9634 B( 54-C ,113-H ) :   0.9644
B( 55-C , 56-C ) :   1.1016 B( 55-C ,114-H ) :   0.9391 B( 55-C ,115-H ) :   0.9385
B( 56-C ,116-H ) :   0.9642 B( 56-C ,117-H ) :   0.9640 B( 56-C ,118-H ) :   0.9641
B( 57-C , 58-C ) :   1.2911 B( 57-C ,119-H ) :   0.9977 B( 58-C , 59-C ) :   1.3367
B( 58-C , 61-C ) :   1.0618 B( 59-C , 60-C ) :   1.3741 B( 59-C ,120-H ) :   0.9932
B( 60-C ,121-H ) :   0.9898 B( 61-C , 62-C ) :   1.7077 B( 61-C ,122-H ) :   0.9847
B( 62-C , 63-C ) :   1.1029 B( 62-C ,123-H ) :   0.9409 B( 63-C , 64-S ) :   1.0684
B( 63-C , 67-N ) :   1.6629 B( 64-S , 65-C ) :   1.0816 B( 65-C , 66-C ) :   1.4965
B( 65-C , 70-C ) :   1.1817 B( 66-C , 67-N ) :   1.4313 B( 66-C , 68-C ) :   1.0462
B( 68-C , 69-C ) :   0.9826 B( 68-C ,124-H ) :   0.8625 B( 68-C ,125-H ) :   0.8621
B( 69-C , 70-C ) :   1.5383 B( 69-C , 73-C ) :   1.3052 B( 70-C , 71-S ) :   1.0869
B( 71-S , 72-C ) :   1.1064 B( 72-C , 73-C ) :   1.4998 B( 72-C , 74-C ) :   1.0970
B( 73-C ,126-H ) :   0.9964 B( 74-C , 75-C ) :   1.9467 B( 74-C ,127-H ) :   0.9533
B( 75-C ,128-H ) :   0.9537 B( 75-C ,129-H ) :   0.9498

-----------------------------------------------------------------------------
         ABSORPTION SPECTRUM VIA TRANSITION ELECTRIC DIPOLE MOMENTS
-----------------------------------------------------------------------------
State   Energy  Wavelength   fosc         T2         TX        TY        TZ
        (cm-1)    (nm)                  (au**2)     (au)      (au)      (au)
-----------------------------------------------------------------------------
   0   14538.5    687.8   1.493643368  33.82227  -2.02648  -4.45652   3.13928
   1   22329.6    447.8   0.850722621  12.54247  -0.09043   2.82526   2.13359
   2   22633.1    441.8   2.683290310  39.02999   0.17628  -4.87394  -3.90431
   3   24357.4    410.6   0.461708292   6.24040  -0.10775   1.22120   2.17657
   4   25461.7    392.7   0.084892433   1.09763  -0.01378   0.58528   0.86885
   5   27479.2    363.9   0.434089612   5.20057  -0.44427  -2.23677  -0.00884
   6   27768.9    360.1   0.163352991   1.93662   0.08083  -0.94316  -1.02006
   7   28551.0    350.3   0.103598872   1.19456  -0.07322   0.48406   0.97718
   8   30336.1    329.6   0.587303244   6.37350   0.21522  -1.57064  -1.96476
   9   31604.5    316.4   0.006078530   0.06332   0.07197   0.16676  -0.17416
  10   32376.8    308.9   0.008826067   0.08974  -0.06439  -0.12084   0.26645
  11   32783.5    305.0   0.025906732   0.26016   0.04942   0.50012   0.08716
  12   33292.8    300.4   0.007795835   0.07709   0.00714   0.27359   0.04678
  13   33480.4    298.7   0.009093438   0.08942  -0.06579   0.11251   0.26912
  14   33789.9    295.9   0.006392196   0.06228   0.03540  -0.12558  -0.21273
  15   34088.6    293.4   0.011592870   0.11196  -0.05632  -0.32224   0.07035
  16   34567.2    289.3   0.006924113   0.06594  -0.08080  -0.07890   0.23063
  17   34985.3    285.8   0.009731427   0.09157  -0.00130   0.27936   0.11630
  18   35226.0    283.9   0.013947915   0.13035   0.07963   0.09228  -0.33985
  19   35487.8    281.8   0.002724216   0.02527   0.00675  -0.15561  -0.03182
  20   36261.9    275.8   0.024461964   0.22208  -0.04712   0.09858   0.45841
  21   36476.5    274.1   0.008582617   0.07746  -0.03279   0.22371   0.16229
  22   36511.2    273.9   0.019044949   0.17172   0.03767   0.38594   0.14615
  23   37009.4    270.2   0.015937868   0.14177  -0.01054   0.34401   0.15271
  24   37719.7    265.1   0.002007069   0.01752  -0.08540  -0.09076   0.04457
  25   38157.9    262.1   0.035314895   0.30468  -0.13370  -0.52008  -0.12777
  26   38415.6    260.3   0.071445519   0.61227  -0.25385  -0.53362   0.51292
  27   38800.9    257.7   0.009568924   0.08119  -0.04532   0.17685   0.21876
  28   39091.1    255.8   0.032362034   0.27254   0.15067   0.24328  -0.43664
  29   39280.8    254.6   0.097190412   0.81455  -0.25654  -0.55482   0.66401
  30   39738.7    251.6   0.007938829   0.06577  -0.00400   0.25459   0.03061
  31   40306.9    248.1   0.005650264   0.04615  -0.05227  -0.18255   0.10047

FINAL SINGLE POINT ENERGY     -5118.084468432910

DIPOLE MOMENT
-------------
                                X             Y             Z
Electronic contribution:     -7.83745      19.10346      47.43804
Nuclear contribution   :      7.85524     -19.80089     -48.33888
                        -----------------------------------------
Total Dipole Moment    :      0.01779      -0.69743      -0.90084
                        -----------------------------------------
Magnitude (a.u.)       :      1.13940
Magnitude (Debye)      :      2.89612

Rotational constants in cm-1:     0.000391     0.000289     0.000168
Rotational constants in MHz :    11.719755     8.675537     5.034936

                             ****ORCA TERMINATED NORMALLY****
TOTAL RUN TIME: 0 days 0 hours 12 minutes 4 seconds 612 msec
