                         Program Version 4.2.0 -  RELEASE  -
|  1> # ORCA input file
|  2> # SCF done       -156.447833463966          0.000813673732
|  3> ! CAM-B3LYP def2-SVP def2/J RIJCOSX Grid4 TightSCF
|  4> %maxcore 5000
|  5> %tddft
|  6>     Mode sTDDFT
|  7>     Ethresh 5.0
|  8>     maxcore 5000
|  9> end
| 10>
| 11> %pal
| 12>   nprocs 6
| 13>   end
| 14> * xyz 0 1
| 15>    C       -6.22744        12.36673       -10.26748
| 16>    S       -6.90431        11.74901       -11.76227
| 17>    C       -6.22037        10.22845       -11.35028
| 18>    C       -5.54760        10.31794       -10.13135
| 19>    N       -5.56885        11.52427        -9.54981
| 20>    C       -4.94451         9.00233        -9.75489
| 21>    C       -5.36105         8.15208       -10.92001
| 22>    C       -6.10738         8.90514       -11.83357
| 23>    S       -6.61474         7.98681       -13.18926
| 24>    C       -5.81801         6.55900       -12.53316
| 25>    C       -5.19912         6.83464       -11.31569
| 26>    C       -5.84117         5.32007       -13.19401
| 27>    C       -6.47662         5.08708       -14.38667
| 28>    C       -6.55439         3.88035       -15.08797
| 29>    C       -6.02206         2.63997       -14.78374
| 30>    C       -6.19983         1.47905       -15.56644
| 31>    C       -5.59560         0.35649       -15.06904
| 32>    C       -4.90232         0.57399       -13.86827
| 33>    S       -5.03844         2.24709       -13.38700
| 34>    C       -4.19730        -0.34522       -13.09680
| 35>    C       -4.04332        -1.72317       -13.31338
| 36>    C       -3.31143        -2.35361       -12.34174
| 37>    C       -2.85166        -1.50035       -11.32308
| 38>    S       -3.37124         0.14015       -11.63402
| 39>    C       -2.11369        -1.87629       -10.21299
| 40>    C       -1.63531        -1.05327        -9.20846
| 41>    S       -1.79253         0.69714        -9.13609
| 42>    C       -0.92421         0.86453        -7.59655
| 43>    C       -0.53720        -0.43184        -7.16210
| 44>    C       -0.93340        -1.44637        -8.06344
| 45>    O       -0.55256        -2.66113        -7.64208
| 46>    C        0.09416        -2.44357        -6.46475
| 47>    N        0.60620        -3.55110        -5.77077
| 48>    O        1.16645        -3.32263        -4.70926
| 49>    O        0.46092        -4.65478        -6.26255
| 50>    C        0.13653        -1.10948        -6.12457
| 51>    C       -0.77070         2.14792        -7.12532
| 52>    C       -0.20455         2.63700        -5.94802
| 53>    C       -0.08713         3.99695        -5.62566
| 54>    C        0.48427         4.24341        -4.39877
| 55>    C        0.83173         3.08182        -3.70424
| 56>    S        0.42816         1.66934        -4.64535
| 57>    C        1.40958         2.93920        -2.44023
| 58>    C        1.81129         3.93034        -1.53556
| 59>    C        2.33373         3.42847        -0.37072
| 60>    C        2.36129         2.02261        -0.30874
| 61>    S        1.70940         1.34993        -1.78591
| 62>    C        2.81694         1.25573         0.74989
| 63>    C        2.83455        -0.13098         0.84799
| 64>    S        2.26177        -1.20389        -0.43097
| 65>    C        2.62692        -2.57381         0.52537
| 66>    C        3.16822        -2.22162         1.77352
| 67>    C        3.29021        -0.86613         1.96041
| 68>    C        3.43061        -3.48982         2.50203
| 69>    O        3.89161        -3.63664         3.60879
| 70>    C        2.99065        -4.56469         1.55223
| 71>    C        2.52428        -3.98069         0.39895
| 72>    C        3.08591        -5.94582         1.91558
| 73>    C        2.72149        -6.97941         1.15197
| 74>    H       -6.37354        13.39235        -9.99672
| 75>    H       -5.34206         8.62980        -8.80901
| 76>    H       -3.85935         9.06626        -9.65655
| 77>    H       -4.66227         6.08332       -10.76542
| 78>    H       -5.31611         4.52211       -12.69022
| 79>    H       -6.98759         5.92769       -14.84131
| 80>    H       -7.12302         3.90477       -16.00965
| 81>    H       -6.77431         1.50089       -16.47588
| 82>    H       -5.63548        -0.60894       -15.54033
| 83>    H       -4.47392        -2.22200       -14.16266
| 84>    H       -3.09391        -3.40696       -12.33390
| 85>    H       -1.88645        -2.92905       -10.10482
| 86>    H        0.60165        -0.72915        -5.24098
| 87>    H       -1.16649         2.91752        -7.77829
| 88>    H       -0.42075         4.76691        -6.29875
| 89>    H        0.64999         5.22666        -3.99709
| 90>    H        1.71197         4.97902        -1.75067
| 91>    H        2.69410         4.03515         0.44121
| 92>    H        3.19682         1.79867         1.60626
| 93>    H        3.67939        -0.39182         2.84317
| 94>    H        2.14160        -4.48710        -0.46796
| 95>    H        3.49275        -6.11652         2.90470
| 96>    H        2.31466        -6.84410         0.16449
| 97>    H        2.82162        -7.99358         1.49657
| 98> *
| 99>
|100>                          ****END OF INPUT****

CARTESIAN COORDINATES (ANGSTROEM)
---------------------------------
  C     -6.227440   12.366730  -10.267480
  S     -6.904310   11.749010  -11.762270
  C     -6.220370   10.228450  -11.350280
  C     -5.547600   10.317940  -10.131350
  N     -5.568850   11.524270   -9.549810
  C     -4.944510    9.002330   -9.754890
  C     -5.361050    8.152080  -10.920010
  C     -6.107380    8.905140  -11.833570
  S     -6.614740    7.986810  -13.189260
  C     -5.818010    6.559000  -12.533160
  C     -5.199120    6.834640  -11.315690
  C     -5.841170    5.320070  -13.194010
  C     -6.476620    5.087080  -14.386670
  C     -6.554390    3.880350  -15.087970
  C     -6.022060    2.639970  -14.783740
  C     -6.199830    1.479050  -15.566440
  C     -5.595600    0.356490  -15.069040
  C     -4.902320    0.573990  -13.868270
  S     -5.038440    2.247090  -13.387000
  C     -4.197300   -0.345220  -13.096800
  C     -4.043320   -1.723170  -13.313380
  C     -3.311430   -2.353610  -12.341740
  C     -2.851660   -1.500350  -11.323080
  S     -3.371240    0.140150  -11.634020
  C     -2.113690   -1.876290  -10.212990
  C     -1.635310   -1.053270   -9.208460
  S     -1.792530    0.697140   -9.136090
  C     -0.924210    0.864530   -7.596550
  C     -0.537200   -0.431840   -7.162100
  C     -0.933400   -1.446370   -8.063440
  O     -0.552560   -2.661130   -7.642080
  C      0.094160   -2.443570   -6.464750
  N      0.606200   -3.551100   -5.770770
  O      1.166450   -3.322630   -4.709260
  O      0.460920   -4.654780   -6.262550
  C      0.136530   -1.109480   -6.124570
  C     -0.770700    2.147920   -7.125320
  C     -0.204550    2.637000   -5.948020
  C     -0.087130    3.996950   -5.625660
  C      0.484270    4.243410   -4.398770
  C      0.831730    3.081820   -3.704240
  S      0.428160    1.669340   -4.645350
  C      1.409580    2.939200   -2.440230
  C      1.811290    3.930340   -1.535560
  C      2.333730    3.428470   -0.370720
  C      2.361290    2.022610   -0.308740
  S      1.709400    1.349930   -1.785910
  C      2.816940    1.255730    0.749890
  C      2.834550   -0.130980    0.847990
  S      2.261770   -1.203890   -0.430970
  C      2.626920   -2.573810    0.525370
  C      3.168220   -2.221620    1.773520
  C      3.290210   -0.866130    1.960410
  C      3.430610   -3.489820    2.502030
  O      3.891610   -3.636640    3.608790
  C      2.990650   -4.564690    1.552230
  C      2.524280   -3.980690    0.398950
  C      3.085910   -5.945820    1.915580
  C      2.721490   -6.979410    1.151970
  H     -6.373540   13.392350   -9.996720
  H     -5.342060    8.629800   -8.809010
  H     -3.859350    9.066260   -9.656550
  H     -4.662270    6.083320  -10.765420
  H     -5.316110    4.522110  -12.690220
  H     -6.987590    5.927690  -14.841310
  H     -7.123020    3.904770  -16.009650
  H     -6.774310    1.500890  -16.475880
  H     -5.635480   -0.608940  -15.540330
  H     -4.473920   -2.222000  -14.162660
  H     -3.093910   -3.406960  -12.333900
  H     -1.886450   -2.929050  -10.104820
  H      0.601650   -0.729150   -5.240980
  H     -1.166490    2.917520   -7.778290
  H     -0.420750    4.766910   -6.298750
  H      0.649990    5.226660   -3.997090
  H      1.711970    4.979020   -1.750670
  H      2.694100    4.035150    0.441210
  H      3.196820    1.798670    1.606260
  H      3.679390   -0.391820    2.843170
  H      2.141600   -4.487100   -0.467960
  H      3.492750   -6.116520    2.904700
  H      2.314660   -6.844100    0.164490
  H      2.821620   -7.993580    1.496570

 Total Charge           Charge          ....    0
 Multiplicity           Mult            ....    1
 Number of Electrons    NEL             ....  468
 Basis Dimension        Dim             ....  978

ORBITAL ENERGIES
----------------

  NO   OCC          E(Eh)            E(eV)
   0   2.0000     -88.970505     -2421.0105
   1   2.0000     -88.966726     -2420.9077
   2   2.0000     -88.962578     -2420.7948
   3   2.0000     -88.959160     -2420.7018
   4   2.0000     -88.954170     -2420.5660
   5   2.0000     -88.952457     -2420.5194
   6   2.0000     -88.949434     -2420.4372
   7   2.0000     -88.948169     -2420.4027
   8   2.0000     -19.307263      -525.3773
   9   2.0000     -19.233223      -523.3626
  10   2.0000     -19.231501      -523.3158
  11   2.0000     -19.219065      -522.9774
  12   2.0000     -14.645669      -398.5289
  13   2.0000     -14.410260      -392.1231
  14   2.0000     -10.375772      -282.3391
  15   2.0000     -10.360516      -281.9240
  16   2.0000     -10.346174      -281.5337
  17   2.0000     -10.325608      -280.9741
  18   2.0000     -10.320617      -280.8383
  19   2.0000     -10.314938      -280.6837
  20   2.0000     -10.313664      -280.6491
  21   2.0000     -10.313229      -280.6372
  22   2.0000     -10.312664      -280.6219
  23   2.0000     -10.310056      -280.5509
  24   2.0000     -10.309382      -280.5325
  25   2.0000     -10.309053      -280.5236
  26   2.0000     -10.309030      -280.5230
  27   2.0000     -10.307332      -280.4768
  28   2.0000     -10.305657      -280.4312
  29   2.0000     -10.304384      -280.3966
  30   2.0000     -10.304226      -280.3922
  31   2.0000     -10.303602      -280.3753
  32   2.0000     -10.303346      -280.3683
  33   2.0000     -10.300803      -280.2991
  34   2.0000     -10.300413      -280.2885
  35   2.0000     -10.296790      -280.1899
  36   2.0000     -10.294502      -280.1276
  37   2.0000     -10.293586      -280.1027
  38   2.0000     -10.292400      -280.0704
  39   2.0000     -10.288904      -279.9753
  40   2.0000     -10.288191      -279.9559
  41   2.0000     -10.288145      -279.9546
  42   2.0000     -10.287888      -279.9477
  43   2.0000     -10.286841      -279.9192
  44   2.0000     -10.286448      -279.9085
  45   2.0000     -10.285955      -279.8951
  46   2.0000     -10.284125      -279.8453
  47   2.0000     -10.282818      -279.8097
  48   2.0000     -10.282557      -279.8026
  49   2.0000     -10.282264      -279.7946
  50   2.0000     -10.280347      -279.7425
  51   2.0000     -10.279328      -279.7147
  52   2.0000     -10.278141      -279.6824
  53   2.0000     -10.277211      -279.6571
  54   2.0000     -10.276680      -279.6427
  55   2.0000     -10.273211      -279.5483
  56   2.0000     -10.270819      -279.4832
  57   2.0000     -10.267253      -279.3862
  58   2.0000     -10.261036      -279.2170
  59   2.0000      -8.064975      -219.4591
  60   2.0000      -8.062274      -219.3856
  61   2.0000      -8.057188      -219.2472
  62   2.0000      -8.054170      -219.1651
  63   2.0000      -8.050253      -219.0585
  64   2.0000      -8.048583      -219.0131
  65   2.0000      -8.045454      -218.9279
  66   2.0000      -8.043914      -218.8860
  67   2.0000      -6.034123      -164.1968
  68   2.0000      -6.031448      -164.1240
  69   2.0000      -6.030016      -164.0851
  70   2.0000      -6.027434      -164.0148
  71   2.0000      -6.027327      -164.0119
  72   2.0000      -6.026786      -163.9972
  73   2.0000      -6.024626      -163.9384
  74   2.0000      -6.023522      -163.9084
  75   2.0000      -6.022719      -163.8865
  76   2.0000      -6.019858      -163.8087
  77   2.0000      -6.019507      -163.7991
  78   2.0000      -6.018662      -163.7761
  79   2.0000      -6.018265      -163.7653
  80   2.0000      -6.016146      -163.7077
  81   2.0000      -6.015728      -163.6963
  82   2.0000      -6.015147      -163.6805
  83   2.0000      -6.014088      -163.6517
  84   2.0000      -6.013575      -163.6377
  85   2.0000      -6.011542      -163.5824
  86   2.0000      -6.010987      -163.5673
  87   2.0000      -6.009738      -163.5333
  88   2.0000      -6.009512      -163.5271
  89   2.0000      -6.006616      -163.4483
  90   2.0000      -6.005106      -163.4072
  91   2.0000      -1.314389       -35.7663
  92   2.0000      -1.227885       -33.4124
  93   2.0000      -1.129932       -30.7470
  94   2.0000      -1.128442       -30.7065
  95   2.0000      -1.064297       -28.9610
  96   2.0000      -1.004208       -27.3259
  97   2.0000      -0.999150       -27.1883
  98   2.0000      -0.996902       -27.1271
  99   2.0000      -0.993214       -27.0267
 100   2.0000      -0.988917       -26.9098
 101   2.0000      -0.977853       -26.6087
 102   2.0000      -0.971846       -26.4453
 103   2.0000      -0.936798       -25.4916
 104   2.0000      -0.931593       -25.3499
 105   2.0000      -0.927661       -25.2429
 106   2.0000      -0.903958       -24.5979
 107   2.0000      -0.897569       -24.4241
 108   2.0000      -0.893388       -24.3103
 109   2.0000      -0.890786       -24.2395
 110   2.0000      -0.883049       -24.0290
 111   2.0000      -0.869011       -23.6470
 112   2.0000      -0.859261       -23.3817
 113   2.0000      -0.849475       -23.1154
 114   2.0000      -0.847625       -23.0651
 115   2.0000      -0.845509       -23.0075
 116   2.0000      -0.841831       -22.9074
 117   2.0000      -0.836022       -22.7493
 118   2.0000      -0.828150       -22.5351
 119   2.0000      -0.824531       -22.4366
 120   2.0000      -0.821329       -22.3495
 121   2.0000      -0.806354       -21.9420
 122   2.0000      -0.792678       -21.5699
 123   2.0000      -0.779934       -21.2231
 124   2.0000      -0.775303       -21.0971
 125   2.0000      -0.771529       -20.9944
 126   2.0000      -0.755595       -20.5608
 127   2.0000      -0.748333       -20.3632
 128   2.0000      -0.741772       -20.1847
 129   2.0000      -0.729602       -19.8535
 130   2.0000      -0.706647       -19.2289
 131   2.0000      -0.706249       -19.2180
 132   2.0000      -0.684116       -18.6157
 133   2.0000      -0.676988       -18.4218
 134   2.0000      -0.672936       -18.3115
 135   2.0000      -0.669178       -18.2093
 136   2.0000      -0.658564       -17.9204
 137   2.0000      -0.656435       -17.8625
 138   2.0000      -0.646629       -17.5957
 139   2.0000      -0.645311       -17.5598
 140   2.0000      -0.636054       -17.3079
 141   2.0000      -0.631338       -17.1796
 142   2.0000      -0.630986       -17.1700
 143   2.0000      -0.626929       -17.0596
 144   2.0000      -0.625866       -17.0307
 145   2.0000      -0.622998       -16.9526
 146   2.0000      -0.619881       -16.8678
 147   2.0000      -0.616890       -16.7864
 148   2.0000      -0.613084       -16.6829
 149   2.0000      -0.602359       -16.3910
 150   2.0000      -0.601344       -16.3634
 151   2.0000      -0.597218       -16.2511
 152   2.0000      -0.592754       -16.1297
 153   2.0000      -0.588801       -16.0221
 154   2.0000      -0.580217       -15.7885
 155   2.0000      -0.573403       -15.6031
 156   2.0000      -0.572355       -15.5746
 157   2.0000      -0.562742       -15.3130
 158   2.0000      -0.561528       -15.2799
 159   2.0000      -0.557036       -15.1577
 160   2.0000      -0.552241       -15.0272
 161   2.0000      -0.548239       -14.9183
 162   2.0000      -0.541467       -14.7341
 163   2.0000      -0.538923       -14.6648
 164   2.0000      -0.537151       -14.6166
 165   2.0000      -0.532577       -14.4922
 166   2.0000      -0.527630       -14.3575
 167   2.0000      -0.521104       -14.1800
 168   2.0000      -0.518390       -14.1061
 169   2.0000      -0.517391       -14.0789
 170   2.0000      -0.512194       -13.9375
 171   2.0000      -0.506467       -13.7817
 172   2.0000      -0.503692       -13.7062
 173   2.0000      -0.502460       -13.6726
 174   2.0000      -0.499221       -13.5845
 175   2.0000      -0.497765       -13.5449
 176   2.0000      -0.493323       -13.4240
 177   2.0000      -0.490922       -13.3587
 178   2.0000      -0.487135       -13.2556
 179   2.0000      -0.484352       -13.1799
 180   2.0000      -0.481641       -13.1061
 181   2.0000      -0.480752       -13.0819
 182   2.0000      -0.480457       -13.0739
 183   2.0000      -0.476089       -12.9550
 184   2.0000      -0.473958       -12.8971
 185   2.0000      -0.473548       -12.8859
 186   2.0000      -0.468479       -12.7480
 187   2.0000      -0.467527       -12.7221
 188   2.0000      -0.464173       -12.6308
 189   2.0000      -0.462481       -12.5847
 190   2.0000      -0.461290       -12.5523
 191   2.0000      -0.457527       -12.4499
 192   2.0000      -0.456243       -12.4150
 193   2.0000      -0.455562       -12.3965
 194   2.0000      -0.451648       -12.2900
 195   2.0000      -0.450059       -12.2467
 196   2.0000      -0.443228       -12.0609
 197   2.0000      -0.435891       -11.8612
 198   2.0000      -0.433035       -11.7835
 199   2.0000      -0.429844       -11.6966
 200   2.0000      -0.426377       -11.6023
 201   2.0000      -0.425724       -11.5845
 202   2.0000      -0.421500       -11.4696
 203   2.0000      -0.419239       -11.4081
 204   2.0000      -0.415932       -11.3181
 205   2.0000      -0.411546       -11.1987
 206   2.0000      -0.406089       -11.0502
 207   2.0000      -0.404550       -11.0084
 208   2.0000      -0.395456       -10.7609
 209   2.0000      -0.390384       -10.6229
 210   2.0000      -0.389513       -10.5992
 211   2.0000      -0.381203       -10.3731
 212   2.0000      -0.379962       -10.3393
 213   2.0000      -0.371410       -10.1066
 214   2.0000      -0.365351        -9.9417
 215   2.0000      -0.361486        -9.8365
 216   2.0000      -0.356627        -9.7043
 217   2.0000      -0.346792        -9.4367
 218   2.0000      -0.343988        -9.3604
 219   2.0000      -0.343054        -9.3350
 220   2.0000      -0.337256        -9.1772
 221   2.0000      -0.335100        -9.1185
 222   2.0000      -0.331564        -9.0223
 223   2.0000      -0.330946        -9.0055
 224   2.0000      -0.325148        -8.8477
 225   2.0000      -0.324075        -8.8185
 226   2.0000      -0.320676        -8.7260
 227   2.0000      -0.315164        -8.5760
 228   2.0000      -0.308486        -8.3943
 229   2.0000      -0.290291        -7.8992
 230   2.0000      -0.266573        -7.2538
 231   2.0000      -0.247020        -6.7218
 232   2.0000      -0.218173        -5.9368
 233   2.0000      -0.181346        -4.9347
 234   0.0000      -0.110796        -3.0149
 235   0.0000      -0.077086        -2.0976
 236   0.0000      -0.063918        -1.7393
 237   0.0000      -0.043617        -1.1869
 238   0.0000      -0.030140        -0.8202

MULLIKEN ATOMIC CHARGES
-----------------------
   0 C :   -0.009282
   1 S :    0.121508
   2 C :   -0.075315
   3 C :   -0.235044
   4 N :   -0.039851
   5 C :    0.380203
   6 C :   -0.146565
   7 C :   -0.098265
   8 S :    0.131853
   9 C :   -0.054011
  10 C :   -0.025553
  11 C :    0.008317
  12 C :   -0.009935
  13 C :    0.008303
  14 C :   -0.030246
  15 C :    0.035567
  16 C :    0.015938
  17 C :   -0.027316
  18 S :    0.055974
  19 C :   -0.030378
  20 C :    0.018113
  21 C :    0.032726
  22 C :   -0.033771
  23 S :    0.069502
  24 C :   -0.017666
  25 C :   -0.140835
  26 S :    0.105498
  27 C :   -0.121907
  28 C :    0.133527
  29 C :    0.159546
  30 O :   -0.171130
  31 C :    0.211912
  32 N :    0.283756
  33 O :   -0.266673
  34 O :   -0.245325
  35 C :   -0.095958
  36 C :    0.023732
  37 C :   -0.024542
  38 C :    0.024202
  39 C :    0.017587
  40 C :   -0.027447
  41 S :    0.056945
  42 C :   -0.019728
  43 C :    0.014954
  44 C :    0.034561
  45 C :   -0.043360
  46 S :    0.061732
  47 C :    0.009159
  48 C :   -0.076648
  49 S :    0.154776
  50 C :   -0.047020
  51 C :    0.026825
  52 C :   -0.029261
  53 C :    0.155848
  54 O :   -0.116355
  55 C :   -0.058752
  56 C :   -0.015528
  57 C :    0.009666
  58 C :   -0.006552
  59 H :    0.036332
  60 H :    0.034997
  61 H :    0.034702
  62 H :   -0.023124
  63 H :   -0.002208
  64 H :   -0.011917
  65 H :   -0.016055
  66 H :   -0.013929
  67 H :   -0.015506
  68 H :   -0.014635
  69 H :   -0.010391
  70 H :    0.004979
  71 H :    0.018567
  72 H :   -0.020266
  73 H :   -0.014832
  74 H :   -0.013822
  75 H :   -0.013698
  76 H :   -0.011218
  77 H :   -0.007268
  78 H :   -0.006322
  79 H :    0.001758
  80 H :    0.000359
  81 H :    0.014598
  82 H :    0.026889
Sum of atomic charges:   -0.0000000

LOEWDIN ATOMIC CHARGES
----------------------
   0 C :   -0.129885
   1 S :    0.410732
   2 C :   -0.216677
   3 C :   -0.046138
   4 N :   -0.084276
   5 C :   -0.012172
   6 C :   -0.052196
   7 C :   -0.194299
   8 S :    0.429314
   9 C :   -0.160775
  10 C :   -0.048998
  11 C :   -0.039686
  12 C :   -0.054691
  13 C :   -0.052611
  14 C :   -0.152520
  15 C :   -0.029536
  16 C :   -0.046133
  17 C :   -0.176055
  18 S :    0.391991
  19 C :   -0.181046
  20 C :   -0.039644
  21 C :   -0.035452
  22 C :   -0.157868
  23 S :    0.378887
  24 C :   -0.068974
  25 C :   -0.197165
  26 S :    0.424513
  27 C :   -0.156353
  28 C :   -0.084825
  29 C :    0.027209
  30 O :    0.014881
  31 C :    0.009374
  32 N :    0.273411
  33 O :   -0.227608
  34 O :   -0.206402
  35 C :   -0.013246
  36 C :   -0.082510
  37 C :   -0.155762
  38 C :   -0.039724
  39 C :   -0.039330
  40 C :   -0.184163
  41 S :    0.411749
  42 C :   -0.173777
  43 C :   -0.045601
  44 C :   -0.029075
  45 C :   -0.166978
  46 S :    0.379703
  47 C :   -0.057892
  48 C :   -0.174001
  49 S :    0.464587
  50 C :   -0.175865
  51 C :   -0.101464
  52 C :   -0.012512
  53 C :    0.097751
  54 O :   -0.107041
  55 C :   -0.064050
  56 C :    0.012738
  57 C :   -0.026010
  58 C :   -0.027591
  59 H :    0.016342
  60 H :    0.055112
  61 H :    0.054849
  62 H :    0.031239
  63 H :    0.017632
  64 H :    0.022576
  65 H :    0.035333
  66 H :    0.032891
  67 H :    0.031201
  68 H :    0.031761
  69 H :    0.034390
  70 H :    0.046553
  71 H :    0.027404
  72 H :    0.034928
  73 H :    0.032407
  74 H :    0.032321
  75 H :    0.032103
  76 H :    0.033896
  77 H :    0.043005
  78 H :    0.038052
  79 H :    0.035815
  80 H :    0.034484
  81 H :    0.020771
  82 H :    0.026673

  Mayer bond orders larger than 0.100000
B(  0-C ,  1-S ) :   1.1306 B(  0-C ,  4-N ) :   1.6898 B(  0-C , 59-H ) :   0.9666
B(  1-S ,  2-C ) :   1.0900 B(  2-C ,  3-C ) :   1.5181 B(  2-C ,  7-C ) :   1.1980
B(  3-C ,  4-N ) :   1.4135 B(  3-C ,  5-C ) :   1.0480 B(  5-C ,  6-C ) :   0.9825
B(  5-C , 60-H ) :   0.8644 B(  5-C , 61-H ) :   0.8642 B(  6-C ,  7-C ) :   1.5184
B(  6-C , 10-C ) :   1.3048 B(  7-C ,  8-S ) :   1.0862 B(  8-S ,  9-C ) :   1.0850
B(  9-C , 10-C ) :   1.4099 B(  9-C , 11-C ) :   1.2425 B( 10-C , 62-H ) :   1.0073
B( 11-C , 12-C ) :   1.5325 B( 11-C , 63-H ) :   0.9527 B( 12-C , 13-C ) :   1.2631
B( 12-C , 64-H ) :   0.9624 B( 13-C , 14-C ) :   1.5086 B( 13-C , 65-H ) :   0.9602
B( 14-C , 15-C ) :   1.1905 B( 14-C , 18-S ) :   1.0437 B( 15-C , 16-C ) :   1.5343
B( 15-C , 66-H ) :   0.9988 B( 16-C , 17-C ) :   1.2352 B( 16-C , 67-H ) :   0.9941
B( 17-C , 18-S ) :   1.0522 B( 17-C , 19-C ) :   1.4295 B( 19-C , 20-C ) :   1.2394
B( 19-C , 23-S ) :   1.0538 B( 20-C , 21-C ) :   1.5229 B( 20-C , 68-H ) :   0.9942
B( 21-C , 22-C ) :   1.2027 B( 21-C , 69-H ) :   1.0010 B( 22-C , 23-S ) :   1.0513
B( 22-C , 24-C ) :   1.4483 B( 24-C , 25-C ) :   1.2828 B( 24-C , 70-H ) :   0.9747
B( 25-C , 26-S ) :   1.0538 B( 25-C , 29-C ) :   1.3546 B( 26-S , 27-C ) :   1.0995
B( 27-C , 28-C ) :   1.1975 B( 27-C , 36-C ) :   1.3486 B( 28-C , 29-C ) :   1.2826
B( 28-C , 35-C ) :   1.1366 B( 29-C , 30-O ) :   1.1565 B( 30-O , 31-C ) :   1.1176
B( 31-C , 32-N ) :   0.9429 B( 31-C , 35-C ) :   1.5148 B( 32-N , 33-O ) :   1.5078
B( 32-N , 34-O ) :   1.4935 B( 33-O , 34-O ) :   0.2686 B( 35-C , 71-H ) :   1.0071
B( 36-C , 37-C ) :   1.4459 B( 36-C , 72-H ) :   0.9359 B( 37-C , 38-C ) :   1.2317
B( 37-C , 41-S ) :   1.0579 B( 38-C , 39-C ) :   1.4928 B( 38-C , 73-H ) :   0.9998
B( 39-C , 40-C ) :   1.2656 B( 39-C , 74-H ) :   0.9948 B( 40-C , 41-S ) :   1.0591
B( 40-C , 42-C ) :   1.3976 B( 42-C , 43-C ) :   1.2469 B( 42-C , 46-S ) :   1.0625
B( 43-C , 44-C ) :   1.5228 B( 43-C , 75-H ) :   0.9956 B( 44-C , 45-C ) :   1.1962
B( 44-C , 76-H ) :   1.0000 B( 45-C , 46-S ) :   1.0409 B( 45-C , 47-C ) :   1.4824
B( 47-C , 48-C ) :   1.2601 B( 47-C , 77-H ) :   0.9699 B( 48-C , 49-S ) :   1.0859
B( 48-C , 52-C ) :   1.3336 B( 49-S , 50-C ) :   1.1393 B( 50-C , 51-C ) :   1.3925
B( 50-C , 56-C ) :   1.0909 B( 51-C , 52-C ) :   1.3693 B( 51-C , 53-C ) :   0.9002
B( 52-C , 78-H ) :   1.0112 B( 53-C , 54-O ) :   2.2742 B( 53-C , 55-C ) :   0.9387
B( 55-C , 56-C ) :   1.6128 B( 55-C , 57-C ) :   1.1238 B( 56-C , 79-H ) :   1.0162
B( 57-C , 58-C ) :   1.8959 B( 57-C , 80-H ) :   0.9598 B( 58-C , 81-H ) :   0.9531
B( 58-C , 82-H ) :   0.9515

-----------------------------------------------------------------------------
         ABSORPTION SPECTRUM VIA TRANSITION ELECTRIC DIPOLE MOMENTS
-----------------------------------------------------------------------------
State   Energy  Wavelength   fosc         T2         TX        TY        TZ
        (cm-1)    (nm)                  (au**2)     (au)      (au)      (au)
-----------------------------------------------------------------------------
   0    4295.4   2328.1   0.573494463  43.95423  -3.23607   1.98839  -5.43400
   1   10479.6    954.2   0.026805037   0.84207  -0.57711   0.26307  -0.66318
   2   11839.4    844.6   0.060667884   1.68696   0.72165  -0.83498  -0.68482
   3   12817.7    780.2   0.369941893   9.50167   0.86796  -2.95136   0.19438
   4   16732.7    597.6   0.340172244   6.69280   0.64126   1.11901   2.24263
   5   17338.0    576.8   0.521103729   9.89467  -0.09991   3.11973   0.38986
   6   19889.7    502.8   0.191450897   3.16887   0.25382   1.48774   0.94397
   7   20650.0    484.3   0.241805137   3.85498  -0.02472   1.94810   0.24348
   8   21445.8    466.3   0.527467797   8.09709   0.27116   2.56632   1.19899
   9   22571.7    443.0   0.268597602   3.91755  -0.47052  -1.41855  -1.29764
  10   24808.6    403.1   0.280642465   3.72414   0.02478  -1.89816  -0.34716
  11   25143.5    397.7   0.231618413   3.03266   0.14373   1.69733   0.36206
  12   26190.5    381.8   0.000213406   0.00268   0.02895   0.04285   0.00285
  13   26205.2    381.6   0.024382520   0.30631  -0.03281  -0.54119  -0.11114
  14   27217.4    367.4   0.428974294   5.18872   0.80815  -1.31741   1.67333
  15   27516.6    363.4   0.161944215   1.93752  -0.28700   1.31041  -0.37145
  16   27714.3    360.8   0.006818072   0.08099  -0.08183   0.26502  -0.06370
  17   28507.9    350.8   0.004505766   0.05203   0.02093  -0.15189   0.16889
  18   28882.0    346.2   0.004496277   0.05125  -0.03117   0.17822  -0.13608
  19   29146.7    343.1   0.086723239   0.97954   0.37917  -0.46492   0.78716
  20   29817.5    335.4   0.002564155   0.02831   0.11908  -0.03044   0.11491
  21   30233.3    330.8   0.006912080   0.07527  -0.08885   0.16322  -0.20182
  22   30429.6    328.6   0.003995736   0.04323  -0.16483   0.06263  -0.11017
  23   31561.3    316.8   0.042740526   0.44582  -0.22054  -0.46686  -0.42335
  24   32066.4    311.9   0.036152786   0.37117  -0.07997   0.60162  -0.05313
  25   32317.7    309.4   0.018035903   0.18373  -0.16711   0.32684  -0.22130
  26   32374.1    308.9   0.049474587   0.50311  -0.09336   0.70280  -0.02138
  27   33229.0    300.9   0.050488750   0.50021  -0.02207  -0.70678  -0.01364
  28   33500.1    298.5   0.004878733   0.04794  -0.03273  -0.13076  -0.17256
  29   33748.1    296.3   0.104606385   1.02043  -0.48285   0.04380  -0.88621
  30   34078.4    293.4   0.035733751   0.34520  -0.19597  -0.30378  -0.46316
  31   34390.9    290.8   0.029625706   0.28360   0.12164  -0.51130   0.08583
  32   34890.2    286.6   0.002365841   0.02232   0.01295  -0.14098  -0.04775
  33   34979.0    285.9   0.001382531   0.01301  -0.08162  -0.00951  -0.07912
  34   35439.6    282.2   0.006162114   0.05724  -0.02530   0.15041  -0.18434
  35   35831.6    279.1   0.162364776   1.49177  -0.54370   0.54804  -0.94647
  36   36242.0    275.9   0.014124548   0.12830   0.09436  -0.09143   0.33323
  37   36471.0    274.2   0.081803007   0.73841  -0.22525  -0.70953  -0.42922
  38   36704.4    272.4   0.000269731   0.00242   0.03661  -0.03275  -0.00252
  39   36812.0    271.7   0.087798667   0.78519   0.32961  -0.72408   0.39019
  40   37130.9    269.3   0.036531882   0.32390   0.27667  -0.24806   0.43107
  41   37586.9    266.1   0.001610425   0.01411  -0.00725  -0.11433   0.03133
  42   37778.2    264.7   0.015435345   0.13451  -0.12692   0.33102  -0.09393
  43   38132.5    262.2   0.002717520   0.02346   0.02375  -0.14690  -0.03632
  44   38329.2    260.9   0.007881510   0.06769   0.22630   0.02803   0.12528
  45   38534.2    259.5   0.005087033   0.04346   0.04585   0.16653   0.11673
  46   38641.3    258.8   0.057560143   0.49039   0.11513   0.68507   0.08844
  47   39238.4    254.9   0.128514257   1.07824   0.40493  -0.65744   0.69429
  48   39511.0    253.1   0.049949863   0.41619   0.16987  -0.43124   0.44873
  49   39896.4    250.6   0.068545840   0.56562   0.12723  -0.60035   0.43476
  50   39987.1    250.1   0.110963253   0.91356   0.41930  -0.69754   0.50117
  51   40024.3    249.8   0.018289631   0.15044  -0.18247   0.27923  -0.19792
  52   40228.1    248.6   0.040383698   0.33049   0.15659  -0.37619   0.40552

FINAL SINGLE POINT ENERGY     -5321.222856811690

DIPOLE MOMENT
-------------
                                X             Y             Z
Electronic contribution:     -0.77586       4.90536      -5.19665
Nuclear contribution   :     -0.35381      -2.58850       3.57869
                        -----------------------------------------
Total Dipole Moment    :     -1.12967       2.31686      -1.61796
                        -----------------------------------------
Magnitude (a.u.)       :      3.04332
Magnitude (Debye)      :      7.73550

Rotational constants in cm-1:     0.001396     0.000355     0.000286
Rotational constants in MHz :    41.851259    10.651198     8.580740

                             ****ORCA TERMINATED NORMALLY****
TOTAL RUN TIME: 0 days 0 hours 7 minutes 52 seconds 267 msec
