                         Program Version 4.2.0 -  RELEASE  -
|  1> # ORCA input file
|  2> # SCF done       -103.249917145655          0.000564906255
|  3> ! CAM-B3LYP def2-SVP def2/J RIJCOSX Grid4 TightSCF
|  4> %maxcore 5000
|  5> %tddft
|  6>     Mode sTDDFT
|  7>     Ethresh 5.0
|  8>     maxcore 5000
|  9> end
| 10>
| 11> %pal
| 12>   nprocs 6
| 13>   end
| 14> * xyz 0 1
| 15>    N       -4.07151       -15.15076       -24.22141
| 16>    C       -3.49024       -15.90601       -25.16879
| 17>    O       -2.49722       -15.55837       -25.77408
| 18>    C       -4.16508       -17.25261       -25.50139
| 19>    N       -4.17714       -17.36182       -26.94490
| 20>    C       -5.59623       -17.37981       -24.97516
| 21>    S       -5.48200       -17.76632       -23.19541
| 22>    C       -3.73357       -18.32128       -23.30001
| 23>    C       -2.80015       -17.42627       -22.53799
| 24>    N       -1.50698       -17.70439       -22.67163
| 25>    C       -0.65162       -16.92213       -22.04732
| 26>    C       -1.06793       -15.84534       -21.25906
| 27>    C       -0.12142       -14.95061       -20.60206
| 28>    N        1.17627       -15.21851       -20.74263
| 29>    C        2.03062       -14.38666       -20.18714
| 30>    C        1.61647       -13.25868       -19.47156
| 31>    C        2.56310       -12.31554       -18.89445
| 32>    N        3.85913       -12.52114       -19.11796
| 33>    C        4.72122       -11.66058       -18.62569
| 34>    C        4.31960       -10.54340       -17.87587
| 35>    N        5.16226        -9.56994       -17.41106
| 36>    C        6.59151        -9.75296       -17.25115
| 37>    C        7.29439        -9.95217       -18.60978
| 38>    N        6.71977        -9.27448       -19.62173
| 39>    O        8.30758       -10.59932       -18.72407
| 40>    C        6.94657       -10.86660       -16.25353
| 41>    C        6.56989       -10.37954       -14.86030
| 42>    S        6.65720        -8.54536       -14.87142
| 43>    C        7.16674        -8.48412       -16.62196
| 44>    C        2.93113       -10.43695       -17.68652
| 45>    N        2.07599       -11.29566       -18.18617
| 46>    C        0.23285       -13.09063       -19.36192
| 47>    N       -0.62234       -13.92109       -19.91933
| 48>    C       -2.44820       -15.66978       -21.16113
| 49>    N       -3.30117       -16.44909       -21.79826
| 50>    C       -3.38186       -18.37639       -24.78264
| 51>    H       -3.59341       -14.30457       -23.95408
| 52>    H       -4.73576       -15.53860       -23.56628
| 53>    H       -4.18115       -18.32887       -27.24772
| 54>    H       -3.35508       -16.90167       -27.32357
| 55>    H       -6.09873       -18.20499       -25.48142
| 56>    H       -6.17931       -16.47338       -25.11795
| 57>    H       -3.68311       -19.31544       -22.84807
| 58>    H        0.39880       -17.14503       -22.17316
| 59>    H        3.08180       -14.60982       -20.30908
| 60>    H        5.76231       -11.86712       -18.83692
| 61>    H        4.75469        -8.95779       -16.71352
| 62>    H        7.11174        -9.35684       -20.54520
| 63>    H        5.84276        -8.79905       -19.50032
| 64>    H        8.01840       -11.05311       -16.33027
| 65>    H        6.42150       -11.79210       -16.49070
| 66>    H        7.24519       -10.75337       -14.09397
| 67>    H        5.54788       -10.64957       -14.59407
| 68>    H        8.25513        -8.48348       -16.67957
| 69>    H        6.77554        -7.57245       -17.06948
| 70>    H        2.51148        -9.62051       -17.10978
| 71>    H       -0.18215       -12.25646       -18.81249
| 72>    H       -2.86792       -14.87391       -20.56122
| 73>    H       -3.69126       -19.33607       -25.20487
| 74>    H       -2.30591       -18.25900       -24.91807
| 75> *
| 76>
| 77>                          ****END OF INPUT****

CARTESIAN COORDINATES (ANGSTROEM)
---------------------------------
  N     -4.071510  -15.150760  -24.221410
  C     -3.490240  -15.906010  -25.168790
  O     -2.497220  -15.558370  -25.774080
  C     -4.165080  -17.252610  -25.501390
  N     -4.177140  -17.361820  -26.944900
  C     -5.596230  -17.379810  -24.975160
  S     -5.482000  -17.766320  -23.195410
  C     -3.733570  -18.321280  -23.300010
  C     -2.800150  -17.426270  -22.537990
  N     -1.506980  -17.704390  -22.671630
  C     -0.651620  -16.922130  -22.047320
  C     -1.067930  -15.845340  -21.259060
  C     -0.121420  -14.950610  -20.602060
  N      1.176270  -15.218510  -20.742630
  C      2.030620  -14.386660  -20.187140
  C      1.616470  -13.258680  -19.471560
  C      2.563100  -12.315540  -18.894450
  N      3.859130  -12.521140  -19.117960
  C      4.721220  -11.660580  -18.625690
  C      4.319600  -10.543400  -17.875870
  N      5.162260   -9.569940  -17.411060
  C      6.591510   -9.752960  -17.251150
  C      7.294390   -9.952170  -18.609780
  N      6.719770   -9.274480  -19.621730
  O      8.307580  -10.599320  -18.724070
  C      6.946570  -10.866600  -16.253530
  C      6.569890  -10.379540  -14.860300
  S      6.657200   -8.545360  -14.871420
  C      7.166740   -8.484120  -16.621960
  C      2.931130  -10.436950  -17.686520
  N      2.075990  -11.295660  -18.186170
  C      0.232850  -13.090630  -19.361920
  N     -0.622340  -13.921090  -19.919330
  C     -2.448200  -15.669780  -21.161130
  N     -3.301170  -16.449090  -21.798260
  C     -3.381860  -18.376390  -24.782640
  H     -3.593410  -14.304570  -23.954080
  H     -4.735760  -15.538600  -23.566280
  H     -4.181150  -18.328870  -27.247720
  H     -3.355080  -16.901670  -27.323570
  H     -6.098730  -18.204990  -25.481420
  H     -6.179310  -16.473380  -25.117950
  H     -3.683110  -19.315440  -22.848070
  H      0.398800  -17.145030  -22.173160
  H      3.081800  -14.609820  -20.309080
  H      5.762310  -11.867120  -18.836920
  H      4.754690   -8.957790  -16.713520
  H      7.111740   -9.356840  -20.545200
  H      5.842760   -8.799050  -19.500320
  H      8.018400  -11.053110  -16.330270
  H      6.421500  -11.792100  -16.490700
  H      7.245190  -10.753370  -14.093970
  H      5.547880  -10.649570  -14.594070
  H      8.255130   -8.483480  -16.679570
  H      6.775540   -7.572450  -17.069480
  H      2.511480   -9.620510  -17.109780
  H     -0.182150  -12.256460  -18.812490
  H     -2.867920  -14.873910  -20.561220
  H     -3.691260  -19.336070  -25.204870
  H     -2.305910  -18.259000  -24.918070

 Total Charge           Charge          ....    0
 Multiplicity           Mult            ....    1
 Number of Electrons    NEL             ....  274
 Basis Dimension        Dim             ....  632

ORBITAL ENERGIES
----------------

  NO   OCC          E(Eh)            E(eV)
   0   2.0000     -88.923734     -2419.7378
   1   2.0000     -88.898419     -2419.0490
   2   2.0000     -19.194480      -522.3084
   3   2.0000     -19.162438      -521.4364
   4   2.0000     -14.451351      -393.2412
   5   2.0000     -14.442874      -393.0106
   6   2.0000     -14.423383      -392.4802
   7   2.0000     -14.421856      -392.4387
   8   2.0000     -14.410843      -392.1390
   9   2.0000     -14.410234      -392.1224
  10   2.0000     -14.406323      -392.0160
  11   2.0000     -14.402984      -391.9251
  12   2.0000     -14.401855      -391.8944
  13   2.0000     -14.367607      -390.9625
  14   2.0000     -10.385031      -282.5911
  15   2.0000     -10.350707      -281.6571
  16   2.0000     -10.345601      -281.5181
  17   2.0000     -10.344852      -281.4977
  18   2.0000     -10.341953      -281.4188
  19   2.0000     -10.340695      -281.3846
  20   2.0000     -10.335654      -281.2474
  21   2.0000     -10.329026      -281.0671
  22   2.0000     -10.326095      -280.9873
  23   2.0000     -10.318689      -280.7858
  24   2.0000     -10.318189      -280.7722
  25   2.0000     -10.313724      -280.6507
  26   2.0000     -10.312682      -280.6223
  27   2.0000     -10.312574      -280.6194
  28   2.0000     -10.303482      -280.3720
  29   2.0000     -10.297741      -280.2158
  30   2.0000     -10.291175      -280.0371
  31   2.0000     -10.287202      -279.9290
  32   2.0000     -10.285124      -279.8725
  33   2.0000     -10.280416      -279.7443
  34   2.0000     -10.275163      -279.6014
  35   2.0000     -10.261215      -279.2219
  36   2.0000      -8.019919      -218.2331
  37   2.0000      -7.994086      -217.5301
  38   2.0000      -5.990709      -163.0155
  39   2.0000      -5.986384      -162.8978
  40   2.0000      -5.979034      -162.6978
  41   2.0000      -5.964696      -162.3076
  42   2.0000      -5.960665      -162.1980
  43   2.0000      -5.953307      -161.9977
  44   2.0000      -1.136719       -30.9317
  45   2.0000      -1.103515       -30.0282
  46   2.0000      -1.098110       -29.8811
  47   2.0000      -1.085510       -29.5382
  48   2.0000      -1.076203       -29.2850
  49   2.0000      -1.060094       -28.8466
  50   2.0000      -0.999483       -27.1973
  51   2.0000      -0.988482       -26.8980
  52   2.0000      -0.978739       -26.6328
  53   2.0000      -0.977552       -26.6005
  54   2.0000      -0.971010       -26.4225
  55   2.0000      -0.962203       -26.1829
  56   2.0000      -0.952234       -25.9116
  57   2.0000      -0.923788       -25.1375
  58   2.0000      -0.908455       -24.7203
  59   2.0000      -0.881951       -23.9991
  60   2.0000      -0.855659       -23.2837
  61   2.0000      -0.833919       -22.6921
  62   2.0000      -0.829829       -22.5808
  63   2.0000      -0.811746       -22.0887
  64   2.0000      -0.787832       -21.4380
  65   2.0000      -0.770795       -20.9744
  66   2.0000      -0.765393       -20.8274
  67   2.0000      -0.749839       -20.4042
  68   2.0000      -0.734493       -19.9866
  69   2.0000      -0.726427       -19.7671
  70   2.0000      -0.719578       -19.5807
  71   2.0000      -0.707043       -19.2396
  72   2.0000      -0.691930       -18.8284
  73   2.0000      -0.681364       -18.5409
  74   2.0000      -0.666091       -18.1253
  75   2.0000      -0.654783       -17.8175
  76   2.0000      -0.652384       -17.7523
  77   2.0000      -0.644231       -17.5304
  78   2.0000      -0.633094       -17.2274
  79   2.0000      -0.628974       -17.1153
  80   2.0000      -0.616318       -16.7709
  81   2.0000      -0.611152       -16.6303
  82   2.0000      -0.607584       -16.5332
  83   2.0000      -0.600614       -16.3435
  84   2.0000      -0.583263       -15.8714
  85   2.0000      -0.576454       -15.6861
  86   2.0000      -0.571897       -15.5621
  87   2.0000      -0.569864       -15.5068
  88   2.0000      -0.566661       -15.4196
  89   2.0000      -0.555019       -15.1028
  90   2.0000      -0.547840       -14.9075
  91   2.0000      -0.541813       -14.7435
  92   2.0000      -0.526106       -14.3161
  93   2.0000      -0.525763       -14.3067
  94   2.0000      -0.518730       -14.1154
  95   2.0000      -0.514844       -14.0096
  96   2.0000      -0.511895       -13.9294
  97   2.0000      -0.510895       -13.9022
  98   2.0000      -0.507050       -13.7975
  99   2.0000      -0.499071       -13.5804
 100   2.0000      -0.494760       -13.4631
 101   2.0000      -0.493545       -13.4300
 102   2.0000      -0.491171       -13.3654
 103   2.0000      -0.490057       -13.3351
 104   2.0000      -0.485817       -13.2198
 105   2.0000      -0.475515       -12.9394
 106   2.0000      -0.472309       -12.8522
 107   2.0000      -0.459490       -12.5034
 108   2.0000      -0.455062       -12.3829
 109   2.0000      -0.451973       -12.2988
 110   2.0000      -0.449902       -12.2424
 111   2.0000      -0.439810       -11.9679
 112   2.0000      -0.429936       -11.6992
 113   2.0000      -0.427906       -11.6439
 114   2.0000      -0.423242       -11.5170
 115   2.0000      -0.418545       -11.3892
 116   2.0000      -0.407157       -11.0793
 117   2.0000      -0.405023       -11.0212
 118   2.0000      -0.395496       -10.7620
 119   2.0000      -0.392201       -10.6723
 120   2.0000      -0.384942       -10.4748
 121   2.0000      -0.382281       -10.4024
 122   2.0000      -0.381801       -10.3893
 123   2.0000      -0.370265       -10.0754
 124   2.0000      -0.360309        -9.8045
 125   2.0000      -0.358801        -9.7635
 126   2.0000      -0.344137        -9.3644
 127   2.0000      -0.334921        -9.1137
 128   2.0000      -0.329255        -8.9595
 129   2.0000      -0.324741        -8.8366
 130   2.0000      -0.320282        -8.7153
 131   2.0000      -0.313257        -8.5242
 132   2.0000      -0.310193        -8.4408
 133   2.0000      -0.303799        -8.2668
 134   2.0000      -0.290323        -7.9001
 135   2.0000      -0.279427        -7.6036
 136   2.0000      -0.274612        -7.4726
 137   0.0000      -0.044105        -1.2001
 138   0.0000      -0.015890        -0.4324
 139   0.0000       0.000088         0.0024
 140   0.0000       0.013268         0.3611
 141   0.0000       0.016072         0.4373

MULLIKEN ATOMIC CHARGES
-----------------------
   0 N :   -0.054417
   1 C :    0.060245
   2 O :   -0.237921
   3 C :   -0.242818
   4 N :   -0.133507
   5 C :    0.052389
   6 S :   -0.070958
   7 C :   -0.076698
   8 C :   -0.071524
   9 N :   -0.064930
  10 C :    0.060184
  11 C :    0.018661
  12 C :   -0.072911
  13 N :   -0.046283
  14 C :    0.048588
  15 C :    0.023513
  16 C :   -0.097388
  17 N :   -0.029953
  18 C :   -0.011554
  19 C :    0.034044
  20 N :   -0.099772
  21 C :   -0.261746
  22 C :    0.039692
  23 N :   -0.051348
  24 O :   -0.198995
  25 C :    0.117448
  26 C :   -0.030322
  27 S :   -0.103453
  28 C :    0.036972
  29 C :    0.012838
  30 N :   -0.035760
  31 C :    0.047456
  32 N :   -0.051343
  33 C :    0.036628
  34 N :   -0.037710
  35 C :    0.141757
  36 H :    0.122718
  37 H :    0.133755
  38 H :    0.081839
  39 H :    0.102674
  40 H :    0.034246
  41 H :    0.043109
  42 H :    0.055342
  43 H :    0.017709
  44 H :    0.016924
  45 H :    0.019744
  46 H :    0.116013
  47 H :    0.135273
  48 H :    0.130431
  49 H :    0.041290
  50 H :    0.022659
  51 H :    0.057421
  52 H :    0.046704
  53 H :    0.070330
  54 H :    0.044638
  55 H :   -0.004706
  56 H :    0.013873
  57 H :    0.013636
  58 H :   -0.004281
  59 H :    0.039550
Sum of atomic charges:   -0.0000000

LOEWDIN ATOMIC CHARGES
----------------------
   0 N :    0.011232
   1 C :    0.058834
   2 O :   -0.223189
   3 C :   -0.045312
   4 N :   -0.089075
   5 C :   -0.125097
   6 S :    0.233857
   7 C :   -0.132428
   8 C :    0.018288
   9 N :   -0.082176
  10 C :    0.077605
  11 C :   -0.089911
  12 C :    0.033633
  13 N :   -0.080456
  14 C :    0.070126
  15 C :   -0.085616
  16 C :    0.001954
  17 N :   -0.064447
  18 C :   -0.000262
  19 C :   -0.021764
  20 N :   -0.025177
  21 C :   -0.043167
  22 C :    0.049733
  23 N :    0.007435
  24 O :   -0.201634
  25 C :   -0.034565
  26 C :   -0.123134
  27 S :    0.202696
  28 C :   -0.112908
  29 C :    0.010736
  30 N :   -0.066971
  31 C :    0.067849
  32 N :   -0.083272
  33 C :    0.067072
  34 N :   -0.088765
  35 C :   -0.028766
  36 H :    0.076850
  37 H :    0.050935
  38 H :    0.050853
  39 H :    0.054956
  40 H :    0.019281
  41 H :    0.021867
  42 H :    0.039846
  43 H :    0.029272
  44 H :    0.028721
  45 H :    0.028470
  46 H :    0.066438
  47 H :    0.084410
  48 H :    0.075041
  49 H :    0.038648
  50 H :    0.032779
  51 H :    0.028700
  52 H :    0.019805
  53 H :    0.032933
  54 H :    0.023967
  55 H :    0.023407
  56 H :    0.027586
  57 H :    0.026492
  58 H :    0.022293
  59 H :    0.033495

  Mayer bond orders larger than 0.100000
B(  0-N ,  1-C ) :   1.3164 B(  0-N , 36-H ) :   0.9396 B(  0-N , 37-H ) :   0.9000
B(  1-C ,  2-O ) :   2.1119 B(  1-C ,  3-C ) :   0.8530 B(  3-C ,  4-N ) :   1.1393
B(  3-C ,  5-C ) :   1.0008 B(  3-C , 35-C ) :   1.0072 B(  4-N , 38-H ) :   0.9566
B(  4-N , 39-H ) :   0.9433 B(  5-C ,  6-S ) :   0.9927 B(  5-C , 40-H ) :   0.9370
B(  5-C , 41-H ) :   0.9395 B(  6-S ,  7-C ) :   1.0349 B(  7-C ,  8-C ) :   0.9091
B(  7-C , 35-C ) :   1.0268 B(  7-C , 42-H ) :   0.8982 B(  8-C ,  9-N ) :   1.5199
B(  8-C , 34-N ) :   1.5700 B(  9-N , 10-C ) :   1.5457 B( 10-C , 11-C ) :   1.3439
B( 10-C , 43-H ) :   0.9765 B( 11-C , 12-C ) :   0.9614 B( 11-C , 33-C ) :   1.3560
B( 12-C , 13-N ) :   1.5833 B( 12-C , 32-N ) :   1.5812 B( 13-N , 14-C ) :   1.5449
B( 14-C , 15-C ) :   1.3425 B( 14-C , 44-H ) :   0.9778 B( 15-C , 16-C ) :   0.9643
B( 15-C , 31-C ) :   1.3434 B( 16-C , 17-N ) :   1.5935 B( 16-C , 30-N ) :   1.5640
B( 17-N , 18-C ) :   1.5626 B( 18-C , 19-C ) :   1.3015 B( 18-C , 45-H ) :   0.9764
B( 19-C , 20-N ) :   1.1484 B( 19-C , 29-C ) :   1.2896 B( 20-N , 21-C ) :   0.9837
B( 20-N , 46-H ) :   0.9041 B( 21-C , 22-C ) :   0.8531 B( 21-C , 25-C ) :   1.0342
B( 21-C , 28-C ) :   0.9957 B( 22-C , 23-N ) :   1.2995 B( 22-C , 24-O ) :   2.1673
B( 23-N , 47-H ) :   0.9385 B( 23-N , 48-H ) :   0.9283 B( 25-C , 26-C ) :   1.0612
B( 25-C , 49-H ) :   0.9209 B( 25-C , 50-H ) :   0.9343 B( 26-C , 27-S ) :   0.9818
B( 26-C , 51-H ) :   0.9498 B( 26-C , 52-H ) :   0.9493 B( 27-S , 28-C ) :   0.9968
B( 28-C , 53-H ) :   0.9457 B( 28-C , 54-H ) :   0.9444 B( 29-C , 30-N ) :   1.5990
B( 29-C , 55-H ) :   0.9867 B( 31-C , 32-N ) :   1.5449 B( 31-C , 56-H ) :   0.9778
B( 33-C , 34-N ) :   1.5200 B( 33-C , 57-H ) :   0.9783 B( 35-C , 58-H ) :   0.9225
B( 35-C , 59-H ) :   0.9255

-----------------------------------------------------------------------------
         ABSORPTION SPECTRUM VIA TRANSITION ELECTRIC DIPOLE MOMENTS
-----------------------------------------------------------------------------
State   Energy  Wavelength   fosc         T2         TX        TY        TZ
        (cm-1)    (nm)                  (au**2)     (au)      (au)      (au)
-----------------------------------------------------------------------------
   0   31835.7    314.1   0.001205429   0.01247   0.00851   0.09129   0.06371
   1   33685.2    296.9   0.005213499   0.05095   0.15146   0.14187   0.08881
   2   35177.1    284.3   1.527103316  14.29169   2.50987   2.35458   1.56468
   3   37154.1    269.1   0.028974650   0.25674   0.30795   0.34296   0.21043
   4   38445.3    260.1   0.005653091   0.04841   0.11937   0.15578   0.09945
   5   38898.9    257.1   0.004847416   0.04102   0.13520   0.15037   0.01156
   6   39052.7    256.1   0.008599212   0.07249   0.00109  -0.02221   0.26832

FINAL SINGLE POINT ENERGY     -2345.068133202378

DIPOLE MOMENT
-------------
                                X             Y             Z
Electronic contribution:     -4.32420      -1.36198       5.24915
Nuclear contribution   :      5.70354       3.31580      -3.57381
                        -----------------------------------------
Total Dipole Moment    :      1.37934       1.95382       1.67534
                        -----------------------------------------
Magnitude (a.u.)       :      2.92006
Magnitude (Debye)      :      7.42220

Rotational constants in cm-1:     0.012348     0.000804     0.000789
Rotational constants in MHz :   370.185347    24.108640    23.663849

                             ****ORCA TERMINATED NORMALLY****
TOTAL RUN TIME: 0 days 0 hours 2 minutes 46 seconds 446 msec
