                         Program Version 4.2.0 -  RELEASE  -
|  1> # ORCA input file
|  2> # SCF done       -192.451310559290          0.000674331175
|  3> ! CAM-B3LYP def2-SVP def2/J RIJCOSX Grid4 TightSCF
|  4> %maxcore 5000
|  5> %tddft
|  6>     Mode sTDDFT
|  7>     Ethresh 5.0
|  8>     maxcore 5000
|  9> end
| 10>
| 11> %pal
| 12>   nprocs 6
| 13>   end
| 14> * xyz 0 1
| 15>    C        5.70949         5.41451         5.06276
| 16>    S        5.42572         3.98790         3.94906
| 17>    C        6.31659         2.81417         5.02779
| 18>    C        6.52959         3.49773         6.37649
| 19>    C        6.77522         4.97754         6.05555
| 20>    C        7.78413         2.92425         7.09579
| 21>    O        8.63073         2.28971         6.50863
| 22>    N        7.84832         3.26284         8.38590
| 23>    N        5.38560         3.37607         7.26173
| 24>    C        4.98134         2.16637         7.70948
| 25>    O        5.77379         1.09086         7.51325
| 26>    C        3.86502         1.79333         8.41724
| 27>    C        2.61698         2.25935         8.99046
| 28>    O        2.11376         3.35718         9.01892
| 29>    N        2.06187         1.10497         9.54728
| 30>    C        2.81402        -0.05779         9.39133
| 31>    O        2.49411        -1.14692         9.79655
| 32>    C        3.99536         0.39050         8.65391
| 33>    C        5.17616        -0.01376         8.08387
| 34>    C        5.76863        -1.30012         7.94760
| 35>    C        6.94004        -1.52197         7.31995
| 36>    C        7.43589        -2.85780         7.05662
| 37>    C        6.52691        -3.83348         6.75830
| 38>    S        7.19460        -5.37766         6.43400
| 39>    C        8.77915        -4.74057         6.73815
| 40>    C        8.79128        -3.37216         7.05153
| 41>    C       10.03236        -2.77249         7.38004
| 42>    C       10.05290        -1.28983         7.64625
| 43>    C        9.61917        -0.95002         9.07236
| 44>    C       11.19707        -3.53917         7.45207
| 45>    C       12.44538        -2.96305         8.06684
| 46>    C       12.79100        -3.68216         9.37299
| 47>    C       11.18891        -4.89523         7.02877
| 48>    C       12.24952        -5.88465         6.87125
| 49>    C       11.73892        -7.09906         6.46289
| 50>    S       10.05617        -7.14027         6.22691
| 51>    C        9.95495        -5.46571         6.68714
| 52>    C       13.65591        -5.70066         7.03208
| 53>    C       14.59155        -6.69755         7.00264
| 54>    C       15.98090        -6.54718         7.15376
| 55>    C       16.73033        -5.43723         7.47811
| 56>    C       18.14113        -5.42800         7.59893
| 57>    C       18.67291        -4.22783         7.97169
| 58>    C       17.70664        -3.22243         8.17290
| 59>    S       16.11108        -3.84069         7.85706
| 60>    C       17.89219        -1.90471         8.57037
| 61>    C       19.09173        -1.22190         8.83260
| 62>    C       18.90817         0.08278         9.20761
| 63>    C       17.55908         0.48074         9.26288
| 64>    S       16.52005        -0.84925         8.81622
| 65>    C       17.05572         1.72678         9.61612
| 66>    C       15.69650         1.97588         9.65521
| 67>    C       15.09113         3.18027         9.98219
| 68>    C       13.68344         3.42457        10.03706
| 69>    C       12.66594         2.50852         9.84415
| 70>    C       11.30066         2.80598         9.89758
| 71>    N       10.15849         2.95288         9.92144
| 72>    C       12.82797         1.13864         9.57072
| 73>    N       12.85447         0.00927         9.35572
| 74>    C       13.48570         4.83655        10.35903
| 75>    C       14.75417         5.44310        10.52408
| 76>    C       15.80836         4.42416        10.30123
| 77>    O       17.00865         4.60607        10.36915
| 78>    C       14.90365         6.77038        10.83483
| 79>    C       13.74323         7.54031        10.98753
| 80>    C       12.48245         6.92619        10.81849
| 81>    C       12.33176         5.57936        10.50637
| 82>    S       11.18382         8.05981        11.04768
| 83>    C       12.33969         9.32632        11.36335
| 84>    C       13.63019         8.92286        11.30162
| 85>   Br       11.73096        11.06043        11.74534
| 86>    H        4.76334         5.65789         5.54862
| 87>    H        6.02353         6.26353         4.46002
| 88>    H        7.28289         2.57736         4.58099
| 89>    H        5.72911         1.90234         5.10967
| 90>    H        7.76411         5.06557         5.60180
| 91>    H        6.74977         5.59001         6.95775
| 92>    H        7.10474         3.77404         8.82757
| 93>    H        8.66658         3.01372         8.94281
| 94>    H        4.65383         4.06866         7.19256
| 95>    H        1.17256         1.11088        10.02530
| 96>    H        5.19357        -2.10341         8.38458
| 97>    H        7.49168        -0.67061         6.95219
| 98>    H        5.46517        -3.70864         6.67353
| 99>    H       11.04394        -0.87634         7.47010
|100>    H        9.39546        -0.79494         6.93466
|101>    H       10.33433        -1.34470         9.78965
|102>    H        8.63934        -1.36845         9.29068
|103>    H        9.57021         0.12915         9.19434
|104>    H       12.31063        -1.91817         8.32123
|105>    H       13.27969        -3.00378         7.36567
|106>    H       11.96985        -3.57223        10.07767
|107>    H       13.67919        -3.23187         9.80850
|108>    H       12.97378        -4.74446         9.22935
|109>    H       12.29521        -7.98910         6.24569
|110>    H       14.00604        -4.69258         7.15336
|111>    H       14.26725        -7.71771         6.85270
|112>    H       16.56482        -7.44984         7.01607
|113>    H       18.72346        -6.31232         7.40760
|114>    H       19.72294        -4.04780         8.11469
|115>    H       20.05324        -1.69431         8.73886
|116>    H       19.70464         0.76447         9.44715
|117>    H       17.75321         2.51154         9.86855
|118>    H       15.04790         1.14643         9.40108
|119>    H       15.88292         7.20599        10.95614
|120>    H       11.34792         5.15715        10.38751
|121>    H       14.46988         9.57205        11.46970
|122> *
|123>
|124>                          ****END OF INPUT****

CARTESIAN COORDINATES (ANGSTROEM)
---------------------------------
  C      5.709490    5.414510    5.062760
  S      5.425720    3.987900    3.949060
  C      6.316590    2.814170    5.027790
  C      6.529590    3.497730    6.376490
  C      6.775220    4.977540    6.055550
  C      7.784130    2.924250    7.095790
  O      8.630730    2.289710    6.508630
  N      7.848320    3.262840    8.385900
  N      5.385600    3.376070    7.261730
  C      4.981340    2.166370    7.709480
  O      5.773790    1.090860    7.513250
  C      3.865020    1.793330    8.417240
  C      2.616980    2.259350    8.990460
  O      2.113760    3.357180    9.018920
  N      2.061870    1.104970    9.547280
  C      2.814020   -0.057790    9.391330
  O      2.494110   -1.146920    9.796550
  C      3.995360    0.390500    8.653910
  C      5.176160   -0.013760    8.083870
  C      5.768630   -1.300120    7.947600
  C      6.940040   -1.521970    7.319950
  C      7.435890   -2.857800    7.056620
  C      6.526910   -3.833480    6.758300
  S      7.194600   -5.377660    6.434000
  C      8.779150   -4.740570    6.738150
  C      8.791280   -3.372160    7.051530
  C     10.032360   -2.772490    7.380040
  C     10.052900   -1.289830    7.646250
  C      9.619170   -0.950020    9.072360
  C     11.197070   -3.539170    7.452070
  C     12.445380   -2.963050    8.066840
  C     12.791000   -3.682160    9.372990
  C     11.188910   -4.895230    7.028770
  C     12.249520   -5.884650    6.871250
  C     11.738920   -7.099060    6.462890
  S     10.056170   -7.140270    6.226910
  C      9.954950   -5.465710    6.687140
  C     13.655910   -5.700660    7.032080
  C     14.591550   -6.697550    7.002640
  C     15.980900   -6.547180    7.153760
  C     16.730330   -5.437230    7.478110
  C     18.141130   -5.428000    7.598930
  C     18.672910   -4.227830    7.971690
  C     17.706640   -3.222430    8.172900
  S     16.111080   -3.840690    7.857060
  C     17.892190   -1.904710    8.570370
  C     19.091730   -1.221900    8.832600
  C     18.908170    0.082780    9.207610
  C     17.559080    0.480740    9.262880
  S     16.520050   -0.849250    8.816220
  C     17.055720    1.726780    9.616120
  C     15.696500    1.975880    9.655210
  C     15.091130    3.180270    9.982190
  C     13.683440    3.424570   10.037060
  C     12.665940    2.508520    9.844150
  C     11.300660    2.805980    9.897580
  N     10.158490    2.952880    9.921440
  C     12.827970    1.138640    9.570720
  N     12.854470    0.009270    9.355720
  C     13.485700    4.836550   10.359030
  C     14.754170    5.443100   10.524080
  C     15.808360    4.424160   10.301230
  O     17.008650    4.606070   10.369150
  C     14.903650    6.770380   10.834830
  C     13.743230    7.540310   10.987530
  C     12.482450    6.926190   10.818490
  C     12.331760    5.579360   10.506370
  S     11.183820    8.059810   11.047680
  C     12.339690    9.326320   11.363350
  C     13.630190    8.922860   11.301620
  Br    11.730960   11.060430   11.745340
  H      4.763340    5.657890    5.548620
  H      6.023530    6.263530    4.460020
  H      7.282890    2.577360    4.580990
  H      5.729110    1.902340    5.109670
  H      7.764110    5.065570    5.601800
  H      6.749770    5.590010    6.957750
  H      7.104740    3.774040    8.827570
  H      8.666580    3.013720    8.942810
  H      4.653830    4.068660    7.192560
  H      1.172560    1.110880   10.025300
  H      5.193570   -2.103410    8.384580
  H      7.491680   -0.670610    6.952190
  H      5.465170   -3.708640    6.673530
  H     11.043940   -0.876340    7.470100
  H      9.395460   -0.794940    6.934660
  H     10.334330   -1.344700    9.789650
  H      8.639340   -1.368450    9.290680
  H      9.570210    0.129150    9.194340
  H     12.310630   -1.918170    8.321230
  H     13.279690   -3.003780    7.365670
  H     11.969850   -3.572230   10.077670
  H     13.679190   -3.231870    9.808500
  H     12.973780   -4.744460    9.229350
  H     12.295210   -7.989100    6.245690
  H     14.006040   -4.692580    7.153360
  H     14.267250   -7.717710    6.852700
  H     16.564820   -7.449840    7.016070
  H     18.723460   -6.312320    7.407600
  H     19.722940   -4.047800    8.114690
  H     20.053240   -1.694310    8.738860
  H     19.704640    0.764470    9.447150
  H     17.753210    2.511540    9.868550
  H     15.047900    1.146430    9.401080
  H     15.882920    7.205990   10.956140
  H     11.347920    5.157150   10.387510
  H     14.469880    9.572050   11.469700

 Total Charge           Charge          ....    0
 Multiplicity           Mult            ....    1
 Number of Electrons    NEL             ....  566
 Basis Dimension        Dim             .... 1216

ORBITAL ENERGIES
----------------

  NO   OCC          E(Eh)            E(eV)
   0   2.0000    -482.880153    -13139.8370
   1   2.0000     -88.972476     -2421.0642
   2   2.0000     -88.968603     -2420.9588
   3   2.0000     -88.962952     -2420.8050
   4   2.0000     -88.962572     -2420.7946
   5   2.0000     -88.946848     -2420.3668
   6   2.0000     -88.895576     -2418.9716
   7   2.0000     -62.557866     -1702.2861
   8   2.0000     -56.391807     -1534.4991
   9   2.0000     -56.389111     -1534.4257
  10   2.0000     -56.389070     -1534.4246
  11   2.0000     -19.297302      -525.1063
  12   2.0000     -19.200354      -522.4682
  13   2.0000     -19.189078      -522.1614
  14   2.0000     -19.185814      -522.0725
  15   2.0000     -19.163980      -521.4784
  16   2.0000     -14.447462      -393.1354
  17   2.0000     -14.433645      -392.7595
  18   2.0000     -14.413569      -392.2132
  19   2.0000     -14.408257      -392.0686
  20   2.0000     -14.398490      -391.8028
  21   2.0000     -10.385787      -282.6116
  22   2.0000     -10.379251      -282.4338
  23   2.0000     -10.377219      -282.3785
  24   2.0000     -10.354708      -281.7659
  25   2.0000     -10.351634      -281.6823
  26   2.0000     -10.350402      -281.6488
  27   2.0000     -10.342910      -281.4449
  28   2.0000     -10.337056      -281.2856
  29   2.0000     -10.329131      -281.0699
  30   2.0000     -10.328433      -281.0509
  31   2.0000     -10.324913      -280.9552
  32   2.0000     -10.323658      -280.9210
  33   2.0000     -10.323318      -280.9118
  34   2.0000     -10.322104      -280.8787
  35   2.0000     -10.321547      -280.8636
  36   2.0000     -10.316330      -280.7216
  37   2.0000     -10.314915      -280.6831
  38   2.0000     -10.314340      -280.6675
  39   2.0000     -10.312418      -280.6152
  40   2.0000     -10.308903      -280.5195
  41   2.0000     -10.308238      -280.5014
  42   2.0000     -10.304064      -280.3878
  43   2.0000     -10.302781      -280.3529
  44   2.0000     -10.297943      -280.2213
  45   2.0000     -10.297336      -280.2048
  46   2.0000     -10.297312      -280.2041
  47   2.0000     -10.296933      -280.1938
  48   2.0000     -10.296417      -280.1797
  49   2.0000     -10.293187      -280.0919
  50   2.0000     -10.292782      -280.0808
  51   2.0000     -10.291660      -280.0503
  52   2.0000     -10.290275      -280.0126
  53   2.0000     -10.290205      -280.0107
  54   2.0000     -10.289836      -280.0007
  55   2.0000     -10.289548      -279.9928
  56   2.0000     -10.287449      -279.9357
  57   2.0000     -10.282445      -279.7995
  58   2.0000     -10.280216      -279.7389
  59   2.0000     -10.280004      -279.7331
  60   2.0000     -10.276322      -279.6329
  61   2.0000     -10.275779      -279.6182
  62   2.0000     -10.273482      -279.5557
  63   2.0000     -10.273430      -279.5542
  64   2.0000     -10.272729      -279.5352
  65   2.0000     -10.272676      -279.5337
  66   2.0000     -10.271758      -279.5088
  67   2.0000     -10.270179      -279.4658
  68   2.0000     -10.267751      -279.3997
  69   2.0000     -10.266688      -279.3708
  70   2.0000     -10.258819      -279.1567
  71   2.0000     -10.244602      -278.7698
  72   2.0000     -10.241620      -278.6887
  73   2.0000     -10.240831      -278.6672
  74   2.0000     -10.230778      -278.3936
  75   2.0000      -8.787291      -239.1143
  76   2.0000      -8.067767      -219.5351
  77   2.0000      -8.064563      -219.4479
  78   2.0000      -8.059153      -219.3007
  79   2.0000      -8.058451      -219.2816
  80   2.0000      -8.043156      -218.8654
  81   2.0000      -7.992144      -217.4773
  82   2.0000      -6.623533      -180.2355
  83   2.0000      -6.609031      -179.8409
  84   2.0000      -6.608884      -179.8369
  85   2.0000      -6.037446      -164.2873
  86   2.0000      -6.034261      -164.2006
  87   2.0000      -6.033170      -164.1709
  88   2.0000      -6.030018      -164.0851
  89   2.0000      -6.029151      -164.0615
  90   2.0000      -6.028433      -164.0420
  91   2.0000      -6.027984      -164.0298
  92   2.0000      -6.025782      -163.9699
  93   2.0000      -6.024208      -163.9270
  94   2.0000      -6.023908      -163.9189
  95   2.0000      -6.021250      -163.8465
  96   2.0000      -6.019822      -163.8077
  97   2.0000      -6.012602      -163.6112
  98   2.0000      -6.008444      -163.4981
  99   2.0000      -6.004885      -163.4012
 100   2.0000      -5.963009      -162.2617
 101   2.0000      -5.958699      -162.1445
 102   2.0000      -5.951049      -161.9363
 103   2.0000      -2.739430       -74.5437
 104   2.0000      -2.735317       -74.4318
 105   2.0000      -2.735223       -74.4292
 106   2.0000      -2.723679       -74.1151
 107   2.0000      -2.723676       -74.1150
 108   2.0000      -1.217848       -33.1393
 109   2.0000      -1.132315       -30.8119
 110   2.0000      -1.113306       -30.2946
 111   2.0000      -1.111021       -30.2324
 112   2.0000      -1.104395       -30.0521
 113   2.0000      -1.049366       -28.5547
 114   2.0000      -1.020234       -27.7620
 115   2.0000      -1.016770       -27.6677
 116   2.0000      -1.015192       -27.6248
 117   2.0000      -1.008405       -27.4401
 118   2.0000      -1.002161       -27.2702
 119   2.0000      -0.992926       -27.0189
 120   2.0000      -0.991504       -26.9802
 121   2.0000      -0.979391       -26.6506
 122   2.0000      -0.972202       -26.4550
 123   2.0000      -0.964516       -26.2458
 124   2.0000      -0.934124       -25.4188
 125   2.0000      -0.932291       -25.3689
 126   2.0000      -0.928699       -25.2712
 127   2.0000      -0.917407       -24.9639
 128   2.0000      -0.908633       -24.7252
 129   2.0000      -0.906324       -24.6623
 130   2.0000      -0.899601       -24.4794
 131   2.0000      -0.896288       -24.3892
 132   2.0000      -0.886270       -24.1166
 133   2.0000      -0.876855       -23.8604
 134   2.0000      -0.870707       -23.6931
 135   2.0000      -0.866109       -23.5680
 136   2.0000      -0.858811       -23.3694
 137   2.0000      -0.850969       -23.1561
 138   2.0000      -0.839948       -22.8561
 139   2.0000      -0.839140       -22.8342
 140   2.0000      -0.836236       -22.7551
 141   2.0000      -0.821583       -22.3564
 142   2.0000      -0.820210       -22.3191
 143   2.0000      -0.816166       -22.2090
 144   2.0000      -0.813780       -22.1441
 145   2.0000      -0.800682       -21.7877
 146   2.0000      -0.793703       -21.5977
 147   2.0000      -0.777735       -21.1633
 148   2.0000      -0.769543       -20.9403
 149   2.0000      -0.759210       -20.6591
 150   2.0000      -0.750113       -20.4116
 151   2.0000      -0.748295       -20.3621
 152   2.0000      -0.745404       -20.2835
 153   2.0000      -0.733128       -19.9494
 154   2.0000      -0.710832       -19.3427
 155   2.0000      -0.707952       -19.2644
 156   2.0000      -0.704520       -19.1710
 157   2.0000      -0.700245       -19.0546
 158   2.0000      -0.697717       -18.9858
 159   2.0000      -0.686689       -18.6858
 160   2.0000      -0.685497       -18.6533
 161   2.0000      -0.682670       -18.5764
 162   2.0000      -0.680574       -18.5194
 163   2.0000      -0.677067       -18.4239
 164   2.0000      -0.660654       -17.9773
 165   2.0000      -0.659783       -17.9536
 166   2.0000      -0.655387       -17.8340
 167   2.0000      -0.649730       -17.6800
 168   2.0000      -0.647370       -17.6158
 169   2.0000      -0.640842       -17.4382
 170   2.0000      -0.636593       -17.3226
 171   2.0000      -0.629443       -17.1280
 172   2.0000      -0.627769       -17.0825
 173   2.0000      -0.622043       -16.9267
 174   2.0000      -0.616877       -16.7861
 175   2.0000      -0.614026       -16.7085
 176   2.0000      -0.605768       -16.4838
 177   2.0000      -0.597136       -16.2489
 178   2.0000      -0.591409       -16.0931
 179   2.0000      -0.590420       -16.0661
 180   2.0000      -0.588641       -16.0177
 181   2.0000      -0.584342       -15.9008
 182   2.0000      -0.582007       -15.8372
 183   2.0000      -0.576251       -15.6806
 184   2.0000      -0.573403       -15.6031
 185   2.0000      -0.566720       -15.4212
 186   2.0000      -0.561973       -15.2921
 187   2.0000      -0.560370       -15.2484
 188   2.0000      -0.553947       -15.0737
 189   2.0000      -0.549811       -14.9611
 190   2.0000      -0.543867       -14.7994
 191   2.0000      -0.541277       -14.7289
 192   2.0000      -0.535601       -14.5744
 193   2.0000      -0.530345       -14.4314
 194   2.0000      -0.529579       -14.4106
 195   2.0000      -0.528111       -14.3706
 196   2.0000      -0.526680       -14.3317
 197   2.0000      -0.525686       -14.3046
 198   2.0000      -0.524189       -14.2639
 199   2.0000      -0.521517       -14.1912
 200   2.0000      -0.519941       -14.1483
 201   2.0000      -0.517118       -14.0715
 202   2.0000      -0.516495       -14.0545
 203   2.0000      -0.512007       -13.9324
 204   2.0000      -0.504677       -13.7330
 205   2.0000      -0.503231       -13.6936
 206   2.0000      -0.501249       -13.6397
 207   2.0000      -0.500270       -13.6130
 208   2.0000      -0.496541       -13.5116
 209   2.0000      -0.495815       -13.4918
 210   2.0000      -0.494843       -13.4654
 211   2.0000      -0.492158       -13.3923
 212   2.0000      -0.489310       -13.3148
 213   2.0000      -0.486259       -13.2318
 214   2.0000      -0.484428       -13.1820
 215   2.0000      -0.483799       -13.1648
 216   2.0000      -0.483064       -13.1448
 217   2.0000      -0.482398       -13.1267
 218   2.0000      -0.481620       -13.1055
 219   2.0000      -0.480115       -13.0646
 220   2.0000      -0.475824       -12.9478
 221   2.0000      -0.471903       -12.8411
 222   2.0000      -0.467439       -12.7197
 223   2.0000      -0.465109       -12.6563
 224   2.0000      -0.463555       -12.6140
 225   2.0000      -0.461860       -12.5678
 226   2.0000      -0.459778       -12.5112
 227   2.0000      -0.457947       -12.4614
 228   2.0000      -0.457012       -12.4359
 229   2.0000      -0.451937       -12.2978
 230   2.0000      -0.450870       -12.2688
 231   2.0000      -0.449021       -12.2185
 232   2.0000      -0.446047       -12.1375
 233   2.0000      -0.445732       -12.1290
 234   2.0000      -0.443689       -12.0734
 235   2.0000      -0.439021       -11.9464
 236   2.0000      -0.437294       -11.8994
 237   2.0000      -0.436962       -11.8903
 238   2.0000      -0.435262       -11.8441
 239   2.0000      -0.432560       -11.7706
 240   2.0000      -0.432433       -11.7671
 241   2.0000      -0.430591       -11.7170
 242   2.0000      -0.429772       -11.6947
 243   2.0000      -0.426123       -11.5954
 244   2.0000      -0.424302       -11.5459
 245   2.0000      -0.420680       -11.4473
 246   2.0000      -0.418653       -11.3921
 247   2.0000      -0.416135       -11.3236
 248   2.0000      -0.412474       -11.2240
 249   2.0000      -0.412134       -11.2147
 250   2.0000      -0.408967       -11.1286
 251   2.0000      -0.405300       -11.0288
 252   2.0000      -0.403245       -10.9729
 253   2.0000      -0.394476       -10.7342
 254   2.0000      -0.392410       -10.6780
 255   2.0000      -0.386677       -10.5220
 256   2.0000      -0.380349       -10.3498
 257   2.0000      -0.377617       -10.2755
 258   2.0000      -0.375150       -10.2083
 259   2.0000      -0.369710       -10.0603
 260   2.0000      -0.368917       -10.0387
 261   2.0000      -0.367820       -10.0089
 262   2.0000      -0.367144        -9.9905
 263   2.0000      -0.355925        -9.6852
 264   2.0000      -0.353329        -9.6146
 265   2.0000      -0.348566        -9.4850
 266   2.0000      -0.347891        -9.4666
 267   2.0000      -0.340770        -9.2728
 268   2.0000      -0.338029        -9.1982
 269   2.0000      -0.326612        -8.8876
 270   2.0000      -0.324525        -8.8308
 271   2.0000      -0.321943        -8.7605
 272   2.0000      -0.321769        -8.7558
 273   2.0000      -0.321043        -8.7360
 274   2.0000      -0.311039        -8.4638
 275   2.0000      -0.307094        -8.3565
 276   2.0000      -0.295347        -8.0368
 277   2.0000      -0.286349        -7.7920
 278   2.0000      -0.274230        -7.4622
 279   2.0000      -0.271914        -7.3992
 280   2.0000      -0.264350        -7.1933
 281   2.0000      -0.238531        -6.4907
 282   2.0000      -0.226232        -6.1561
 283   0.0000      -0.114880        -3.1261
 284   0.0000      -0.065091        -1.7712
 285   0.0000      -0.044716        -1.2168
 286   0.0000      -0.029005        -0.7893
 287   0.0000      -0.015346        -0.4176

MULLIKEN ATOMIC CHARGES
-----------------------
   0 C :   -0.024719
   1 S :   -0.120580
   2 C :    0.079890
   3 C :   -0.246051
   4 C :    0.079222
   5 C :    0.075013
   6 O :   -0.221082
   7 N :   -0.055959
   8 N :   -0.091474
   9 C :    0.093805
  10 O :   -0.231229
  11 C :   -0.064230
  12 C :    0.135572
  13 O :   -0.171187
  14 N :   -0.167291
  15 C :    0.151909
  16 O :   -0.152829
  17 C :   -0.022850
  18 C :    0.074163
  19 C :   -0.036122
  20 C :   -0.019973
  21 C :    0.070463
  22 C :   -0.116254
  23 S :    0.123873
  24 C :   -0.144402
  25 C :    0.123656
  26 C :   -0.119939
  27 C :    0.016773
  28 C :    0.037941
  29 C :   -0.110499
  30 C :    0.044326
  31 C :    0.016431
  32 C :    0.126177
  33 C :    0.063407
  34 C :   -0.114920
  35 S :    0.158334
  36 C :   -0.161312
  37 C :    0.027226
  38 C :   -0.002580
  39 C :    0.031061
  40 C :   -0.039512
  41 C :    0.058507
  42 C :    0.008450
  43 C :    0.003317
  44 S :    0.084261
  45 C :   -0.056122
  46 C :    0.046384
  47 C :    0.018520
  48 C :    0.006227
  49 S :    0.103556
  50 C :   -0.017937
  51 C :   -0.042907
  52 C :   -0.095943
  53 C :    0.346246
  54 C :   -0.397964
  55 C :   -0.095890
  56 N :    0.080799
  57 C :   -0.174989
  58 N :    0.143796
  59 C :    0.009216
  60 C :   -0.006336
  61 C :    0.136277
  62 O :   -0.164820
  63 C :   -0.078979
  64 C :    0.116212
  65 C :   -0.089860
  66 C :   -0.030279
  67 S :    0.171467
  68 C :   -0.123596
  69 C :    0.037623
  70 Br:    0.015895
  71 H :    0.039709
  72 H :    0.053252
  73 H :    0.067113
  74 H :    0.049600
  75 H :    0.035943
  76 H :    0.014023
  77 H :    0.117903
  78 H :    0.113641
  79 H :    0.145172
  80 H :    0.131482
  81 H :    0.007984
  82 H :    0.033225
  83 H :    0.026708
  84 H :    0.009294
  85 H :    0.013315
  86 H :    0.004069
  87 H :    0.010073
  88 H :    0.018737
  89 H :   -0.003027
  90 H :    0.004300
  91 H :    0.013835
  92 H :    0.012633
  93 H :    0.009415
  94 H :    0.023846
  95 H :   -0.006368
  96 H :   -0.021592
  97 H :   -0.001477
  98 H :   -0.000907
  99 H :   -0.006186
 100 H :   -0.005794
 101 H :   -0.002290
 102 H :    0.012978
 103 H :    0.012660
 104 H :   -0.015368
 105 H :   -0.017621
 106 H :   -0.005661
Sum of atomic charges:   -0.0000000

LOEWDIN ATOMIC CHARGES
----------------------
   0 C :   -0.131264
   1 S :    0.191255
   2 C :   -0.123445
   3 C :   -0.038783
   4 C :   -0.030918
   5 C :    0.048160
   6 O :   -0.220092
   7 N :    0.005497
   8 N :   -0.003975
   9 C :    0.112652
  10 O :    0.006262
  11 C :   -0.167630
  12 C :    0.078677
  13 O :   -0.191399
  14 N :   -0.009646
  15 C :    0.081795
  16 O :   -0.172186
  17 C :   -0.091835
  18 C :    0.057276
  19 C :   -0.041947
  20 C :    0.000920
  21 C :   -0.059594
  22 C :   -0.162484
  23 S :    0.411267
  24 C :   -0.180893
  25 C :   -0.035721
  26 C :   -0.007172
  27 C :   -0.028250
  28 C :   -0.051247
  29 C :   -0.018113
  30 C :   -0.037148
  31 C :   -0.051598
  32 C :   -0.037961
  33 C :   -0.069827
  34 C :   -0.150654
  35 S :    0.448415
  36 C :   -0.180242
  37 C :    0.035434
  38 C :   -0.059553
  39 C :   -0.000433
  40 C :   -0.171851
  41 C :    0.002533
  42 C :   -0.056065
  43 C :   -0.133842
  44 S :    0.433112
  45 C :   -0.205644
  46 C :   -0.002390
  47 C :   -0.053222
  48 C :   -0.097478
  49 S :    0.420007
  50 C :   -0.079973
  51 C :    0.047254
  52 C :   -0.122207
  53 C :    0.082407
  54 C :   -0.181504
  55 C :    0.033915
  56 N :   -0.078585
  57 C :   -0.000597
  58 N :   -0.069230
  59 C :   -0.018730
  60 C :   -0.045544
  61 C :    0.081701
  62 O :   -0.158945
  63 C :    0.016971
  64 C :   -0.035889
  65 C :   -0.147452
  66 C :   -0.017796
  67 S :    0.421638
  68 C :   -0.275100
  69 C :   -0.069829
  70 Br:    0.130087
  71 H :    0.012835
  72 H :    0.027889
  73 H :    0.028649
  74 H :    0.022781
  75 H :    0.042162
  76 H :    0.026268
  77 H :    0.068522
  78 H :    0.046605
  79 H :    0.092695
  80 H :    0.090575
  81 H :    0.042470
  82 H :    0.036141
  83 H :    0.025083
  84 H :    0.029576
  85 H :    0.029088
  86 H :    0.021467
  87 H :    0.020332
  88 H :    0.026420
  89 H :    0.027413
  90 H :    0.014473
  91 H :    0.026835
  92 H :    0.020261
  93 H :    0.015063
  94 H :    0.022200
  95 H :    0.016035
  96 H :    0.028267
  97 H :    0.041765
  98 H :    0.038312
  99 H :    0.034571
 100 H :    0.035480
 101 H :    0.037918
 102 H :    0.038413
 103 H :    0.028491
 104 H :    0.038974
 105 H :    0.036685
 106 H :    0.037933

  Mayer bond orders larger than 0.100000
B(  0-C ,  1-S ) :   0.9982 B(  0-C ,  4-C ) :   1.0569 B(  0-C , 71-H ) :   0.9457
B(  0-C , 72-H ) :   0.9508 B(  1-S ,  2-C ) :   0.9831 B(  2-C ,  3-C ) :   1.0140
B(  2-C , 73-H ) :   0.9284 B(  2-C , 74-H ) :   0.9362 B(  3-C ,  4-C ) :   1.0423
B(  3-C ,  5-C ) :   0.8431 B(  3-C ,  8-N ) :   0.9423 B(  4-C , 75-H ) :   0.9343
B(  4-C , 76-H ) :   0.9340 B(  5-C ,  6-O ) :   2.1164 B(  5-C ,  7-N ) :   1.3443
B(  7-N , 77-H ) :   0.9292 B(  7-N , 78-H ) :   0.8884 B(  8-N ,  9-C ) :   1.2539
B(  8-N , 79-H ) :   0.9097 B(  9-C , 10-O ) :   1.1511 B(  9-C , 11-C ) :   1.3955
B( 10-O , 18-C ) :   1.0791 B( 11-C , 12-C ) :   0.8963 B( 11-C , 17-C ) :   1.2181
B( 12-C , 13-O ) :   2.2641 B( 12-C , 14-N ) :   1.0701 B( 14-N , 15-C ) :   1.0822
B( 14-N , 80-H ) :   0.9156 B( 15-C , 16-O ) :   2.2625 B( 15-C , 17-C ) :   0.8904
B( 17-C , 18-C ) :   1.4550 B( 18-C , 19-C ) :   1.1658 B( 19-C , 20-C ) :   1.7005
B( 19-C , 81-H ) :   0.9613 B( 20-C , 21-C ) :   0.9986 B( 20-C , 82-H ) :   0.9702
B( 21-C , 22-C ) :   1.6164 B( 21-C , 25-C ) :   1.1416 B( 22-C , 23-S ) :   1.1140
B( 22-C , 83-H ) :   0.9620 B( 23-S , 24-C ) :   1.0791 B( 24-C , 25-C ) :   1.3690
B( 24-C , 36-C ) :   1.3834 B( 25-C , 26-C ) :   1.2621 B( 26-C , 27-C ) :   1.0532
B( 26-C , 29-C ) :   1.5181 B( 27-C , 28-C ) :   1.1088 B( 27-C , 84-H ) :   0.9165
B( 27-C , 85-H ) :   0.9271 B( 28-C , 86-H ) :   0.9570 B( 28-C , 87-H ) :   0.9599
B( 28-C , 88-H ) :   0.9611 B( 29-C , 30-C ) :   1.0651 B( 29-C , 32-C ) :   1.2397
B( 30-C , 31-C ) :   1.1022 B( 30-C , 89-H ) :   0.8898 B( 30-C , 90-H ) :   0.9059
B( 31-C , 91-H ) :   0.9573 B( 31-C , 92-H ) :   0.9621 B( 31-C , 93-H ) :   0.9664
B( 32-C , 33-C ) :   1.1136 B( 32-C , 36-C ) :   1.3891 B( 33-C , 34-C ) :   1.5249
B( 33-C , 37-C ) :   1.1475 B( 34-C , 35-S ) :   1.1713 B( 34-C , 94-H ) :   0.9560
B( 35-S , 36-C ) :   1.0644 B( 37-C , 38-C ) :   1.5875 B( 37-C , 95-H ) :   0.9497
B( 38-C , 39-C ) :   1.2279 B( 38-C , 96-H ) :   0.9660 B( 39-C , 40-C ) :   1.5292
B( 39-C , 97-H ) :   0.9609 B( 40-C , 41-C ) :   1.1780 B( 40-C , 44-S ) :   1.0288
B( 41-C , 42-C ) :   1.5430 B( 41-C , 98-H ) :   0.9991 B( 42-C , 43-C ) :   1.2231
B( 42-C , 99-H ) :   0.9951 B( 43-C , 44-S ) :   1.1086 B( 43-C , 45-C ) :   1.4074
B( 45-C , 46-C ) :   1.2603 B( 45-C , 49-S ) :   1.0466 B( 46-C , 47-C ) :   1.4880
B( 46-C ,100-H ) :   0.9959 B( 47-C , 48-C ) :   1.2245 B( 47-C ,101-H ) :   1.0017
B( 48-C , 49-S ) :   1.1104 B( 48-C , 50-C ) :   1.3388 B( 50-C , 51-C ) :   1.3434
B( 50-C ,102-H ) :   0.9829 B( 51-C , 52-C ) :   1.3959 B( 51-C ,103-H ) :   0.9388
B( 52-C , 53-C ) :   1.1796 B( 52-C , 61-C ) :   0.9705 B( 53-C , 54-C ) :   1.4930
B( 53-C , 59-C ) :   0.9818 B( 54-C , 55-C ) :   1.2040 B( 54-C , 57-C ) :   1.1652
B( 55-C , 56-N ) :   2.7864 B( 56-N , 78-H ) :   0.1415 B( 57-C , 58-N ) :   2.8930
B( 58-N , 89-H ) :   0.1014 B( 59-C , 60-C ) :   1.2799 B( 59-C , 66-C ) :   1.4241
B( 60-C , 61-C ) :   0.9260 B( 60-C , 63-C ) :   1.4386 B( 61-C , 62-O ) :   2.1973
B( 63-C , 64-C ) :   1.2314 B( 63-C ,104-H ) :   1.0172 B( 64-C , 65-C ) :   1.3257
B( 64-C , 69-C ) :   1.1606 B( 65-C , 66-C ) :   1.3147 B( 65-C , 67-S ) :   1.0798
B( 66-C ,105-H ) :   0.9798 B( 67-S , 68-C ) :   1.0851 B( 68-C , 69-C ) :   1.6212
B( 68-C , 70-Br) :   1.0140 B( 69-C ,106-H ) :   1.0001

-----------------------------------------------------------------------------
         ABSORPTION SPECTRUM VIA TRANSITION ELECTRIC DIPOLE MOMENTS
-----------------------------------------------------------------------------
State   Energy  Wavelength   fosc         T2         TX        TY        TZ
        (cm-1)    (nm)                  (au**2)     (au)      (au)      (au)
-----------------------------------------------------------------------------
   0   10104.7    989.6   0.798400800  26.01204  -0.53314  -4.80832  -1.61490
   1   16186.2    617.8   0.020054750   0.40790  -0.41707   0.47157   0.10755
   2   18833.6    531.0   0.435476155   7.61214  -2.50529   1.14514   0.15601
   3   20527.0    487.2   0.333181543   5.34356   2.29849   0.18472   0.16243
   4   22075.9    453.0   0.059612028   0.88898  -0.82328  -0.43588  -0.14564
   5   23596.7    423.8   0.093840266   1.30922   0.65016  -0.92441  -0.17881
   6   24819.6    402.9   0.352207547   4.67174   1.87535   1.02298   0.32913
   7   26069.9    383.6   0.000373526   0.00472  -0.04461  -0.05217   0.00215
   8   26161.2    382.2   0.598881345   7.53632  -2.43211   1.26556   0.13982
   9   27011.9    370.2   0.001397295   0.01703   0.02751   0.12098   0.04046
  10   27351.1    365.6   0.001301480   0.01567  -0.12349   0.02009  -0.00357
  11   28214.0    354.4   0.780118553   9.10274  -1.84805   2.20217   0.91538
  12   28620.0    349.4   0.009261187   0.10653  -0.32286   0.04111   0.02447
  13   29311.8    341.2   0.021640922   0.24306   0.43018  -0.23972  -0.02310
  14   29936.7    334.0   0.040037449   0.44029  -0.13511   0.64275   0.09435
  15   30694.3    325.8   0.002008725   0.02154  -0.13520   0.05124   0.02531
  16   30728.3    325.4   0.063219619   0.67731  -0.51422   0.62860   0.13324
  17   31191.2    320.6   0.001224110   0.01292   0.11241   0.01596   0.00538
  18   31463.7    317.8   0.073281033   0.76676   0.16495   0.83901   0.18869
  19   31811.5    314.4   0.236404399   2.44651  -0.04173   1.53762   0.28370
  20   32421.6    308.4   0.161995953   1.64492   0.29063  -1.22167  -0.26074
  21   32661.0    306.2   0.188122031   1.89621  -0.13985   1.31586   0.38100
  22   33372.8    299.6   0.008494057   0.08379  -0.24525   0.15373  -0.00346
  23   33588.5    297.7   0.001284643   0.01259  -0.04626   0.10104  -0.01553
  24   33865.5    295.3   0.017666036   0.17173  -0.37027  -0.16693  -0.08227
  25   34240.8    292.0   0.063423322   0.60979   0.37599   0.66096   0.17764
  26   34489.2    289.9   0.005419651   0.05173  -0.21476   0.07435   0.00903
  27   34641.4    288.7   0.052577124   0.49966   0.68928   0.14250   0.06521
  28   35011.9    285.6   0.065153276   0.61263   0.78077   0.05497   0.00302
  29   35357.9    282.8   0.033370838   0.31071  -0.46202  -0.29460  -0.10225
  30   35552.5    281.3   0.009201667   0.08521  -0.29166   0.00187   0.01165
  31   35660.1    280.4   0.017297274   0.15969  -0.20091  -0.34462   0.02359
  32   35779.3    279.5   0.095675651   0.88033  -0.50989  -0.78484  -0.06601
  33   36547.5    273.6   0.082648603   0.74448   0.84593   0.13207   0.10693
  34   37546.9    266.3   0.071585590   0.62766  -0.67551   0.34657   0.22637
  35   37797.9    264.6   0.016940946   0.14755   0.12776  -0.32577   0.15843
  36   37977.0    263.3   0.103180871   0.89445  -0.29409   0.89012   0.12505
  37   37998.9    263.2   0.000880320   0.00763  -0.04987   0.06947   0.01772
  38   38129.3    262.3   0.216518092   1.86944  -0.88144  -1.03597   0.13877
  39   38529.4    259.5   0.096463541   0.82423  -0.64011   0.54531  -0.34222
  40   38718.6    258.3   0.022210140   0.18885  -0.27322  -0.04005   0.33555
  41   38862.2    257.3   0.179369571   1.51949   0.44845   1.14725  -0.04683
  42   39522.6    253.0   0.004957596   0.04130   0.01931  -0.19957  -0.03310
  43   39599.8    252.5   0.021900186   0.18207   0.17335  -0.38214  -0.07734
  44   39869.6    250.8   0.003956995   0.03267   0.01921  -0.17731  -0.02944
  45   40072.0    249.6   0.000447672   0.00368   0.03062   0.04090   0.03267
  46   40161.7    249.0   0.017894774   0.14669  -0.24387   0.26806  -0.12391

FINAL SINGLE POINT ENERGY     -7688.254263137268

DIPOLE MOMENT
-------------
                                X             Y             Z
Electronic contribution:      4.24182     126.80497      44.93211
Nuclear contribution   :      0.08093    -128.44392     -45.20586
                        -----------------------------------------
Total Dipole Moment    :      4.32275      -1.63895      -0.27375
                        -----------------------------------------
Magnitude (a.u.)       :      4.63112
Magnitude (Debye)      :     11.77137

Rotational constants in cm-1:     0.000672     0.000527     0.000314
Rotational constants in MHz :    20.141296    15.813912     9.426139

                             ****ORCA TERMINATED NORMALLY****
TOTAL RUN TIME: 0 days 0 hours 13 minutes 27 seconds 498 msec
