                         Program Version 4.2.0 -  RELEASE  -
|  1> # ORCA input file
|  2> # SCF done       -136.107526596273          0.000400558893
|  3> ! CAM-B3LYP def2-SVP def2/J RIJCOSX Grid4 TightSCF
|  4> %maxcore 5000
|  5> %tddft
|  6>     Mode sTDDFT
|  7>     Ethresh 5.0
|  8>     maxcore 5000
|  9> end
| 10>
| 11> %pal
| 12>   nprocs 6
| 13>   end
| 14> * xyz 0 1
| 15>    C        4.55533         4.18627        -1.08872
| 16>    C        4.32072         3.03603        -0.38328
| 17>    C        3.06493         2.78672         0.18185
| 18>    C        2.02724         3.68287         0.04576
| 19>    C        2.23282         4.86422        -0.71130
| 20>    C        3.51563         5.11734        -1.26621
| 21>    N        3.74425         6.25140        -1.96621
| 22>    C        2.75762         7.09063        -2.13507
| 23>    C        1.45167         6.80131        -1.63376
| 24>    N        1.21824         5.71841        -0.94493
| 25>    C        0.29493         7.70041        -1.91047
| 26>    C        3.03154         8.34352        -2.89784
| 27>    C        0.73021         3.41985         0.67544
| 28>    N        0.41706         2.14019         0.90291
| 29>    C       -0.76088         1.90566         1.45565
| 30>    C       -1.64240         2.91605         1.79233
| 31>    C       -1.21404         4.23113         1.54723
| 32>    N       -0.02136         4.45782         0.99319
| 33>    C       -2.01343         5.36828         1.91794
| 34>    C       -1.66688         6.64861         1.62908
| 35>    C       -2.38187         7.75553         2.12698
| 36>    C       -2.05787         9.07664         1.96447
| 37>    C       -2.64354        10.15111         2.68789
| 38>    C       -2.05665        11.35563         2.47037
| 39>    C       -1.01162        11.32559         1.51250
| 40>    S       -0.79616         9.69415         0.90664
| 41>    C       -0.24272        12.39703         1.11021
| 42>    C       -0.17804        13.65327         1.76858
| 43>    C        0.73426        14.50230         1.23537
| 44>    C        1.40267        13.98750         0.08854
| 45>    S        0.82282        12.37863        -0.28946
| 46>    C        2.38206        14.59978        -0.63029
| 47>    C        2.91315        14.01993        -1.82557
| 48>    N        3.99468        14.58370        -2.37958
| 49>    C        4.45347        14.02174        -3.48064
| 50>    C        3.83448        12.93862        -4.08529
| 51>    C        2.67492        12.44540        -3.46984
| 52>    N        2.25783        12.97008        -2.32081
| 53>    C        1.87680        11.40603        -4.08750
| 54>    C        0.62919        11.14011        -3.67136
| 55>    C       -0.28164        10.15427        -4.20011
| 56>    C       -0.01042         9.33295        -5.28016
| 57>    C       -0.91499         8.35517        -5.70603
| 58>    C       -2.10538         8.16227        -5.05457
| 59>    C       -2.43324         8.97950        -3.95698
| 60>    C       -1.53755         9.99814        -3.54289
| 61>    N       -1.88010        10.83020        -2.53955
| 62>    C       -3.02736        10.65493        -1.94039
| 63>    C       -3.88892         9.57452        -2.30017
| 64>    N       -3.59429         8.78149        -3.29493
| 65>    C       -5.15921         9.31561        -1.56060
| 66>    C       -3.41364        11.63945        -0.88763
| 67>    H        5.52056         4.40875        -1.51686
| 68>    H        5.11170         2.31292        -0.24772
| 69>    H        2.89421         1.88325         0.74693
| 70>    H        0.50054         8.71546        -1.57509
| 71>    H       -0.58631         7.31938        -1.40218
| 72>    H        0.09972         7.73080        -2.98108
| 73>    H        4.07228         8.35628        -3.20913
| 74>    H        2.82555         9.21686        -2.28041
| 75>    H        2.38569         8.39651        -3.77256
| 76>    H       -0.99737         0.86261         1.63141
| 77>    H       -2.60540         2.70859         2.23136
| 78>    H       -2.91693         5.16156         2.47777
| 79>    H       -0.77284         6.81698         1.04422
| 80>    H       -3.22495         7.54694         2.77625
| 81>    H       -3.45511         9.98301         3.37446
| 82>    H       -2.35991        12.26900         2.94969
| 83>    H       -0.76659        13.87337         2.64162
| 84>    H        0.95622        15.48463         1.61332
| 85>    H        2.77998        15.55255        -0.31993
| 86>    H        5.34416        14.47170        -3.90236
| 87>    H        4.20677        12.51243        -5.00267
| 88>    H        2.33099        10.90298        -4.92975
| 89>    H        0.24228        11.70203        -2.83347
| 90>    H        0.92199         9.44185        -5.81375
| 91>    H       -0.65789         7.73713        -6.55402
| 92>    H       -2.80500         7.39868        -5.35531
| 93>    H       -4.94728         9.11339        -0.51129
| 94>    H       -5.66078         8.45730        -1.99802
| 95>    H       -5.81525        10.18325        -1.61229
| 96>    H       -2.60607        12.35243        -0.74817
| 97>    H       -3.62229        11.13596         0.05466
| 98>    H       -4.31437        12.17362        -1.18866
| 99> *
|100>
|101>                          ****END OF INPUT****

CARTESIAN COORDINATES (ANGSTROEM)
---------------------------------
  C      4.555330    4.186270   -1.088720
  C      4.320720    3.036030   -0.383280
  C      3.064930    2.786720    0.181850
  C      2.027240    3.682870    0.045760
  C      2.232820    4.864220   -0.711300
  C      3.515630    5.117340   -1.266210
  N      3.744250    6.251400   -1.966210
  C      2.757620    7.090630   -2.135070
  C      1.451670    6.801310   -1.633760
  N      1.218240    5.718410   -0.944930
  C      0.294930    7.700410   -1.910470
  C      3.031540    8.343520   -2.897840
  C      0.730210    3.419850    0.675440
  N      0.417060    2.140190    0.902910
  C     -0.760880    1.905660    1.455650
  C     -1.642400    2.916050    1.792330
  C     -1.214040    4.231130    1.547230
  N     -0.021360    4.457820    0.993190
  C     -2.013430    5.368280    1.917940
  C     -1.666880    6.648610    1.629080
  C     -2.381870    7.755530    2.126980
  C     -2.057870    9.076640    1.964470
  C     -2.643540   10.151110    2.687890
  C     -2.056650   11.355630    2.470370
  C     -1.011620   11.325590    1.512500
  S     -0.796160    9.694150    0.906640
  C     -0.242720   12.397030    1.110210
  C     -0.178040   13.653270    1.768580
  C      0.734260   14.502300    1.235370
  C      1.402670   13.987500    0.088540
  S      0.822820   12.378630   -0.289460
  C      2.382060   14.599780   -0.630290
  C      2.913150   14.019930   -1.825570
  N      3.994680   14.583700   -2.379580
  C      4.453470   14.021740   -3.480640
  C      3.834480   12.938620   -4.085290
  C      2.674920   12.445400   -3.469840
  N      2.257830   12.970080   -2.320810
  C      1.876800   11.406030   -4.087500
  C      0.629190   11.140110   -3.671360
  C     -0.281640   10.154270   -4.200110
  C     -0.010420    9.332950   -5.280160
  C     -0.914990    8.355170   -5.706030
  C     -2.105380    8.162270   -5.054570
  C     -2.433240    8.979500   -3.956980
  C     -1.537550    9.998140   -3.542890
  N     -1.880100   10.830200   -2.539550
  C     -3.027360   10.654930   -1.940390
  C     -3.888920    9.574520   -2.300170
  N     -3.594290    8.781490   -3.294930
  C     -5.159210    9.315610   -1.560600
  C     -3.413640   11.639450   -0.887630
  H      5.520560    4.408750   -1.516860
  H      5.111700    2.312920   -0.247720
  H      2.894210    1.883250    0.746930
  H      0.500540    8.715460   -1.575090
  H     -0.586310    7.319380   -1.402180
  H      0.099720    7.730800   -2.981080
  H      4.072280    8.356280   -3.209130
  H      2.825550    9.216860   -2.280410
  H      2.385690    8.396510   -3.772560
  H     -0.997370    0.862610    1.631410
  H     -2.605400    2.708590    2.231360
  H     -2.916930    5.161560    2.477770
  H     -0.772840    6.816980    1.044220
  H     -3.224950    7.546940    2.776250
  H     -3.455110    9.983010    3.374460
  H     -2.359910   12.269000    2.949690
  H     -0.766590   13.873370    2.641620
  H      0.956220   15.484630    1.613320
  H      2.779980   15.552550   -0.319930
  H      5.344160   14.471700   -3.902360
  H      4.206770   12.512430   -5.002670
  H      2.330990   10.902980   -4.929750
  H      0.242280   11.702030   -2.833470
  H      0.921990    9.441850   -5.813750
  H     -0.657890    7.737130   -6.554020
  H     -2.805000    7.398680   -5.355310
  H     -4.947280    9.113390   -0.511290
  H     -5.660780    8.457300   -1.998020
  H     -5.815250   10.183250   -1.612290
  H     -2.606070   12.352430   -0.748170
  H     -3.622290   11.135960    0.054660
  H     -4.314370   12.173620   -1.188660

 Total Charge           Charge          ....    0
 Multiplicity           Mult            ....    1
 Number of Electrons    NEL             ....  372
 Basis Dimension        Dim             ....  896

ORBITAL ENERGIES
----------------

  NO   OCC          E(Eh)            E(eV)
   0   2.0000     -88.945238     -2420.3230
   1   2.0000     -88.937852     -2420.1220
   2   2.0000     -14.406766      -392.0280
   3   2.0000     -14.406322      -392.0159
   4   2.0000     -14.398530      -391.8039
   5   2.0000     -14.393929      -391.6787
   6   2.0000     -14.392041      -391.6273
   7   2.0000     -14.388228      -391.5236
   8   2.0000     -14.386787      -391.4844
   9   2.0000     -14.382561      -391.3694
  10   2.0000     -10.330739      -281.1137
  11   2.0000     -10.322799      -280.8976
  12   2.0000     -10.319403      -280.8052
  13   2.0000     -10.312300      -280.6119
  14   2.0000     -10.311611      -280.5932
  15   2.0000     -10.309841      -280.5450
  16   2.0000     -10.309289      -280.5300
  17   2.0000     -10.308831      -280.5176
  18   2.0000     -10.308205      -280.5005
  19   2.0000     -10.303063      -280.3606
  20   2.0000     -10.302609      -280.3482
  21   2.0000     -10.302478      -280.3447
  22   2.0000     -10.301073      -280.3064
  23   2.0000     -10.300006      -280.2774
  24   2.0000     -10.296829      -280.1910
  25   2.0000     -10.295350      -280.1507
  26   2.0000     -10.289130      -279.9815
  27   2.0000     -10.287955      -279.9495
  28   2.0000     -10.285953      -279.8950
  29   2.0000     -10.285756      -279.8896
  30   2.0000     -10.284982      -279.8686
  31   2.0000     -10.280310      -279.7415
  32   2.0000     -10.278962      -279.7048
  33   2.0000     -10.276749      -279.6446
  34   2.0000     -10.276318      -279.6328
  35   2.0000     -10.275468      -279.6097
  36   2.0000     -10.271924      -279.5133
  37   2.0000     -10.271676      -279.5065
  38   2.0000     -10.271353      -279.4977
  39   2.0000     -10.268235      -279.4129
  40   2.0000     -10.267419      -279.3907
  41   2.0000     -10.267046      -279.3805
  42   2.0000     -10.265003      -279.3249
  43   2.0000     -10.263306      -279.2788
  44   2.0000     -10.262551      -279.2582
  45   2.0000     -10.259650      -279.1793
  46   2.0000     -10.259120      -279.1649
  47   2.0000     -10.258937      -279.1599
  48   2.0000     -10.258048      -279.1357
  49   2.0000     -10.257194      -279.1124
  50   2.0000     -10.248962      -278.8884
  51   2.0000     -10.244176      -278.7582
  52   2.0000      -8.040671      -218.7978
  53   2.0000      -8.031288      -218.5424
  54   2.0000      -6.010414      -163.5517
  55   2.0000      -6.006409      -163.4427
  56   2.0000      -6.001625      -163.3125
  57   2.0000      -6.001321      -163.3043
  58   2.0000      -5.996795      -163.1811
  59   2.0000      -5.992362      -163.0605
  60   2.0000      -1.071498       -29.1570
  61   2.0000      -1.067263       -29.0417
  62   2.0000      -1.063536       -28.9403
  63   2.0000      -1.050403       -28.5829
  64   2.0000      -0.991368       -26.9765
  65   2.0000      -0.990403       -26.9502
  66   2.0000      -0.974893       -26.5282
  67   2.0000      -0.972868       -26.4731
  68   2.0000      -0.966961       -26.3124
  69   2.0000      -0.960558       -26.1381
  70   2.0000      -0.948054       -25.7979
  71   2.0000      -0.931823       -25.3562
  72   2.0000      -0.907959       -24.7068
  73   2.0000      -0.898935       -24.4613
  74   2.0000      -0.881722       -23.9929
  75   2.0000      -0.876862       -23.8606
  76   2.0000      -0.871674       -23.7195
  77   2.0000      -0.860559       -23.4170
  78   2.0000      -0.856489       -23.3063
  79   2.0000      -0.839930       -22.8556
  80   2.0000      -0.833957       -22.6931
  81   2.0000      -0.825293       -22.4574
  82   2.0000      -0.823170       -22.3996
  83   2.0000      -0.815467       -22.1900
  84   2.0000      -0.798401       -21.7256
  85   2.0000      -0.795356       -21.6427
  86   2.0000      -0.789755       -21.4903
  87   2.0000      -0.785238       -21.3674
  88   2.0000      -0.779438       -21.2096
  89   2.0000      -0.752506       -20.4767
  90   2.0000      -0.742119       -20.1941
  91   2.0000      -0.729521       -19.8513
  92   2.0000      -0.722394       -19.6573
  93   2.0000      -0.708489       -19.2790
  94   2.0000      -0.707263       -19.2456
  95   2.0000      -0.699764       -19.0415
  96   2.0000      -0.692744       -18.8505
  97   2.0000      -0.691871       -18.8268
  98   2.0000      -0.684525       -18.6269
  99   2.0000      -0.671351       -18.2684
 100   2.0000      -0.662883       -18.0380
 101   2.0000      -0.648539       -17.6476
 102   2.0000      -0.644690       -17.5429
 103   2.0000      -0.634454       -17.2644
 104   2.0000      -0.624737       -17.0000
 105   2.0000      -0.619220       -16.8498
 106   2.0000      -0.618165       -16.8211
 107   2.0000      -0.610938       -16.6245
 108   2.0000      -0.605196       -16.4682
 109   2.0000      -0.598966       -16.2987
 110   2.0000      -0.590220       -16.0607
 111   2.0000      -0.583365       -15.8742
 112   2.0000      -0.582379       -15.8473
 113   2.0000      -0.572985       -15.5917
 114   2.0000      -0.567483       -15.4420
 115   2.0000      -0.559749       -15.2315
 116   2.0000      -0.553030       -15.0487
 117   2.0000      -0.546474       -14.8703
 118   2.0000      -0.545898       -14.8546
 119   2.0000      -0.541118       -14.7246
 120   2.0000      -0.531811       -14.4713
 121   2.0000      -0.529132       -14.3984
 122   2.0000      -0.526423       -14.3247
 123   2.0000      -0.522590       -14.2204
 124   2.0000      -0.522144       -14.2083
 125   2.0000      -0.514439       -13.9986
 126   2.0000      -0.513374       -13.9696
 127   2.0000      -0.505211       -13.7475
 128   2.0000      -0.503411       -13.6985
 129   2.0000      -0.502540       -13.6748
 130   2.0000      -0.499584       -13.5944
 131   2.0000      -0.494346       -13.4518
 132   2.0000      -0.492431       -13.3997
 133   2.0000      -0.490434       -13.3454
 134   2.0000      -0.486467       -13.2375
 135   2.0000      -0.481681       -13.1072
 136   2.0000      -0.479691       -13.0530
 137   2.0000      -0.477399       -12.9907
 138   2.0000      -0.476433       -12.9644
 139   2.0000      -0.473559       -12.8862
 140   2.0000      -0.472074       -12.8458
 141   2.0000      -0.470379       -12.7997
 142   2.0000      -0.468787       -12.7563
 143   2.0000      -0.468084       -12.7372
 144   2.0000      -0.465672       -12.6716
 145   2.0000      -0.462411       -12.5828
 146   2.0000      -0.460069       -12.5191
 147   2.0000      -0.457819       -12.4579
 148   2.0000      -0.455785       -12.4025
 149   2.0000      -0.454296       -12.3620
 150   2.0000      -0.449638       -12.2353
 151   2.0000      -0.442156       -12.0317
 152   2.0000      -0.435656       -11.8548
 153   2.0000      -0.429898       -11.6981
 154   2.0000      -0.425879       -11.5888
 155   2.0000      -0.425394       -11.5756
 156   2.0000      -0.423618       -11.5272
 157   2.0000      -0.418345       -11.3838
 158   2.0000      -0.416086       -11.3223
 159   2.0000      -0.413016       -11.2387
 160   2.0000      -0.407080       -11.0772
 161   2.0000      -0.404688       -11.0121
 162   2.0000      -0.398506       -10.8439
 163   2.0000      -0.397067       -10.8047
 164   2.0000      -0.389205       -10.5908
 165   2.0000      -0.386540       -10.5183
 166   2.0000      -0.370032       -10.0691
 167   2.0000      -0.366019        -9.9599
 168   2.0000      -0.365277        -9.9397
 169   2.0000      -0.356314        -9.6958
 170   2.0000      -0.351957        -9.5772
 171   2.0000      -0.343585        -9.3494
 172   2.0000      -0.342302        -9.3145
 173   2.0000      -0.337247        -9.1770
 174   2.0000      -0.324093        -8.8190
 175   2.0000      -0.321697        -8.7538
 176   2.0000      -0.308866        -8.4047
 177   2.0000      -0.308148        -8.3851
 178   2.0000      -0.306928        -8.3519
 179   2.0000      -0.304850        -8.2954
 180   2.0000      -0.292231        -7.9520
 181   2.0000      -0.286361        -7.7923
 182   2.0000      -0.277565        -7.5529
 183   2.0000      -0.275125        -7.4865
 184   2.0000      -0.270792        -7.3686
 185   2.0000      -0.214772        -5.8443
 186   0.0000      -0.078427        -2.1341
 187   0.0000      -0.047008        -1.2792
 188   0.0000      -0.023597        -0.6421
 189   0.0000      -0.017976        -0.4891
 190   0.0000      -0.006067        -0.1651

MULLIKEN ATOMIC CHARGES
-----------------------
   0 C :    0.004996
   1 C :    0.038569
   2 C :   -0.010183
   3 C :    0.096912
   4 C :   -0.030781
   5 C :   -0.023408
   6 N :    0.004063
   7 C :   -0.191172
   8 C :   -0.179528
   9 N :    0.045474
  10 C :    0.126121
  11 C :    0.142594
  12 C :   -0.116911
  13 N :   -0.079334
  14 C :    0.077330
  15 C :   -0.044638
  16 C :    0.053998
  17 N :   -0.016981
  18 C :   -0.028807
  19 C :    0.047593
  20 C :   -0.026151
  21 C :   -0.012601
  22 C :    0.029316
  23 C :    0.029216
  24 C :   -0.076965
  25 S :    0.100337
  26 C :   -0.048449
  27 C :    0.032006
  28 C :    0.040532
  29 C :    0.011769
  30 S :    0.138227
  31 C :   -0.010369
  32 C :   -0.015308
  33 N :   -0.082108
  34 C :    0.079429
  35 C :   -0.056421
  36 C :    0.064138
  37 N :   -0.129098
  38 C :    0.007411
  39 C :    0.008048
  40 C :    0.075079
  41 C :   -0.049979
  42 C :    0.045443
  43 C :    0.000217
  44 C :   -0.010333
  45 C :   -0.025645
  46 N :    0.009507
  47 C :   -0.174256
  48 C :   -0.184005
  49 N :    0.012120
  50 C :    0.127593
  51 C :    0.141902
  52 H :   -0.034187
  53 H :   -0.014503
  54 H :   -0.015708
  55 H :    0.029383
  56 H :    0.015075
  57 H :    0.029102
  58 H :    0.013388
  59 H :    0.036363
  60 H :    0.004935
  61 H :   -0.003220
  62 H :   -0.016692
  63 H :   -0.028942
  64 H :    0.030744
  65 H :   -0.017088
  66 H :   -0.011851
  67 H :   -0.012615
  68 H :   -0.017072
  69 H :   -0.012717
  70 H :   -0.016233
  71 H :    0.001693
  72 H :   -0.013311
  73 H :   -0.026255
  74 H :    0.030981
  75 H :   -0.021158
  76 H :   -0.011569
  77 H :   -0.026817
  78 H :    0.027099
  79 H :    0.024850
  80 H :    0.020785
  81 H :    0.029428
  82 H :    0.017830
  83 H :    0.021775
Sum of atomic charges:   -0.0000000

LOEWDIN ATOMIC CHARGES
----------------------
   0 C :   -0.010506
   1 C :   -0.026418
   2 C :    0.004828
   3 C :   -0.038989
   4 C :   -0.003748
   5 C :   -0.019075
   6 N :   -0.054135
   7 C :   -0.005170
   8 C :   -0.002648
   9 N :   -0.034051
  10 C :   -0.061109
  11 C :   -0.056373
  12 C :    0.039030
  13 N :   -0.096715
  14 C :    0.041673
  15 C :   -0.071528
  16 C :    0.029656
  17 N :   -0.065327
  18 C :   -0.042168
  19 C :    0.009182
  20 C :   -0.061781
  21 C :   -0.143194
  22 C :   -0.038556
  23 C :   -0.029966
  24 C :   -0.176156
  25 S :    0.393992
  26 C :   -0.186677
  27 C :   -0.026496
  28 C :   -0.032291
  29 C :   -0.118879
  30 S :    0.429679
  31 C :   -0.074051
  32 C :    0.026050
  33 N :   -0.100392
  34 C :    0.048384
  35 C :   -0.077293
  36 C :    0.041929
  37 N :   -0.108992
  38 C :   -0.042753
  39 C :    0.026271
  40 C :   -0.032390
  41 C :   -0.012865
  42 C :   -0.023156
  43 C :   -0.009660
  44 C :   -0.017521
  45 C :   -0.005216
  46 N :   -0.043538
  47 C :    0.002729
  48 C :   -0.002719
  49 N :   -0.047763
  50 C :   -0.053659
  51 C :   -0.056453
  52 H :    0.030917
  53 H :    0.028671
  54 H :    0.031017
  55 H :    0.028738
  56 H :    0.032700
  57 H :    0.039055
  58 H :    0.034076
  59 H :    0.039238
  60 H :    0.032207
  61 H :    0.022586
  62 H :    0.028678
  63 H :    0.023467
  64 H :    0.035886
  65 H :    0.030804
  66 H :    0.033015
  67 H :    0.031659
  68 H :    0.028978
  69 H :    0.033619
  70 H :    0.036160
  71 H :    0.024534
  72 H :    0.030274
  73 H :    0.021029
  74 H :    0.027069
  75 H :    0.026788
  76 H :    0.031526
  77 H :    0.034440
  78 H :    0.037791
  79 H :    0.037883
  80 H :    0.035864
  81 H :    0.038277
  82 H :    0.034052
  83 H :    0.035972

  Mayer bond orders larger than 0.100000
B(  0-C ,  1-C ) :   1.4320 B(  0-C ,  3-C ) :   0.1090 B(  0-C ,  5-C ) :   1.2625
B(  0-C , 52-H ) :   1.0070 B(  1-C ,  2-C ) :   1.2278 B(  1-C , 53-H ) :   0.9898
B(  2-C ,  3-C ) :   1.5156 B(  2-C , 54-H ) :   0.9942 B(  3-C ,  4-C ) :   1.2225
B(  3-C , 12-C ) :   0.9163 B(  4-C ,  5-C ) :   1.2645 B(  4-C ,  9-N ) :   1.4543
B(  5-C ,  6-N ) :   1.3820 B(  6-N ,  7-C ) :   1.7314 B(  7-C ,  8-C ) :   1.1554
B(  7-C , 11-C ) :   1.0947 B(  8-C ,  9-N ) :   1.7053 B(  8-C , 10-C ) :   1.0891
B( 10-C , 55-H ) :   0.9320 B( 10-C , 56-H ) :   0.9351 B( 10-C , 57-H ) :   0.9363
B( 11-C , 58-H ) :   0.9324 B( 11-C , 59-H ) :   0.9395 B( 11-C , 60-H ) :   0.9366
B( 12-C , 13-N ) :   1.5565 B( 12-C , 17-N ) :   1.5857 B( 13-N , 14-C ) :   1.5421
B( 14-C , 15-C ) :   1.3811 B( 14-C , 61-H ) :   0.9794 B( 15-C , 16-C ) :   1.3132
B( 15-C , 62-H ) :   0.9742 B( 16-C , 17-N ) :   1.5145 B( 16-C , 18-C ) :   1.0710
B( 18-C , 19-C ) :   1.6708 B( 18-C , 63-H ) :   0.9796 B( 19-C , 20-C ) :   1.1276
B( 19-C , 64-H ) :   0.9651 B( 20-C , 21-C ) :   1.5699 B( 20-C , 65-H ) :   0.9774
B( 21-C , 22-C ) :   1.1253 B( 21-C , 25-S ) :   1.0373 B( 22-C , 23-C ) :   1.5926
B( 22-C , 66-H ) :   1.0010 B( 23-C , 24-C ) :   1.1723 B( 23-C , 67-H ) :   0.9952
B( 24-C , 25-S ) :   1.0425 B( 24-C , 26-C ) :   1.5292 B( 26-C , 27-C ) :   1.1636
B( 26-C , 30-S ) :   1.0069 B( 27-C , 28-C ) :   1.6138 B( 27-C , 68-H ) :   0.9947
B( 28-C , 29-C ) :   1.1183 B( 28-C , 69-H ) :   1.0000 B( 29-C , 30-S ) :   1.0547
B( 29-C , 31-C ) :   1.5853 B( 31-C , 32-C ) :   1.0809 B( 31-C , 70-H ) :   0.9791
B( 32-C , 33-N ) :   1.4901 B( 32-C , 37-N ) :   1.4566 B( 33-N , 34-C ) :   1.5595
B( 34-C , 35-C ) :   1.3624 B( 34-C , 71-H ) :   0.9784 B( 35-C , 36-C ) :   1.3308
B( 35-C , 72-H ) :   0.9755 B( 36-C , 37-N ) :   1.5034 B( 36-C , 38-C ) :   1.0720
B( 38-C , 39-C ) :   1.6865 B( 38-C , 73-H ) :   0.9655 B( 39-C , 40-C ) :   1.0803
B( 39-C , 74-H ) :   0.9755 B( 40-C , 41-C ) :   1.4373 B( 40-C , 43-C ) :   0.1080
B( 40-C , 45-C ) :   1.1897 B( 41-C , 42-C ) :   1.2616 B( 41-C , 75-H ) :   0.9913
B( 42-C , 43-C ) :   1.4156 B( 42-C , 76-H ) :   0.9889 B( 43-C , 44-C ) :   1.2609
B( 43-C , 77-H ) :   1.0083 B( 44-C , 45-C ) :   1.2577 B( 44-C , 49-N ) :   1.3907
B( 45-C , 46-N ) :   1.4417 B( 46-N , 47-C ) :   1.7056 B( 47-C , 48-C ) :   1.1555
B( 47-C , 51-C ) :   1.0975 B( 48-C , 49-N ) :   1.7282 B( 48-C , 50-C ) :   1.0941
B( 50-C , 78-H ) :   0.9434 B( 50-C , 79-H ) :   0.9408 B( 50-C , 80-H ) :   0.9383
B( 51-C , 81-H ) :   0.9341 B( 51-C , 82-H ) :   0.9295 B( 51-C , 83-H ) :   0.9379

-----------------------------------------------------------------------------
         ABSORPTION SPECTRUM VIA TRANSITION ELECTRIC DIPOLE MOMENTS
-----------------------------------------------------------------------------
State   Energy  Wavelength   fosc         T2         TX        TY        TZ
        (cm-1)    (nm)                  (au**2)     (au)      (au)      (au)
-----------------------------------------------------------------------------
   0   15963.1    626.4   1.081847332  22.31128  -1.69269  -4.11093   1.59573
   1   20548.2    486.7   0.016087816   0.25775   0.36811   0.34963  -0.00094
   2   25544.9    391.5   0.024247833   0.31250  -0.28447   0.35486   0.32503
   3   25836.1    387.1   0.012126025   0.15451  -0.18629   0.02552   0.34519
   4   26976.1    370.7   0.079298490   0.96775  -0.20026   0.86756   0.41831
   5   27683.9    361.2   0.006094484   0.07247  -0.17955   0.14438   0.13925
   6   28618.3    349.4   0.012116173   0.13938  -0.32806  -0.17672   0.02294
   7   29001.2    344.8   0.116898083   1.32699   0.24218  -0.97278  -0.56748
   8   29085.8    343.8   0.082172398   0.93008  -0.19388   0.83710   0.43790
   9   29355.0    340.7   0.004266979   0.04785  -0.10059  -0.19237   0.02699
  10   30216.0    331.0   0.363802430   3.96373  -0.23789   1.64215   1.10021
  11   31069.6    321.9   0.006411023   0.06793   0.07264   0.17778  -0.17621
  12   32129.4    311.2   0.510488459   5.23069   1.83883   1.34965   0.16686
  13   32393.2    308.7   0.103192916   1.04875   0.99261   0.24868   0.04046
  14   32910.4    303.9   0.034173654   0.34185   0.56262   0.10452  -0.11991
  15   33218.5    301.0   0.006892083   0.06830  -0.10272   0.09529  -0.22062
  16   33547.4    298.1   0.318620964   3.12673  -1.59554   0.16886   0.74327
  17   33834.7    295.6   0.022456231   0.21850  -0.10597   0.45353   0.03972
  18   34212.5    292.3   0.009004723   0.08665  -0.01644   0.28117   0.08555
  19   34498.6    289.9   0.072806669   0.69478  -0.65409  -0.20421   0.47459
  20   34627.8    288.8   0.001712792   0.01628   0.06607  -0.09388  -0.05572
  21   35088.8    285.0   0.004032940   0.03784   0.04297   0.11599   0.15013
  22   35585.9    281.0   0.013591623   0.12574  -0.12437   0.32761   0.05425
  23   35801.1    279.3   0.060591478   0.55717   0.67571   0.26417  -0.17551
  24   35821.2    279.2   0.012053517   0.11078   0.20317  -0.09896   0.24435
  25   36572.6    273.4   0.133875889   1.20510  -0.42123   0.62049   0.80166
  26   36844.7    271.4   0.003310818   0.02958   0.01506  -0.11376  -0.12812
  27   37352.7    267.7   0.204525670   1.80261   0.04190   1.25403  -0.47776
  28   37564.7    266.2   0.021859238   0.19157   0.27539  -0.33981   0.01623
  29   37640.0    265.7   0.002924025   0.02557  -0.04725  -0.07722  -0.13183
  30   38187.5    261.9   0.082447525   0.71077  -0.65754  -0.48182   0.21508
  31   38426.5    260.2   0.301056428   2.57924  -1.45903  -0.56056   0.36909
  32   38697.1    258.4   0.044695619   0.38024   0.41637   0.27205   0.36451
  33   38818.8    257.6   0.014248725   0.12084   0.14686   0.08045   0.30463
  34   39276.4    254.6   0.131984865   1.10629  -0.67957  -0.75970  -0.25948
  35   39837.2    251.0   0.011272704   0.09316   0.28193   0.07900  -0.08622
  36   40246.3    248.5   0.015110324   0.12360  -0.24076   0.23487   0.10234

FINAL SINGLE POINT ENERGY     -2851.258311480777

DIPOLE MOMENT
-------------
                                X             Y             Z
Electronic contribution:     13.23371      -0.05768       4.95007
Nuclear contribution   :    -14.88339       0.94692      -4.55140
                        -----------------------------------------
Total Dipole Moment    :     -1.64967       0.88925       0.39866
                        -----------------------------------------
Magnitude (a.u.)       :      1.91602
Magnitude (Debye)      :      4.87012

Rotational constants in cm-1:     0.002258     0.001332     0.001164
Rotational constants in MHz :    67.708087    39.940438    34.898820

                             ****ORCA TERMINATED NORMALLY****
TOTAL RUN TIME: 0 days 0 hours 11 minutes 6 seconds 636 msec
