                         Program Version 4.2.0 -  RELEASE  -
|  1> # ORCA input file
|  2> # SCF done       -111.953277648433          0.000768147971
|  3> ! CAM-B3LYP def2-SVP def2/J RIJCOSX Grid4 TightSCF
|  4> %maxcore 5000
|  5> %tddft
|  6>     Mode sTDDFT
|  7>     Ethresh 5.0
|  8>     maxcore 5000
|  9> end
| 10>
| 11> %pal
| 12>   nprocs 6
| 13>   end
| 14> * xyz 0 1
| 15>    C       -0.03133        -2.53501         1.27165
| 16>    C       -0.02260        -1.67419         0.00507
| 17>    C       -0.01611        -2.55395        -1.24762
| 18>    C        1.13916        -0.70760         0.00900
| 19>    C        2.52780        -0.79902         0.01751
| 20>    C        3.13950         0.43977         0.02147
| 21>    C        4.54227         0.73462         0.03102
| 22>    C        5.03659         2.04816        -0.02079
| 23>    N        6.31472         2.33550        -0.01047
| 24>    C        7.18060         1.31733         0.05217
| 25>    C        8.59873         1.64818         0.06441
| 26>    C        9.01388         2.96271        -0.01171
| 27>    C       10.36856         3.32864        -0.00373
| 28>    C       11.36596         2.39415         0.08151
| 29>    C       10.99443         1.04266         0.16222
| 30>    N       11.80932        -0.01036         0.25255
| 31>    S       10.91290        -1.34212         0.32029
| 32>    N        9.46107        -0.66566         0.23980
| 33>    C        9.60471         0.65384         0.15437
| 34>    N        6.82192         0.03690         0.10430
| 35>    C        5.54310        -0.24938         0.09509
| 36>    S        1.96544         1.74623         0.01457
| 37>    C        0.68617         0.60775         0.00823
| 38>    C       -0.73130         0.61350         0.00051
| 39>    S       -2.00601         1.75871        -0.00383
| 40>    C       -3.16204         0.45574        -0.01721
| 41>    C       -4.55860         0.77115        -0.02558
| 42>    N       -4.88857         2.06616         0.00156
| 43>    C       -6.16563         2.36753        -0.00591
| 44>    C       -7.17407         1.39735        -0.05904
| 45>    C       -8.58788         1.74405        -0.09045
| 46>    C       -9.04275         2.90504        -0.68114
| 47>    C      -10.40247         3.25783        -0.71373
| 48>    C      -11.36910         2.46728        -0.15470
| 49>    C      -10.95986         1.27256         0.45800
| 50>    N      -11.73351         0.36720         1.06009
| 51>    S      -10.80526        -0.81997         1.61103
| 52>    N       -9.38109        -0.26006         1.11909
| 53>    C       -9.56850         0.90011         0.48913
| 54>    C       -6.71179         0.07445        -0.07323
| 55>    N       -5.43612        -0.23748        -0.05354
| 56>    C       -2.57059        -0.79319        -0.01709
| 57>    C       -1.18410        -0.70637        -0.00562
| 58>    H        0.85066        -3.17031         1.29902
| 59>    H       -0.91840        -3.16301         1.28895
| 60>    H       -0.03415        -1.90305         2.15678
| 61>    H        0.86538        -3.19056        -1.25403
| 62>    H       -0.00730        -1.93616        -2.14264
| 63>    H       -0.90346        -3.18160        -1.26600
| 64>    H        3.07644        -1.72312         0.01753
| 65>    H        4.35775         2.89216        -0.07326
| 66>    H        8.25445         3.72591        -0.07981
| 67>    H       10.62187         4.37645        -0.06665
| 68>    H       12.41032         2.66158         0.08880
| 69>    H        5.30099        -1.30333         0.14249
| 70>    H       -6.39794         3.42362         0.05606
| 71>    H       -8.33250         3.56433        -1.15733
| 72>    H      -10.68141         4.18195        -1.19767
| 73>    H      -12.41405         2.72957        -0.17292
| 74>    H       -7.40417        -0.75562        -0.10676
| 75>    H       -3.15384        -1.69510        -0.02409
| 76> *
| 77>
| 78>                          ****END OF INPUT****

CARTESIAN COORDINATES (ANGSTROEM)
---------------------------------
  C     -0.031330   -2.535010    1.271650
  C     -0.022600   -1.674190    0.005070
  C     -0.016110   -2.553950   -1.247620
  C      1.139160   -0.707600    0.009000
  C      2.527800   -0.799020    0.017510
  C      3.139500    0.439770    0.021470
  C      4.542270    0.734620    0.031020
  C      5.036590    2.048160   -0.020790
  N      6.314720    2.335500   -0.010470
  C      7.180600    1.317330    0.052170
  C      8.598730    1.648180    0.064410
  C      9.013880    2.962710   -0.011710
  C     10.368560    3.328640   -0.003730
  C     11.365960    2.394150    0.081510
  C     10.994430    1.042660    0.162220
  N     11.809320   -0.010360    0.252550
  S     10.912900   -1.342120    0.320290
  N      9.461070   -0.665660    0.239800
  C      9.604710    0.653840    0.154370
  N      6.821920    0.036900    0.104300
  C      5.543100   -0.249380    0.095090
  S      1.965440    1.746230    0.014570
  C      0.686170    0.607750    0.008230
  C     -0.731300    0.613500    0.000510
  S     -2.006010    1.758710   -0.003830
  C     -3.162040    0.455740   -0.017210
  C     -4.558600    0.771150   -0.025580
  N     -4.888570    2.066160    0.001560
  C     -6.165630    2.367530   -0.005910
  C     -7.174070    1.397350   -0.059040
  C     -8.587880    1.744050   -0.090450
  C     -9.042750    2.905040   -0.681140
  C    -10.402470    3.257830   -0.713730
  C    -11.369100    2.467280   -0.154700
  C    -10.959860    1.272560    0.458000
  N    -11.733510    0.367200    1.060090
  S    -10.805260   -0.819970    1.611030
  N     -9.381090   -0.260060    1.119090
  C     -9.568500    0.900110    0.489130
  C     -6.711790    0.074450   -0.073230
  N     -5.436120   -0.237480   -0.053540
  C     -2.570590   -0.793190   -0.017090
  C     -1.184100   -0.706370   -0.005620
  H      0.850660   -3.170310    1.299020
  H     -0.918400   -3.163010    1.288950
  H     -0.034150   -1.903050    2.156780
  H      0.865380   -3.190560   -1.254030
  H     -0.007300   -1.936160   -2.142640
  H     -0.903460   -3.181600   -1.266000
  H      3.076440   -1.723120    0.017530
  H      4.357750    2.892160   -0.073260
  H      8.254450    3.725910   -0.079810
  H     10.621870    4.376450   -0.066650
  H     12.410320    2.661580    0.088800
  H      5.300990   -1.303330    0.142490
  H     -6.397940    3.423620    0.056060
  H     -8.332500    3.564330   -1.157330
  H    -10.681410    4.181950   -1.197670
  H    -12.414050    2.729570   -0.172920
  H     -7.404170   -0.755620   -0.106760
  H     -3.153840   -1.695100   -0.024090

 Total Charge           Charge          ....    0
 Multiplicity           Mult            ....    1
 Number of Electrons    NEL             ....  324
 Basis Dimension        Dim             ....  708

ORBITAL ENERGIES
----------------

  NO   OCC          E(Eh)            E(eV)
   0   2.0000     -89.022392     -2422.4224
   1   2.0000     -89.004026     -2421.9227
   2   2.0000     -88.961388     -2420.7624
   3   2.0000     -88.954635     -2420.5787
   4   2.0000     -14.436989      -392.8504
   5   2.0000     -14.435173      -392.8010
   6   2.0000     -14.418652      -392.3515
   7   2.0000     -14.415087      -392.2544
   8   2.0000     -14.406426      -392.0188
   9   2.0000     -14.406033      -392.0081
  10   2.0000     -14.403923      -391.9507
  11   2.0000     -14.398948      -391.8153
  12   2.0000     -10.341795      -281.4146
  13   2.0000     -10.334845      -281.2254
  14   2.0000     -10.322420      -280.8873
  15   2.0000     -10.319721      -280.8139
  16   2.0000     -10.319056      -280.7958
  17   2.0000     -10.316095      -280.7152
  18   2.0000     -10.314213      -280.6640
  19   2.0000     -10.313440      -280.6430
  20   2.0000     -10.305314      -280.4219
  21   2.0000     -10.304600      -280.4024
  22   2.0000     -10.304265      -280.3933
  23   2.0000     -10.299740      -280.2702
  24   2.0000     -10.299397      -280.2608
  25   2.0000     -10.296735      -280.1884
  26   2.0000     -10.293587      -280.1027
  27   2.0000     -10.290305      -280.0134
  28   2.0000     -10.288524      -279.9650
  29   2.0000     -10.288197      -279.9561
  30   2.0000     -10.287974      -279.9500
  31   2.0000     -10.287805      -279.9454
  32   2.0000     -10.285451      -279.8813
  33   2.0000     -10.278398      -279.6894
  34   2.0000     -10.277760      -279.6721
  35   2.0000     -10.275662      -279.6150
  36   2.0000     -10.274413      -279.5810
  37   2.0000     -10.272626      -279.5324
  38   2.0000     -10.271778      -279.5093
  39   2.0000     -10.270935      -279.4863
  40   2.0000     -10.266562      -279.3674
  41   2.0000     -10.261609      -279.2326
  42   2.0000     -10.261492      -279.2294
  43   2.0000      -8.114357      -220.8029
  44   2.0000      -8.096308      -220.3117
  45   2.0000      -8.056046      -219.2162
  46   2.0000      -8.048915      -219.0221
  47   2.0000      -6.085504      -165.5950
  48   2.0000      -6.077750      -165.3840
  49   2.0000      -6.076858      -165.3597
  50   2.0000      -6.067430      -165.1032
  51   2.0000      -6.059609      -164.8903
  52   2.0000      -6.058885      -164.8706
  53   2.0000      -6.025371      -163.9587
  54   2.0000      -6.021317      -163.8484
  55   2.0000      -6.018221      -163.7641
  56   2.0000      -6.018219      -163.7641
  57   2.0000      -6.014056      -163.6508
  58   2.0000      -6.011239      -163.5741
  59   2.0000      -1.122172       -30.5359
  60   2.0000      -1.104982       -30.0681
  61   2.0000      -1.079994       -29.3881
  62   2.0000      -1.077609       -29.3232
  63   2.0000      -1.007497       -27.4154
  64   2.0000      -0.977833       -26.6082
  65   2.0000      -0.973691       -26.4955
  66   2.0000      -0.972218       -26.4554
  67   2.0000      -0.970645       -26.4126
  68   2.0000      -0.961862       -26.1736
  69   2.0000      -0.957684       -26.0599
  70   2.0000      -0.945371       -25.7248
  71   2.0000      -0.925434       -25.1823
  72   2.0000      -0.898104       -24.4386
  73   2.0000      -0.893325       -24.3086
  74   2.0000      -0.859975       -23.4011
  75   2.0000      -0.857136       -23.3238
  76   2.0000      -0.841766       -22.9056
  77   2.0000      -0.840524       -22.8718
  78   2.0000      -0.827475       -22.5167
  79   2.0000      -0.825224       -22.4555
  80   2.0000      -0.817758       -22.2523
  81   2.0000      -0.784060       -21.3354
  82   2.0000      -0.773037       -21.0354
  83   2.0000      -0.761174       -20.7126
  84   2.0000      -0.744678       -20.2637
  85   2.0000      -0.743341       -20.2273
  86   2.0000      -0.735605       -20.0168
  87   2.0000      -0.722931       -19.6719
  88   2.0000      -0.711950       -19.3731
  89   2.0000      -0.700993       -19.0750
  90   2.0000      -0.693469       -18.8702
  91   2.0000      -0.681965       -18.5572
  92   2.0000      -0.675190       -18.3728
  93   2.0000      -0.668894       -18.2015
  94   2.0000      -0.663466       -18.0538
  95   2.0000      -0.629901       -17.1405
  96   2.0000      -0.626756       -17.0549
  97   2.0000      -0.621817       -16.9205
  98   2.0000      -0.610333       -16.6080
  99   2.0000      -0.603354       -16.4181
 100   2.0000      -0.597075       -16.2472
 101   2.0000      -0.594194       -16.1688
 102   2.0000      -0.581611       -15.8264
 103   2.0000      -0.572331       -15.5739
 104   2.0000      -0.571644       -15.5552
 105   2.0000      -0.563695       -15.3389
 106   2.0000      -0.559555       -15.2263
 107   2.0000      -0.549359       -14.9488
 108   2.0000      -0.545131       -14.8338
 109   2.0000      -0.544603       -14.8194
 110   2.0000      -0.542064       -14.7503
 111   2.0000      -0.533219       -14.5096
 112   2.0000      -0.531348       -14.4587
 113   2.0000      -0.526712       -14.3326
 114   2.0000      -0.518792       -14.1170
 115   2.0000      -0.513618       -13.9763
 116   2.0000      -0.511203       -13.9105
 117   2.0000      -0.505822       -13.7641
 118   2.0000      -0.498867       -13.5749
 119   2.0000      -0.495857       -13.4929
 120   2.0000      -0.493528       -13.4296
 121   2.0000      -0.490862       -13.3570
 122   2.0000      -0.479061       -13.0359
 123   2.0000      -0.473189       -12.8761
 124   2.0000      -0.468190       -12.7401
 125   2.0000      -0.466805       -12.7024
 126   2.0000      -0.462063       -12.5734
 127   2.0000      -0.460671       -12.5355
 128   2.0000      -0.458997       -12.4899
 129   2.0000      -0.453276       -12.3343
 130   2.0000      -0.447227       -12.1697
 131   2.0000      -0.445138       -12.1128
 132   2.0000      -0.444905       -12.1065
 133   2.0000      -0.444122       -12.0852
 134   2.0000      -0.433592       -11.7986
 135   2.0000      -0.429965       -11.6999
 136   2.0000      -0.428446       -11.6586
 137   2.0000      -0.421376       -11.4662
 138   2.0000      -0.414237       -11.2720
 139   2.0000      -0.405902       -11.0451
 140   2.0000      -0.400885       -10.9086
 141   2.0000      -0.400697       -10.9035
 142   2.0000      -0.396807       -10.7977
 143   2.0000      -0.390964       -10.6387
 144   2.0000      -0.388968       -10.5844
 145   2.0000      -0.387490       -10.5441
 146   2.0000      -0.380938       -10.3659
 147   2.0000      -0.373077       -10.1519
 148   2.0000      -0.368255       -10.0207
 149   2.0000      -0.367287        -9.9944
 150   2.0000      -0.359916        -9.7938
 151   2.0000      -0.346267        -9.4224
 152   2.0000      -0.332652        -9.0519
 153   2.0000      -0.326422        -8.8824
 154   2.0000      -0.322410        -8.7732
 155   2.0000      -0.316716        -8.6183
 156   2.0000      -0.316402        -8.6097
 157   2.0000      -0.312684        -8.5086
 158   2.0000      -0.303204        -8.2506
 159   2.0000      -0.295166        -8.0319
 160   2.0000      -0.279007        -7.5922
 161   2.0000      -0.234901        -6.3920
 162   0.0000      -0.065661        -1.7867
 163   0.0000      -0.055735        -1.5166
 164   0.0000      -0.034766        -0.9460
 165   0.0000      -0.003512        -0.0956
 166   0.0000       0.005288         0.1439

MULLIKEN ATOMIC CHARGES
-----------------------
   0 C :    0.104269
   1 C :   -0.112656
   2 C :    0.103297
   3 C :    0.014208
   4 C :   -0.044486
   5 C :   -0.063822
   6 C :    0.044062
   7 C :    0.002274
   8 N :   -0.034481
   9 C :   -0.162576
  10 C :    0.111076
  11 C :   -0.020620
  12 C :    0.041250
  13 C :   -0.014618
  14 C :    0.041486
  15 N :   -0.272453
  16 S :    0.484392
  17 N :   -0.238019
  18 C :   -0.012550
  19 N :    0.005504
  20 C :    0.010644
  21 S :    0.132176
  22 C :   -0.083560
  23 C :   -0.082669
  24 S :    0.190437
  25 C :   -0.041657
  26 C :   -0.081339
  27 N :   -0.068873
  28 C :    0.028733
  29 C :   -0.039254
  30 C :    0.110947
  31 C :   -0.049356
  32 C :    0.042399
  33 C :   -0.023672
  34 C :    0.054518
  35 N :   -0.268677
  36 S :    0.502837
  37 N :   -0.287380
  38 C :   -0.008049
  39 C :    0.061084
  40 N :   -0.050734
  41 C :   -0.047308
  42 C :    0.011240
  43 H :    0.008857
  44 H :    0.013259
  45 H :    0.022021
  46 H :    0.009056
  47 H :    0.021765
  48 H :    0.013221
  49 H :   -0.023790
  50 H :    0.008804
  51 H :   -0.001638
  52 H :   -0.006977
  53 H :   -0.019084
  54 H :   -0.001087
  55 H :    0.002319
  56 H :   -0.013945
  57 H :   -0.003582
  58 H :   -0.016114
  59 H :    0.011846
  60 H :   -0.012950
Sum of atomic charges:   -0.0000000

LOEWDIN ATOMIC CHARGES
----------------------
   0 C :   -0.024468
   1 C :   -0.034853
   2 C :   -0.024908
   3 C :   -0.037421
   4 C :   -0.048835
   5 C :   -0.167534
   6 C :   -0.082028
   7 C :    0.033971
   8 N :   -0.072417
   9 C :    0.027703
  10 C :   -0.046462
  11 C :    0.010274
  12 C :   -0.020912
  13 C :   -0.011041
  14 C :   -0.057596
  15 N :   -0.293362
  16 S :    0.629567
  17 N :   -0.270084
  18 C :   -0.045819
  19 N :   -0.054116
  20 C :    0.048506
  21 S :    0.438642
  22 C :   -0.193468
  23 C :   -0.191803
  24 S :    0.470690
  25 C :   -0.193586
  26 C :    0.014502
  27 N :   -0.100160
  28 C :    0.053086
  29 C :   -0.076621
  30 C :   -0.021611
  31 C :   -0.014876
  32 C :   -0.013756
  33 C :   -0.019163
  34 C :   -0.052470
  35 N :   -0.286130
  36 S :    0.642089
  37 N :   -0.288763
  38 C :   -0.046269
  39 C :    0.064553
  40 N :   -0.086201
  41 C :   -0.025480
  42 C :   -0.043884
  43 H :    0.022453
  44 H :    0.024702
  45 H :    0.030371
  46 H :    0.022585
  47 H :    0.030208
  48 H :    0.024764
  49 H :    0.028943
  50 H :    0.016889
  51 H :    0.033737
  52 H :    0.032053
  53 H :    0.036338
  54 H :    0.022561
  55 H :    0.023977
  56 H :    0.031571
  57 H :    0.034087
  58 H :    0.038011
  59 H :    0.024651
  60 H :    0.034616

  Mayer bond orders larger than 0.100000
B(  0-C ,  1-C ) :   1.0331 B(  0-C , 43-H ) :   0.9647 B(  0-C , 44-H ) :   0.9649
B(  0-C , 45-H ) :   0.9644 B(  1-C ,  2-C ) :   1.0343 B(  1-C ,  3-C ) :   0.9437
B(  1-C , 42-C ) :   0.9418 B(  2-C , 46-H ) :   0.9648 B(  2-C , 47-H ) :   0.9646
B(  2-C , 48-H ) :   0.9648 B(  3-C ,  4-C ) :   1.2972 B(  3-C , 22-C ) :   1.5473
B(  4-C ,  5-C ) :   1.4905 B(  4-C , 49-H ) :   0.9985 B(  5-C ,  6-C ) :   1.0788
B(  5-C , 21-S ) :   1.1106 B(  6-C ,  7-C ) :   1.2976 B(  6-C , 20-C ) :   1.3108
B(  7-C ,  8-N ) :   1.5952 B(  7-C , 50-H ) :   0.9804 B(  8-N ,  9-C ) :   1.5798
B(  8-N , 10-C ) :  -0.1105 B(  9-C , 10-C ) :   0.9528 B(  9-C , 19-N ) :   1.5991
B( 10-C , 11-C ) :   1.5570 B( 10-C , 13-C ) :   0.1111 B( 10-C , 18-C ) :   1.1634
B( 11-C , 12-C ) :   1.1868 B( 11-C , 51-H ) :   0.9844 B( 12-C , 13-C ) :   1.4871
B( 12-C , 52-H ) :   0.9878 B( 13-C , 14-C ) :   1.2080 B( 13-C , 53-H ) :   1.0192
B( 14-C , 15-N ) :   1.5143 B( 14-C , 18-C ) :   1.1691 B( 15-N , 16-S ) :   1.2705
B( 15-N , 17-N ) :   0.1531 B( 16-S , 17-N ) :   1.2664 B( 17-N , 18-C ) :   1.5534
B( 19-N , 20-C ) :   1.5819 B( 20-C , 54-H ) :   0.9868 B( 21-S , 22-C ) :   1.0829
B( 22-C , 23-C ) :   1.1670 B( 23-C , 24-S ) :   1.0895 B( 23-C , 42-C ) :   1.5239
B( 24-S , 25-C ) :   1.1101 B( 25-C , 26-C ) :   1.0388 B( 25-C , 41-C ) :   1.4739
B( 26-C , 27-N ) :   1.5676 B( 26-C , 40-N ) :   1.5807 B( 27-N , 28-C ) :   1.5744
B( 28-C , 29-C ) :   1.3376 B( 28-C , 55-H ) :   0.9831 B( 29-C , 30-C ) :   0.9853
B( 29-C , 39-C ) :   1.3318 B( 30-C , 31-C ) :   1.5301 B( 30-C , 33-C ) :   0.1074
B( 30-C , 38-C ) :   1.2012 B( 31-C , 32-C ) :   1.2032 B( 31-C , 56-H ) :   0.9943
B( 32-C , 33-C ) :   1.4975 B( 32-C , 57-H ) :   0.9846 B( 33-C , 34-C ) :   1.2068
B( 33-C , 58-H ) :   1.0221 B( 34-C , 35-N ) :   1.5080 B( 34-C , 38-C ) :   1.1659
B( 35-N , 36-S ) :   1.2802 B( 35-N , 37-N ) :   0.1515 B( 36-S , 37-N ) :   1.2623
B( 37-N , 38-C ) :   1.5202 B( 39-C , 40-N ) :   1.5652 B( 39-C , 59-H ) :   0.9763
B( 41-C , 42-C ) :   1.2864 B( 41-C , 60-H ) :   1.0142

-----------------------------------------------------------------------------
         ABSORPTION SPECTRUM VIA TRANSITION ELECTRIC DIPOLE MOMENTS
-----------------------------------------------------------------------------
State   Energy  Wavelength   fosc         T2         TX        TY        TZ
        (cm-1)    (nm)                  (au**2)     (au)      (au)      (au)
-----------------------------------------------------------------------------
   0   22554.1    443.4   2.149862995  31.38063  -5.60155   0.05562  -0.01332
   1   26094.7    383.2   0.100814375   1.27188  -0.99629  -0.52690  -0.04066
   2   29346.1    340.8   0.002298604   0.02579   0.15907  -0.00813   0.02043
   3   29592.0    337.9   0.136960159   1.52369  -1.21568   0.21393  -0.00585
   4   32385.6    308.8   0.050871793   0.51713   0.67718  -0.23500  -0.05781
   5   33461.9    298.8   0.066387697   0.65315   0.78863   0.17664  -0.00304
   6   34397.7    290.7   0.158245698   1.51453   1.22999   0.02592   0.03147
   7   34764.4    287.7   0.017332041   0.16413  -0.37387  -0.15479   0.01986
   8   35035.7    285.4   0.010344101   0.09720   0.31105   0.00631   0.02009
   9   35610.3    280.8   0.053680046   0.49626  -0.17942   0.68061   0.02890
  10   37546.6    266.3   0.005032226   0.04412  -0.00176  -0.01915   0.20917
  11   38027.3    263.0   0.041919243   0.36291  -0.60070  -0.00183   0.04540
  12   38089.6    262.5   0.004598413   0.03974   0.01566  -0.01525  -0.19816
  13   39213.5    255.0   0.009151190   0.07683   0.04718  -0.27098  -0.03426
  14   39967.8    250.2   0.012253035   0.10093  -0.04626  -0.31116  -0.04433
  15   40134.8    249.2   0.019961943   0.16374   0.19442   0.35488   0.00221

FINAL SINGLE POINT ENERGY     -3220.357863310584

DIPOLE MOMENT
-------------
                                X             Y             Z
Electronic contribution:      2.78440       5.74765       4.64867
Nuclear contribution   :     -4.45448      -5.60818      -4.91878
                        -----------------------------------------
Total Dipole Moment    :     -1.67008       0.13947      -0.27011
                        -----------------------------------------
Magnitude (a.u.)       :      1.69752
Magnitude (Debye)      :      4.31475

Rotational constants in cm-1:     0.010394     0.000475     0.000458
Rotational constants in MHz :   311.592826    14.226363    13.717580

                             ****ORCA TERMINATED NORMALLY****
TOTAL RUN TIME: 0 days 0 hours 3 minutes 23 seconds 322 msec
