                         Program Version 4.2.0 -  RELEASE  -
|  1> # ORCA input file
|  2> # SCF done       -155.816317242865          0.000522932956
|  3> ! CAM-B3LYP def2-SVP def2/J RIJCOSX Grid4 TightSCF
|  4> %maxcore 5000
|  5> %tddft
|  6>     Mode sTDDFT
|  7>     Ethresh 5.0
|  8>     maxcore 5000
|  9> end
| 10>
| 11> %pal
| 12>   nprocs 6
| 13>   end
| 14> * xyz 0 1
| 15>    C       -0.24268        -0.36832        -5.38040
| 16>    C        0.42787         0.76300        -5.76424
| 17>    C        0.26375         1.98387        -5.09690
| 18>    C       -0.58018         2.13914        -4.01031
| 19>    C       -1.28931         0.97993        -3.58872
| 20>    C       -1.11160        -0.26998        -4.28294
| 21>    N       -1.85199        -1.24556        -3.75270
| 22>    S       -2.68118        -0.65175        -2.51422
| 23>    N       -2.15141         0.86543        -2.58060
| 24>    C       -0.74416         3.39556        -3.33876
| 25>    C       -1.56228         3.68237        -2.26948
| 26>    C       -1.47745         5.02021        -1.87565
| 27>    C       -0.57198         5.76813        -2.66250
| 28>    S        0.16151         4.81545        -3.87523
| 29>    C       -0.56080         7.09941        -2.20212
| 30>    C       -1.46172         7.19811        -1.12058
| 31>    C       -2.06427         5.88837        -0.88588
| 32>    C       -2.99526         5.57407         0.06617
| 33>    C       -3.51321         6.51451         0.97920
| 34>    N       -3.95879         7.25294         1.73672
| 35>    C       -3.52622         4.27794         0.21620
| 36>    N       -3.98276         3.23577         0.36752
| 37>    C       -1.54956         8.46702        -0.58509
| 38>    C       -0.72446         9.38785        -1.24071
| 39>    S        0.18245         8.60687        -2.54407
| 40>    C       -0.55508        10.75906        -1.01749
| 41>    C       -1.24000        11.53439        -0.10242
| 42>    C       -1.09117        12.92248         0.12446
| 43>    C       -1.92568        13.43845         1.08083
| 44>    C       -2.77641        12.48264         1.66009
| 45>    S       -2.48195        10.91158         0.95710
| 46>    C       -3.75990        12.55240         2.63868
| 47>    C       -4.26806        13.61126         3.41184
| 48>    C       -5.25734        13.22892         4.27738
| 49>    C       -5.57682        11.85162         4.23142
| 50>    S       -4.57386        11.06023         3.04081
| 51>    C       -6.51312        11.16678         4.97765
| 52>    C       -6.78367         9.79641         4.90105
| 53>    C       -7.72721         9.09678         5.66689
| 54>    C       -7.75356         7.74743         5.36538
| 55>    C       -6.82734         7.39204         4.35717
| 56>    S       -5.93027         8.72247         3.78920
| 57>    C       -6.92466         6.00641         4.12401
| 58>    C       -7.90792         5.46865         4.97949
| 59>    C       -8.46141         6.53956         5.78205
| 60>    C       -9.44103         6.44995         6.72950
| 61>    C      -10.06770         5.23108         7.06164
| 62>    N      -10.59250         4.25154         7.34588
| 63>    C       -9.89506         7.57801         7.44209
| 64>    N      -10.26762         8.49411         8.02392
| 65>    C       -8.06634         4.09004         4.81648
| 66>    C       -7.22331         3.57783         3.85227
| 67>    S       -6.20743         4.82300         3.12589
| 68>    C       -7.10461         2.21551         3.41529
| 69>    C       -6.24266         1.83908         2.39934
| 70>    C       -6.11663         0.51388         1.96152
| 71>    C       -6.84436        -0.50491         2.51742
| 72>    C       -7.73346        -0.18101         3.55430
| 73>    C       -7.87333         1.17816         4.01214
| 74>    N       -8.76084         1.27666         4.99976
| 75>    S       -9.35595        -0.18292         5.31760
| 76>    N       -8.52614        -1.01810         4.22701
| 77>    H       -0.12433        -1.31173        -5.88693
| 78>    H        1.10442         0.72404        -6.60474
| 79>    H        0.81935         2.84228        -5.44691
| 80>    H       -2.18632         2.93616        -1.81303
| 81>    H       -2.17629         8.71162         0.24933
| 82>    H        0.17303        11.26683        -1.63634
| 83>    H       -0.37324        13.50509        -0.42595
| 84>    H       -1.94437        14.47341         1.37307
| 85>    H       -3.90080        14.61777         3.31703
| 86>    H       -5.76475        13.89954         4.94859
| 87>    H       -7.09313        11.73427         5.69355
| 88>    H       -8.34562         9.58204         6.40047
| 89>    H       -8.75310         3.46851         5.36146
| 90>    H       -5.63713         2.59202         1.91564
| 91>    H       -5.42125         0.30867         1.16219
| 92>    H       -6.75611        -1.52763         2.18955
| 93> *
| 94>
| 95>                          ****END OF INPUT****

CARTESIAN COORDINATES (ANGSTROEM)
---------------------------------
  C     -0.242680   -0.368320   -5.380400
  C      0.427870    0.763000   -5.764240
  C      0.263750    1.983870   -5.096900
  C     -0.580180    2.139140   -4.010310
  C     -1.289310    0.979930   -3.588720
  C     -1.111600   -0.269980   -4.282940
  N     -1.851990   -1.245560   -3.752700
  S     -2.681180   -0.651750   -2.514220
  N     -2.151410    0.865430   -2.580600
  C     -0.744160    3.395560   -3.338760
  C     -1.562280    3.682370   -2.269480
  C     -1.477450    5.020210   -1.875650
  C     -0.571980    5.768130   -2.662500
  S      0.161510    4.815450   -3.875230
  C     -0.560800    7.099410   -2.202120
  C     -1.461720    7.198110   -1.120580
  C     -2.064270    5.888370   -0.885880
  C     -2.995260    5.574070    0.066170
  C     -3.513210    6.514510    0.979200
  N     -3.958790    7.252940    1.736720
  C     -3.526220    4.277940    0.216200
  N     -3.982760    3.235770    0.367520
  C     -1.549560    8.467020   -0.585090
  C     -0.724460    9.387850   -1.240710
  S      0.182450    8.606870   -2.544070
  C     -0.555080   10.759060   -1.017490
  C     -1.240000   11.534390   -0.102420
  C     -1.091170   12.922480    0.124460
  C     -1.925680   13.438450    1.080830
  C     -2.776410   12.482640    1.660090
  S     -2.481950   10.911580    0.957100
  C     -3.759900   12.552400    2.638680
  C     -4.268060   13.611260    3.411840
  C     -5.257340   13.228920    4.277380
  C     -5.576820   11.851620    4.231420
  S     -4.573860   11.060230    3.040810
  C     -6.513120   11.166780    4.977650
  C     -6.783670    9.796410    4.901050
  C     -7.727210    9.096780    5.666890
  C     -7.753560    7.747430    5.365380
  C     -6.827340    7.392040    4.357170
  S     -5.930270    8.722470    3.789200
  C     -6.924660    6.006410    4.124010
  C     -7.907920    5.468650    4.979490
  C     -8.461410    6.539560    5.782050
  C     -9.441030    6.449950    6.729500
  C    -10.067700    5.231080    7.061640
  N    -10.592500    4.251540    7.345880
  C     -9.895060    7.578010    7.442090
  N    -10.267620    8.494110    8.023920
  C     -8.066340    4.090040    4.816480
  C     -7.223310    3.577830    3.852270
  S     -6.207430    4.823000    3.125890
  C     -7.104610    2.215510    3.415290
  C     -6.242660    1.839080    2.399340
  C     -6.116630    0.513880    1.961520
  C     -6.844360   -0.504910    2.517420
  C     -7.733460   -0.181010    3.554300
  C     -7.873330    1.178160    4.012140
  N     -8.760840    1.276660    4.999760
  S     -9.355950   -0.182920    5.317600
  N     -8.526140   -1.018100    4.227010
  H     -0.124330   -1.311730   -5.886930
  H      1.104420    0.724040   -6.604740
  H      0.819350    2.842280   -5.446910
  H     -2.186320    2.936160   -1.813030
  H     -2.176290    8.711620    0.249330
  H      0.173030   11.266830   -1.636340
  H     -0.373240   13.505090   -0.425950
  H     -1.944370   14.473410    1.373070
  H     -3.900800   14.617770    3.317030
  H     -5.764750   13.899540    4.948590
  H     -7.093130   11.734270    5.693550
  H     -8.345620    9.582040    6.400470
  H     -8.753100    3.468510    5.361460
  H     -5.637130    2.592020    1.915640
  H     -5.421250    0.308670    1.162190
  H     -6.756110   -1.527630    2.189550

 Total Charge           Charge          ....    0
 Multiplicity           Mult            ....    1
 Number of Electrons    NEL             ....  476
 Basis Dimension        Dim             ....  980

ORBITAL ENERGIES
----------------

  NO   OCC          E(Eh)            E(eV)
   0   2.0000     -89.023368     -2422.4490
   1   2.0000     -89.010768     -2422.1061
   2   2.0000     -88.982311     -2421.3318
   3   2.0000     -88.980864     -2421.2924
   4   2.0000     -88.972222     -2421.0573
   5   2.0000     -88.970474     -2421.0097
   6   2.0000     -88.950102     -2420.4553
   7   2.0000     -88.949668     -2420.4435
   8   2.0000     -14.438618      -392.8948
   9   2.0000     -14.436314      -392.8321
  10   2.0000     -14.433092      -392.7444
  11   2.0000     -14.433012      -392.7422
  12   2.0000     -14.425651      -392.5419
  13   2.0000     -14.424143      -392.5009
  14   2.0000     -14.416625      -392.2963
  15   2.0000     -14.413667      -392.2158
  16   2.0000     -10.361100      -281.9399
  17   2.0000     -10.349732      -281.6305
  18   2.0000     -10.347409      -281.5673
  19   2.0000     -10.336533      -281.2714
  20   2.0000     -10.335072      -281.2316
  21   2.0000     -10.334927      -281.2276
  22   2.0000     -10.330392      -281.1042
  23   2.0000     -10.324747      -280.9507
  24   2.0000     -10.321174      -280.8534
  25   2.0000     -10.320793      -280.8431
  26   2.0000     -10.320700      -280.8405
  27   2.0000     -10.317645      -280.7574
  28   2.0000     -10.317523      -280.7541
  29   2.0000     -10.315269      -280.6927
  30   2.0000     -10.314921      -280.6833
  31   2.0000     -10.314178      -280.6630
  32   2.0000     -10.313576      -280.6467
  33   2.0000     -10.313163      -280.6354
  34   2.0000     -10.312322      -280.6125
  35   2.0000     -10.311730      -280.5964
  36   2.0000     -10.309986      -280.5490
  37   2.0000     -10.309469      -280.5349
  38   2.0000     -10.308246      -280.5016
  39   2.0000     -10.306318      -280.4492
  40   2.0000     -10.303532      -280.3734
  41   2.0000     -10.299040      -280.2511
  42   2.0000     -10.296337      -280.1776
  43   2.0000     -10.293329      -280.0957
  44   2.0000     -10.293181      -280.0917
  45   2.0000     -10.292190      -280.0647
  46   2.0000     -10.292080      -280.0617
  47   2.0000     -10.291663      -280.0504
  48   2.0000     -10.291439      -280.0443
  49   2.0000     -10.290625      -280.0221
  50   2.0000     -10.290365      -280.0151
  51   2.0000     -10.289815      -280.0001
  52   2.0000     -10.289495      -279.9914
  53   2.0000     -10.289327      -279.9868
  54   2.0000     -10.288602      -279.9671
  55   2.0000     -10.287492      -279.9369
  56   2.0000     -10.284681      -279.8604
  57   2.0000     -10.283337      -279.8238
  58   2.0000     -10.275248      -279.6037
  59   2.0000     -10.274745      -279.5900
  60   2.0000     -10.272875      -279.5392
  61   2.0000     -10.272690      -279.5341
  62   2.0000      -8.115309      -220.8288
  63   2.0000      -8.102619      -220.4835
  64   2.0000      -8.076838      -219.7819
  65   2.0000      -8.075378      -219.7422
  66   2.0000      -8.066008      -219.4872
  67   2.0000      -8.064426      -219.4442
  68   2.0000      -8.046281      -218.9504
  69   2.0000      -8.046094      -218.9453
  70   2.0000      -6.086495      -165.6219
  71   2.0000      -6.078697      -165.4098
  72   2.0000      -6.077752      -165.3841
  73   2.0000      -6.073820      -165.2770
  74   2.0000      -6.066027      -165.0650
  75   2.0000      -6.065082      -165.0393
  76   2.0000      -6.046088      -164.5224
  77   2.0000      -6.044686      -164.4843
  78   2.0000      -6.041934      -164.4094
  79   2.0000      -6.040619      -164.3736
  80   2.0000      -6.039213      -164.3353
  81   2.0000      -6.037565      -164.2905
  82   2.0000      -6.035246      -164.2274
  83   2.0000      -6.033657      -164.1842
  84   2.0000      -6.030865      -164.1082
  85   2.0000      -6.029510      -164.0713
  86   2.0000      -6.028487      -164.0435
  87   2.0000      -6.026918      -164.0008
  88   2.0000      -6.015977      -163.7031
  89   2.0000      -6.015829      -163.6990
  90   2.0000      -6.011723      -163.5873
  91   2.0000      -6.011596      -163.5838
  92   2.0000      -6.007276      -163.4663
  93   2.0000      -6.007187      -163.4639
  94   2.0000      -1.123456       -30.5708
  95   2.0000      -1.110787       -30.2261
  96   2.0000      -1.038664       -28.2635
  97   2.0000      -1.027197       -27.9515
  98   2.0000      -1.022531       -27.8245
  99   2.0000      -1.010217       -27.4894
 100   2.0000      -1.006923       -27.3998
 101   2.0000      -1.003608       -27.3096
 102   2.0000      -0.992634       -27.0109
 103   2.0000      -0.992211       -26.9994
 104   2.0000      -0.984479       -26.7890
 105   2.0000      -0.977533       -26.6000
 106   2.0000      -0.974783       -26.5252
 107   2.0000      -0.963915       -26.2295
 108   2.0000      -0.962756       -26.1979
 109   2.0000      -0.950746       -25.8711
 110   2.0000      -0.949560       -25.8388
 111   2.0000      -0.936636       -25.4872
 112   2.0000      -0.913766       -24.8648
 113   2.0000      -0.904153       -24.6033
 114   2.0000      -0.887602       -24.1529
 115   2.0000      -0.871507       -23.7149
 116   2.0000      -0.867296       -23.6003
 117   2.0000      -0.860474       -23.4147
 118   2.0000      -0.858164       -23.3518
 119   2.0000      -0.855668       -23.2839
 120   2.0000      -0.846810       -23.0429
 121   2.0000      -0.846496       -23.0343
 122   2.0000      -0.844305       -22.9747
 123   2.0000      -0.840107       -22.8605
 124   2.0000      -0.833209       -22.6728
 125   2.0000      -0.823262       -22.4021
 126   2.0000      -0.812232       -22.1019
 127   2.0000      -0.786060       -21.3898
 128   2.0000      -0.774474       -21.0745
 129   2.0000      -0.764975       -20.8160
 130   2.0000      -0.761158       -20.7122
 131   2.0000      -0.749213       -20.3871
 132   2.0000      -0.736491       -20.0409
 133   2.0000      -0.724607       -19.7176
 134   2.0000      -0.711257       -19.3543
 135   2.0000      -0.707867       -19.2620
 136   2.0000      -0.701122       -19.0785
 137   2.0000      -0.696022       -18.9397
 138   2.0000      -0.689990       -18.7756
 139   2.0000      -0.686712       -18.6864
 140   2.0000      -0.680120       -18.5070
 141   2.0000      -0.675748       -18.3880
 142   2.0000      -0.664806       -18.0903
 143   2.0000      -0.660551       -17.9745
 144   2.0000      -0.649723       -17.6799
 145   2.0000      -0.639347       -17.3975
 146   2.0000      -0.632572       -17.2132
 147   2.0000      -0.630023       -17.1438
 148   2.0000      -0.625522       -17.0213
 149   2.0000      -0.622023       -16.9261
 150   2.0000      -0.612336       -16.6625
 151   2.0000      -0.606271       -16.4975
 152   2.0000      -0.602990       -16.4082
 153   2.0000      -0.598916       -16.2973
 154   2.0000      -0.594683       -16.1821
 155   2.0000      -0.593180       -16.1412
 156   2.0000      -0.583356       -15.8739
 157   2.0000      -0.575910       -15.6713
 158   2.0000      -0.569767       -15.5042
 159   2.0000      -0.568650       -15.4737
 160   2.0000      -0.560324       -15.2472
 161   2.0000      -0.555051       -15.1037
 162   2.0000      -0.551046       -14.9947
 163   2.0000      -0.548220       -14.9178
 164   2.0000      -0.540961       -14.7203
 165   2.0000      -0.537368       -14.6225
 166   2.0000      -0.536814       -14.6074
 167   2.0000      -0.535714       -14.5775
 168   2.0000      -0.529375       -14.4050
 169   2.0000      -0.528785       -14.3890
 170   2.0000      -0.520694       -14.1688
 171   2.0000      -0.510696       -13.8967
 172   2.0000      -0.506108       -13.7719
 173   2.0000      -0.504030       -13.7154
 174   2.0000      -0.502686       -13.6788
 175   2.0000      -0.498264       -13.5584
 176   2.0000      -0.498104       -13.5541
 177   2.0000      -0.491380       -13.3711
 178   2.0000      -0.490632       -13.3508
 179   2.0000      -0.489977       -13.3330
 180   2.0000      -0.484745       -13.1906
 181   2.0000      -0.482361       -13.1257
 182   2.0000      -0.479464       -13.0469
 183   2.0000      -0.476340       -12.9619
 184   2.0000      -0.475737       -12.9455
 185   2.0000      -0.475478       -12.9384
 186   2.0000      -0.473206       -12.8766
 187   2.0000      -0.470640       -12.8068
 188   2.0000      -0.465822       -12.6756
 189   2.0000      -0.463817       -12.6211
 190   2.0000      -0.462808       -12.5937
 191   2.0000      -0.462741       -12.5918
 192   2.0000      -0.458289       -12.4707
 193   2.0000      -0.453213       -12.3326
 194   2.0000      -0.451883       -12.2964
 195   2.0000      -0.448719       -12.2103
 196   2.0000      -0.447754       -12.1840
 197   2.0000      -0.447252       -12.1703
 198   2.0000      -0.444288       -12.0897
 199   2.0000      -0.443073       -12.0566
 200   2.0000      -0.441297       -12.0083
 201   2.0000      -0.440408       -11.9841
 202   2.0000      -0.437133       -11.8950
 203   2.0000      -0.435126       -11.8404
 204   2.0000      -0.433812       -11.8046
 205   2.0000      -0.429904       -11.6983
 206   2.0000      -0.426140       -11.5959
 207   2.0000      -0.425651       -11.5826
 208   2.0000      -0.423281       -11.5181
 209   2.0000      -0.422205       -11.4888
 210   2.0000      -0.417442       -11.3592
 211   2.0000      -0.414745       -11.2858
 212   2.0000      -0.411752       -11.2043
 213   2.0000      -0.408996       -11.1293
 214   2.0000      -0.405213       -11.0264
 215   2.0000      -0.397845       -10.8259
 216   2.0000      -0.394445       -10.7334
 217   2.0000      -0.390180       -10.6173
 218   2.0000      -0.382180       -10.3996
 219   2.0000      -0.381232       -10.3739
 220   2.0000      -0.376812       -10.2536
 221   2.0000      -0.366678        -9.9778
 222   2.0000      -0.358700        -9.7607
 223   2.0000      -0.354168        -9.6374
 224   2.0000      -0.346231        -9.4214
 225   2.0000      -0.342510        -9.3202
 226   2.0000      -0.339420        -9.2361
 227   2.0000      -0.333901        -9.0859
 228   2.0000      -0.332015        -9.0346
 229   2.0000      -0.323090        -8.7917
 230   2.0000      -0.320791        -8.7292
 231   2.0000      -0.319057        -8.6820
 232   2.0000      -0.314642        -8.5618
 233   2.0000      -0.304457        -8.2847
 234   2.0000      -0.293193        -7.9782
 235   2.0000      -0.267603        -7.2819
 236   2.0000      -0.244345        -6.6490
 237   2.0000      -0.205108        -5.5813
 238   0.0000      -0.108899        -2.9633
 239   0.0000      -0.095020        -2.5856
 240   0.0000      -0.075944        -2.0665
 241   0.0000      -0.063018        -1.7148
 242   0.0000      -0.050480        -1.3736

MULLIKEN ATOMIC CHARGES
-----------------------
   0 C :   -0.025041
   1 C :    0.040644
   2 C :   -0.078071
   3 C :    0.161948
   4 C :   -0.019045
   5 C :    0.056603
   6 N :   -0.267185
   7 S :    0.511697
   8 N :   -0.286316
   9 C :   -0.124023
  10 C :   -0.041905
  11 C :   -0.000099
  12 C :   -0.082670
  13 S :    0.154386
  14 C :   -0.104190
  15 C :   -0.006122
  16 C :    0.340347
  17 C :   -0.328282
  18 C :   -0.181460
  19 N :    0.159832
  20 C :   -0.153478
  21 N :    0.154961
  22 C :   -0.054533
  23 C :   -0.087529
  24 S :    0.173506
  25 C :    0.030496
  26 C :   -0.021619
  27 C :    0.025145
  28 C :    0.034457
  29 C :   -0.025967
  30 S :    0.026102
  31 C :   -0.006182
  32 C :    0.026478
  33 C :    0.039640
  34 C :   -0.038118
  35 S :    0.040156
  36 C :    0.019152
  37 C :   -0.063674
  38 C :   -0.049032
  39 C :    0.033526
  40 C :   -0.083039
  41 S :    0.179994
  42 C :   -0.070780
  43 C :    0.018829
  44 C :    0.306460
  45 C :   -0.306574
  46 C :   -0.188215
  47 N :    0.172984
  48 C :   -0.191847
  49 N :    0.162804
  50 C :   -0.050595
  51 C :   -0.126003
  52 S :    0.155924
  53 C :    0.179521
  54 C :   -0.075426
  55 C :    0.044948
  56 C :   -0.026932
  57 C :    0.055011
  58 C :   -0.026382
  59 N :   -0.282912
  60 S :    0.508789
  61 N :   -0.270346
  62 H :   -0.017047
  63 H :   -0.003119
  64 H :   -0.011012
  65 H :    0.017222
  66 H :    0.033064
  67 H :   -0.019545
  68 H :   -0.012219
  69 H :   -0.011870
  70 H :   -0.013494
  71 H :   -0.007517
  72 H :   -0.002722
  73 H :    0.003776
  74 H :    0.018823
  75 H :   -0.018504
  76 H :   -0.004925
  77 H :   -0.021658
Sum of atomic charges:   -0.0000000

LOEWDIN ATOMIC CHARGES
----------------------
   0 C :   -0.023842
   1 C :   -0.012657
   2 C :   -0.030905
   3 C :   -0.037398
   4 C :   -0.042091
   5 C :   -0.050723
   6 N :   -0.283595
   7 S :    0.645312
   8 N :   -0.283917
   9 C :   -0.165866
  10 C :   -0.017408
  11 C :   -0.088264
  12 C :   -0.161456
  13 S :    0.464227
  14 C :   -0.201810
  15 C :   -0.059085
  16 C :    0.091937
  17 C :   -0.114610
  18 C :   -0.007734
  19 N :   -0.055563
  20 C :   -0.001035
  21 N :   -0.042326
  22 C :   -0.049755
  23 C :   -0.154315
  24 S :    0.458429
  25 C :   -0.090348
  26 C :   -0.140915
  27 C :   -0.039153
  28 C :   -0.031940
  29 C :   -0.186570
  30 S :    0.403894
  31 C :   -0.165880
  32 C :   -0.045656
  33 C :   -0.020901
  34 C :   -0.168109
  35 S :    0.383807
  36 C :   -0.050941
  37 C :   -0.175525
  38 C :   -0.020878
  39 C :   -0.069130
  40 C :   -0.185119
  41 S :    0.501395
  42 C :   -0.171979
  43 C :   -0.075545
  44 C :    0.084311
  45 C :   -0.109215
  46 C :   -0.018034
  47 N :   -0.034644
  48 C :   -0.015153
  49 N :   -0.043898
  50 C :   -0.021782
  51 C :   -0.157228
  52 S :    0.479369
  53 C :   -0.043459
  54 C :   -0.020366
  55 C :   -0.008147
  56 C :   -0.025104
  57 C :   -0.052362
  58 C :   -0.042832
  59 N :   -0.283762
  60 S :    0.642912
  61 N :   -0.287053
  62 H :    0.037759
  63 H :    0.034640
  64 H :    0.021976
  65 H :    0.037678
  66 H :    0.019906
  67 H :    0.032763
  68 H :    0.032801
  69 H :    0.033681
  70 H :    0.032935
  71 H :    0.035126
  72 H :    0.044211
  73 H :    0.039478
  74 H :    0.038229
  75 H :    0.018854
  76 H :    0.034881
  77 H :    0.035478

  Mayer bond orders larger than 0.100000
B(  0-C ,  1-C ) :   1.4890 B(  0-C ,  3-C ) :   0.1072 B(  0-C ,  5-C ) :   1.2085
B(  0-C , 62-H ) :   1.0201 B(  1-C ,  2-C ) :   1.2276 B(  1-C , 63-H ) :   0.9824
B(  2-C ,  3-C ) :   1.4817 B(  2-C , 64-H ) :   0.9869 B(  3-C ,  4-C ) :   1.1849
B(  3-C ,  9-C ) :   1.1106 B(  4-C ,  5-C ) :   1.1652 B(  4-C ,  8-N ) :   1.5293
B(  5-C ,  6-N ) :   1.5078 B(  6-N ,  7-S ) :   1.2820 B(  6-N ,  8-N ) :   0.1495
B(  7-S ,  8-N ) :   1.2530 B(  9-C , 10-C ) :   1.5108 B(  9-C , 13-S ) :   1.0680
B( 10-C , 11-C ) :   1.2236 B( 10-C , 65-H ) :   0.9796 B( 11-C , 12-C ) :   1.4111
B( 11-C , 16-C ) :   1.0228 B( 12-C , 13-S ) :   1.1339 B( 12-C , 14-C ) :   1.2157
B( 14-C , 15-C ) :   1.4191 B( 14-C , 24-S ) :   1.0936 B( 15-C , 16-C ) :   0.9839
B( 15-C , 22-C ) :   1.3695 B( 16-C , 17-C ) :   1.6706 B( 17-C , 18-C ) :   1.1449
B( 17-C , 20-C ) :   1.1602 B( 18-C , 19-N ) :   2.9697 B( 20-C , 21-N ) :   2.8980
B( 22-C , 23-C ) :   1.3665 B( 22-C , 66-H ) :   0.9620 B( 23-C , 24-S ) :   1.0977
B( 23-C , 25-C ) :   1.2097 B( 25-C , 26-C ) :   1.5419 B( 25-C , 67-H ) :   0.9552
B( 26-C , 27-C ) :   1.1743 B( 26-C , 30-S ) :   1.0558 B( 27-C , 28-C ) :   1.5552
B( 27-C , 68-H ) :   0.9982 B( 28-C , 29-C ) :   1.2214 B( 28-C , 69-H ) :   0.9949
B( 29-C , 30-S ) :   1.0414 B( 29-C , 31-C ) :   1.4561 B( 31-C , 32-C ) :   1.2113
B( 31-C , 35-S ) :   1.0578 B( 32-C , 33-C ) :   1.5620 B( 32-C , 70-H ) :   0.9952
B( 33-C , 34-C ) :   1.1693 B( 33-C , 71-H ) :   0.9985 B( 34-C , 35-S ) :   1.0339
B( 34-C , 36-C ) :   1.5140 B( 36-C , 37-C ) :   1.2267 B( 36-C , 72-H ) :   0.9752
B( 37-C , 38-C ) :   1.3452 B( 37-C , 41-S ) :   1.0706 B( 38-C , 39-C ) :   1.3464
B( 38-C , 73-H ) :   1.0052 B( 39-C , 40-C ) :   1.3749 B( 39-C , 44-C ) :   0.9745
B( 40-C , 41-S ) :   1.1507 B( 40-C , 42-C ) :   1.2061 B( 42-C , 43-C ) :   1.4115
B( 42-C , 52-S ) :   1.1320 B( 43-C , 44-C ) :   1.0137 B( 43-C , 50-C ) :   1.2286
B( 44-C , 45-C ) :   1.7021 B( 45-C , 46-C ) :   1.1384 B( 45-C , 48-C ) :   1.1353
B( 46-C , 47-N ) :   2.9911 B( 48-C , 49-N ) :   2.9912 B( 50-C , 51-C ) :   1.4994
B( 50-C , 74-H ) :   0.9826 B( 51-C , 52-S ) :   1.0840 B( 51-C , 53-C ) :   1.1006
B( 53-C , 54-C ) :   1.4775 B( 53-C , 56-C ) :   0.1066 B( 53-C , 58-C ) :   1.1812
B( 54-C , 55-C ) :   1.2396 B( 54-C , 75-H ) :   0.9809 B( 55-C , 56-C ) :   1.4771
B( 55-C , 76-H ) :   0.9845 B( 56-C , 57-C ) :   1.2074 B( 56-C , 77-H ) :   1.0200
B( 57-C , 58-C ) :   1.1663 B( 57-C , 61-N ) :   1.5080 B( 58-C , 59-N ) :   1.5322
B( 59-N , 60-S ) :   1.2524 B( 59-N , 61-N ) :   0.1496 B( 60-S , 61-N ) :   1.2795

-----------------------------------------------------------------------------
         ABSORPTION SPECTRUM VIA TRANSITION ELECTRIC DIPOLE MOMENTS
-----------------------------------------------------------------------------
State   Energy  Wavelength   fosc         T2         TX        TY        TZ
        (cm-1)    (nm)                  (au**2)     (au)      (au)      (au)
-----------------------------------------------------------------------------
   0    5728.8   1745.6   0.112573671   6.46921   1.42006  -1.06541  -1.82141
   1    9055.6   1104.3   0.215809231   7.84565   1.79806   1.60548  -1.42656
   2   13390.5    746.8   0.469277060  11.53738  -2.31599   0.28687   2.46805
   3   14158.9    706.3   0.093974040   2.18502  -0.04058   1.40384   0.46107
   4   17103.1    584.7   0.068124815   1.31131  -0.22780   1.01311   0.48273
   5   19396.4    515.6   0.396930547   6.73705   0.18235   2.51132   0.63013
   6   20032.0    499.2   0.167601533   2.75441   0.43510   1.59738   0.11604
   7   21686.9    461.1   0.525978712   7.98448  -0.35273   2.63156   0.96694
   8   22047.2    453.6   0.426747619   6.37226   0.26798   2.46266   0.48554
   9   24420.0    409.5   0.128107263   1.72705  -0.19971   1.20839   0.47639
  10   25435.4    393.2   0.228854992   2.96209  -0.36243  -1.67535  -0.15469
  11   26500.0    377.4   0.044715052   0.55550   0.00331   0.65826   0.34955
  12   26874.7    372.1   0.487434965   5.97102  -0.63918  -2.35829   0.03047
  13   28091.4    356.0   0.049588177   0.58114   0.55005   0.14504  -0.50749
  14   28443.5    351.6   0.017339023   0.20069   0.04278   0.44582   0.01011
  15   28662.5    348.9   0.096443974   1.10774   0.69798  -0.22168  -0.75592
  16   29360.9    340.6   0.159779414   1.79154  -0.47509   0.93207   0.83491
  17   29923.1    334.2   0.002142882   0.02358  -0.05927  -0.13650  -0.03781
  18   30079.0    332.5   0.099627625   1.09042   0.74877   0.26018  -0.67975
  19   30572.8    327.1   0.225089776   2.42379   1.11111  -0.04378  -1.08964
  20   30811.3    324.6   0.646274013   6.90529  -1.80610  -0.53525   1.83215
  21   31404.1    318.4   0.271467149   2.84582  -0.36704   1.46378   0.75395
  22   31634.7    316.1   0.015976623   0.16626  -0.20992  -0.34644   0.04663
  23   31943.1    313.1   0.304500087   3.13824  -0.20086  -1.72551  -0.34717
  24   32437.6    308.3   0.020768209   0.21078   0.00502   0.43070   0.15890
  25   32714.2    305.7   0.099200434   0.99828  -0.68521  -0.12960   0.71552
  26   33321.8    300.1   0.005292521   0.05229   0.04029   0.09787  -0.20270
  27   33532.3    298.2   0.077811219   0.76393  -0.55597  -0.45250   0.50007
  28   33913.5    294.9   0.019822919   0.19243  -0.32168  -0.00841   0.29813
  29   33962.5    294.4   0.095061480   0.92147   0.69022  -0.04239  -0.66578
  30   34045.3    293.7   0.039681684   0.38371   0.43163  -0.06593  -0.43939
  31   34520.5    289.7   0.116313044   1.10924  -0.59696   0.40509   0.76732
  32   34774.0    287.6   0.028934058   0.27392  -0.36984  -0.28207   0.23995
  33   35042.0    285.4   0.045253639   0.42515   0.37178   0.42964  -0.31990
  34   35225.7    283.9   0.108251485   1.01170   0.39916  -0.64102  -0.66442
  35   35387.7    282.6   0.006772728   0.06301  -0.07782   0.15414   0.18219
  36   35505.7    281.6   0.004166873   0.03864  -0.15503  -0.06796   0.09992
  37   35753.6    279.7   0.026126573   0.24057  -0.26029  -0.39823   0.11930
  38   35863.1    278.8   0.011601068   0.10649   0.04691  -0.30501  -0.10611
  39   36229.4    276.0   0.029533284   0.26837   0.15028  -0.45560  -0.19547
  40   36601.4    273.2   0.000508916   0.00458  -0.04830  -0.03511   0.03182
  41   36787.8    271.8   0.108059553   0.96702  -0.39463  -0.88585   0.16297
  42   37001.3    270.3   0.098049741   0.87238  -0.16326   0.84252   0.36863
  43   37274.3    268.3   0.001341444   0.01185   0.07486  -0.06721  -0.04156
  44   37881.2    264.0   0.006021197   0.05233   0.14432   0.03809  -0.17334
  45   38119.2    262.3   0.073200916   0.63219   0.37332  -0.48091  -0.51142
  46   38735.9    258.2   0.037631953   0.31983  -0.33154   0.12551   0.44063
  47   39043.2    256.1   0.030786874   0.25959  -0.32488   0.10269   0.37882
  48   39286.5    254.5   0.001234319   0.01034  -0.00155   0.10166  -0.00246
  49   39461.7    253.4   0.016404236   0.13685  -0.17826  -0.31305   0.08412
  50   39982.7    250.1   0.209022667   1.72106   0.55869   1.16389  -0.23301
  51   40158.9    249.0   0.000336795   0.00276   0.00533  -0.05153  -0.00880
  52   40254.3    248.4   0.180920312   1.47962   0.79860   0.49236  -0.77424

FINAL SINGLE POINT ENERGY     -5382.124934544456

DIPOLE MOMENT
-------------
                                X             Y             Z
Electronic contribution:     -9.18208     -12.49241       7.01675
Nuclear contribution   :     12.47524      14.49813      -9.97697
                        -----------------------------------------
Total Dipole Moment    :      3.29316       2.00572      -2.96021
                        -----------------------------------------
Magnitude (a.u.)       :      4.86114
Magnitude (Debye)      :     12.35603

Rotational constants in cm-1:     0.000964     0.000756     0.000424
Rotational constants in MHz :    28.894791    22.671301    12.718629

                             ****ORCA TERMINATED NORMALLY****
TOTAL RUN TIME: 0 days 0 hours 7 minutes 32 seconds 199 msec
