                         Program Version 4.2.0 -  RELEASE  -
|  1> # ORCA input file
|  2> # SCF done       -182.130751935400          0.000943888036
|  3> ! CAM-B3LYP def2-SVP def2/J RIJCOSX Grid4 TightSCF
|  4> %maxcore 5000
|  5> %tddft
|  6>     Mode sTDDFT
|  7>     Ethresh 5.0
|  8>     maxcore 5000
|  9> end
| 10>
| 11> %pal
| 12>   nprocs 6
| 13>   end
| 14> * xyz 0 1
| 15>    C       -0.13313        -0.83903         3.66814
| 16>    C        0.93061        -0.01316         3.41752
| 17>    C        0.75774         1.28845         2.92781
| 18>    C       -0.48724         1.83194         2.66276
| 19>    C       -1.61020         0.99651         2.91346
| 20>    C       -1.42023        -0.33929         3.41734
| 21>    N       -2.58048        -0.97549         3.59329
| 22>    S       -3.77824         0.00319         3.16992
| 23>    N       -2.90050         1.27949         2.74293
| 24>    C       -0.65095         3.16805         2.16217
| 25>    C       -1.82787         3.81542         1.85141
| 26>    C       -1.60961         5.11641         1.39209
| 27>    C       -0.24855         5.46094         1.35266
| 28>    S        0.75652         4.18719         1.87822
| 29>    C       -0.13146         6.79310         0.88097
| 30>    C       -1.41986         7.29171         0.62454
| 31>    C       -2.39108         6.24836         0.92610
| 32>    C       -3.74488         6.31775         0.77843
| 33>    C       -4.38195         7.47385         0.27920
| 34>    N       -4.90082         8.40695        -0.13873
| 35>    C       -4.59795         5.23936         1.09610
| 36>    N       -5.30312         4.37128         1.34854
| 37>    C       -1.41240         8.60776         0.16692
| 38>    C       -0.12805         9.11302         0.06420
| 39>    S        1.09033         7.93901         0.54577
| 40>    C        0.25834        10.40498        -0.36749
| 41>    C        1.54234        10.88139        -0.56590
| 42>    C        1.54616        12.20352        -1.00672
| 43>    C        0.24789        12.74212        -1.13452
| 44>    S       -0.96967        11.61530        -0.72259
| 45>    C        0.35031        14.07217        -1.58524
| 46>    C        1.71941        14.38363        -1.76066
| 47>    C        2.50970        13.21467        -1.39363
| 48>    C        3.87011        13.10165        -1.41037
| 49>    C        4.70566        14.16403        -1.81134
| 50>    N        5.38670        15.02663        -2.13915
| 51>    C        4.52833        11.91519        -1.02586
| 52>    N        5.06639        10.95190        -0.71386
| 53>    C        1.92470        15.67076        -2.22023
| 54>    C        0.72485        16.37221        -2.39326
| 55>    S       -0.67355        15.38352        -1.96980
| 56>    C        0.61648        17.68754        -2.85143
| 57>    C       -0.52987        18.43900        -2.98243
| 58>    C       -0.60414        19.76508        -3.47007
| 59>    C       -1.86298        20.29099        -3.47340
| 60>    C       -2.84539        19.40901        -2.97847
| 61>    S       -2.12876        17.88186        -2.53169
| 62>    C       -4.20388        19.63362        -2.80745
| 63>    C       -4.95043        20.78211        -3.13718
| 64>    C       -6.27420        20.68459        -2.81400
| 65>    C       -6.63123        19.46041        -2.20728
| 66>    S       -5.22916        18.42148        -2.07848
| 67>    C       -7.88162        19.09428        -1.74487
| 68>    C       -8.12172        17.87720        -1.11491
| 69>    C       -9.33952        17.46894        -0.61014
| 70>    C       -9.61274        16.23277         0.07733
| 71>    C       -8.71335        15.24072         0.39662
| 72>    C       -9.05221        14.06539         1.09578
| 73>    N       -9.25648        13.08974         1.66723
| 74>    C       -7.33638        15.24615         0.10009
| 75>    N       -6.20613        15.16880        -0.09559
| 76>    C      -11.03596        16.21382         0.41092
| 77>    C      -11.62389        17.42712        -0.04725
| 78>    C      -10.58897        18.25465        -0.69492
| 79>    O      -10.74798        19.35372        -1.19230
| 80>    C      -12.94915        17.69857         0.12730
| 81>    C      -13.76736        16.74880         0.78084
| 82>    C      -13.18859        15.53106         1.23833
| 83>    C      -11.81008        15.27874         1.04280
| 84>    C      -14.01254        14.58958         1.88683
| 85>    C      -15.34506        14.83758         2.07637
| 86>    C      -15.91398        16.03760         1.62596
| 87>    C      -15.14156        16.97288         0.99174
| 88>    H       -0.01194        -1.84105         4.04485
| 89>    H        1.93512        -0.36454         3.59883
| 90>    H        1.63560         1.89321         2.74967
| 91>    H       -2.78585         3.34208         1.96427
| 92>    H       -2.28518         9.18273        -0.08600
| 93>    H        2.41807        10.28007        -0.39878
| 94>    H        2.88296        16.11235        -2.42614
| 95>    H        1.54644        18.16741        -3.12894
| 96>    H        0.27451        20.28933        -3.80205
| 97>    H       -2.10298        21.28480        -3.80536
| 98>    H       -4.50173        21.64235        -3.60064
| 99>    H       -7.00280        21.45667        -2.98608
|100>    H       -8.69650        19.79321        -1.86698
|101>    H       -7.27473        17.20973        -1.01139
|102>    H      -13.37019        18.62724        -0.22881
|103>    H      -11.40445        14.34596         1.40055
|104>    H      -13.56938        13.66689         2.23217
|105>    H      -15.96787        14.10967         2.57478
|106>    H      -16.96705        16.21773         1.78367
|107>    H      -15.57430        17.89917         0.64236
|108> *
|109>
|110>                          ****END OF INPUT****

CARTESIAN COORDINATES (ANGSTROEM)
---------------------------------
  C     -0.133130   -0.839030    3.668140
  C      0.930610   -0.013160    3.417520
  C      0.757740    1.288450    2.927810
  C     -0.487240    1.831940    2.662760
  C     -1.610200    0.996510    2.913460
  C     -1.420230   -0.339290    3.417340
  N     -2.580480   -0.975490    3.593290
  S     -3.778240    0.003190    3.169920
  N     -2.900500    1.279490    2.742930
  C     -0.650950    3.168050    2.162170
  C     -1.827870    3.815420    1.851410
  C     -1.609610    5.116410    1.392090
  C     -0.248550    5.460940    1.352660
  S      0.756520    4.187190    1.878220
  C     -0.131460    6.793100    0.880970
  C     -1.419860    7.291710    0.624540
  C     -2.391080    6.248360    0.926100
  C     -3.744880    6.317750    0.778430
  C     -4.381950    7.473850    0.279200
  N     -4.900820    8.406950   -0.138730
  C     -4.597950    5.239360    1.096100
  N     -5.303120    4.371280    1.348540
  C     -1.412400    8.607760    0.166920
  C     -0.128050    9.113020    0.064200
  S      1.090330    7.939010    0.545770
  C      0.258340   10.404980   -0.367490
  C      1.542340   10.881390   -0.565900
  C      1.546160   12.203520   -1.006720
  C      0.247890   12.742120   -1.134520
  S     -0.969670   11.615300   -0.722590
  C      0.350310   14.072170   -1.585240
  C      1.719410   14.383630   -1.760660
  C      2.509700   13.214670   -1.393630
  C      3.870110   13.101650   -1.410370
  C      4.705660   14.164030   -1.811340
  N      5.386700   15.026630   -2.139150
  C      4.528330   11.915190   -1.025860
  N      5.066390   10.951900   -0.713860
  C      1.924700   15.670760   -2.220230
  C      0.724850   16.372210   -2.393260
  S     -0.673550   15.383520   -1.969800
  C      0.616480   17.687540   -2.851430
  C     -0.529870   18.439000   -2.982430
  C     -0.604140   19.765080   -3.470070
  C     -1.862980   20.290990   -3.473400
  C     -2.845390   19.409010   -2.978470
  S     -2.128760   17.881860   -2.531690
  C     -4.203880   19.633620   -2.807450
  C     -4.950430   20.782110   -3.137180
  C     -6.274200   20.684590   -2.814000
  C     -6.631230   19.460410   -2.207280
  S     -5.229160   18.421480   -2.078480
  C     -7.881620   19.094280   -1.744870
  C     -8.121720   17.877200   -1.114910
  C     -9.339520   17.468940   -0.610140
  C     -9.612740   16.232770    0.077330
  C     -8.713350   15.240720    0.396620
  C     -9.052210   14.065390    1.095780
  N     -9.256480   13.089740    1.667230
  C     -7.336380   15.246150    0.100090
  N     -6.206130   15.168800   -0.095590
  C    -11.035960   16.213820    0.410920
  C    -11.623890   17.427120   -0.047250
  C    -10.588970   18.254650   -0.694920
  O    -10.747980   19.353720   -1.192300
  C    -12.949150   17.698570    0.127300
  C    -13.767360   16.748800    0.780840
  C    -13.188590   15.531060    1.238330
  C    -11.810080   15.278740    1.042800
  C    -14.012540   14.589580    1.886830
  C    -15.345060   14.837580    2.076370
  C    -15.913980   16.037600    1.625960
  C    -15.141560   16.972880    0.991740
  H     -0.011940   -1.841050    4.044850
  H      1.935120   -0.364540    3.598830
  H      1.635600    1.893210    2.749670
  H     -2.785850    3.342080    1.964270
  H     -2.285180    9.182730   -0.086000
  H      2.418070   10.280070   -0.398780
  H      2.882960   16.112350   -2.426140
  H      1.546440   18.167410   -3.128940
  H      0.274510   20.289330   -3.802050
  H     -2.102980   21.284800   -3.805360
  H     -4.501730   21.642350   -3.600640
  H     -7.002800   21.456670   -2.986080
  H     -8.696500   19.793210   -1.866980
  H     -7.274730   17.209730   -1.011390
  H    -13.370190   18.627240   -0.228810
  H    -11.404450   14.345960    1.400550
  H    -13.569380   13.666890    2.232170
  H    -15.967870   14.109670    2.574780
  H    -16.967050   16.217730    1.783670
  H    -15.574300   17.899170    0.642360

 Total Charge           Charge          ....    0
 Multiplicity           Mult            ....    1
 Number of Electrons    NEL             ....  538
 Basis Dimension        Dim             .... 1150

ORBITAL ENERGIES
----------------

  NO   OCC          E(Eh)            E(eV)
   0   2.0000     -89.022419     -2422.4232
   1   2.0000     -88.993143     -2421.6265
   2   2.0000     -88.991868     -2421.5918
   3   2.0000     -88.990055     -2421.5425
   4   2.0000     -88.983347     -2421.3600
   5   2.0000     -88.968242     -2420.9489
   6   2.0000     -88.959046     -2420.6987
   7   2.0000     -19.197310      -522.3854
   8   2.0000     -14.437176      -392.8555
   9   2.0000     -14.435273      -392.8037
  10   2.0000     -14.434023      -392.7697
  11   2.0000     -14.433706      -392.7611
  12   2.0000     -14.425045      -392.5254
  13   2.0000     -14.423812      -392.4919
  14   2.0000     -14.399474      -391.8296
  15   2.0000     -14.395034      -391.7088
  16   2.0000     -10.367913      -282.1253
  17   2.0000     -10.360266      -281.9172
  18   2.0000     -10.355784      -281.7952
  19   2.0000     -10.347783      -281.5775
  20   2.0000     -10.346591      -281.5450
  21   2.0000     -10.336047      -281.2581
  22   2.0000     -10.335863      -281.2531
  23   2.0000     -10.334396      -281.2132
  24   2.0000     -10.334165      -281.2069
  25   2.0000     -10.333995      -281.2023
  26   2.0000     -10.332735      -281.1680
  27   2.0000     -10.330703      -281.1127
  28   2.0000     -10.328855      -281.0624
  29   2.0000     -10.328600      -281.0555
  30   2.0000     -10.327745      -281.0322
  31   2.0000     -10.326248      -280.9915
  32   2.0000     -10.326072      -280.9867
  33   2.0000     -10.325034      -280.9585
  34   2.0000     -10.324080      -280.9325
  35   2.0000     -10.323726      -280.9229
  36   2.0000     -10.323606      -280.9196
  37   2.0000     -10.320822      -280.8438
  38   2.0000     -10.320175      -280.8262
  39   2.0000     -10.319527      -280.8086
  40   2.0000     -10.316616      -280.7294
  41   2.0000     -10.314221      -280.6642
  42   2.0000     -10.308786      -280.5163
  43   2.0000     -10.307694      -280.4866
  44   2.0000     -10.307609      -280.4843
  45   2.0000     -10.307280      -280.4754
  46   2.0000     -10.306619      -280.4574
  47   2.0000     -10.305859      -280.4367
  48   2.0000     -10.304389      -280.3967
  49   2.0000     -10.303501      -280.3725
  50   2.0000     -10.303388      -280.3694
  51   2.0000     -10.302055      -280.3332
  52   2.0000     -10.301593      -280.3206
  53   2.0000     -10.299256      -280.2570
  54   2.0000     -10.296644      -280.1859
  55   2.0000     -10.295488      -280.1545
  56   2.0000     -10.293823      -280.1092
  57   2.0000     -10.291572      -280.0479
  58   2.0000     -10.289562      -279.9932
  59   2.0000     -10.287189      -279.9286
  60   2.0000     -10.285942      -279.8947
  61   2.0000     -10.285646      -279.8867
  62   2.0000     -10.283033      -279.8156
  63   2.0000     -10.282611      -279.8041
  64   2.0000     -10.280721      -279.7526
  65   2.0000     -10.279949      -279.7316
  66   2.0000     -10.276201      -279.6297
  67   2.0000     -10.274522      -279.5839
  68   2.0000     -10.273983      -279.5693
  69   2.0000     -10.273398      -279.5534
  70   2.0000     -10.272996      -279.5424
  71   2.0000     -10.272381      -279.5257
  72   2.0000     -10.271858      -279.5115
  73   2.0000      -8.114324      -220.8020
  74   2.0000      -8.087358      -220.0682
  75   2.0000      -8.086338      -220.0404
  76   2.0000      -8.084542      -219.9916
  77   2.0000      -8.077949      -219.8122
  78   2.0000      -8.064381      -219.4430
  79   2.0000      -8.055113      -219.1908
  80   2.0000      -6.085491      -165.5946
  81   2.0000      -6.077663      -165.3816
  82   2.0000      -6.076822      -165.3587
  83   2.0000      -6.056623      -164.8091
  84   2.0000      -6.055649      -164.7826
  85   2.0000      -6.053853      -164.7337
  86   2.0000      -6.052358      -164.6930
  87   2.0000      -6.051456      -164.6685
  88   2.0000      -6.049716      -164.6211
  89   2.0000      -6.049697      -164.6206
  90   2.0000      -6.048542      -164.5892
  91   2.0000      -6.047181      -164.5522
  92   2.0000      -6.046761      -164.5407
  93   2.0000      -6.043015      -164.4388
  94   2.0000      -6.040351      -164.3663
  95   2.0000      -6.034056      -164.1950
  96   2.0000      -6.029915      -164.0823
  97   2.0000      -6.025468      -163.9613
  98   2.0000      -6.024694      -163.9403
  99   2.0000      -6.020679      -163.8310
 100   2.0000      -6.016281      -163.7113
 101   2.0000      -1.122709       -30.5505
 102   2.0000      -1.110445       -30.2168
 103   2.0000      -1.048061       -28.5192
 104   2.0000      -1.040496       -28.3133
 105   2.0000      -1.025523       -27.9059
 106   2.0000      -1.016839       -27.6696
 107   2.0000      -1.015379       -27.6299
 108   2.0000      -1.011428       -27.5223
 109   2.0000      -1.005078       -27.3496
 110   2.0000      -1.001519       -27.2527
 111   2.0000      -0.999977       -27.2108
 112   2.0000      -0.994110       -27.0511
 113   2.0000      -0.988526       -26.8992
 114   2.0000      -0.982122       -26.7249
 115   2.0000      -0.976084       -26.5606
 116   2.0000      -0.975611       -26.5477
 117   2.0000      -0.966299       -26.2943
 118   2.0000      -0.959416       -26.1070
 119   2.0000      -0.955518       -26.0010
 120   2.0000      -0.948606       -25.8129
 121   2.0000      -0.925559       -25.1857
 122   2.0000      -0.914730       -24.8911
 123   2.0000      -0.907844       -24.7037
 124   2.0000      -0.901275       -24.5249
 125   2.0000      -0.889849       -24.2140
 126   2.0000      -0.875843       -23.8329
 127   2.0000      -0.872301       -23.7365
 128   2.0000      -0.869763       -23.6675
 129   2.0000      -0.866990       -23.5920
 130   2.0000      -0.865035       -23.5388
 131   2.0000      -0.861506       -23.4428
 132   2.0000      -0.858598       -23.3636
 133   2.0000      -0.856425       -23.3045
 134   2.0000      -0.846910       -23.0456
 135   2.0000      -0.843314       -22.9477
 136   2.0000      -0.838877       -22.8270
 137   2.0000      -0.822835       -22.3905
 138   2.0000      -0.813371       -22.1329
 139   2.0000      -0.806373       -21.9425
 140   2.0000      -0.786350       -21.3977
 141   2.0000      -0.780552       -21.2399
 142   2.0000      -0.772899       -21.0316
 143   2.0000      -0.765518       -20.8308
 144   2.0000      -0.748736       -20.3742
 145   2.0000      -0.744367       -20.2552
 146   2.0000      -0.736228       -20.0338
 147   2.0000      -0.722259       -19.6537
 148   2.0000      -0.710932       -19.3454
 149   2.0000      -0.708575       -19.2813
 150   2.0000      -0.701280       -19.0828
 151   2.0000      -0.696826       -18.9616
 152   2.0000      -0.689501       -18.7623
 153   2.0000      -0.689071       -18.7506
 154   2.0000      -0.686180       -18.6719
 155   2.0000      -0.683784       -18.6067
 156   2.0000      -0.675915       -18.3926
 157   2.0000      -0.672382       -18.2964
 158   2.0000      -0.664695       -18.0873
 159   2.0000      -0.656397       -17.8615
 160   2.0000      -0.644562       -17.5394
 161   2.0000      -0.643207       -17.5025
 162   2.0000      -0.639573       -17.4037
 163   2.0000      -0.629680       -17.1345
 164   2.0000      -0.627753       -17.0820
 165   2.0000      -0.624124       -16.9833
 166   2.0000      -0.622447       -16.9376
 167   2.0000      -0.616045       -16.7634
 168   2.0000      -0.614809       -16.7298
 169   2.0000      -0.614191       -16.7130
 170   2.0000      -0.605557       -16.4780
 171   2.0000      -0.598651       -16.2901
 172   2.0000      -0.596208       -16.2237
 173   2.0000      -0.591526       -16.0962
 174   2.0000      -0.585256       -15.9256
 175   2.0000      -0.575845       -15.6695
 176   2.0000      -0.571539       -15.5524
 177   2.0000      -0.565202       -15.3799
 178   2.0000      -0.562564       -15.3081
 179   2.0000      -0.551277       -15.0010
 180   2.0000      -0.550368       -14.9763
 181   2.0000      -0.547742       -14.9048
 182   2.0000      -0.545345       -14.8396
 183   2.0000      -0.541562       -14.7367
 184   2.0000      -0.540230       -14.7004
 185   2.0000      -0.531974       -14.4757
 186   2.0000      -0.530316       -14.4306
 187   2.0000      -0.526052       -14.3146
 188   2.0000      -0.523718       -14.2511
 189   2.0000      -0.519740       -14.1428
 190   2.0000      -0.517458       -14.0807
 191   2.0000      -0.516429       -14.0527
 192   2.0000      -0.511437       -13.9169
 193   2.0000      -0.511027       -13.9058
 194   2.0000      -0.509435       -13.8624
 195   2.0000      -0.503426       -13.6989
 196   2.0000      -0.502470       -13.6729
 197   2.0000      -0.501923       -13.6580
 198   2.0000      -0.500037       -13.6067
 199   2.0000      -0.498148       -13.5553
 200   2.0000      -0.497660       -13.5420
 201   2.0000      -0.495558       -13.4848
 202   2.0000      -0.492636       -13.4053
 203   2.0000      -0.489499       -13.3200
 204   2.0000      -0.486709       -13.2440
 205   2.0000      -0.484977       -13.1969
 206   2.0000      -0.483475       -13.1560
 207   2.0000      -0.479826       -13.0567
 208   2.0000      -0.479353       -13.0439
 209   2.0000      -0.476644       -12.9701
 210   2.0000      -0.473790       -12.8925
 211   2.0000      -0.473277       -12.8785
 212   2.0000      -0.470011       -12.7897
 213   2.0000      -0.469161       -12.7665
 214   2.0000      -0.466756       -12.7011
 215   2.0000      -0.465018       -12.6538
 216   2.0000      -0.461445       -12.5566
 217   2.0000      -0.460894       -12.5415
 218   2.0000      -0.455234       -12.3875
 219   2.0000      -0.455056       -12.3827
 220   2.0000      -0.452604       -12.3160
 221   2.0000      -0.449727       -12.2377
 222   2.0000      -0.449221       -12.2239
 223   2.0000      -0.448985       -12.2175
 224   2.0000      -0.447183       -12.1685
 225   2.0000      -0.444009       -12.0821
 226   2.0000      -0.442713       -12.0468
 227   2.0000      -0.438574       -11.9342
 228   2.0000      -0.435242       -11.8435
 229   2.0000      -0.434433       -11.8215
 230   2.0000      -0.433661       -11.8005
 231   2.0000      -0.432526       -11.7696
 232   2.0000      -0.431378       -11.7384
 233   2.0000      -0.430851       -11.7241
 234   2.0000      -0.428930       -11.6718
 235   2.0000      -0.426543       -11.6068
 236   2.0000      -0.424557       -11.5528
 237   2.0000      -0.419929       -11.4269
 238   2.0000      -0.418823       -11.3968
 239   2.0000      -0.418587       -11.3903
 240   2.0000      -0.416387       -11.3305
 241   2.0000      -0.412028       -11.2119
 242   2.0000      -0.408710       -11.1216
 243   2.0000      -0.407961       -11.1012
 244   2.0000      -0.403452       -10.9785
 245   2.0000      -0.403123       -10.9695
 246   2.0000      -0.396506       -10.7895
 247   2.0000      -0.393820       -10.7164
 248   2.0000      -0.388783       -10.5793
 249   2.0000      -0.383743       -10.4422
 250   2.0000      -0.370555       -10.0833
 251   2.0000      -0.365319        -9.9408
 252   2.0000      -0.361399        -9.8342
 253   2.0000      -0.358572        -9.7572
 254   2.0000      -0.350813        -9.5461
 255   2.0000      -0.349744        -9.5170
 256   2.0000      -0.345231        -9.3942
 257   2.0000      -0.337011        -9.1705
 258   2.0000      -0.333797        -9.0831
 259   2.0000      -0.327888        -8.9223
 260   2.0000      -0.324032        -8.8174
 261   2.0000      -0.318164        -8.6577
 262   2.0000      -0.317559        -8.6412
 263   2.0000      -0.306815        -8.3489
 264   2.0000      -0.299759        -8.1569
 265   2.0000      -0.283122        -7.7041
 266   2.0000      -0.275994        -7.5102
 267   2.0000      -0.249223        -6.7817
 268   2.0000      -0.220655        -6.0043
 269   0.0000      -0.120310        -3.2738
 270   0.0000      -0.100739        -2.7413
 271   0.0000      -0.099150        -2.6980
 272   0.0000      -0.064291        -1.7494
 273   0.0000      -0.057241        -1.5576

MULLIKEN ATOMIC CHARGES
-----------------------
   0 C :   -0.022245
   1 C :    0.040386
   2 C :   -0.075855
   3 C :    0.163481
   4 C :   -0.019066
   5 C :    0.057756
   6 N :   -0.269137
   7 S :    0.522164
   8 N :   -0.286037
   9 C :   -0.116273
  10 C :   -0.051509
  11 C :    0.026012
  12 C :   -0.088182
  13 S :    0.159543
  14 C :   -0.100846
  15 C :    0.017704
  16 C :    0.304429
  17 C :   -0.298591
  18 C :   -0.191344
  19 N :    0.179141
  20 C :   -0.185945
  21 N :    0.177266
  22 C :   -0.065670
  23 C :   -0.052744
  24 S :    0.191871
  25 C :   -0.047388
  26 C :   -0.069365
  27 C :    0.014887
  28 C :   -0.095745
  29 S :    0.211879
  30 C :   -0.083706
  31 C :    0.034996
  32 C :    0.301001
  33 C :   -0.295844
  34 C :   -0.187940
  35 N :    0.170501
  36 C :   -0.187009
  37 N :    0.173639
  38 C :   -0.047973
  39 C :   -0.058454
  40 S :    0.183183
  41 C :    0.009275
  42 C :   -0.048235
  43 C :    0.048215
  44 C :    0.025338
  45 C :   -0.017326
  46 S :    0.083467
  47 C :   -0.048884
  48 C :    0.041559
  49 C :    0.028245
  50 C :    0.003130
  51 S :    0.106687
  52 C :   -0.019282
  53 C :   -0.048103
  54 C :   -0.088837
  55 C :    0.338077
  56 C :   -0.367848
  57 C :   -0.184231
  58 N :    0.135571
  59 C :   -0.187177
  60 N :    0.125196
  61 C :    0.049115
  62 C :    0.001749
  63 C :    0.141158
  64 O :   -0.166385
  65 C :   -0.090165
  66 C :    0.099445
  67 C :    0.097335
  68 C :   -0.092423
  69 C :   -0.021587
  70 C :    0.034867
  71 C :    0.033346
  72 C :   -0.018380
  73 H :   -0.016449
  74 H :   -0.003629
  75 H :   -0.009717
  76 H :    0.021592
  77 H :    0.014959
  78 H :    0.010792
  79 H :    0.008545
  80 H :    0.003685
  81 H :   -0.002594
  82 H :   -0.007130
  83 H :   -0.006003
  84 H :    0.000921
  85 H :    0.017984
  86 H :    0.015893
  87 H :   -0.019968
  88 H :   -0.011511
  89 H :   -0.012070
  90 H :   -0.008914
  91 H :   -0.009717
  92 H :   -0.022552
Sum of atomic charges:   -0.0000000

LOEWDIN ATOMIC CHARGES
----------------------
   0 C :   -0.019366
   1 C :   -0.013566
   2 C :   -0.026630
   3 C :   -0.038633
   4 C :   -0.042416
   5 C :   -0.051356
   6 N :   -0.284003
   7 S :    0.654612
   8 N :   -0.282375
   9 C :   -0.158736
  10 C :   -0.018919
  11 C :   -0.072099
  12 C :   -0.178867
  13 S :    0.470274
  14 C :   -0.178275
  15 C :   -0.065720
  16 C :    0.080248
  17 C :   -0.097363
  18 C :   -0.017851
  19 N :   -0.028469
  20 C :   -0.017157
  21 N :   -0.027189
  22 C :   -0.034785
  23 C :   -0.183570
  24 S :    0.480322
  25 C :   -0.172490
  26 C :   -0.041295
  27 C :   -0.065013
  28 C :   -0.180520
  29 S :    0.493994
  30 C :   -0.176413
  31 C :   -0.069961
  32 C :    0.082829
  33 C :   -0.102318
  34 C :   -0.016009
  35 N :   -0.033779
  36 C :   -0.016290
  37 N :   -0.032633
  38 C :   -0.013802
  39 C :   -0.173323
  40 S :    0.482834
  41 C :   -0.043043
  42 C :   -0.167080
  43 C :   -0.012308
  44 C :   -0.042198
  45 C :   -0.151277
  46 S :    0.390810
  47 C :   -0.189933
  48 C :   -0.010442
  49 C :   -0.039037
  50 C :   -0.105932
  51 S :    0.412465
  52 C :   -0.067747
  53 C :    0.046645
  54 C :   -0.102793
  55 C :    0.072584
  56 C :   -0.155179
  57 C :   -0.018061
  58 N :   -0.067514
  59 C :   -0.019402
  60 N :   -0.071522
  61 C :   -0.022749
  62 C :   -0.052450
  63 C :    0.081451
  64 O :   -0.160398
  65 C :    0.025209
  66 C :   -0.010158
  67 C :   -0.007836
  68 C :    0.014489
  69 C :   -0.006727
  70 C :   -0.018156
  71 C :   -0.017201
  72 C :   -0.012220
  73 H :    0.038219
  74 H :    0.034737
  75 H :    0.022622
  76 H :    0.039288
  77 H :    0.036919
  78 H :    0.035635
  79 H :    0.042103
  80 H :    0.047678
  81 H :    0.037882
  82 H :    0.034844
  83 H :    0.035122
  84 H :    0.039152
  85 H :    0.039056
  86 H :    0.030919
  87 H :    0.036153
  88 H :    0.038028
  89 H :    0.033674
  90 H :    0.031262
  91 H :    0.030664
  92 H :    0.029832

  Mayer bond orders larger than 0.100000
B(  0-C ,  1-C ) :   1.4908 B(  0-C ,  3-C ) :   0.1083 B(  0-C ,  5-C ) :   1.2076
B(  0-C , 73-H ) :   1.0199 B(  1-C ,  2-C ) :   1.2270 B(  1-C , 74-H ) :   0.9824
B(  2-C ,  3-C ) :   1.4849 B(  2-C , 75-H ) :   0.9872 B(  3-C ,  4-C ) :   1.1889
B(  3-C ,  9-C ) :   1.1013 B(  4-C ,  5-C ) :   1.1659 B(  4-C ,  8-N ) :   1.5257
B(  5-C ,  6-N ) :   1.5053 B(  6-N ,  7-S ) :   1.2846 B(  6-N ,  8-N ) :   0.1492
B(  7-S ,  8-N ) :   1.2572 B(  9-C , 10-C ) :   1.4996 B(  9-C , 13-S ) :   1.0874
B( 10-C , 11-C ) :   1.2301 B( 10-C , 76-H ) :   0.9823 B( 11-C , 12-C ) :   1.4445
B( 11-C , 16-C ) :   1.0008 B( 12-C , 13-S ) :   1.1252 B( 12-C , 14-C ) :   1.1816
B( 14-C , 15-C ) :   1.4483 B( 14-C , 24-S ) :   1.1180 B( 15-C , 16-C ) :   0.9866
B( 15-C , 22-C ) :   1.3055 B( 16-C , 17-C ) :   1.7141 B( 17-C , 18-C ) :   1.1325
B( 17-C , 20-C ) :   1.1383 B( 18-C , 19-N ) :   2.9916 B( 20-C , 21-N ) :   2.9882
B( 22-C , 23-C ) :   1.4507 B( 22-C , 77-H ) :   0.9865 B( 23-C , 24-S ) :   1.1047
B( 23-C , 25-C ) :   1.1747 B( 25-C , 26-C ) :   1.4503 B( 25-C , 29-S ) :   1.1100
B( 26-C , 27-C ) :   1.3015 B( 26-C , 78-H ) :   0.9882 B( 27-C , 28-C ) :   1.4172
B( 27-C , 32-C ) :   1.0061 B( 28-C , 29-S ) :   1.1177 B( 28-C , 30-C ) :   1.2184
B( 30-C , 31-C ) :   1.3810 B( 30-C , 40-S ) :   1.1415 B( 31-C , 32-C ) :   0.9823
B( 31-C , 38-C ) :   1.3375 B( 32-C , 33-C ) :   1.7123 B( 33-C , 34-C ) :   1.1350
B( 33-C , 36-C ) :   1.1329 B( 34-C , 35-N ) :   2.9902 B( 36-C , 37-N ) :   2.9919
B( 38-C , 39-C ) :   1.3534 B( 38-C , 79-H ) :   1.0051 B( 39-C , 40-S ) :   1.0762
B( 39-C , 41-C ) :   1.2274 B( 41-C , 42-C ) :   1.5204 B( 41-C , 80-H ) :   0.9715
B( 42-C , 43-C ) :   1.1653 B( 42-C , 46-S ) :   1.0316 B( 43-C , 44-C ) :   1.5662
B( 43-C , 81-H ) :   1.0004 B( 44-C , 45-C ) :   1.2084 B( 44-C , 82-H ) :   0.9928
B( 45-C , 46-S ) :   1.0752 B( 45-C , 47-C ) :   1.4538 B( 47-C , 48-C ) :   1.2234
B( 47-C , 51-S ) :   1.0511 B( 48-C , 49-C ) :   1.5341 B( 48-C , 83-H ) :   0.9946
B( 49-C , 50-C ) :   1.1846 B( 49-C , 84-H ) :   1.0016 B( 50-C , 51-S ) :   1.0838
B( 50-C , 52-C ) :   1.4127 B( 52-C , 53-C ) :   1.2590 B( 52-C , 85-H ) :   0.9784
B( 53-C , 54-C ) :   1.4821 B( 53-C , 86-H ) :   0.9415 B( 54-C , 55-C ) :   1.1116
B( 54-C , 63-C ) :   0.9624 B( 55-C , 56-C ) :   1.5793 B( 55-C , 61-C ) :   0.9752
B( 56-C , 57-C ) :   1.1552 B( 56-C , 59-C ) :   1.1543 B( 57-C , 58-N ) :   2.9543
B( 59-C , 60-N ) :   2.9532 B( 61-C , 62-C ) :   1.2154 B( 61-C , 68-C ) :   1.4618
B( 62-C , 63-C ) :   0.9364 B( 62-C , 65-C ) :   1.4792 B( 63-C , 64-O ) :   2.1873
B( 65-C , 66-C ) :   1.1715 B( 65-C , 87-H ) :   1.0156 B( 66-C , 67-C ) :   1.2609
B( 66-C , 72-C ) :   1.2470 B( 67-C , 68-C ) :   1.1959 B( 67-C , 69-C ) :   1.2444
B( 68-C , 88-H ) :   0.9886 B( 69-C , 70-C ) :   1.4866 B( 69-C , 89-H ) :   0.9966
B( 70-C , 71-C ) :   1.2625 B( 70-C , 90-H ) :   0.9879 B( 71-C , 72-C ) :   1.4861
B( 71-C , 91-H ) :   0.9886 B( 72-C , 92-H ) :   0.9967

-----------------------------------------------------------------------------
         ABSORPTION SPECTRUM VIA TRANSITION ELECTRIC DIPOLE MOMENTS
-----------------------------------------------------------------------------
State   Energy  Wavelength   fosc         T2         TX        TY        TZ
        (cm-1)    (nm)                  (au**2)     (au)      (au)      (au)
-----------------------------------------------------------------------------
   0    7955.7   1257.0   0.490532024  20.29863   3.44324  -2.90082   0.16740
   1   11662.0    857.5   0.326796839   9.22528  -2.76045   1.23285   0.29201
   2   12336.2    810.6   0.452982297  12.08855   3.03174   1.26640  -1.13725
   3   15239.4    656.2   0.192312502   4.15448   1.15305   1.50330  -0.75170
   4   18353.8    544.8   0.053133679   0.95306   0.38922   0.81439  -0.37194
   5   20718.4    482.7   0.305389343   4.85260   0.12894   2.06547  -0.75484
   6   20895.5    478.6   0.898866635  14.16181   0.88228   3.34185  -1.48843
   7   22756.7    439.4   0.365953183   5.29410  -0.30927   2.10769  -0.86953
   8   23037.9    434.1   0.233185463   3.33222  -0.35850   1.71455  -0.51382
   9   23627.7    423.2   0.191662062   2.67049   0.95281   1.22694  -0.50722
  10   25009.4    399.9   0.117137573   1.54195   1.22812  -0.00513  -0.18344
  11   25369.9    394.2   0.023871288   0.30976   0.02493   0.51154  -0.21787
  12   25540.1    391.5   0.000342324   0.00441   0.03535  -0.05243   0.02035
  13   26161.6    382.2   0.247624362   3.11605  -0.01563   1.63718  -0.65987
  14   26936.5    371.2   0.044062806   0.53853   0.20484   0.61494  -0.34411
  15   27587.3    362.5   0.205955018   2.45775  -1.28673  -0.80409   0.39433
  16   28253.5    353.9   0.079190907   0.92274  -0.70162   0.57628  -0.31363
  17   28811.9    347.1   0.429214249   4.90431   1.67497   1.35320  -0.51733
  18   29489.9    339.1   0.034828477   0.38881   0.54336  -0.28493  -0.11130
  19   29981.0    333.5   0.021601338   0.23720   0.45928  -0.10010   0.12744
  20   30081.0    332.4   0.190742364   2.08752   1.43804   0.08393  -0.11191
  21   30498.9    327.9   0.080715207   0.87126   0.77522  -0.49034   0.17279
  22   30683.4    325.9   0.164611980   1.76617   0.95818  -0.83755   0.38285
  23   30749.3    325.2   0.013954504   0.14940   0.05273  -0.33108   0.19237
  24   31268.2    319.8   0.257324274   2.70927  -1.59595   0.30573  -0.26219
  25   31608.4    316.4   0.020444448   0.21294   0.43067  -0.14654  -0.07734
  26   31815.0    314.3   0.057221465   0.59211   0.64662  -0.03134  -0.41595
  27   31997.0    312.5   0.646507359   6.65180   2.42599   0.75286  -0.44671
  28   32095.4    311.6   0.004073463   0.04178   0.20059  -0.01601  -0.03593
  29   32601.7    306.7   0.045353969   0.45798   0.31823   0.50486  -0.31911
  30   32659.5    306.2   0.000724266   0.00730   0.02113   0.06477  -0.05157
  31   32890.1    304.0   0.072620797   0.72690  -0.18492  -0.78752   0.26927
  32   33330.4    300.0   0.178786244   1.76591   0.98675   0.84593  -0.27681
  33   33713.8    296.6   0.160391476   1.56621   1.16118  -0.44389   0.14430
  34   33891.9    295.1   0.394304543   3.83012   1.36988  -1.36575   0.29710
  35   34551.0    289.4   0.114389447   1.08993  -0.95052   0.42817  -0.05579
  36   34827.9    287.1   0.023375318   0.22096   0.42359   0.14392  -0.14427
  37   35064.0    285.2   0.127712298   1.19908  -0.91962  -0.43191   0.40845
  38   35325.6    283.1   0.000477895   0.00445  -0.03025  -0.01549  -0.05744
  39   35412.2    282.4   0.050239105   0.46705  -0.60343   0.27908  -0.15822
  40   35551.4    281.3   0.032165656   0.29786   0.52175   0.15994  -0.00753
  41   35840.6    279.0   0.002023036   0.01858   0.09078   0.08711  -0.05248
  42   36088.7    277.1   0.004367137   0.03984  -0.16520   0.07381  -0.08426
  43   36348.7    275.1   0.002250246   0.02038  -0.14221   0.01227  -0.00269
  44   36382.8    274.9   0.038577924   0.34907  -0.56917  -0.12196   0.10119
  45   36722.3    272.3   0.001383946   0.01241   0.11059  -0.00127  -0.01325
  46   37046.2    269.9   0.075474826   0.67071   0.50509  -0.61035   0.20753
  47   37200.0    268.8   0.003499004   0.03097  -0.02266   0.17307  -0.02236
  48   37635.7    265.7   0.026493893   0.23175   0.39417  -0.27612   0.01167
  49   37897.2    263.9   0.004361004   0.03788   0.18870  -0.02054   0.04308
  50   38094.8    262.5   0.129632314   1.12027   0.70623  -0.76307   0.19807
  51   38390.0    260.5   0.210295256   1.80338  -0.90746   0.94375  -0.29872
  52   38634.6    258.8   0.080096868   0.68252   0.22767  -0.74935   0.26297
  53   38919.7    256.9   0.020986479   0.17752   0.40327  -0.06490  -0.10334
  54   39247.6    254.8   0.115815848   0.97147  -0.66101   0.70032  -0.20997
  55   39353.4    254.1   0.161147869   1.34809   0.91164   0.65963  -0.28616
  56   39764.0    251.5   0.014631755   0.12114  -0.20486   0.26242  -0.10154
  57   39865.6    250.8   0.000220739   0.00182  -0.04009  -0.01425  -0.00355
  58   40083.8    249.5   0.000110777   0.00091   0.02081   0.02107  -0.00573
  59   40109.1    249.3   0.017428329   0.14305  -0.37784  -0.01253  -0.01134

FINAL SINGLE POINT ENERGY     -5480.217561192467

DIPOLE MOMENT
-------------
                                X             Y             Z
Electronic contribution:     39.81853     -34.25305       0.41728
Nuclear contribution   :    -38.30429      35.69772      -1.24645
                        -----------------------------------------
Total Dipole Moment    :      1.51424       1.44467      -0.82917
                        -----------------------------------------
Magnitude (a.u.)       :      2.25111
Magnitude (Debye)      :      5.72187

Rotational constants in cm-1:     0.000713     0.000321     0.000223
Rotational constants in MHz :    21.384536     9.626502     6.677603

                             ****ORCA TERMINATED NORMALLY****
TOTAL RUN TIME: 0 days 0 hours 15 minutes 7 seconds 690 msec
