                         Program Version 4.2.0 -  RELEASE  -
|  1> # ORCA input file
|  2> # SCF done       -163.844875456406          0.000400036174
|  3> ! CAM-B3LYP def2-SVP def2/J RIJCOSX Grid4 TightSCF
|  4> %maxcore 5000
|  5> %tddft
|  6>     Mode sTDDFT
|  7>     Ethresh 5.0
|  8>     maxcore 5000
|  9> end
| 10>
| 11> %pal
| 12>   nprocs 6
| 13>   end
| 14> * xyz 0 1
| 15>    C       -0.82878        -0.64391         2.94092
| 16>    C       -0.19056         0.45649         3.44895
| 17>    C       -0.35208         1.73040         2.88757
| 18>    C       -1.15968         1.97047         1.78960
| 19>    C       -1.83572         0.84612         1.24173
| 20>    C       -1.66192        -0.45843         1.82700
| 21>    N       -2.36891        -1.39093         1.18473
| 22>    S       -3.16462        -0.69893        -0.02303
| 23>    N       -2.66179         0.81141         0.19741
| 24>    C       -1.31103         3.28065         1.22044
| 25>    C       -2.07187         3.64728         0.13087
| 26>    C       -1.97018         5.01267        -0.14853
| 27>    C       -1.12288         5.69028         0.74223
| 28>    S       -0.45558         4.65207         1.91820
| 29>    C       -1.07305         7.05864         0.36899
| 30>    C       -1.88737         7.24429        -0.75928
| 31>    C       -2.48464         5.96483        -1.11780
| 32>    C       -3.34610         5.71924        -2.14610
| 33>    C       -3.77385         6.74062        -3.02043
| 34>    N       -4.12041         7.57354        -3.72839
| 35>    C       -3.87053         4.43528        -2.40670
| 36>    N       -4.30640         3.39920        -2.63255
| 37>    C       -1.88932         8.56195        -1.21695
| 38>    C       -1.08518         9.37884        -0.44404
| 39>    S       -0.31674         8.50425         0.87391
| 40>    C       -0.82653        10.76112        -0.62409
| 41>    C       -0.04698        11.58449         0.16683
| 42>    C        0.00610        12.88695        -0.33017
| 43>    C       -0.73792        13.05339        -1.51000
| 44>    S       -1.51040        11.61201        -2.00302
| 45>    C       -0.60120        14.39577        -1.94572
| 46>    C        0.22690        15.07886        -1.03971
| 47>    C        0.63088        14.15579         0.00931
| 48>    C        1.42772        14.42364         1.08327
| 49>    C        1.97890        15.70275         1.30754
| 50>    N        2.42847        16.74138         1.49195
| 51>    C        1.75156        13.43950         2.04074
| 52>    N        2.01542        12.64027         2.81955
| 53>    C        0.44011        16.41067        -1.39580
| 54>    C       -0.21607        16.74396        -2.56615
| 55>    S       -1.11909        15.39063        -3.23399
| 56>    C       -0.20778        17.99279        -3.23707
| 57>    C       -0.83961        18.32013        -4.42245
| 58>    C       -0.59239        19.64062        -4.79782
| 59>    C        0.23225        20.32207        -3.88888
| 60>    S        0.70367        19.34180        -2.57236
| 61>    C        0.43032        21.64518        -4.36231
| 62>    C       -0.26850        21.79919        -5.56994
| 63>    C       -0.93538        20.54748        -5.88517
| 64>    C       -1.71387        20.27199        -6.97041
| 65>    C       -1.98362        21.22715        -7.97362
| 66>    N       -2.21370        21.98967        -8.79829
| 67>    C       -2.30295        19.00455        -7.16355
| 68>    N       -2.77977        17.97339        -7.32007
| 69>    C       -0.12585        23.07542        -6.12097
| 70>    C        0.67220        23.89056        -5.34691
| 71>    S        1.25743        23.06442        -3.90668
| 72>    C        1.04545        25.25486        -5.59743
| 73>    C        1.85540        25.97011        -4.73269
| 74>    C        2.23081        27.29986        -4.96691
| 75>    C        1.81560        27.98337        -6.07899
| 76>    C        0.99108        27.30640        -6.99069
| 77>    C        0.59829        25.93998        -6.76016
| 78>    N       -0.18115        25.47991        -7.73739
| 79>    S       -0.39583        26.64137        -8.82714
| 80>    N        0.48136        27.78638        -8.12723
| 81>    H       -0.71122        -1.62782         3.36369
| 82>    H        0.45826         0.35114         4.30530
| 83>    H        0.17872         2.56043         3.33193
| 84>    H       -2.66087         2.93600        -0.41844
| 85>    H       -2.43961         8.92345        -2.06707
| 86>    H        0.45181        11.23764         1.05403
| 87>    H        1.04244        17.11162        -0.84616
| 88>    H       -1.44208        17.62012        -4.97314
| 89>    H       -0.56921        23.41652        -7.03840
| 90>    H        2.21526        25.48313        -3.83743
| 91>    H        2.86587        27.78915        -4.24394
| 92>    H        2.09870        29.00520        -6.26960
| 93> *
| 94>
| 95>                          ****END OF INPUT****

CARTESIAN COORDINATES (ANGSTROEM)
---------------------------------
  C     -0.828780   -0.643910    2.940920
  C     -0.190560    0.456490    3.448950
  C     -0.352080    1.730400    2.887570
  C     -1.159680    1.970470    1.789600
  C     -1.835720    0.846120    1.241730
  C     -1.661920   -0.458430    1.827000
  N     -2.368910   -1.390930    1.184730
  S     -3.164620   -0.698930   -0.023030
  N     -2.661790    0.811410    0.197410
  C     -1.311030    3.280650    1.220440
  C     -2.071870    3.647280    0.130870
  C     -1.970180    5.012670   -0.148530
  C     -1.122880    5.690280    0.742230
  S     -0.455580    4.652070    1.918200
  C     -1.073050    7.058640    0.368990
  C     -1.887370    7.244290   -0.759280
  C     -2.484640    5.964830   -1.117800
  C     -3.346100    5.719240   -2.146100
  C     -3.773850    6.740620   -3.020430
  N     -4.120410    7.573540   -3.728390
  C     -3.870530    4.435280   -2.406700
  N     -4.306400    3.399200   -2.632550
  C     -1.889320    8.561950   -1.216950
  C     -1.085180    9.378840   -0.444040
  S     -0.316740    8.504250    0.873910
  C     -0.826530   10.761120   -0.624090
  C     -0.046980   11.584490    0.166830
  C      0.006100   12.886950   -0.330170
  C     -0.737920   13.053390   -1.510000
  S     -1.510400   11.612010   -2.003020
  C     -0.601200   14.395770   -1.945720
  C      0.226900   15.078860   -1.039710
  C      0.630880   14.155790    0.009310
  C      1.427720   14.423640    1.083270
  C      1.978900   15.702750    1.307540
  N      2.428470   16.741380    1.491950
  C      1.751560   13.439500    2.040740
  N      2.015420   12.640270    2.819550
  C      0.440110   16.410670   -1.395800
  C     -0.216070   16.743960   -2.566150
  S     -1.119090   15.390630   -3.233990
  C     -0.207780   17.992790   -3.237070
  C     -0.839610   18.320130   -4.422450
  C     -0.592390   19.640620   -4.797820
  C      0.232250   20.322070   -3.888880
  S      0.703670   19.341800   -2.572360
  C      0.430320   21.645180   -4.362310
  C     -0.268500   21.799190   -5.569940
  C     -0.935380   20.547480   -5.885170
  C     -1.713870   20.271990   -6.970410
  C     -1.983620   21.227150   -7.973620
  N     -2.213700   21.989670   -8.798290
  C     -2.302950   19.004550   -7.163550
  N     -2.779770   17.973390   -7.320070
  C     -0.125850   23.075420   -6.120970
  C      0.672200   23.890560   -5.346910
  S      1.257430   23.064420   -3.906680
  C      1.045450   25.254860   -5.597430
  C      1.855400   25.970110   -4.732690
  C      2.230810   27.299860   -4.966910
  C      1.815600   27.983370   -6.078990
  C      0.991080   27.306400   -6.990690
  C      0.598290   25.939980   -6.760160
  N     -0.181150   25.479910   -7.737390
  S     -0.395830   26.641370   -8.827140
  N      0.481360   27.786380   -8.127230
  H     -0.711220   -1.627820    3.363690
  H      0.458260    0.351140    4.305300
  H      0.178720    2.560430    3.331930
  H     -2.660870    2.936000   -0.418440
  H     -2.439610    8.923450   -2.067070
  H      0.451810   11.237640    1.054030
  H      1.042440   17.111620   -0.846160
  H     -1.442080   17.620120   -4.973140
  H     -0.569210   23.416520   -7.038400
  H      2.215260   25.483130   -3.837430
  H      2.865870   27.789150   -4.243940
  H      2.098700   29.005200   -6.269600

 Total Charge           Charge          ....    0
 Multiplicity           Mult            ....    1
 Number of Electrons    NEL             ....  498
 Basis Dimension        Dim             .... 1016

ORBITAL ENERGIES
----------------

  NO   OCC          E(Eh)            E(eV)
   0   2.0000     -89.024117     -2422.4694
   1   2.0000     -89.024036     -2422.4672
   2   2.0000     -88.993078     -2421.6248
   3   2.0000     -88.992998     -2421.6226
   4   2.0000     -88.991269     -2421.5755
   5   2.0000     -88.991267     -2421.5755
   6   2.0000     -88.985119     -2421.4082
   7   2.0000     -88.985083     -2421.4072
   8   2.0000     -14.438596      -392.8942
   9   2.0000     -14.438586      -392.8939
  10   2.0000     -14.436756      -392.8441
  11   2.0000     -14.436705      -392.8427
  12   2.0000     -14.433966      -392.7682
  13   2.0000     -14.433897      -392.7663
  14   2.0000     -14.429133      -392.6367
  15   2.0000     -14.429101      -392.6358
  16   2.0000     -14.426310      -392.5599
  17   2.0000     -14.426269      -392.5587
  18   2.0000     -10.367961      -282.1266
  19   2.0000     -10.362384      -281.9748
  20   2.0000     -10.362365      -281.9743
  21   2.0000     -10.355176      -281.7787
  22   2.0000     -10.349271      -281.6180
  23   2.0000     -10.349269      -281.6179
  24   2.0000     -10.334384      -281.2129
  25   2.0000     -10.334337      -281.2116
  26   2.0000     -10.334314      -281.2110
  27   2.0000     -10.334163      -281.2069
  28   2.0000     -10.331779      -281.1420
  29   2.0000     -10.331641      -281.1382
  30   2.0000     -10.331552      -281.1358
  31   2.0000     -10.331514      -281.1348
  32   2.0000     -10.330360      -281.1034
  33   2.0000     -10.330221      -281.0996
  34   2.0000     -10.329629      -281.0835
  35   2.0000     -10.329607      -281.0829
  36   2.0000     -10.329384      -281.0768
  37   2.0000     -10.329370      -281.0765
  38   2.0000     -10.326318      -280.9934
  39   2.0000     -10.326308      -280.9931
  40   2.0000     -10.325466      -280.9702
  41   2.0000     -10.325418      -280.9689
  42   2.0000     -10.321571      -280.8642
  43   2.0000     -10.321532      -280.8632
  44   2.0000     -10.317955      -280.7658
  45   2.0000     -10.317863      -280.7633
  46   2.0000     -10.307961      -280.4939
  47   2.0000     -10.307931      -280.4931
  48   2.0000     -10.305686      -280.4320
  49   2.0000     -10.305668      -280.4315
  50   2.0000     -10.304342      -280.3954
  51   2.0000     -10.304318      -280.3947
  52   2.0000     -10.303198      -280.3643
  53   2.0000     -10.303190      -280.3641
  54   2.0000     -10.302679      -280.3502
  55   2.0000     -10.302609      -280.3482
  56   2.0000     -10.296846      -280.1914
  57   2.0000     -10.296829      -280.1910
  58   2.0000     -10.292909      -280.0843
  59   2.0000     -10.292861      -280.0830
  60   2.0000     -10.290808      -280.0271
  61   2.0000     -10.290778      -280.0263
  62   2.0000     -10.289014      -279.9783
  63   2.0000     -10.288993      -279.9777
  64   2.0000     -10.286929      -279.9216
  65   2.0000     -10.286886      -279.9204
  66   2.0000      -8.115894      -220.8447
  67   2.0000      -8.115855      -220.8437
  68   2.0000      -8.087522      -220.0727
  69   2.0000      -8.087456      -220.0709
  70   2.0000      -8.085746      -220.0243
  71   2.0000      -8.085744      -220.0243
  72   2.0000      -8.079680      -219.8593
  73   2.0000      -8.079661      -219.8588
  74   2.0000      -6.087048      -165.6370
  75   2.0000      -6.087013      -165.6360
  76   2.0000      -6.079256      -165.4250
  77   2.0000      -6.079219      -165.4240
  78   2.0000      -6.078445      -165.4029
  79   2.0000      -6.078380      -165.4011
  80   2.0000      -6.056805      -164.8140
  81   2.0000      -6.056783      -164.8134
  82   2.0000      -6.055063      -164.7666
  83   2.0000      -6.055046      -164.7662
  84   2.0000      -6.052624      -164.7003
  85   2.0000      -6.052593      -164.6994
  86   2.0000      -6.050884      -164.6529
  87   2.0000      -6.050868      -164.6525
  88   2.0000      -6.049747      -164.6220
  89   2.0000      -6.049730      -164.6215
  90   2.0000      -6.048898      -164.5989
  91   2.0000      -6.048878      -164.5983
  92   2.0000      -6.047992      -164.5742
  93   2.0000      -6.047991      -164.5742
  94   2.0000      -6.044738      -164.4857
  95   2.0000      -6.044717      -164.4851
  96   2.0000      -6.042117      -164.4144
  97   2.0000      -6.042100      -164.4139
  98   2.0000      -1.124188       -30.5907
  99   2.0000      -1.124166       -30.5901
 100   2.0000      -1.048305       -28.5258
 101   2.0000      -1.042666       -28.3724
 102   2.0000      -1.041612       -28.3437
 103   2.0000      -1.025587       -27.9076
 104   2.0000      -1.020030       -27.7564
 105   2.0000      -1.019517       -27.7425
 106   2.0000      -1.011698       -27.5297
 107   2.0000      -1.008301       -27.4373
 108   2.0000      -1.005094       -27.3500
 109   2.0000      -1.004665       -27.3383
 110   2.0000      -0.998843       -27.1799
 111   2.0000      -0.990815       -26.9615
 112   2.0000      -0.978302       -26.6209
 113   2.0000      -0.976624       -26.5753
 114   2.0000      -0.968445       -26.3527
 115   2.0000      -0.964513       -26.2457
 116   2.0000      -0.958686       -26.0872
 117   2.0000      -0.950707       -25.8700
 118   2.0000      -0.950446       -25.8630
 119   2.0000      -0.921754       -25.0822
 120   2.0000      -0.910360       -24.7722
 121   2.0000      -0.901383       -24.5279
 122   2.0000      -0.875124       -23.8133
 123   2.0000      -0.872051       -23.7297
 124   2.0000      -0.869000       -23.6467
 125   2.0000      -0.865557       -23.5530
 126   2.0000      -0.862520       -23.4704
 127   2.0000      -0.861733       -23.4489
 128   2.0000      -0.856699       -23.3120
 129   2.0000      -0.856243       -23.2995
 130   2.0000      -0.848379       -23.0856
 131   2.0000      -0.847510       -23.0619
 132   2.0000      -0.830823       -22.6079
 133   2.0000      -0.805300       -21.9133
 134   2.0000      -0.780981       -21.2516
 135   2.0000      -0.777383       -21.1537
 136   2.0000      -0.773281       -21.0420
 137   2.0000      -0.771242       -20.9866
 138   2.0000      -0.755744       -20.5648
 139   2.0000      -0.742256       -20.1978
 140   2.0000      -0.732795       -19.9404
 141   2.0000      -0.718623       -19.5547
 142   2.0000      -0.710680       -19.3386
 143   2.0000      -0.709712       -19.3123
 144   2.0000      -0.702788       -19.1238
 145   2.0000      -0.702759       -19.1231
 146   2.0000      -0.696839       -18.9620
 147   2.0000      -0.688684       -18.7401
 148   2.0000      -0.685515       -18.6538
 149   2.0000      -0.679646       -18.4941
 150   2.0000      -0.672776       -18.3072
 151   2.0000      -0.670934       -18.2570
 152   2.0000      -0.645009       -17.5516
 153   2.0000      -0.642556       -17.4848
 154   2.0000      -0.631387       -17.1809
 155   2.0000      -0.631303       -17.1786
 156   2.0000      -0.627878       -17.0854
 157   2.0000      -0.623384       -16.9631
 158   2.0000      -0.618947       -16.8424
 159   2.0000      -0.618358       -16.8264
 160   2.0000      -0.608986       -16.5714
 161   2.0000      -0.607905       -16.5419
 162   2.0000      -0.599159       -16.3040
 163   2.0000      -0.596996       -16.2451
 164   2.0000      -0.586763       -15.9666
 165   2.0000      -0.582062       -15.8387
 166   2.0000      -0.573546       -15.6070
 167   2.0000      -0.569744       -15.5035
 168   2.0000      -0.562839       -15.3156
 169   2.0000      -0.562695       -15.3117
 170   2.0000      -0.551737       -15.0135
 171   2.0000      -0.549485       -14.9522
 172   2.0000      -0.548894       -14.9362
 173   2.0000      -0.548693       -14.9307
 174   2.0000      -0.543855       -14.7990
 175   2.0000      -0.542621       -14.7655
 176   2.0000      -0.536777       -14.6065
 177   2.0000      -0.533185       -14.5087
 178   2.0000      -0.520452       -14.1622
 179   2.0000      -0.517485       -14.0815
 180   2.0000      -0.510670       -13.8960
 181   2.0000      -0.510142       -13.8817
 182   2.0000      -0.507946       -13.8219
 183   2.0000      -0.501623       -13.6499
 184   2.0000      -0.500471       -13.6185
 185   2.0000      -0.497800       -13.5458
 186   2.0000      -0.496397       -13.5077
 187   2.0000      -0.496213       -13.5027
 188   2.0000      -0.491839       -13.3836
 189   2.0000      -0.489316       -13.3150
 190   2.0000      -0.486936       -13.2502
 191   2.0000      -0.486372       -13.2349
 192   2.0000      -0.481485       -13.1019
 193   2.0000      -0.477462       -12.9924
 194   2.0000      -0.476126       -12.9561
 195   2.0000      -0.475007       -12.9256
 196   2.0000      -0.473138       -12.8747
 197   2.0000      -0.471405       -12.8276
 198   2.0000      -0.466873       -12.7043
 199   2.0000      -0.465162       -12.6577
 200   2.0000      -0.462841       -12.5946
 201   2.0000      -0.462772       -12.5927
 202   2.0000      -0.461095       -12.5470
 203   2.0000      -0.459413       -12.5013
 204   2.0000      -0.459325       -12.4989
 205   2.0000      -0.457538       -12.4503
 206   2.0000      -0.454346       -12.3634
 207   2.0000      -0.453042       -12.3279
 208   2.0000      -0.452736       -12.3196
 209   2.0000      -0.447351       -12.1730
 210   2.0000      -0.446590       -12.1523
 211   2.0000      -0.443917       -12.0796
 212   2.0000      -0.443552       -12.0697
 213   2.0000      -0.440981       -11.9997
 214   2.0000      -0.438754       -11.9391
 215   2.0000      -0.437852       -11.9146
 216   2.0000      -0.437630       -11.9085
 217   2.0000      -0.435967       -11.8633
 218   2.0000      -0.435765       -11.8578
 219   2.0000      -0.435237       -11.8434
 220   2.0000      -0.434669       -11.8280
 221   2.0000      -0.428801       -11.6683
 222   2.0000      -0.428524       -11.6607
 223   2.0000      -0.423003       -11.5105
 224   2.0000      -0.422839       -11.5060
 225   2.0000      -0.420153       -11.4330
 226   2.0000      -0.413282       -11.2460
 227   2.0000      -0.404663       -11.0114
 228   2.0000      -0.404627       -11.0104
 229   2.0000      -0.395296       -10.7566
 230   2.0000      -0.395235       -10.7549
 231   2.0000      -0.390932       -10.6378
 232   2.0000      -0.377009       -10.2589
 233   2.0000      -0.366848        -9.9824
 234   2.0000      -0.366818        -9.9816
 235   2.0000      -0.357247        -9.7212
 236   2.0000      -0.353636        -9.6229
 237   2.0000      -0.347259        -9.4494
 238   2.0000      -0.345856        -9.4112
 239   2.0000      -0.335864        -9.1393
 240   2.0000      -0.335144        -9.1197
 241   2.0000      -0.332416        -9.0455
 242   2.0000      -0.326636        -8.8882
 243   2.0000      -0.320487        -8.7209
 244   2.0000      -0.320243        -8.7142
 245   2.0000      -0.309877        -8.4322
 246   2.0000      -0.285825        -7.7777
 247   2.0000      -0.258585        -7.0365
 248   2.0000      -0.235944        -6.4204
 249   0.0000      -0.110102        -2.9960
 250   0.0000      -0.102269        -2.7829
 251   0.0000      -0.102164        -2.7800
 252   0.0000      -0.066128        -1.7994
 253   0.0000      -0.065003        -1.7688

MULLIKEN ATOMIC CHARGES
-----------------------
   0 C :   -0.021866
   1 C :    0.039303
   2 C :   -0.075588
   3 C :    0.161776
   4 C :   -0.018120
   5 C :    0.053589
   6 N :   -0.266605
   7 S :    0.520805
   8 N :   -0.284821
   9 C :   -0.120308
  10 C :   -0.045748
  11 C :    0.021134
  12 C :   -0.087730
  13 S :    0.159735
  14 C :   -0.098829
  15 C :    0.017508
  16 C :    0.305293
  17 C :   -0.301020
  18 C :   -0.190104
  19 N :    0.167492
  20 C :   -0.184990
  21 N :    0.179084
  22 C :   -0.069794
  23 C :   -0.049351
  24 S :    0.190869
  25 C :   -0.049394
  26 C :   -0.068592
  27 C :    0.015815
  28 C :   -0.098632
  29 S :    0.198019
  30 C :   -0.097844
  31 C :    0.015516
  32 C :    0.300599
  33 C :   -0.297539
  34 C :   -0.187540
  35 N :    0.173847
  36 C :   -0.186324
  37 N :    0.170002
  38 C :   -0.069453
  39 C :   -0.049621
  40 S :    0.197923
  41 C :   -0.050189
  42 C :   -0.070982
  43 C :    0.017824
  44 C :   -0.098720
  45 S :    0.190630
  46 C :   -0.088256
  47 C :    0.022389
  48 C :    0.305567
  49 C :   -0.303239
  50 C :   -0.183709
  51 N :    0.176614
  52 C :   -0.190445
  53 N :    0.171192
  54 C :   -0.048721
  55 C :   -0.117175
  56 S :    0.159821
  57 C :    0.161051
  58 C :   -0.076013
  59 C :    0.039353
  60 C :   -0.021059
  61 C :    0.055534
  62 C :   -0.017197
  63 N :   -0.287865
  64 S :    0.520410
  65 N :   -0.266328
  66 H :   -0.015589
  67 H :   -0.002331
  68 H :   -0.009160
  69 H :    0.021251
  70 H :    0.010583
  71 H :    0.010000
  72 H :    0.010982
  73 H :    0.011258
  74 H :    0.021081
  75 H :   -0.009138
  76 H :   -0.002451
  77 H :   -0.015472
Sum of atomic charges:    0.0000000

LOEWDIN ATOMIC CHARGES
----------------------
   0 C :   -0.019585
   1 C :   -0.013523
   2 C :   -0.026714
   3 C :   -0.038827
   4 C :   -0.042550
   5 C :   -0.051449
   6 N :   -0.283569
   7 S :    0.653976
   8 N :   -0.282767
   9 C :   -0.159704
  10 C :   -0.018809
  11 C :   -0.074113
  12 C :   -0.178060
  13 S :    0.471937
  14 C :   -0.179820
  15 C :   -0.066908
  16 C :    0.082531
  17 C :   -0.100757
  18 C :   -0.015477
  19 N :   -0.035921
  20 C :   -0.018023
  21 N :   -0.028041
  22 C :   -0.039198
  23 C :   -0.181146
  24 S :    0.481371
  25 C :   -0.178698
  26 C :   -0.040299
  27 C :   -0.069558
  28 C :   -0.180057
  29 S :    0.486533
  30 C :   -0.180200
  31 C :   -0.069474
  32 C :    0.084067
  33 C :   -0.102070
  34 C :   -0.016095
  35 N :   -0.033320
  36 C :   -0.015907
  37 N :   -0.033450
  38 C :   -0.040480
  39 C :   -0.178692
  40 S :    0.486569
  41 C :   -0.180982
  42 C :   -0.039333
  43 C :   -0.066858
  44 C :   -0.179887
  45 S :    0.481486
  46 C :   -0.178029
  47 C :   -0.074111
  48 C :    0.082515
  49 C :   -0.100763
  50 C :   -0.017876
  51 N :   -0.028145
  52 C :   -0.015601
  53 N :   -0.035812
  54 C :   -0.018787
  55 C :   -0.159654
  56 S :    0.471879
  57 C :   -0.038857
  58 C :   -0.026767
  59 C :   -0.013611
  60 C :   -0.019396
  61 C :   -0.051439
  62 C :   -0.042427
  63 N :   -0.282974
  64 S :    0.653882
  65 N :   -0.283445
  66 H :    0.038362
  67 H :    0.035033
  68 H :    0.022616
  69 H :    0.039121
  70 H :    0.035342
  71 H :    0.035147
  72 H :    0.035163
  73 H :    0.035404
  74 H :    0.039118
  75 H :    0.022545
  76 H :    0.035010
  77 H :    0.038408

  Mayer bond orders larger than 0.100000
B(  0-C ,  1-C ) :   1.4887 B(  0-C ,  3-C ) :   0.1080 B(  0-C ,  5-C ) :   1.2101
B(  0-C , 66-H ) :   1.0202 B(  1-C ,  2-C ) :   1.2279 B(  1-C , 67-H ) :   0.9827
B(  2-C ,  3-C ) :   1.4848 B(  2-C , 68-H ) :   0.9873 B(  3-C ,  4-C ) :   1.1880
B(  3-C ,  9-C ) :   1.1015 B(  4-C ,  5-C ) :   1.1668 B(  4-C ,  8-N ) :   1.5268
B(  5-C ,  6-N ) :   1.5058 B(  6-N ,  7-S ) :   1.2853 B(  6-N ,  8-N ) :   0.1494
B(  7-S ,  8-N ) :   1.2572 B(  9-C , 10-C ) :   1.5016 B(  9-C , 13-S ) :   1.0880
B( 10-C , 11-C ) :   1.2304 B( 10-C , 69-H ) :   0.9819 B( 11-C , 12-C ) :   1.4461
B( 11-C , 16-C ) :   1.0003 B( 12-C , 13-S ) :   1.1274 B( 12-C , 14-C ) :   1.1775
B( 14-C , 15-C ) :   1.4524 B( 14-C , 24-S ) :   1.1174 B( 15-C , 16-C ) :   0.9874
B( 15-C , 22-C ) :   1.2993 B( 16-C , 17-C ) :   1.7130 B( 17-C , 18-C ) :   1.1322
B( 17-C , 20-C ) :   1.1356 B( 18-C , 19-N ) :   2.9895 B( 20-C , 21-N ) :   2.9907
B( 22-C , 23-C ) :   1.4581 B( 22-C , 70-H ) :   0.9877 B( 23-C , 24-S ) :   1.1075
B( 23-C , 25-C ) :   1.1672 B( 25-C , 26-C ) :   1.4603 B( 25-C , 29-S ) :   1.1082
B( 26-C , 27-C ) :   1.2977 B( 26-C , 71-H ) :   0.9876 B( 27-C , 28-C ) :   1.4479
B( 27-C , 32-C ) :   0.9937 B( 28-C , 29-S ) :   1.1202 B( 28-C , 30-C ) :   1.1843
B( 30-C , 31-C ) :   1.4469 B( 30-C , 40-S ) :   1.1198 B( 31-C , 32-C ) :   0.9940
B( 31-C , 38-C ) :   1.2980 B( 32-C , 33-C ) :   1.7149 B( 33-C , 34-C ) :   1.1328
B( 33-C , 36-C ) :   1.1314 B( 34-C , 35-N ) :   2.9923 B( 36-C , 37-N ) :   2.9913
B( 38-C , 39-C ) :   1.4598 B( 38-C , 72-H ) :   0.9872 B( 39-C , 40-S ) :   1.1085
B( 39-C , 41-C ) :   1.1687 B( 41-C , 42-C ) :   1.4588 B( 41-C , 45-S ) :   1.1076
B( 42-C , 43-C ) :   1.2996 B( 42-C , 73-H ) :   0.9870 B( 43-C , 44-C ) :   1.4518
B( 43-C , 48-C ) :   0.9872 B( 44-C , 45-S ) :   1.1172 B( 44-C , 46-C ) :   1.1773
B( 46-C , 47-C ) :   1.4478 B( 46-C , 56-S ) :   1.1276 B( 47-C , 48-C ) :   0.9997
B( 47-C , 54-C ) :   1.2297 B( 48-C , 49-C ) :   1.7138 B( 49-C , 50-C ) :   1.1344
B( 49-C , 52-C ) :   1.1339 B( 50-C , 51-N ) :   2.9901 B( 52-C , 53-N ) :   2.9905
B( 54-C , 55-C ) :   1.5023 B( 54-C , 74-H ) :   0.9820 B( 55-C , 56-S ) :   1.0873
B( 55-C , 57-C ) :   1.1012 B( 57-C , 58-C ) :   1.4875 B( 57-C , 60-C ) :   0.1080
B( 57-C , 62-C ) :   1.1879 B( 58-C , 59-C ) :   1.2274 B( 58-C , 75-H ) :   0.9867
B( 59-C , 60-C ) :   1.4901 B( 59-C , 76-H ) :   0.9823 B( 60-C , 61-C ) :   1.2077
B( 60-C , 77-H ) :   1.0198 B( 61-C , 62-C ) :   1.1669 B( 61-C , 65-N ) :   1.5061
B( 62-C , 63-N ) :   1.5241 B( 63-N , 64-S ) :   1.2576 B( 63-N , 65-N ) :   0.1493
B( 64-S , 65-N ) :   1.2857

-----------------------------------------------------------------------------
         ABSORPTION SPECTRUM VIA TRANSITION ELECTRIC DIPOLE MOMENTS
-----------------------------------------------------------------------------
State   Energy  Wavelength   fosc         T2         TX        TY        TZ
        (cm-1)    (nm)                  (au**2)     (au)      (au)      (au)
-----------------------------------------------------------------------------
   0   10452.3    956.7   0.309704066   9.75459   0.29252   2.95996  -0.95273
   1   12053.4    829.6   0.194001408   5.29873   0.20651   2.18595  -0.69115
   2   12287.9    813.8   0.001607359   0.04306  -0.01152   0.05742   0.19908
   3   19363.1    516.4   0.001085270   0.01845  -0.01721   0.04096   0.12837
   4   21103.5    473.9   0.642734774  10.02660   0.29314   3.00306  -0.96037
   5   21626.1    462.4   0.000249073   0.00379   0.04820   0.03763  -0.00723
   6   23139.0    432.2   1.776003790  25.26826   0.44667   4.77437  -1.50801
   7   24013.7    416.4   0.006930853   0.09502  -0.28834   0.05875   0.09181
   8   25128.6    398.0   0.000375043   0.00491   0.02520   0.05555  -0.03452
   9   26950.3    371.1   0.285654954   3.48942   0.19558   1.76296  -0.58579
  10   27377.0    365.3   0.000400396   0.00481   0.06911  -0.00594   0.00173
  11   27694.2    361.1   0.163420243   1.94264   0.16174   1.31006  -0.44746
  12   30256.2    330.5   0.255836867   2.78371   0.86796   0.35571   1.37979
  13   31089.6    321.7   0.257176718   2.72328  -0.91896  -0.32363  -1.33194
  14   31269.0    319.8   0.444889003   4.68396   1.37440   0.29445   1.64568
  15   31365.3    318.8   0.280044053   2.93936   0.16000   1.66744  -0.36526
  16   31729.1    315.2   0.480960824   4.99031   1.32072   0.44354   1.74622
  17   31865.7    313.8   0.048748797   0.50364  -0.12340  -0.65338   0.24800
  18   32321.1    309.4   0.195378141   1.99005  -0.12455  -1.33866   0.42725
  19   32444.9    308.2   0.052711701   0.53486  -0.40650  -0.15680  -0.58739
  20   32626.4    306.5   0.036378104   0.36707   0.09954   0.55530  -0.22091
  21   32707.7    305.7   0.440838603   4.43716  -1.29681  -0.39812  -1.61150
  22   34027.4    293.9   0.063656019   0.61587  -0.32800  -0.71169  -0.04217
  23   34035.1    293.8   0.279669828   2.70517   0.03836   1.52905  -0.60474
  24   34194.4    292.4   0.080501495   0.77504  -0.43777  -0.21453  -0.73306
  25   34332.0    291.3   0.000359896   0.00345   0.00713  -0.05804  -0.00565
  26   35003.1    285.7   0.009975214   0.09382  -0.19919  -0.04937  -0.22738
  27   35629.9    280.7   0.014927840   0.13793  -0.08237  -0.35599   0.06644
  28   35653.5    280.5   0.129134269   1.19238  -0.63171  -0.21348  -0.86472
  29   35683.4    280.2   0.014248978   0.13146  -0.02455   0.34291  -0.11520
  30   36065.6    277.3   0.003535453   0.03227   0.05643   0.03835   0.16618
  31   36591.6    273.3   0.089871053   0.80856   0.06501   0.85955  -0.25594
  32   37259.6    268.4   0.054598761   0.48241  -0.06986  -0.65697   0.21429
  33   37297.6    268.1   0.008743808   0.07718   0.21608   0.01415   0.17403
  34   37581.6    266.1   0.088082459   0.77160  -0.57798  -0.14671  -0.64498
  35   37839.2    264.3   0.012563888   0.10931  -0.00451  -0.31945   0.08509
  36   38463.0    260.0   0.020906300   0.17894   0.02708   0.40715  -0.11152
  37   38631.7    258.9   0.048447532   0.41286   0.41859   0.12733   0.47056
  38   38767.0    258.0   0.243464156   2.06751  -0.13119  -1.36896   0.41981
  39   39179.6    255.2   0.019204048   0.16136  -0.30709  -0.04700  -0.25466
  40   39425.2    253.6   0.002583979   0.02158   0.00161  -0.14254   0.03547
  41   39735.2    251.7   0.078123156   0.64726  -0.09954  -0.76853   0.21614
  42   39766.5    251.5   0.055935721   0.46307   0.35173   0.10809   0.57243
  43   40143.1    249.1   0.001376389   0.01129  -0.02444   0.03323   0.09791
  44   40300.2    248.1   0.120171008   0.98168   0.09691   0.93787  -0.30444

FINAL SINGLE POINT ENERGY     -5565.197643064723

DIPOLE MOMENT
-------------
                                X             Y             Z
Electronic contribution:     -7.40736      -1.61614      -7.21611
Nuclear contribution   :      9.05671       2.06327       9.09521
                        -----------------------------------------
Total Dipole Moment    :      1.64935       0.44713       1.87909
                        -----------------------------------------
Magnitude (a.u.)       :      2.53993
Magnitude (Debye)      :      6.45599

Rotational constants in cm-1:     0.003203     0.000201     0.000189
Rotational constants in MHz :    96.026405     6.012649     5.669372

                             ****ORCA TERMINATED NORMALLY****
TOTAL RUN TIME: 0 days 0 hours 6 minutes 42 seconds 706 msec
