                         Program Version 4.2.0 -  RELEASE  -
|  1> # ORCA input file
|  2> # SCF done       -113.586449549712          0.000565158943
|  3> ! CAM-B3LYP def2-SVP def2/J RIJCOSX Grid4 TightSCF
|  4> %maxcore 5000
|  5> %tddft
|  6>     Mode sTDDFT
|  7>     Ethresh 5.0
|  8>     maxcore 5000
|  9> end
| 10>
| 11> %pal
| 12>   nprocs 6
| 13>   end
| 14> * xyz 0 1
| 15>    C       17.92212         1.80828         3.25124
| 16>    C       17.04993         2.29007         4.13671
| 17>    C       15.64258         2.00859         4.11240
| 18>    C       14.77379         2.51366         5.01049
| 19>    C       13.35773         2.29969         5.06202
| 20>    C       12.64824         1.52183         4.22276
| 21>    N       11.29714         1.33688         4.33104
| 22>    C       10.49251         0.69449         3.41204
| 23>    C       10.86664         0.24690         2.17875
| 24>    S        9.56438        -0.47925         1.32075
| 25>    C        8.48930        -0.19293         2.63004
| 26>    C        9.10188         0.42987         3.67873
| 27>    N        8.50248         0.78906         4.87078
| 28>    C        7.15629         0.84823         5.09268
| 29>    C        6.60446         1.01401         6.31676
| 30>    C        5.21288         1.12786         6.52876
| 31>    C        4.61827         1.28689         7.74744
| 32>    C        3.22941         1.41468         8.01045
| 33>    C        2.91424         1.56721         9.32284
| 34>    C        4.03193         1.56713        10.19233
| 35>    S        5.51109         1.36610         9.26816
| 36>    C        4.03435         1.70074        11.56045
| 37>    C        2.91833         1.88559        12.41316
| 38>    C        3.22634         1.99609        13.73005
| 39>    C        4.61840         1.89862        14.01585
| 40>    S        5.51395         1.66108        12.50874
| 41>    C        5.26822         1.96483        15.20660
| 42>    N        4.65258         2.22748        16.39823
| 43>    C        5.23204         2.08823        17.64450
| 44>    C        6.37963         1.40738        17.93073
| 45>    S        6.76403         1.45563        19.60485
| 46>    C        5.37110         2.40807        19.94140
| 47>    C        4.64701         2.68269        18.81854
| 48>    N        3.49449         3.43883        18.74246
| 49>    C        2.78091         3.93235        19.80043
| 50>    C        1.78079         4.82573        19.66806
| 51>    C        1.01795         5.32012        20.76411
| 52>    C        0.02353         6.22883        20.64641
| 53>    C       -0.72723         6.73233        21.74682
| 54>    C       -1.71643         7.64211        21.62166
| 55>    C       -2.50905         8.19721        22.68924
| 56>    C       -2.38907         7.93486        23.99096
| 57>    H       18.97150         2.04178         3.29736
| 58>    H       17.60943         1.16243         2.44706
| 59>    H       17.39526         2.93806         4.93298
| 60>    H       15.29990         1.35901         3.31924
| 61>    H       15.16766         3.16257         5.78349
| 62>    H       12.82618         2.82047         5.84961
| 63>    H       13.11879         0.97147         3.42548
| 64>    H       10.83149         1.85757         5.06112
| 65>    H       11.82343         0.31303         1.70478
| 66>    H        7.47334        -0.51987         2.55276
| 67>    H        9.09417         0.85488         5.68733
| 68>    H        6.54129         0.79204         4.20788
| 69>    H        7.24201         1.06458         7.19043
| 70>    H        4.56601         1.08720         5.66216
| 71>    H        2.51005         1.39008         7.21029
| 72>    H        1.91097         1.67778         9.69452
| 73>    H        1.91662         1.93226        12.02426
| 74>    H        2.48851         2.13326        14.50274
| 75>    H        6.33925         1.85281        15.24855
| 76>    H        3.65251         2.36271        16.37152
| 77>    H        7.01324         0.86307        17.26198
| 78>    H        5.18818         2.72166        20.94780
| 79>    H        3.26481         3.82353        17.83661
| 80>    H        3.05013         3.53248        20.76541
| 81>    H        1.53519         5.20557        18.68383
| 82>    H        1.27042         4.93664        21.74466
| 83>    H       -0.22844         6.61065        19.66463
| 84>    H       -0.46699         6.34779        22.72347
| 85>    H       -1.95292         8.00325        20.62789
| 86>    H       -3.27099         8.90026        22.37408
| 87>    H       -1.65269         7.25197        24.37699
| 88>    H       -3.03023         8.40176        24.71844
| 89> *
| 90>
| 91>                          ****END OF INPUT****

CARTESIAN COORDINATES (ANGSTROEM)
---------------------------------
  C     17.922120    1.808280    3.251240
  C     17.049930    2.290070    4.136710
  C     15.642580    2.008590    4.112400
  C     14.773790    2.513660    5.010490
  C     13.357730    2.299690    5.062020
  C     12.648240    1.521830    4.222760
  N     11.297140    1.336880    4.331040
  C     10.492510    0.694490    3.412040
  C     10.866640    0.246900    2.178750
  S      9.564380   -0.479250    1.320750
  C      8.489300   -0.192930    2.630040
  C      9.101880    0.429870    3.678730
  N      8.502480    0.789060    4.870780
  C      7.156290    0.848230    5.092680
  C      6.604460    1.014010    6.316760
  C      5.212880    1.127860    6.528760
  C      4.618270    1.286890    7.747440
  C      3.229410    1.414680    8.010450
  C      2.914240    1.567210    9.322840
  C      4.031930    1.567130   10.192330
  S      5.511090    1.366100    9.268160
  C      4.034350    1.700740   11.560450
  C      2.918330    1.885590   12.413160
  C      3.226340    1.996090   13.730050
  C      4.618400    1.898620   14.015850
  S      5.513950    1.661080   12.508740
  C      5.268220    1.964830   15.206600
  N      4.652580    2.227480   16.398230
  C      5.232040    2.088230   17.644500
  C      6.379630    1.407380   17.930730
  S      6.764030    1.455630   19.604850
  C      5.371100    2.408070   19.941400
  C      4.647010    2.682690   18.818540
  N      3.494490    3.438830   18.742460
  C      2.780910    3.932350   19.800430
  C      1.780790    4.825730   19.668060
  C      1.017950    5.320120   20.764110
  C      0.023530    6.228830   20.646410
  C     -0.727230    6.732330   21.746820
  C     -1.716430    7.642110   21.621660
  C     -2.509050    8.197210   22.689240
  C     -2.389070    7.934860   23.990960
  H     18.971500    2.041780    3.297360
  H     17.609430    1.162430    2.447060
  H     17.395260    2.938060    4.932980
  H     15.299900    1.359010    3.319240
  H     15.167660    3.162570    5.783490
  H     12.826180    2.820470    5.849610
  H     13.118790    0.971470    3.425480
  H     10.831490    1.857570    5.061120
  H     11.823430    0.313030    1.704780
  H      7.473340   -0.519870    2.552760
  H      9.094170    0.854880    5.687330
  H      6.541290    0.792040    4.207880
  H      7.242010    1.064580    7.190430
  H      4.566010    1.087200    5.662160
  H      2.510050    1.390080    7.210290
  H      1.910970    1.677780    9.694520
  H      1.916620    1.932260   12.024260
  H      2.488510    2.133260   14.502740
  H      6.339250    1.852810   15.248550
  H      3.652510    2.362710   16.371520
  H      7.013240    0.863070   17.261980
  H      5.188180    2.721660   20.947800
  H      3.264810    3.823530   17.836610
  H      3.050130    3.532480   20.765410
  H      1.535190    5.205570   18.683830
  H      1.270420    4.936640   21.744660
  H     -0.228440    6.610650   19.664630
  H     -0.466990    6.347790   22.723470
  H     -1.952920    8.003250   20.627890
  H     -3.270990    8.900260   22.374080
  H     -1.652690    7.251970   24.376990
  H     -3.030230    8.401760   24.718440

 Total Charge           Charge          ....    0
 Multiplicity           Mult            ....    1
 Number of Electrons    NEL             ....  328
 Basis Dimension        Dim             ....  764

ORBITAL ENERGIES
----------------

  NO   OCC          E(Eh)            E(eV)
   0   2.0000     -88.946169     -2420.3483
   1   2.0000     -88.945775     -2420.3376
   2   2.0000     -88.926490     -2419.8128
   3   2.0000     -88.924238     -2419.7515
   4   2.0000     -14.452582      -393.2747
   5   2.0000     -14.451076      -393.2338
   6   2.0000     -14.450351      -393.2141
   7   2.0000     -14.449038      -393.1783
   8   2.0000     -10.317244      -280.7465
   9   2.0000     -10.316688      -280.7313
  10   2.0000     -10.316643      -280.7301
  11   2.0000     -10.316314      -280.7212
  12   2.0000     -10.314441      -280.6702
  13   2.0000     -10.313309      -280.6394
  14   2.0000     -10.312910      -280.6285
  15   2.0000     -10.310392      -280.5600
  16   2.0000     -10.292399      -280.0704
  17   2.0000     -10.289399      -279.9888
  18   2.0000     -10.288161      -279.9551
  19   2.0000     -10.284622      -279.8588
  20   2.0000     -10.283183      -279.8196
  21   2.0000     -10.282897      -279.8118
  22   2.0000     -10.282417      -279.7988
  23   2.0000     -10.281229      -279.7665
  24   2.0000     -10.277669      -279.6696
  25   2.0000     -10.275718      -279.6165
  26   2.0000     -10.268823      -279.4289
  27   2.0000     -10.266752      -279.3725
  28   2.0000     -10.266226      -279.3582
  29   2.0000     -10.265213      -279.3306
  30   2.0000     -10.262359      -279.2530
  31   2.0000     -10.259819      -279.1839
  32   2.0000     -10.259168      -279.1662
  33   2.0000     -10.258337      -279.1435
  34   2.0000     -10.257790      -279.1287
  35   2.0000     -10.256991      -279.1069
  36   2.0000     -10.255255      -279.0597
  37   2.0000     -10.254621      -279.0424
  38   2.0000     -10.253260      -279.0054
  39   2.0000     -10.251574      -278.9595
  40   2.0000     -10.248331      -278.8713
  41   2.0000     -10.245802      -278.8024
  42   2.0000      -8.042061      -218.8356
  43   2.0000      -8.041614      -218.8234
  44   2.0000      -8.022702      -218.3088
  45   2.0000      -8.020452      -218.2476
  46   2.0000      -6.011654      -163.5854
  47   2.0000      -6.011206      -163.5732
  48   2.0000      -6.007292      -163.4667
  49   2.0000      -6.006838      -163.4544
  50   2.0000      -6.003814      -163.3721
  51   2.0000      -6.003400      -163.3608
  52   2.0000      -5.992735      -163.0706
  53   2.0000      -5.990232      -163.0025
  54   2.0000      -5.988756      -162.9623
  55   2.0000      -5.986397      -162.8982
  56   2.0000      -5.983033      -162.8066
  57   2.0000      -5.981156      -162.7555
  58   2.0000      -1.066786       -29.0287
  59   2.0000      -1.065167       -28.9847
  60   2.0000      -1.038882       -28.2694
  61   2.0000      -1.037280       -28.2258
  62   2.0000      -0.975542       -26.5458
  63   2.0000      -0.963439       -26.2165
  64   2.0000      -0.962081       -26.1796
  65   2.0000      -0.951241       -25.8846
  66   2.0000      -0.902734       -24.5646
  67   2.0000      -0.895881       -24.3782
  68   2.0000      -0.889084       -24.1932
  69   2.0000      -0.878731       -23.9115
  70   2.0000      -0.864330       -23.5196
  71   2.0000      -0.857179       -23.3250
  72   2.0000      -0.843832       -22.9618
  73   2.0000      -0.835346       -22.7309
  74   2.0000      -0.828749       -22.5514
  75   2.0000      -0.814641       -22.1675
  76   2.0000      -0.811523       -22.0827
  77   2.0000      -0.806492       -21.9458
  78   2.0000      -0.802716       -21.8430
  79   2.0000      -0.787276       -21.4229
  80   2.0000      -0.774420       -21.0730
  81   2.0000      -0.772492       -21.0206
  82   2.0000      -0.759271       -20.6608
  83   2.0000      -0.732732       -19.9387
  84   2.0000      -0.723102       -19.6766
  85   2.0000      -0.715943       -19.4818
  86   2.0000      -0.696020       -18.9397
  87   2.0000      -0.684375       -18.6228
  88   2.0000      -0.673882       -18.3373
  89   2.0000      -0.670960       -18.2577
  90   2.0000      -0.663928       -18.0664
  91   2.0000      -0.656351       -17.8602
  92   2.0000      -0.651608       -17.7312
  93   2.0000      -0.647087       -17.6081
  94   2.0000      -0.640530       -17.4297
  95   2.0000      -0.629870       -17.1396
  96   2.0000      -0.628284       -17.0965
  97   2.0000      -0.625524       -17.0214
  98   2.0000      -0.620534       -16.8856
  99   2.0000      -0.613542       -16.6953
 100   2.0000      -0.603725       -16.4282
 101   2.0000      -0.600005       -16.3270
 102   2.0000      -0.599282       -16.3073
 103   2.0000      -0.586695       -15.9648
 104   2.0000      -0.579540       -15.7701
 105   2.0000      -0.565840       -15.3973
 106   2.0000      -0.554568       -15.0906
 107   2.0000      -0.553759       -15.0686
 108   2.0000      -0.548514       -14.9258
 109   2.0000      -0.541394       -14.7321
 110   2.0000      -0.532927       -14.5017
 111   2.0000      -0.527333       -14.3495
 112   2.0000      -0.524030       -14.2596
 113   2.0000      -0.521670       -14.1954
 114   2.0000      -0.513323       -13.9682
 115   2.0000      -0.512790       -13.9537
 116   2.0000      -0.504152       -13.7187
 117   2.0000      -0.501285       -13.6407
 118   2.0000      -0.498153       -13.5554
 119   2.0000      -0.494367       -13.4524
 120   2.0000      -0.490461       -13.3461
 121   2.0000      -0.482060       -13.1175
 122   2.0000      -0.480607       -13.0780
 123   2.0000      -0.475368       -12.9354
 124   2.0000      -0.473306       -12.8793
 125   2.0000      -0.471106       -12.8194
 126   2.0000      -0.469388       -12.7727
 127   2.0000      -0.467645       -12.7253
 128   2.0000      -0.463680       -12.6174
 129   2.0000      -0.460763       -12.5380
 130   2.0000      -0.459721       -12.5096
 131   2.0000      -0.456868       -12.4320
 132   2.0000      -0.448613       -12.2074
 133   2.0000      -0.446159       -12.1406
 134   2.0000      -0.445000       -12.1091
 135   2.0000      -0.433849       -11.8056
 136   2.0000      -0.432232       -11.7616
 137   2.0000      -0.430551       -11.7159
 138   2.0000      -0.425112       -11.5679
 139   2.0000      -0.421437       -11.4679
 140   2.0000      -0.420152       -11.4329
 141   2.0000      -0.418671       -11.3926
 142   2.0000      -0.414221       -11.2715
 143   2.0000      -0.412734       -11.2311
 144   2.0000      -0.411717       -11.2034
 145   2.0000      -0.408375       -11.1124
 146   2.0000      -0.407662       -11.0930
 147   2.0000      -0.400304       -10.8928
 148   2.0000      -0.382655       -10.4126
 149   2.0000      -0.380529       -10.3547
 150   2.0000      -0.374452       -10.1894
 151   2.0000      -0.346139        -9.4189
 152   2.0000      -0.341876        -9.3029
 153   2.0000      -0.325488        -8.8570
 154   2.0000      -0.323678        -8.8077
 155   2.0000      -0.312301        -8.4981
 156   2.0000      -0.303571        -8.2606
 157   2.0000      -0.291208        -7.9242
 158   2.0000      -0.283492        -7.7142
 159   2.0000      -0.277930        -7.5629
 160   2.0000      -0.248823        -6.7708
 161   2.0000      -0.229068        -6.2333
 162   2.0000      -0.223607        -6.0847
 163   2.0000      -0.186836        -5.0841
 164   0.0000      -0.046206        -1.2573
 165   0.0000      -0.020644        -0.5617
 166   0.0000      -0.007578        -0.2062
 167   0.0000       0.012705         0.3457
 168   0.0000       0.033154         0.9022

MULLIKEN ATOMIC CHARGES
-----------------------
   0 C :   -0.033646
   1 C :    0.008201
   2 C :    0.003490
   3 C :    0.012854
   4 C :   -0.026025
   5 C :    0.082515
   6 N :   -0.060255
   7 C :    0.135967
   8 C :   -0.224842
   9 S :    0.110593
  10 C :   -0.209060
  11 C :    0.130821
  12 N :   -0.065702
  13 C :    0.056242
  14 C :   -0.014517
  15 C :   -0.027906
  16 C :   -0.023767
  17 C :    0.031462
  18 C :    0.018983
  19 C :   -0.051299
  20 S :    0.042134
  21 C :   -0.056275
  22 C :    0.013247
  23 C :    0.011190
  24 C :   -0.062064
  25 S :    0.061762
  26 C :    0.054112
  27 N :   -0.078837
  28 C :    0.127234
  29 C :   -0.206387
  30 S :    0.110428
  31 C :   -0.220938
  32 C :    0.139982
  33 N :   -0.065991
  34 C :    0.066775
  35 C :   -0.009932
  36 C :    0.014340
  37 C :   -0.001893
  38 C :    0.039357
  39 C :   -0.009027
  40 C :    0.003154
  41 C :   -0.022714
  42 H :    0.014884
  43 H :    0.005048
  44 H :   -0.016377
  45 H :   -0.031027
  46 H :   -0.020390
  47 H :   -0.031346
  48 H :    0.007383
  49 H :    0.109518
  50 H :    0.011567
  51 H :    0.010831
  52 H :    0.117372
  53 H :    0.007218
  54 H :   -0.014456
  55 H :   -0.025767
  56 H :   -0.022423
  57 H :   -0.023998
  58 H :   -0.020913
  59 H :   -0.030705
  60 H :    0.004310
  61 H :    0.118161
  62 H :    0.013878
  63 H :    0.010767
  64 H :    0.111495
  65 H :    0.005297
  66 H :   -0.028929
  67 H :   -0.022856
  68 H :   -0.027114
  69 H :   -0.023964
  70 H :   -0.024616
  71 H :   -0.012020
  72 H :    0.008181
  73 H :    0.017226
Sum of atomic charges:   -0.0000000

LOEWDIN ATOMIC CHARGES
----------------------
   0 C :   -0.066778
   1 C :   -0.023417
   2 C :   -0.045194
   3 C :   -0.023695
   4 C :   -0.109190
   5 C :    0.051098
   6 N :    0.019121
   7 C :   -0.027000
   8 C :   -0.239594
   9 S :    0.428842
  10 C :   -0.234085
  11 C :   -0.031865
  12 N :    0.019340
  13 C :    0.037097
  14 C :   -0.098706
  15 C :   -0.056291
  16 C :   -0.161712
  17 C :   -0.040421
  18 C :   -0.043736
  19 C :   -0.187622
  20 S :    0.338824
  21 C :   -0.184743
  22 C :   -0.032981
  23 C :   -0.056428
  24 C :   -0.203418
  25 S :    0.340364
  26 C :    0.001562
  27 N :    0.018992
  28 C :   -0.031647
  29 C :   -0.233757
  30 S :    0.428999
  31 C :   -0.238640
  32 C :   -0.027827
  33 N :    0.015361
  34 C :    0.037329
  35 C :   -0.093837
  36 C :   -0.019514
  37 C :   -0.047801
  38 C :   -0.009934
  39 C :   -0.050456
  40 C :   -0.032961
  41 C :   -0.049929
  42 H :    0.020733
  43 H :    0.017377
  44 H :    0.025905
  45 H :    0.018264
  46 H :    0.026556
  47 H :    0.020605
  48 H :    0.027562
  49 H :    0.077534
  50 H :    0.018992
  51 H :    0.019732
  52 H :    0.079574
  53 H :    0.029227
  54 H :    0.018153
  55 H :    0.028639
  56 H :    0.029191
  57 H :    0.027323
  58 H :    0.029436
  59 H :    0.021448
  60 H :    0.029731
  61 H :    0.075390
  62 H :    0.020864
  63 H :    0.018926
  64 H :    0.076862
  65 H :    0.028972
  66 H :    0.021230
  67 H :    0.024012
  68 H :    0.022605
  69 H :    0.023456
  70 H :    0.022336
  71 H :    0.026717
  72 H :    0.016659
  73 H :    0.022236

  Mayer bond orders larger than 0.100000
B(  0-C ,  1-C ) :   1.8979 B(  0-C ,  3-C ) :   0.1000 B(  0-C , 42-H ) :   0.9530
B(  0-C , 43-H ) :   0.9571 B(  1-C ,  2-C ) :   1.1215 B(  1-C , 44-H ) :   0.9758
B(  2-C ,  3-C ) :   1.7380 B(  2-C , 45-H ) :   0.9627 B(  3-C ,  4-C ) :   1.1337
B(  3-C , 46-H ) :   0.9723 B(  4-C ,  5-C ) :   1.6898 B(  4-C , 47-H ) :   0.9684
B(  5-C ,  6-N ) :   1.1504 B(  5-C , 48-H ) :   0.9631 B(  6-N ,  7-C ) :   1.1199
B(  6-N , 49-H ) :   0.9196 B(  7-C ,  8-C ) :   1.5173 B(  7-C , 11-C ) :   1.2407
B(  8-C ,  9-S ) :   1.1382 B(  8-C , 50-H ) :   0.9776 B(  9-S , 10-C ) :   1.1440
B( 10-C , 11-C ) :   1.5233 B( 10-C , 51-H ) :   0.9769 B( 11-C , 12-N ) :   1.0989
B( 12-N , 13-C ) :   1.1495 B( 12-N , 52-H ) :   0.9201 B( 13-C , 14-C ) :   1.6470
B( 13-C , 53-H ) :   0.9710 B( 14-C , 15-C ) :   1.1490 B( 14-C , 54-H ) :   0.9642
B( 15-C , 16-C ) :   1.6128 B( 15-C , 55-H ) :   0.9776 B( 16-C , 17-C ) :   1.1323
B( 16-C , 20-S ) :   1.0105 B( 17-C , 18-C ) :   1.6057 B( 17-C , 56-H ) :   0.9978
B( 18-C , 19-C ) :   1.1776 B( 18-C , 57-H ) :   0.9923 B( 19-C , 20-S ) :   1.0307
B( 19-C , 21-C ) :   1.5386 B( 21-C , 22-C ) :   1.1819 B( 21-C , 25-S ) :   1.0381
B( 22-C , 23-C ) :   1.6469 B( 22-C , 58-H ) :   0.9909 B( 23-C , 24-C ) :   1.1115
B( 23-C , 59-H ) :   0.9833 B( 24-C , 25-S ) :   1.0016 B( 24-C , 26-C ) :   1.6187
B( 26-C , 27-N ) :   1.1721 B( 26-C , 60-H ) :   0.9514 B( 27-N , 28-C ) :   1.1026
B( 27-N , 61-H ) :   0.9139 B( 28-C , 29-C ) :   1.5244 B( 28-C , 32-C ) :   1.2398
B( 29-C , 30-S ) :   1.1421 B( 29-C , 62-H ) :   0.9766 B( 30-S , 31-C ) :   1.1382
B( 31-C , 32-C ) :   1.5201 B( 31-C , 63-H ) :   0.9781 B( 32-C , 33-N ) :   1.1132
B( 33-N , 34-C ) :   1.1394 B( 33-N , 64-H ) :   0.9162 B( 34-C , 35-C ) :   1.6595
B( 34-C , 65-H ) :   0.9721 B( 35-C , 36-C ) :   1.1368 B( 35-C , 66-H ) :   0.9730
B( 36-C , 37-C ) :   1.6608 B( 36-C , 67-H ) :   0.9831 B( 37-C , 38-C ) :   1.1330
B( 37-C , 68-H ) :   0.9867 B( 38-C , 39-C ) :   1.7183 B( 38-C , 69-H ) :   0.9727
B( 39-C , 40-C ) :   1.1008 B( 39-C , 70-H ) :   0.9751 B( 40-C , 41-C ) :   1.9406
B( 40-C , 71-H ) :   0.9639 B( 41-C , 72-H ) :   0.9507 B( 41-C , 73-H ) :   0.9526

-----------------------------------------------------------------------------
         ABSORPTION SPECTRUM VIA TRANSITION ELECTRIC DIPOLE MOMENTS
-----------------------------------------------------------------------------
State   Energy  Wavelength   fosc         T2         TX        TY        TZ
        (cm-1)    (nm)                  (au**2)     (au)      (au)      (au)
-----------------------------------------------------------------------------
   0   17095.8    584.9   1.712874304  32.98457  -1.14659   0.71399   5.58213
   1   26007.5    384.5   0.102245318   1.29426  -0.78394   0.73858   0.36631
   2   26490.6    377.5   0.088750179   1.10294   1.02453  -0.22287  -0.06007
   3   27545.0    363.0   0.011376794   0.13597   0.35981   0.07985   0.01157
   4   28274.6    353.7   0.052962726   0.61667   0.64842   0.34427   0.27874
   5   28693.6    348.5   0.107952645   1.23858  -1.03498  -0.31927  -0.25586
   6   29855.0    335.0   0.915348918  10.09359   2.18754  -2.00099  -1.14207
   7   30591.9    326.9   0.338732703   3.64524   1.79311  -0.56085  -0.33979
   8   30843.9    324.2   0.735119557   7.84628  -2.68694   0.72203   0.32451
   9   32558.7    307.1   0.559904235   5.66139   2.14040   0.85634   0.58886
  10   34295.8    291.6   0.041676397   0.40006  -0.24230   0.03834  -0.58299
  11   35378.6    282.7   0.007784941   0.07244   0.20618  -0.16318  -0.05746
  12   35874.2    278.8   0.019994748   0.18349  -0.32540   0.24513  -0.13235
  13   36245.8    275.9   0.069490833   0.63117  -0.02095  -0.13768  -0.78216
  14   37997.3    263.2   0.002124028   0.01840  -0.08468   0.07083  -0.07883
  15   38209.3    261.7   0.036156867   0.31153  -0.03767   0.05479   0.55417
  16   39080.7    255.9   0.028539263   0.24041  -0.25615   0.16854   0.38261
  17   39364.7    254.0   0.034824738   0.29124   0.28382  -0.19352   0.41622
  18   39800.5    251.3   0.011499180   0.09512   0.04362  -0.11890   0.28121
  19   40039.5    249.8   0.077116287   0.63406   0.70417  -0.25150  -0.27377

FINAL SINGLE POINT ENERGY     -3123.999550215235

DIPOLE MOMENT
-------------
                                X             Y             Z
Electronic contribution:      2.45718     -23.20774     -17.15910
Nuclear contribution   :     -3.01885      23.11723      17.01204
                        -----------------------------------------
Total Dipole Moment    :     -0.56167      -0.09050      -0.14706
                        -----------------------------------------
Magnitude (a.u.)       :      0.58761
Magnitude (Debye)      :      1.49359

Rotational constants in cm-1:     0.003041     0.000388     0.000361
Rotational constants in MHz :    91.158687    11.644851    10.824684

                             ****ORCA TERMINATED NORMALLY****
TOTAL RUN TIME: 0 days 0 hours 5 minutes 0 seconds 823 msec
