                         Program Version 4.2.0 -  RELEASE  -
|  1> # ORCA input file
|  2> # SCF done       -153.838964660082          0.000306861728
|  3> ! CAM-B3LYP def2-SVP def2/J RIJCOSX Grid4 TightSCF
|  4> %maxcore 5000
|  5> %tddft
|  6>     Mode sTDDFT
|  7>     Ethresh 5.0
|  8>     maxcore 5000
|  9> end
| 10>
| 11> %pal
| 12>   nprocs 6
| 13>   end
| 14> * xyz 0 1
| 15>    N        3.63348         1.54686        -0.51748
| 16>    C        3.63747         1.52444         0.93410
| 17>    C        4.62274         2.54819         1.48207
| 18>    C        4.99245         2.28957         2.94334
| 19>    N        6.00662         3.26010         3.31201
| 20>    S        7.51094         2.52785         2.92628
| 21>    N        7.00806         0.96496         3.44696
| 22>    C        5.59194         0.84404         3.13961
| 23>    C        5.42505        -0.00926         1.88025
| 24>    C        3.97982         0.07659         1.39864
| 25>    N        3.75019        -0.77230         0.24511
| 26>    S        2.94888         0.10613        -1.05132
| 27>    C        3.72039        -2.10909         0.29826
| 28>    O        4.07401        -2.75063         1.43940
| 29>    C        3.40949        -3.03353        -0.67546
| 30>    C        2.95352        -3.20458        -2.04033
| 31>    O        2.66173        -2.40447        -2.89553
| 32>    N        2.90517        -4.59606        -2.19579
| 33>    C        3.27544        -5.33543        -1.07916
| 34>    O        3.29714        -6.53912        -1.01530
| 35>    C        3.60192        -4.31299        -0.08129
| 36>    C        4.01322        -4.11630         1.21325
| 37>    C        4.36416        -5.04650         2.22469
| 38>    C        4.73330        -4.72674         3.48417
| 39>    C        5.10663        -5.72344         4.44011
| 40>    C        5.44641        -5.53810         5.72624
| 41>    C        5.44276        -4.22356         6.44053
| 42>    C        5.81206        -6.72851         6.58455
| 43>    N        4.83499        -6.98858         7.61742
| 44>    C        3.62881        -7.53709         7.35847
| 45>    C        2.63333        -7.67011         8.27332
| 46>    C        1.40440        -8.29295         7.98726
| 47>    C        0.40562        -8.50659         8.89825
| 48>    C       -0.84905        -9.12156         8.66736
| 49>    C       -1.63588        -9.22924         9.77202
| 50>    C       -1.04977        -8.70930        10.95005
| 51>    S        0.53432        -8.05695        10.60028
| 52>    C       -1.57770        -8.70175        12.22458
| 53>    C       -2.83033        -9.19452        12.65179
| 54>    C       -3.05088        -9.06285        13.98774
| 55>    C       -1.98254        -8.45931        14.70067
| 56>    S       -0.68553        -8.05183        13.59278
| 57>    C       -1.94496        -8.23036        16.05003
| 58>    C       -0.89556        -7.65254        16.78556
| 59>    S        0.61990        -7.07763        16.10935
| 60>    C        1.25706        -6.57830        17.62987
| 61>    C        0.35664        -6.83395        18.63614
| 62>    C       -0.84536        -7.43454        18.15174
| 63>    O       -1.70925        -7.67399        19.16344
| 64>    C       -1.07385        -7.23461        20.28305
| 65>    N       -1.74934        -7.35955        21.51502
| 66>    O       -1.15774        -6.95736        22.50244
| 67>    O       -2.85901        -7.85138        21.51477
| 68>    C        0.17206        -6.71728        20.04019
| 69>    H        4.56413         1.69343        -0.90002
| 70>    H        2.61707         1.76229         1.25422
| 71>    H        4.20186         3.54944         1.39715
| 72>    H        5.54553         2.53399         0.89903
| 73>    H        4.11105         2.42522         3.57670
| 74>    H        5.96636         3.52543         4.29137
| 75>    H        7.20803         0.83463         4.43322
| 76>    H        5.08275         0.34733         3.97290
| 77>    H        5.68591        -1.04084         2.11486
| 78>    H        6.11168         0.33909         1.10888
| 79>    H        3.31286        -0.22565         2.21763
| 80>    H        2.61784        -5.02997        -3.06103
| 81>    H        4.31502        -6.07859         1.90705
| 82>    H        4.75211        -3.68640         3.77353
| 83>    H        5.12325        -6.73403         4.04988
| 84>    H        5.44729        -3.38848         5.74787
| 85>    H        6.31457        -4.14214         7.08866
| 86>    H        4.55210        -4.14042         7.06567
| 87>    H        6.77632        -6.55523         7.07147
| 88>    H        5.89828        -7.62212         5.95999
| 89>    H        4.94617        -6.51758         8.50208
| 90>    H        3.50493        -7.91890         6.35434
| 91>    H        2.78091        -7.29873         9.27898
| 92>    H        1.23320        -8.63545         6.97487
| 93>    H       -1.12665        -9.46780         7.68698
| 94>    H       -2.61551        -9.67227         9.77695
| 95>    H       -3.53182        -9.63288        11.96462
| 96>    H       -3.94455        -9.38286        14.49360
| 97>    H       -2.80617        -8.52664        16.63403
| 98>    H        2.23121        -6.14049        17.68356
| 99>    H        0.84000        -6.31828        20.77486
|100> *
|101>
|102>                          ****END OF INPUT****

CARTESIAN COORDINATES (ANGSTROEM)
---------------------------------
  N      3.633480    1.546860   -0.517480
  C      3.637470    1.524440    0.934100
  C      4.622740    2.548190    1.482070
  C      4.992450    2.289570    2.943340
  N      6.006620    3.260100    3.312010
  S      7.510940    2.527850    2.926280
  N      7.008060    0.964960    3.446960
  C      5.591940    0.844040    3.139610
  C      5.425050   -0.009260    1.880250
  C      3.979820    0.076590    1.398640
  N      3.750190   -0.772300    0.245110
  S      2.948880    0.106130   -1.051320
  C      3.720390   -2.109090    0.298260
  O      4.074010   -2.750630    1.439400
  C      3.409490   -3.033530   -0.675460
  C      2.953520   -3.204580   -2.040330
  O      2.661730   -2.404470   -2.895530
  N      2.905170   -4.596060   -2.195790
  C      3.275440   -5.335430   -1.079160
  O      3.297140   -6.539120   -1.015300
  C      3.601920   -4.312990   -0.081290
  C      4.013220   -4.116300    1.213250
  C      4.364160   -5.046500    2.224690
  C      4.733300   -4.726740    3.484170
  C      5.106630   -5.723440    4.440110
  C      5.446410   -5.538100    5.726240
  C      5.442760   -4.223560    6.440530
  C      5.812060   -6.728510    6.584550
  N      4.834990   -6.988580    7.617420
  C      3.628810   -7.537090    7.358470
  C      2.633330   -7.670110    8.273320
  C      1.404400   -8.292950    7.987260
  C      0.405620   -8.506590    8.898250
  C     -0.849050   -9.121560    8.667360
  C     -1.635880   -9.229240    9.772020
  C     -1.049770   -8.709300   10.950050
  S      0.534320   -8.056950   10.600280
  C     -1.577700   -8.701750   12.224580
  C     -2.830330   -9.194520   12.651790
  C     -3.050880   -9.062850   13.987740
  C     -1.982540   -8.459310   14.700670
  S     -0.685530   -8.051830   13.592780
  C     -1.944960   -8.230360   16.050030
  C     -0.895560   -7.652540   16.785560
  S      0.619900   -7.077630   16.109350
  C      1.257060   -6.578300   17.629870
  C      0.356640   -6.833950   18.636140
  C     -0.845360   -7.434540   18.151740
  O     -1.709250   -7.673990   19.163440
  C     -1.073850   -7.234610   20.283050
  N     -1.749340   -7.359550   21.515020
  O     -1.157740   -6.957360   22.502440
  O     -2.859010   -7.851380   21.514770
  C      0.172060   -6.717280   20.040190
  H      4.564130    1.693430   -0.900020
  H      2.617070    1.762290    1.254220
  H      4.201860    3.549440    1.397150
  H      5.545530    2.533990    0.899030
  H      4.111050    2.425220    3.576700
  H      5.966360    3.525430    4.291370
  H      7.208030    0.834630    4.433220
  H      5.082750    0.347330    3.972900
  H      5.685910   -1.040840    2.114860
  H      6.111680    0.339090    1.108880
  H      3.312860   -0.225650    2.217630
  H      2.617840   -5.029970   -3.061030
  H      4.315020   -6.078590    1.907050
  H      4.752110   -3.686400    3.773530
  H      5.123250   -6.734030    4.049880
  H      5.447290   -3.388480    5.747870
  H      6.314570   -4.142140    7.088660
  H      4.552100   -4.140420    7.065670
  H      6.776320   -6.555230    7.071470
  H      5.898280   -7.622120    5.959990
  H      4.946170   -6.517580    8.502080
  H      3.504930   -7.918900    6.354340
  H      2.780910   -7.298730    9.278980
  H      1.233200   -8.635450    6.974870
  H     -1.126650   -9.467800    7.686980
  H     -2.615510   -9.672270    9.776950
  H     -3.531820   -9.632880   11.964620
  H     -3.944550   -9.382860   14.493600
  H     -2.806170   -8.526640   16.634030
  H      2.231210   -6.140490   17.683560
  H      0.840000   -6.318280   20.774860

 Total Charge           Charge          ....    0
 Multiplicity           Mult            ....    1
 Number of Electrons    NEL             ....  424
 Basis Dimension        Dim             ....  931

ORBITAL ENERGIES
----------------

  NO   OCC          E(Eh)            E(eV)
   0   2.0000     -88.981767     -2421.3170
   1   2.0000     -88.966068     -2420.8898
   2   2.0000     -88.960155     -2420.7289
   3   2.0000     -88.932503     -2419.9764
   4   2.0000     -88.932239     -2419.9692
   5   2.0000     -19.307892      -525.3945
   6   2.0000     -19.294545      -525.0313
   7   2.0000     -19.232364      -523.3392
   8   2.0000     -19.230003      -523.2750
   9   2.0000     -19.198160      -522.4085
  10   2.0000     -19.192182      -522.2458
  11   2.0000     -14.643647      -398.4739
  12   2.0000     -14.465634      -393.6299
  13   2.0000     -14.444250      -393.0480
  14   2.0000     -14.441202      -392.9651
  15   2.0000     -14.439054      -392.9066
  16   2.0000     -14.428940      -392.6314
  17   2.0000     -14.426565      -392.5668
  18   2.0000     -10.398156      -282.9482
  19   2.0000     -10.388167      -282.6764
  20   2.0000     -10.384200      -282.5685
  21   2.0000     -10.373820      -282.2860
  22   2.0000     -10.346117      -281.5322
  23   2.0000     -10.328345      -281.0486
  24   2.0000     -10.327626      -281.0290
  25   2.0000     -10.322657      -280.8938
  26   2.0000     -10.322544      -280.8907
  27   2.0000     -10.321336      -280.8578
  28   2.0000     -10.321288      -280.8565
  29   2.0000     -10.318989      -280.7940
  30   2.0000     -10.302525      -280.3460
  31   2.0000     -10.302012      -280.3320
  32   2.0000     -10.299492      -280.2634
  33   2.0000     -10.295709      -280.1605
  34   2.0000     -10.293844      -280.1097
  35   2.0000     -10.290173      -280.0098
  36   2.0000     -10.288551      -279.9657
  37   2.0000     -10.288257      -279.9577
  38   2.0000     -10.287793      -279.9451
  39   2.0000     -10.283116      -279.8178
  40   2.0000     -10.283089      -279.8171
  41   2.0000     -10.282274      -279.7949
  42   2.0000     -10.280963      -279.7592
  43   2.0000     -10.279931      -279.7311
  44   2.0000     -10.279891      -279.7300
  45   2.0000     -10.278444      -279.6907
  46   2.0000     -10.277008      -279.6516
  47   2.0000     -10.275505      -279.6107
  48   2.0000     -10.273893      -279.5668
  49   2.0000     -10.271762      -279.5088
  50   2.0000     -10.269641      -279.4511
  51   2.0000     -10.267222      -279.3853
  52   2.0000     -10.267098      -279.3820
  53   2.0000     -10.260194      -279.1941
  54   2.0000      -8.072486      -219.6635
  55   2.0000      -8.057786      -219.2635
  56   2.0000      -8.054518      -219.1746
  57   2.0000      -8.028575      -218.4686
  58   2.0000      -8.028471      -218.4658
  59   2.0000      -6.045927      -164.5180
  60   2.0000      -6.039678      -164.3480
  61   2.0000      -6.030871      -164.1083
  62   2.0000      -6.028617      -164.0470
  63   2.0000      -6.024596      -163.9376
  64   2.0000      -6.023868      -163.9178
  65   2.0000      -6.019465      -163.7980
  66   2.0000      -6.016980      -163.7304
  67   2.0000      -6.014846      -163.6723
  68   2.0000      -5.998376      -163.2241
  69   2.0000      -5.998206      -163.2195
  70   2.0000      -5.994298      -163.1131
  71   2.0000      -5.994278      -163.1126
  72   2.0000      -5.989432      -162.9807
  73   2.0000      -5.989339      -162.9782
  74   2.0000      -1.314183       -35.7607
  75   2.0000      -1.224582       -33.3226
  76   2.0000      -1.213839       -33.0302
  77   2.0000      -1.140458       -31.0334
  78   2.0000      -1.130050       -30.7502
  79   2.0000      -1.118932       -30.4477
  80   2.0000      -1.093340       -29.7513
  81   2.0000      -1.067837       -29.0573
  82   2.0000      -1.044792       -28.4302
  83   2.0000      -1.028382       -27.9837
  84   2.0000      -1.011797       -27.5324
  85   2.0000      -0.984201       -26.7815
  86   2.0000      -0.977512       -26.5995
  87   2.0000      -0.967272       -26.3208
  88   2.0000      -0.958175       -26.0733
  89   2.0000      -0.929448       -25.2916
  90   2.0000      -0.929324       -25.2882
  91   2.0000      -0.922310       -25.0973
  92   2.0000      -0.913486       -24.8572
  93   2.0000      -0.900778       -24.5114
  94   2.0000      -0.890207       -24.2238
  95   2.0000      -0.881579       -23.9890
  96   2.0000      -0.863137       -23.4871
  97   2.0000      -0.852215       -23.1899
  98   2.0000      -0.844211       -22.9721
  99   2.0000      -0.839859       -22.8537
 100   2.0000      -0.830781       -22.6067
 101   2.0000      -0.823939       -22.4205
 102   2.0000      -0.814903       -22.1747
 103   2.0000      -0.805042       -21.9063
 104   2.0000      -0.792989       -21.5783
 105   2.0000      -0.785280       -21.3686
 106   2.0000      -0.771942       -21.0056
 107   2.0000      -0.768879       -20.9223
 108   2.0000      -0.762326       -20.7439
 109   2.0000      -0.757028       -20.5998
 110   2.0000      -0.751209       -20.4414
 111   2.0000      -0.734721       -19.9928
 112   2.0000      -0.718849       -19.5609
 113   2.0000      -0.713777       -19.4229
 114   2.0000      -0.708223       -19.2717
 115   2.0000      -0.695123       -18.9153
 116   2.0000      -0.692207       -18.8359
 117   2.0000      -0.691945       -18.8288
 118   2.0000      -0.679454       -18.4889
 119   2.0000      -0.666688       -18.1415
 120   2.0000      -0.658779       -17.9263
 121   2.0000      -0.650654       -17.7052
 122   2.0000      -0.643482       -17.5100
 123   2.0000      -0.632625       -17.2146
 124   2.0000      -0.628444       -17.1008
 125   2.0000      -0.628390       -17.0994
 126   2.0000      -0.624294       -16.9879
 127   2.0000      -0.617734       -16.8094
 128   2.0000      -0.616200       -16.7677
 129   2.0000      -0.613174       -16.6853
 130   2.0000      -0.609160       -16.5761
 131   2.0000      -0.606293       -16.4981
 132   2.0000      -0.596243       -16.2246
 133   2.0000      -0.587357       -15.9828
 134   2.0000      -0.586213       -15.9517
 135   2.0000      -0.584697       -15.9104
 136   2.0000      -0.582251       -15.8439
 137   2.0000      -0.579300       -15.7635
 138   2.0000      -0.576551       -15.6888
 139   2.0000      -0.572946       -15.5907
 140   2.0000      -0.571825       -15.5601
 141   2.0000      -0.565736       -15.3945
 142   2.0000      -0.560425       -15.2499
 143   2.0000      -0.551212       -14.9993
 144   2.0000      -0.550505       -14.9800
 145   2.0000      -0.544964       -14.8292
 146   2.0000      -0.543252       -14.7826
 147   2.0000      -0.540189       -14.6993
 148   2.0000      -0.537735       -14.6325
 149   2.0000      -0.531509       -14.4631
 150   2.0000      -0.531257       -14.4562
 151   2.0000      -0.526127       -14.3166
 152   2.0000      -0.516965       -14.0673
 153   2.0000      -0.510164       -13.8823
 154   2.0000      -0.505216       -13.7476
 155   2.0000      -0.503087       -13.6897
 156   2.0000      -0.501543       -13.6477
 157   2.0000      -0.497642       -13.5415
 158   2.0000      -0.495231       -13.4759
 159   2.0000      -0.492632       -13.4052
 160   2.0000      -0.490090       -13.3360
 161   2.0000      -0.487118       -13.2552
 162   2.0000      -0.485106       -13.2004
 163   2.0000      -0.483375       -13.1533
 164   2.0000      -0.477823       -13.0022
 165   2.0000      -0.477312       -12.9883
 166   2.0000      -0.473615       -12.8877
 167   2.0000      -0.472595       -12.8600
 168   2.0000      -0.469095       -12.7647
 169   2.0000      -0.467167       -12.7123
 170   2.0000      -0.463707       -12.6181
 171   2.0000      -0.462284       -12.5794
 172   2.0000      -0.461643       -12.5619
 173   2.0000      -0.457042       -12.4368
 174   2.0000      -0.453134       -12.3304
 175   2.0000      -0.449466       -12.2306
 176   2.0000      -0.447389       -12.1741
 177   2.0000      -0.441235       -12.0066
 178   2.0000      -0.438705       -11.9378
 179   2.0000      -0.430283       -11.7086
 180   2.0000      -0.429231       -11.6800
 181   2.0000      -0.424065       -11.5394
 182   2.0000      -0.418373       -11.3845
 183   2.0000      -0.417443       -11.3592
 184   2.0000      -0.415518       -11.3068
 185   2.0000      -0.411328       -11.1928
 186   2.0000      -0.407522       -11.0892
 187   2.0000      -0.403811       -10.9883
 188   2.0000      -0.396124       -10.7791
 189   2.0000      -0.381671       -10.3858
 190   2.0000      -0.377281       -10.2663
 191   2.0000      -0.377191       -10.2639
 192   2.0000      -0.373993       -10.1769
 193   2.0000      -0.368433       -10.0256
 194   2.0000      -0.367854       -10.0098
 195   2.0000      -0.362423        -9.8620
 196   2.0000      -0.359616        -9.7857
 197   2.0000      -0.355186        -9.6651
 198   2.0000      -0.349110        -9.4998
 199   2.0000      -0.341606        -9.2956
 200   2.0000      -0.334886        -9.1127
 201   2.0000      -0.331773        -9.0280
 202   2.0000      -0.327587        -8.9141
 203   2.0000      -0.326188        -8.8760
 204   2.0000      -0.317178        -8.6309
 205   2.0000      -0.305479        -8.3125
 206   2.0000      -0.297275        -8.0893
 207   2.0000      -0.295995        -8.0544
 208   2.0000      -0.291905        -7.9431
 209   2.0000      -0.254425        -6.9232
 210   2.0000      -0.242903        -6.6097
 211   2.0000      -0.193060        -5.2534
 212   0.0000      -0.063412        -1.7255
 213   0.0000      -0.046421        -1.2632
 214   0.0000      -0.044578        -1.2130
 215   0.0000       0.004704         0.1280
 216   0.0000       0.006397         0.1741

MULLIKEN ATOMIC CHARGES
-----------------------
   0 N :   -0.322643
   1 C :    0.026138
   2 C :    0.226314
   3 C :   -0.069060
   4 N :   -0.301130
   5 S :    0.218057
   6 N :   -0.315213
   7 C :   -0.014463
   8 C :    0.238704
   9 C :    0.070648
  10 N :   -0.393706
  11 S :    0.350313
  12 C :    0.228943
  13 O :   -0.251935
  14 C :   -0.110136
  15 C :    0.152553
  16 O :   -0.165966
  17 N :   -0.167947
  18 C :    0.157446
  19 O :   -0.157272
  20 C :   -0.018894
  21 C :    0.082239
  22 C :   -0.034198
  23 C :    0.009474
  24 C :    0.014517
  25 C :   -0.171765
  26 C :    0.092766
  27 C :    0.189565
  28 N :   -0.155377
  29 C :    0.074116
  30 C :   -0.030799
  31 C :   -0.004869
  32 C :   -0.041290
  33 C :    0.046340
  34 C :    0.011167
  35 C :   -0.037287
  36 S :    0.055368
  37 C :   -0.052801
  38 C :    0.032876
  39 C :    0.023487
  40 C :   -0.017633
  41 S :    0.045378
  42 C :   -0.027077
  43 C :   -0.180572
  44 S :    0.128018
  45 C :   -0.142881
  46 C :    0.129698
  47 C :    0.184507
  48 O :   -0.187645
  49 C :    0.230018
  50 N :    0.275877
  51 O :   -0.256937
  52 O :   -0.235769
  53 C :   -0.075027
  54 H :    0.143313
  55 H :    0.015042
  56 H :    0.024009
  57 H :   -0.025241
  58 H :    0.009815
  59 H :    0.126309
  60 H :    0.126707
  61 H :    0.000727
  62 H :    0.023363
  63 H :   -0.028983
  64 H :    0.003192
  65 H :    0.132878
  66 H :    0.008331
  67 H :   -0.013942
  68 H :   -0.023983
  69 H :    0.013765
  70 H :    0.008710
  71 H :    0.034343
  72 H :    0.017729
  73 H :    0.012632
  74 H :    0.121403
  75 H :    0.002036
  76 H :   -0.016286
  77 H :   -0.019333
  78 H :   -0.018183
  79 H :   -0.020563
  80 H :   -0.018563
  81 H :   -0.017478
  82 H :   -0.004731
  83 H :    0.021371
  84 H :    0.007378
Sum of atomic charges:   -0.0000000

LOEWDIN ATOMIC CHARGES
----------------------
   0 N :   -0.209286
   1 C :    0.002981
   2 C :   -0.030836
   3 C :   -0.010913
   4 N :   -0.222995
   5 S :    0.360282
   6 N :   -0.230009
   7 C :   -0.009347
   8 C :   -0.033582
   9 C :    0.009182
  10 N :   -0.171584
  11 S :    0.441493
  12 C :    0.100277
  13 O :   -0.014892
  14 C :   -0.180934
  15 C :    0.076993
  16 O :   -0.183476
  17 N :   -0.008423
  18 C :    0.081475
  19 O :   -0.172588
  20 C :   -0.079757
  21 C :    0.045606
  22 C :   -0.031135
  23 C :   -0.026991
  24 C :   -0.045279
  25 C :   -0.042725
  26 C :   -0.051713
  27 C :    0.044015
  28 N :   -0.000465
  29 C :    0.056007
  30 C :   -0.123476
  31 C :   -0.026718
  32 C :   -0.179664
  33 C :   -0.022110
  34 C :   -0.054627
  35 C :   -0.161774
  36 S :    0.353414
  37 C :   -0.202219
  38 C :   -0.030477
  39 C :   -0.048921
  40 C :   -0.144308
  41 S :    0.350897
  42 C :   -0.094214
  43 C :   -0.196632
  44 S :    0.463196
  45 C :   -0.207223
  46 C :   -0.084610
  47 C :    0.011169
  48 O :   -0.001643
  49 C :    0.021452
  50 N :    0.273243
  51 O :   -0.217774
  52 O :   -0.196977
  53 C :   -0.011440
  54 H :    0.055113
  55 H :    0.024886
  56 H :    0.035821
  57 H :    0.019031
  58 H :    0.022723
  59 H :    0.047598
  60 H :    0.045952
  61 H :    0.019174
  62 H :    0.026972
  63 H :    0.023671
  64 H :    0.018130
  65 H :    0.091476
  66 H :    0.045267
  67 H :    0.023306
  68 H :    0.025796
  69 H :    0.029428
  70 H :    0.029392
  71 H :    0.038162
  72 H :    0.030048
  73 H :    0.028425
  74 H :    0.078365
  75 H :    0.029361
  76 H :    0.017612
  77 H :    0.031666
  78 H :    0.031493
  79 H :    0.028866
  80 H :    0.030258
  81 H :    0.031277
  82 H :    0.042345
  83 H :    0.024000
  84 H :    0.044444

  Mayer bond orders larger than 0.100000
B(  0-N ,  1-C ) :   1.0007 B(  0-N , 11-S ) :   1.0561 B(  0-N , 54-H ) :   0.9341
B(  1-C ,  2-C ) :   1.0788 B(  1-C ,  9-C ) :   0.9740 B(  1-C , 55-H ) :   0.9000
B(  2-C ,  3-C ) :   1.0812 B(  2-C ,  8-C ) :   0.1047 B(  2-C , 56-H ) :   0.9360
B(  2-C , 57-H ) :   0.8540 B(  3-C ,  4-N ) :   1.0633 B(  3-C ,  7-C ) :   0.9587
B(  3-C , 58-H ) :   0.9166 B(  4-N ,  5-S ) :   0.9805 B(  4-N , 59-H ) :   0.9460
B(  5-S ,  6-N ) :   0.9764 B(  6-N ,  7-C ) :   1.0445 B(  6-N , 60-H ) :   0.9432
B(  7-C ,  8-C ) :   1.0822 B(  7-C , 61-H ) :   0.9214 B(  8-C ,  9-C ) :   1.1081
B(  8-C , 62-H ) :   0.9307 B(  8-C , 63-H ) :   0.8499 B(  9-C , 10-N ) :   0.8965
B(  9-C , 64-H ) :   0.9117 B( 10-N , 11-S ) :   0.8331 B( 10-N , 12-C ) :   1.2119
B( 12-C , 13-O ) :   1.1459 B( 12-C , 14-C ) :   1.3728 B( 13-O , 21-C ) :   1.0620
B( 14-C , 15-C ) :   0.8973 B( 14-C , 20-C ) :   1.2319 B( 15-C , 16-O ) :   2.2402
B( 15-C , 17-N ) :   1.0653 B( 17-N , 18-C ) :   1.0941 B( 17-N , 65-H ) :   0.9160
B( 18-C , 19-O ) :   2.2539 B( 18-C , 20-C ) :   0.8866 B( 20-C , 21-C ) :   1.4627
B( 21-C , 22-C ) :   1.1559 B( 22-C , 23-C ) :   1.6589 B( 22-C , 66-H ) :   0.9673
B( 23-C , 24-C ) :   1.0937 B( 23-C , 67-H ) :   0.9820 B( 24-C , 25-C ) :   1.7672
B( 24-C , 68-H ) :   0.9732 B( 25-C , 26-C ) :   1.0689 B( 25-C , 27-C ) :   1.0329
B( 26-C , 69-H ) :   0.9518 B( 26-C , 70-H ) :   0.9496 B( 26-C , 71-H ) :   0.9485
B( 27-C , 28-N ) :   1.0192 B( 27-C , 72-H ) :   0.9383 B( 27-C , 73-H ) :   0.9410
B( 28-N , 29-C ) :   1.2247 B( 28-N , 74-H ) :   0.9391 B( 29-C , 30-C ) :   1.5971
B( 29-C , 75-H ) :   0.9689 B( 30-C , 31-C ) :   1.1783 B( 30-C , 76-H ) :   0.9630
B( 31-C , 32-C ) :   1.5846 B( 31-C , 77-H ) :   0.9777 B( 32-C , 33-C ) :   1.1488
B( 32-C , 36-S ) :   1.0045 B( 33-C , 34-C ) :   1.5887 B( 33-C , 78-H ) :   0.9976
B( 34-C , 35-C ) :   1.1873 B( 34-C , 79-H ) :   0.9928 B( 35-C , 36-S ) :   1.0580
B( 35-C , 37-C ) :   1.5143 B( 37-C , 38-C ) :   1.1917 B( 37-C , 41-S ) :   1.0199
B( 38-C , 39-C ) :   1.5885 B( 38-C , 80-H ) :   0.9915 B( 39-C , 40-C ) :   1.1448
B( 39-C , 81-H ) :   0.9997 B( 40-C , 41-S ) :   1.0415 B( 40-C , 42-C ) :   1.5604
B( 42-C , 43-C ) :   1.1766 B( 42-C , 82-H ) :   0.9730 B( 43-C , 44-S ) :   1.1101
B( 43-C , 45-C ) :   0.1088 B( 43-C , 47-C ) :   1.4428 B( 44-S , 45-C ) :   1.1711
B( 45-C , 46-C ) :   1.4168 B( 45-C , 83-H ) :   0.9757 B( 46-C , 47-C ) :   1.2308
B( 46-C , 53-C ) :   1.0615 B( 47-C , 48-O ) :   1.1104 B( 48-O , 49-C ) :   1.1303
B( 49-C , 50-N ) :   0.9225 B( 49-C , 53-C ) :   1.5670 B( 50-N , 51-O ) :   1.5279
B( 50-N , 52-O ) :   1.5105 B( 51-O , 52-O ) :   0.2770 B( 53-C , 84-H ) :   1.0250

-----------------------------------------------------------------------------
         ABSORPTION SPECTRUM VIA TRANSITION ELECTRIC DIPOLE MOMENTS
-----------------------------------------------------------------------------
State   Energy  Wavelength   fosc         T2         TX        TY        TZ
        (cm-1)    (nm)                  (au**2)     (au)      (au)      (au)
-----------------------------------------------------------------------------
   0   14736.9    678.6   0.882824986  19.72174   0.98232  -0.23836  -4.32435
   1   18638.2    536.5   0.717341512  12.67060   1.71216   0.31512  -3.10480
   2   21320.5    469.0   0.003928490   0.06066  -0.04573   0.24030   0.02869
   3   25491.9    392.3   0.042899765   0.55402  -0.60632  -0.41393   0.12272
   4   26574.8    376.3   0.555834719   6.88576   0.55711  -0.97332   2.37235
   5   30004.6    333.3   0.356301348   3.90935   1.82127   0.72022   0.27135
   6   30181.5    331.3   0.020792368   0.22680   0.19431   0.05162  -0.43171
   7   30209.0    331.0   0.023196168   0.25279  -0.46761  -0.12495   0.13608
   8   31020.8    322.4   0.478189774   5.07484   1.70939   0.84472   1.19969
   9   32914.9    303.8   0.149399866   1.49428   0.12320  -1.19886   0.20454
  10   33412.9    299.3   0.079176975   0.78012  -0.56412  -0.06603   0.67641
  11   34054.4    293.6   0.017197491   0.16625   0.12898  -0.03824  -0.38491
  12   34187.1    292.5   0.051953193   0.50029   0.61317   0.21003  -0.28320
  13   35053.0    285.3   0.009787426   0.09192   0.13829   0.01896   0.26914
  14   36282.4    275.6   0.017203104   0.15609  -0.14909  -0.07463   0.35819
  15   36834.9    271.5   0.460161597   4.11269   0.82332   0.13397  -1.84848
  16   37502.9    266.6   0.106202851   0.93228  -0.21336   0.84366  -0.41832
  17   37616.9    265.8   0.157303430   1.37667   0.16841   0.96288   0.64898
  18   38122.8    262.3   0.265823786   2.29554   0.58858  -0.13823   1.38925
  19   39358.7    254.1   0.029498024   0.24673   0.46885   0.16344  -0.01397
  20   40278.3    248.3   0.044072492   0.36022  -0.44088  -0.08845   0.39752

FINAL SINGLE POINT ENERGY     -4212.477254108398

DIPOLE MOMENT
-------------
                                X             Y             Z
Electronic contribution:    -30.01861     -20.27576      42.09243
Nuclear contribution   :     32.80782      22.42121     -44.27764
                        -----------------------------------------
Total Dipole Moment    :      2.78921       2.14545      -2.18520
                        -----------------------------------------
Magnitude (a.u.)       :      4.14219
Magnitude (Debye)      :     10.52862

Rotational constants in cm-1:     0.002023     0.000289     0.000267
Rotational constants in MHz :    60.641376     8.661538     8.016433

                             ****ORCA TERMINATED NORMALLY****
TOTAL RUN TIME: 0 days 0 hours 5 minutes 52 seconds 480 msec
