                         Program Version 4.2.0 -  RELEASE  -
|  1> # ORCA input file
|  2> # SCF done       -132.803917691490          0.000789465661
|  3> ! CAM-B3LYP def2-SVP def2/J RIJCOSX Grid4 TightSCF
|  4> %maxcore 5000
|  5> %tddft
|  6>     Mode sTDDFT
|  7>     Ethresh 5.0
|  8>     maxcore 5000
|  9> end
| 10>
| 11> %pal
| 12>   nprocs 6
| 13>   end
| 14> * xyz 0 1
| 15>    C        1.39963        -0.08337         0.91701
| 16>    F        1.40136        -0.03405        -0.40613
| 17>    C        0.52466         0.58595         1.75508
| 18>    C       -0.57553         1.37951         1.39333
| 19>    N       -1.46655         1.99816         1.02371
| 20>    O        0.85524         0.33405         3.03294
| 21>    C        1.92681        -0.48308         3.03454
| 22>    C        2.43946        -0.97613         4.30658
| 23>    O        3.32870        -1.77875         4.41360
| 24>    C        2.31537        -0.78181         1.73435
| 25>    C        3.37841        -1.64639         1.25614
| 26>    C        4.69988        -1.58387         1.64379
| 27>    C        5.25179        -0.66604         2.53743
| 28>    N        5.69034         0.12217         3.24731
| 29>    S        5.66871        -2.75571         0.80510
| 30>    C        4.29240        -3.33110        -0.10662
| 31>    C        3.13689        -2.64991         0.28132
| 32>    C        1.80799        -3.01545         0.02312
| 33>    N        0.69057        -3.27794        -0.01679
| 34>    C        4.49425        -4.31863        -1.09175
| 35>    C        3.74383        -4.52345        -2.22330
| 36>    C        4.01207        -5.51395        -3.21071
| 37>    C        3.21222        -5.44035        -4.30669
| 38>    C        2.26551        -4.38979        -4.24959
| 39>    S        2.41448        -3.51109        -2.74289
| 40>    C        1.31991        -4.01264        -5.17920
| 41>    C        1.03302        -4.58103        -6.44933
| 42>    C        0.03078        -3.95636        -7.11592
| 43>    C       -0.55183        -2.86623        -6.40197
| 44>    S        0.27848        -2.65394        -4.86327
| 45>    C       -1.53778        -2.02900        -6.82819
| 46>    C       -2.09290        -1.00163        -5.99172
| 47>    C       -2.40092         0.28489        -6.41372
| 48>    C       -2.27207         0.76952        -7.71482
| 49>    N       -2.16813         1.14803        -8.79396
| 50>    S       -2.92633         1.31464        -5.11794
| 51>    C       -2.76546         0.01864        -3.98747
| 52>    C       -2.35207        -1.15009        -4.59655
| 53>    C       -2.44407        -2.39858        -3.95023
| 54>    N       -2.64762        -3.41439        -3.45904
| 55>    C       -3.04631         0.17634        -2.58426
| 56>    C       -2.39554        -0.44910        -1.51967
| 57>    O       -2.98099        -0.11998        -0.35577
| 58>    C       -3.98901         0.72848        -0.61249
| 59>    C       -4.06618         0.94502        -1.97658
| 60>    F       -4.94567         1.71000        -2.60695
| 61>    C       -4.78387         1.25400         0.42229
| 62>    N       -5.45737         1.68611         1.24100
| 63>    C       -1.17466        -1.24757        -1.46969
| 64>    O       -0.41431        -1.39166        -2.39105
| 65>    H        1.90563        -0.55496         5.17543
| 66>    H        5.39195        -4.91436        -0.98879
| 67>    H        4.79115        -6.24232        -3.07125
| 68>    H        3.27704        -6.10206        -5.15169
| 69>    H        1.57690        -5.42903        -6.82569
| 70>    H       -0.33203        -4.24267        -8.08712
| 71>    H       -1.87144        -2.08124        -7.85509
| 72>    H       -0.99188        -1.69181        -0.47812
| 73> *
| 74>
| 75>                          ****END OF INPUT****

CARTESIAN COORDINATES (ANGSTROEM)
---------------------------------
  C      1.399630   -0.083370    0.917010
  F      1.401360   -0.034050   -0.406130
  C      0.524660    0.585950    1.755080
  C     -0.575530    1.379510    1.393330
  N     -1.466550    1.998160    1.023710
  O      0.855240    0.334050    3.032940
  C      1.926810   -0.483080    3.034540
  C      2.439460   -0.976130    4.306580
  O      3.328700   -1.778750    4.413600
  C      2.315370   -0.781810    1.734350
  C      3.378410   -1.646390    1.256140
  C      4.699880   -1.583870    1.643790
  C      5.251790   -0.666040    2.537430
  N      5.690340    0.122170    3.247310
  S      5.668710   -2.755710    0.805100
  C      4.292400   -3.331100   -0.106620
  C      3.136890   -2.649910    0.281320
  C      1.807990   -3.015450    0.023120
  N      0.690570   -3.277940   -0.016790
  C      4.494250   -4.318630   -1.091750
  C      3.743830   -4.523450   -2.223300
  C      4.012070   -5.513950   -3.210710
  C      3.212220   -5.440350   -4.306690
  C      2.265510   -4.389790   -4.249590
  S      2.414480   -3.511090   -2.742890
  C      1.319910   -4.012640   -5.179200
  C      1.033020   -4.581030   -6.449330
  C      0.030780   -3.956360   -7.115920
  C     -0.551830   -2.866230   -6.401970
  S      0.278480   -2.653940   -4.863270
  C     -1.537780   -2.029000   -6.828190
  C     -2.092900   -1.001630   -5.991720
  C     -2.400920    0.284890   -6.413720
  C     -2.272070    0.769520   -7.714820
  N     -2.168130    1.148030   -8.793960
  S     -2.926330    1.314640   -5.117940
  C     -2.765460    0.018640   -3.987470
  C     -2.352070   -1.150090   -4.596550
  C     -2.444070   -2.398580   -3.950230
  N     -2.647620   -3.414390   -3.459040
  C     -3.046310    0.176340   -2.584260
  C     -2.395540   -0.449100   -1.519670
  O     -2.980990   -0.119980   -0.355770
  C     -3.989010    0.728480   -0.612490
  C     -4.066180    0.945020   -1.976580
  F     -4.945670    1.710000   -2.606950
  C     -4.783870    1.254000    0.422290
  N     -5.457370    1.686110    1.241000
  C     -1.174660   -1.247570   -1.469690
  O     -0.414310   -1.391660   -2.391050
  H      1.905630   -0.554960    5.175430
  H      5.391950   -4.914360   -0.988790
  H      4.791150   -6.242320   -3.071250
  H      3.277040   -6.102060   -5.151690
  H      1.576900   -5.429030   -6.825690
  H     -0.332030   -4.242670   -8.087120
  H     -1.871440   -2.081240   -7.855090
  H     -0.991880   -1.691810   -0.478120

 Total Charge           Charge          ....    0
 Multiplicity           Mult            ....    1
 Number of Electrons    NEL             ....  368
 Basis Dimension        Dim             ....  756

ORBITAL ENERGIES
----------------

  NO   OCC          E(Eh)            E(eV)
   0   2.0000     -89.005689     -2421.9679
   1   2.0000     -88.995034     -2421.6780
   2   2.0000     -88.963407     -2420.8174
   3   2.0000     -88.959389     -2420.7080
   4   2.0000     -24.838285      -675.8841
   5   2.0000     -24.832831      -675.7357
   6   2.0000     -19.350024      -526.5409
   7   2.0000     -19.344239      -526.3835
   8   2.0000     -19.242142      -523.6053
   9   2.0000     -19.236729      -523.4580
  10   2.0000     -14.443803      -393.0359
  11   2.0000     -14.428707      -392.6251
  12   2.0000     -14.423441      -392.4818
  13   2.0000     -14.420200      -392.3936
  14   2.0000     -14.419782      -392.3822
  15   2.0000     -14.415826      -392.2746
  16   2.0000     -10.411518      -283.3118
  17   2.0000     -10.406660      -283.1796
  18   2.0000     -10.399293      -282.9792
  19   2.0000     -10.392950      -282.8065
  20   2.0000     -10.388250      -282.6787
  21   2.0000     -10.379082      -282.4292
  22   2.0000     -10.379071      -282.4289
  23   2.0000     -10.374826      -282.3134
  24   2.0000     -10.360153      -281.9141
  25   2.0000     -10.352465      -281.7049
  26   2.0000     -10.352158      -281.6965
  27   2.0000     -10.351148      -281.6691
  28   2.0000     -10.343569      -281.4628
  29   2.0000     -10.339827      -281.3610
  30   2.0000     -10.339741      -281.3587
  31   2.0000     -10.338767      -281.3322
  32   2.0000     -10.338510      -281.3252
  33   2.0000     -10.337502      -281.2977
  34   2.0000     -10.334867      -281.2260
  35   2.0000     -10.334591      -281.2185
  36   2.0000     -10.333203      -281.1808
  37   2.0000     -10.331414      -281.1321
  38   2.0000     -10.328115      -281.0423
  39   2.0000     -10.327941      -281.0376
  40   2.0000     -10.325043      -280.9587
  41   2.0000     -10.322708      -280.8952
  42   2.0000     -10.321671      -280.8670
  43   2.0000     -10.317841      -280.7627
  44   2.0000     -10.310886      -280.5735
  45   2.0000     -10.310667      -280.5675
  46   2.0000     -10.307793      -280.4893
  47   2.0000     -10.307026      -280.4684
  48   2.0000     -10.304978      -280.4127
  49   2.0000     -10.303044      -280.3601
  50   2.0000      -8.100673      -220.4305
  51   2.0000      -8.090467      -220.1528
  52   2.0000      -8.059339      -219.3058
  53   2.0000      -8.055165      -219.1922
  54   2.0000      -6.070014      -165.1735
  55   2.0000      -6.065688      -165.0558
  56   2.0000      -6.062805      -164.9773
  57   2.0000      -6.059924      -164.8989
  58   2.0000      -6.055633      -164.7822
  59   2.0000      -6.052261      -164.6904
  60   2.0000      -6.029060      -164.0591
  61   2.0000      -6.024971      -163.9478
  62   2.0000      -6.024889      -163.9456
  63   2.0000      -6.020791      -163.8341
  64   2.0000      -6.020246      -163.8192
  65   2.0000      -6.015840      -163.6993
  66   2.0000      -1.353840       -36.8399
  67   2.0000      -1.348749       -36.7013
  68   2.0000      -1.269638       -34.5486
  69   2.0000      -1.265144       -34.4263
  70   2.0000      -1.155318       -31.4378
  71   2.0000      -1.149965       -31.2921
  72   2.0000      -1.042746       -28.3746
  73   2.0000      -1.038237       -28.2519
  74   2.0000      -1.024822       -27.8868
  75   2.0000      -1.015765       -27.6404
  76   2.0000      -1.009652       -27.4740
  77   2.0000      -1.006132       -27.3782
  78   2.0000      -1.005298       -27.3555
  79   2.0000      -0.996052       -27.1039
  80   2.0000      -0.995166       -27.0799
  81   2.0000      -0.992299       -27.0018
  82   2.0000      -0.963065       -26.2063
  83   2.0000      -0.959677       -26.1141
  84   2.0000      -0.927524       -25.2392
  85   2.0000      -0.924092       -25.1458
  86   2.0000      -0.919039       -25.0083
  87   2.0000      -0.911255       -24.7965
  88   2.0000      -0.890717       -24.2376
  89   2.0000      -0.888316       -24.1723
  90   2.0000      -0.879526       -23.9331
  91   2.0000      -0.861828       -23.4515
  92   2.0000      -0.852496       -23.1976
  93   2.0000      -0.839147       -22.8343
  94   2.0000      -0.809202       -22.0195
  95   2.0000      -0.805227       -21.9113
  96   2.0000      -0.796468       -21.6730
  97   2.0000      -0.778536       -21.1851
  98   2.0000      -0.771639       -20.9974
  99   2.0000      -0.766675       -20.8623
 100   2.0000      -0.742425       -20.2024
 101   2.0000      -0.736907       -20.0522
 102   2.0000      -0.727722       -19.8023
 103   2.0000      -0.724931       -19.7264
 104   2.0000      -0.715855       -19.4794
 105   2.0000      -0.693239       -18.8640
 106   2.0000      -0.689202       -18.7541
 107   2.0000      -0.686138       -18.6708
 108   2.0000      -0.677475       -18.4350
 109   2.0000      -0.666426       -18.1344
 110   2.0000      -0.653978       -17.7956
 111   2.0000      -0.651878       -17.7385
 112   2.0000      -0.647647       -17.6234
 113   2.0000      -0.641125       -17.4459
 114   2.0000      -0.634620       -17.2689
 115   2.0000      -0.628241       -17.0953
 116   2.0000      -0.624293       -16.9879
 117   2.0000      -0.615035       -16.7360
 118   2.0000      -0.609455       -16.5841
 119   2.0000      -0.592727       -16.1289
 120   2.0000      -0.591486       -16.0951
 121   2.0000      -0.588690       -16.0191
 122   2.0000      -0.584212       -15.8972
 123   2.0000      -0.580961       -15.8087
 124   2.0000      -0.577853       -15.7242
 125   2.0000      -0.576042       -15.6749
 126   2.0000      -0.569354       -15.4929
 127   2.0000      -0.561541       -15.2803
 128   2.0000      -0.554383       -15.0855
 129   2.0000      -0.548008       -14.9120
 130   2.0000      -0.544002       -14.8031
 131   2.0000      -0.542070       -14.7505
 132   2.0000      -0.533018       -14.5042
 133   2.0000      -0.531727       -14.4690
 134   2.0000      -0.529763       -14.4156
 135   2.0000      -0.522932       -14.2297
 136   2.0000      -0.519102       -14.1255
 137   2.0000      -0.515669       -14.0321
 138   2.0000      -0.510213       -13.8836
 139   2.0000      -0.508248       -13.8301
 140   2.0000      -0.503976       -13.7139
 141   2.0000      -0.501902       -13.6575
 142   2.0000      -0.495509       -13.4835
 143   2.0000      -0.494167       -13.4470
 144   2.0000      -0.488151       -13.2833
 145   2.0000      -0.484963       -13.1965
 146   2.0000      -0.474520       -12.9123
 147   2.0000      -0.472291       -12.8517
 148   2.0000      -0.470745       -12.8096
 149   2.0000      -0.468821       -12.7573
 150   2.0000      -0.468034       -12.7358
 151   2.0000      -0.464578       -12.6418
 152   2.0000      -0.455580       -12.3970
 153   2.0000      -0.454219       -12.3599
 154   2.0000      -0.453427       -12.3384
 155   2.0000      -0.451225       -12.2784
 156   2.0000      -0.450878       -12.2690
 157   2.0000      -0.449814       -12.2401
 158   2.0000      -0.447682       -12.1820
 159   2.0000      -0.444712       -12.1012
 160   2.0000      -0.441331       -12.0092
 161   2.0000      -0.437132       -11.8950
 162   2.0000      -0.434413       -11.8210
 163   2.0000      -0.433065       -11.7843
 164   2.0000      -0.428560       -11.6617
 165   2.0000      -0.424588       -11.5536
 166   2.0000      -0.419299       -11.4097
 167   2.0000      -0.418721       -11.3940
 168   2.0000      -0.412988       -11.2380
 169   2.0000      -0.408760       -11.1229
 170   2.0000      -0.401831       -10.9344
 171   2.0000      -0.398932       -10.8555
 172   2.0000      -0.376545       -10.2463
 173   2.0000      -0.365627        -9.9492
 174   2.0000      -0.360176        -9.8009
 175   2.0000      -0.355915        -9.6849
 176   2.0000      -0.349932        -9.5221
 177   2.0000      -0.341367        -9.2891
 178   2.0000      -0.338610        -9.2140
 179   2.0000      -0.337153        -9.1744
 180   2.0000      -0.335101        -9.1186
 181   2.0000      -0.321679        -8.7533
 182   2.0000      -0.304549        -8.2872
 183   2.0000      -0.242670        -6.6034
 184   0.0000      -0.104506        -2.8437
 185   0.0000      -0.080655        -2.1947
 186   0.0000      -0.076772        -2.0891
 187   0.0000      -0.050890        -1.3848
 188   0.0000      -0.035350        -0.9619

MULLIKEN ATOMIC CHARGES
-----------------------
   0 C :    0.206150
   1 F :   -0.129824
   2 C :   -0.070867
   3 C :   -0.127155
   4 N :    0.180925
   5 O :   -0.152774
   6 C :    0.085314
   7 C :    0.160085
   8 O :   -0.150080
   9 C :   -0.085007
  10 C :    0.283527
  11 C :   -0.308871
  12 C :   -0.205240
  13 N :    0.167308
  14 S :    0.225309
  15 C :   -0.061849
  16 C :   -0.075545
  17 C :   -0.241495
  18 N :    0.134672
  19 C :   -0.013960
  20 C :   -0.009434
  21 C :    0.023263
  22 C :    0.051841
  23 C :   -0.056669
  24 S :    0.126468
  25 C :   -0.037500
  26 C :    0.043384
  27 C :    0.049792
  28 C :   -0.020285
  29 S :    0.128692
  30 C :   -0.042177
  31 C :    0.179044
  32 C :   -0.289804
  33 C :   -0.189512
  34 N :    0.147948
  35 S :    0.266144
  36 C :   -0.075008
  37 C :   -0.014068
  38 C :   -0.291968
  39 N :    0.178214
  40 C :   -0.007038
  41 C :    0.068520
  42 O :   -0.148985
  43 C :   -0.065207
  44 C :    0.208800
  45 F :   -0.135029
  46 C :   -0.124153
  47 N :    0.197280
  48 C :    0.156639
  49 O :   -0.169375
  50 H :    0.009210
  51 H :   -0.004588
  52 H :   -0.001992
  53 H :   -0.002991
  54 H :   -0.004080
  55 H :    0.002015
  56 H :    0.020145
  57 H :    0.011843
Sum of atomic charges:    0.0000000

LOEWDIN ATOMIC CHARGES
----------------------
   0 C :    0.082377
   1 F :   -0.010533
   2 C :   -0.037247
   3 C :   -0.037012
   4 N :   -0.020788
   5 O :    0.056907
   6 C :    0.008790
   7 C :    0.104228
   8 O :   -0.100789
   9 C :   -0.048802
  10 C :   -0.003981
  11 C :   -0.210053
  12 C :   -0.054856
  13 N :   -0.038971
  14 S :    0.494792
  15 C :   -0.115940
  16 C :   -0.126607
  17 C :   -0.045658
  18 N :   -0.051203
  19 C :   -0.109127
  20 C :   -0.116264
  21 C :   -0.036690
  22 C :   -0.012885
  23 C :   -0.181322
  24 S :    0.439390
  25 C :   -0.157279
  26 C :   -0.018981
  27 C :   -0.015376
  28 C :   -0.119489
  29 S :    0.449456
  30 C :   -0.055890
  31 C :   -0.007545
  32 C :   -0.222067
  33 C :   -0.057249
  34 N :   -0.038728
  35 S :    0.522119
  36 C :   -0.131088
  37 C :   -0.096218
  38 C :   -0.052992
  39 N :   -0.041532
  40 C :   -0.078432
  41 C :    0.010203
  42 O :    0.069398
  43 C :   -0.025633
  44 C :    0.075454
  45 F :   -0.023627
  46 C :   -0.039799
  47 N :   -0.006989
  48 C :    0.102609
  49 O :   -0.115314
  50 H :    0.012108
  51 H :    0.037087
  52 H :    0.036439
  53 H :    0.036378
  54 H :    0.035919
  55 H :    0.039073
  56 H :    0.045094
  57 H :    0.005138

  Mayer bond orders larger than 0.100000
B(  0-C ,  1-F ) :   1.2210 B(  0-C ,  2-C ) :   1.4583 B(  0-C ,  9-C ) :   1.2536
B(  2-C ,  3-C ) :   1.0864 B(  2-C ,  5-O ) :   1.1719 B(  2-C ,  6-C ) :   0.1395
B(  3-C ,  4-N ) :   3.0070 B(  5-O ,  6-C ) :   1.1518 B(  6-C ,  7-C ) :   0.9953
B(  6-C ,  9-C ) :   1.4572 B(  7-C ,  8-O ) :   2.1690 B(  7-C , 50-H ) :   0.9449
B(  9-C , 10-C ) :   0.9008 B( 10-C , 11-C ) :   1.5416 B( 10-C , 16-C ) :   1.2947
B( 11-C , 12-C ) :   1.2503 B( 11-C , 14-S ) :   1.1178 B( 12-C , 13-N ) :   2.9990
B( 14-S , 15-C ) :   1.1306 B( 15-C , 16-C ) :   1.4128 B( 15-C , 19-C ) :   1.1793
B( 16-C , 17-C ) :   1.1279 B( 17-C , 18-N ) :   2.9411 B( 19-C , 20-C ) :   1.5809
B( 19-C , 51-H ) :   0.9422 B( 20-C , 21-C ) :   1.1359 B( 20-C , 24-S ) :   1.0748
B( 21-C , 22-C ) :   1.6048 B( 21-C , 52-H ) :   0.9997 B( 22-C , 23-C ) :   1.1736
B( 22-C , 53-H ) :   0.9918 B( 23-C , 24-S ) :   1.0548 B( 23-C , 25-C ) :   1.5263
B( 25-C , 26-C ) :   1.1524 B( 25-C , 29-S ) :   1.0756 B( 26-C , 27-C ) :   1.6365
B( 26-C , 54-H ) :   0.9937 B( 27-C , 28-C ) :   1.1097 B( 27-C , 55-H ) :   0.9976
B( 28-C , 29-S ) :   1.0437 B( 28-C , 30-C ) :   1.6518 B( 30-C , 31-C ) :   1.0837
B( 30-C , 56-H ) :   0.9529 B( 31-C , 32-C ) :   1.4696 B( 31-C , 37-C ) :   1.2548
B( 32-C , 33-C ) :   1.2128 B( 32-C , 35-S ) :   1.1241 B( 32-C , 36-C ) :   0.1219
B( 33-C , 34-N ) :   3.0009 B( 35-S , 36-C ) :   1.1764 B( 36-C , 37-C ) :   1.5390
B( 36-C , 40-C ) :   1.0020 B( 37-C , 38-C ) :   1.0829 B( 38-C , 39-N ) :   3.0441
B( 40-C , 41-C ) :   1.4155 B( 40-C , 44-C ) :   1.2286 B( 41-C , 42-O ) :   1.1642
B( 41-C , 43-C ) :   0.1412 B( 41-C , 48-C ) :   0.9964 B( 42-O , 43-C ) :   1.1610
B( 43-C , 44-C ) :   1.4718 B( 43-C , 46-C ) :   1.0735 B( 44-C , 45-F ) :   1.2439
B( 46-C , 47-N ) :   3.0528 B( 48-C , 49-O ) :   2.1203 B( 48-C , 57-H ) :   0.9217

-----------------------------------------------------------------------------
         ABSORPTION SPECTRUM VIA TRANSITION ELECTRIC DIPOLE MOMENTS
-----------------------------------------------------------------------------
State   Energy  Wavelength   fosc         T2         TX        TY        TZ
        (cm-1)    (nm)                  (au**2)     (au)      (au)      (au)
-----------------------------------------------------------------------------
   0   15633.2    639.7   0.971245929  20.45296  -2.89196   0.70077  -3.40565
   1   18719.9    534.2   0.011059719   0.19450  -0.21907  -0.25731  -0.28337
   2   21416.9    466.9   0.009861682   0.15159  -0.37522  -0.07767   0.06907
   3   25123.7    398.0   0.049209743   0.64483   0.26839  -0.66533  -0.36073
   4   27824.3    359.4   0.331626944   3.92375   0.48588  -1.64097  -0.99745
   5   28862.6    346.5   0.051148487   0.58341  -0.03004   0.11672   0.75424
   6   29199.4    342.5   0.025635638   0.28903   0.35980  -0.39697  -0.04459
   7   30281.3    330.2   0.009102578   0.09896  -0.19878   0.22074   0.10353
   8   30703.6    325.7   0.061590541   0.66039  -0.15864   0.77834   0.17147
   9   31549.5    317.0   0.007720602   0.08056  -0.00808  -0.23778  -0.15479
  10   31656.7    315.9   0.245014229   2.54801  -0.68609   1.08849   0.94471
  11   32275.4    309.8   0.098750395   1.00726   0.12962  -0.02055   0.99501
  12   32709.2    305.7   0.107728506   1.08427  -0.67379   0.78189  -0.13757
  13   34291.5    291.6   0.012366717   0.11873  -0.27572  -0.16155  -0.12887
  14   34972.2    285.9   0.064697415   0.60903   0.63096  -0.21019   0.40833
  15   35195.0    284.1   0.091597984   0.85680  -0.31437  -0.03673  -0.86984
  16   35719.9    280.0   0.033787650   0.31140   0.49984   0.04696  -0.24365
  17   36087.3    277.1   0.052806322   0.48173   0.10437   0.15551   0.66832
  18   36617.7    273.1   0.086350246   0.77633  -0.72626   0.43556  -0.24323
  19   37102.4    269.5   0.039913926   0.35416   0.19381  -0.46920   0.31056
  20   37281.9    268.2   0.144075555   1.27224   0.76899  -0.43625  -0.70041
  21   37977.7    263.3   0.028930527   0.25079   0.01508   0.16673  -0.47197
  22   38265.7    261.3   0.040924105   0.35208   0.45910  -0.25733   0.27404
  23   38358.0    260.7   0.091209736   0.78282   0.22366  -0.50141  -0.69382
  24   38731.4    258.2   0.005705793   0.04850   0.13717   0.08162   0.15173
  25   38898.9    257.1   0.011359730   0.09614  -0.21265   0.03893   0.22227
  26   39196.0    255.1   0.072493137   0.60888   0.73391  -0.06137   0.25786
  27   39283.6    254.6   0.019602849   0.16428  -0.35283   0.13645  -0.14550
  28   39776.1    251.4   0.015462722   0.12798  -0.07272   0.34910   0.02868

FINAL SINGLE POINT ENERGY     -3718.970648872450

DIPOLE MOMENT
-------------
                                X             Y             Z
Electronic contribution:    -12.49103      20.92759      10.62857
Nuclear contribution   :     14.18405     -23.01473     -12.32633
                        -----------------------------------------
Total Dipole Moment    :      1.69302      -2.08714      -1.69775
                        -----------------------------------------
Magnitude (a.u.)       :      3.17881
Magnitude (Debye)      :      8.07990

Rotational constants in cm-1:     0.002312     0.001465     0.000985
Rotational constants in MHz :    69.303953    43.915236    29.533914

                             ****ORCA TERMINATED NORMALLY****
TOTAL RUN TIME: 0 days 0 hours 4 minutes 39 seconds 898 msec
