                         Program Version 4.2.0 -  RELEASE  -
|  1> # ORCA input file
|  2> # SCF done       -160.650195108681          0.000474619417
|  3> ! CAM-B3LYP def2-SVP def2/J RIJCOSX Grid4 TightSCF
|  4> %maxcore 5000
|  5> %tddft
|  6>     Mode sTDDFT
|  7>     Ethresh 5.0
|  8>     maxcore 5000
|  9> end
| 10>
| 11> %pal
| 12>   nprocs 6
| 13>   end
| 14> * xyz 0 1
| 15>    C        1.59531         0.61287         2.77738
| 16>    C        0.33865         0.16129         2.49840
| 17>    C       -0.08897        -0.73150         1.39477
| 18>    O        0.62701        -1.46950         0.76293
| 19>    O       -1.40996        -0.64582         1.20951
| 20>    C       -1.95716        -1.48944         0.20712
| 21>    C       -0.69304         0.52982         3.38941
| 22>    N       -1.51463         0.83440         4.12980
| 23>    C        2.80584         0.48614         2.05710
| 24>    C        3.09641        -0.01786         0.79935
| 25>    C        4.44592         0.09226         0.48512
| 26>    C        5.21208         0.67558         1.51892
| 27>    S        4.25803         1.11110         2.85737
| 28>    C        6.56694         0.69453         1.11723
| 29>    C        6.66448         0.13194        -0.16724
| 30>    C        5.32996        -0.24612        -0.61479
| 31>    C        4.99158        -0.77570        -1.82509
| 32>    C        5.96175        -1.05722        -2.81046
| 33>    N        6.75179        -1.28586        -3.60960
| 34>    C        3.65789        -1.05126        -2.19792
| 35>    N        2.58302        -1.25779        -2.53814
| 36>    C        7.97057         0.08866        -0.64560
| 37>    C        8.87916         0.60878         0.26246
| 38>    S        8.09047         1.17270         1.73223
| 39>    C       10.29172         0.70155         0.11457
| 40>    C       11.11051         1.20952         1.09715
| 41>    C       12.49774         1.29503         1.01850
| 42>    C       13.21411         0.72659        -0.13328
| 43>    C       12.61021         0.20795        -1.22442
| 44>    S       10.91107         0.10779        -1.42254
| 45>    C       14.59572         0.84906         0.17703
| 46>    C       14.74161         1.45510         1.42526
| 47>    C       16.09804         1.60505         1.78906
| 48>    C       16.92651         1.11639         0.82961
| 49>    S       16.10400         0.46340        -0.54787
| 50>    C       13.44055         1.77269         1.95392
| 51>    C       13.27115         2.46673         3.17440
| 52>    C       12.16329         3.13400         3.59739
| 53>    C       12.07840         3.83252         4.82547
| 54>    C       13.00365         3.91725         5.85824
| 55>    C       12.55924         4.72944         6.89519
| 56>    C       11.28156         5.27588         6.66700
| 57>    S       10.63139         4.77397         5.16837
| 58>    C       10.92674         6.09541         7.76361
| 59>    C       11.99192         6.06135         8.69569
| 60>    C       13.04468         5.20377         8.18302
| 61>    C       14.23866         4.90511         8.77250
| 62>    C       14.60517         5.42431        10.03163
| 63>    N       14.90580         5.84437        11.05535
| 64>    C       15.18389         4.05870         8.15744
| 65>    N       15.95483         3.37485         7.65376
| 66>    C       11.74088         6.84797         9.80567
| 67>    C       10.50195         7.49023         9.74024
| 68>    S        9.63540         7.09137         8.25731
| 69>    C       10.05462         8.34713        10.76226
| 70>    C        8.90723         9.08265        10.89548
| 71>    C        7.80881         9.13962         9.92966
| 72>    O        7.76232         8.52503         8.88173
| 73>    O        6.83728         9.96204        10.33124
| 74>    C        5.72226        10.09147         9.46376
| 75>    C        8.75404         9.86596        12.05978
| 76>    N        8.65087        10.49545        13.01300
| 77>    H        1.68885         1.18415         3.69635
| 78>    H       -1.41478        -1.36413        -0.73253
| 79>    H       -2.99642        -1.19194         0.09710
| 80>    H       -1.88874        -2.53472         0.51585
| 81>    H        2.35329        -0.46117         0.16352
| 82>    H        8.26259        -0.30532        -1.60220
| 83>    H       10.62205         1.52610         2.00819
| 84>    H       13.16483        -0.18123        -2.06361
| 85>    H       16.44860         2.04372         2.70543
| 86>    H       17.99870         1.09512         0.83729
| 87>    H       14.15595         2.50570         3.79582
| 88>    H       11.29348         3.20370         2.96152
| 89>    H       13.94889         3.40766         5.84647
| 90>    H       12.41002         6.97203        10.63863
| 91>    H       10.75805         8.43490        11.58509
| 92>    H        5.25693         9.11800         9.29456
| 93>    H        6.03501        10.50426         8.50207
| 94>    H        5.03145        10.76547         9.96290
| 95> *
| 96>
| 97>                          ****END OF INPUT****

CARTESIAN COORDINATES (ANGSTROEM)
---------------------------------
  C      1.595310    0.612870    2.777380
  C      0.338650    0.161290    2.498400
  C     -0.088970   -0.731500    1.394770
  O      0.627010   -1.469500    0.762930
  O     -1.409960   -0.645820    1.209510
  C     -1.957160   -1.489440    0.207120
  C     -0.693040    0.529820    3.389410
  N     -1.514630    0.834400    4.129800
  C      2.805840    0.486140    2.057100
  C      3.096410   -0.017860    0.799350
  C      4.445920    0.092260    0.485120
  C      5.212080    0.675580    1.518920
  S      4.258030    1.111100    2.857370
  C      6.566940    0.694530    1.117230
  C      6.664480    0.131940   -0.167240
  C      5.329960   -0.246120   -0.614790
  C      4.991580   -0.775700   -1.825090
  C      5.961750   -1.057220   -2.810460
  N      6.751790   -1.285860   -3.609600
  C      3.657890   -1.051260   -2.197920
  N      2.583020   -1.257790   -2.538140
  C      7.970570    0.088660   -0.645600
  C      8.879160    0.608780    0.262460
  S      8.090470    1.172700    1.732230
  C     10.291720    0.701550    0.114570
  C     11.110510    1.209520    1.097150
  C     12.497740    1.295030    1.018500
  C     13.214110    0.726590   -0.133280
  C     12.610210    0.207950   -1.224420
  S     10.911070    0.107790   -1.422540
  C     14.595720    0.849060    0.177030
  C     14.741610    1.455100    1.425260
  C     16.098040    1.605050    1.789060
  C     16.926510    1.116390    0.829610
  S     16.104000    0.463400   -0.547870
  C     13.440550    1.772690    1.953920
  C     13.271150    2.466730    3.174400
  C     12.163290    3.134000    3.597390
  C     12.078400    3.832520    4.825470
  C     13.003650    3.917250    5.858240
  C     12.559240    4.729440    6.895190
  C     11.281560    5.275880    6.667000
  S     10.631390    4.773970    5.168370
  C     10.926740    6.095410    7.763610
  C     11.991920    6.061350    8.695690
  C     13.044680    5.203770    8.183020
  C     14.238660    4.905110    8.772500
  C     14.605170    5.424310   10.031630
  N     14.905800    5.844370   11.055350
  C     15.183890    4.058700    8.157440
  N     15.954830    3.374850    7.653760
  C     11.740880    6.847970    9.805670
  C     10.501950    7.490230    9.740240
  S      9.635400    7.091370    8.257310
  C     10.054620    8.347130   10.762260
  C      8.907230    9.082650   10.895480
  C      7.808810    9.139620    9.929660
  O      7.762320    8.525030    8.881730
  O      6.837280    9.962040   10.331240
  C      5.722260   10.091470    9.463760
  C      8.754040    9.865960   12.059780
  N      8.650870   10.495450   13.013000
  H      1.688850    1.184150    3.696350
  H     -1.414780   -1.364130   -0.732530
  H     -2.996420   -1.191940    0.097100
  H     -1.888740   -2.534720    0.515850
  H      2.353290   -0.461170    0.163520
  H      8.262590   -0.305320   -1.602200
  H     10.622050    1.526100    2.008190
  H     13.164830   -0.181230   -2.063610
  H     16.448600    2.043720    2.705430
  H     17.998700    1.095120    0.837290
  H     14.155950    2.505700    3.795820
  H     11.293480    3.203700    2.961520
  H     13.948890    3.407660    5.846470
  H     12.410020    6.972030   10.638630
  H     10.758050    8.434900   11.585090
  H      5.256930    9.118000    9.294560
  H      6.035010   10.504260    8.502070
  H      5.031450   10.765470    9.962900

 Total Charge           Charge          ....    0
 Multiplicity           Mult            ....    1
 Number of Electrons    NEL             ....  464
 Basis Dimension        Dim             ....  982

ORBITAL ENERGIES
----------------

  NO   OCC          E(Eh)            E(eV)
   0   2.0000     -89.004345     -2421.9314
   1   2.0000     -89.002047     -2421.8688
   2   2.0000     -88.991392     -2421.5789
   3   2.0000     -88.990119     -2421.5443
   4   2.0000     -88.988713     -2421.5060
   5   2.0000     -88.965768     -2420.8816
   6   2.0000     -19.270905      -524.3880
   7   2.0000     -19.269697      -524.3551
   8   2.0000     -19.221016      -523.0304
   9   2.0000     -19.217721      -522.9408
  10   2.0000     -14.439763      -392.9259
  11   2.0000     -14.436549      -392.8385
  12   2.0000     -14.433632      -392.7591
  13   2.0000     -14.432768      -392.7356
  14   2.0000     -14.398720      -391.8091
  15   2.0000     -14.393219      -391.6594
  16   2.0000     -10.417923      -283.4861
  17   2.0000     -10.417244      -283.4676
  18   2.0000     -10.375424      -282.3297
  19   2.0000     -10.366572      -282.0888
  20   2.0000     -10.361402      -281.9481
  21   2.0000     -10.355220      -281.7799
  22   2.0000     -10.350674      -281.6562
  23   2.0000     -10.344541      -281.4893
  24   2.0000     -10.343865      -281.4709
  25   2.0000     -10.343388      -281.4579
  26   2.0000     -10.340387      -281.3762
  27   2.0000     -10.339703      -281.3576
  28   2.0000     -10.335754      -281.2502
  29   2.0000     -10.335688      -281.2484
  30   2.0000     -10.334354      -281.2121
  31   2.0000     -10.334031      -281.2033
  32   2.0000     -10.333304      -281.1835
  33   2.0000     -10.333109      -281.1782
  34   2.0000     -10.331533      -281.1353
  35   2.0000     -10.330198      -281.0990
  36   2.0000     -10.330019      -281.0941
  37   2.0000     -10.329126      -281.0698
  38   2.0000     -10.325449      -280.9697
  39   2.0000     -10.324660      -280.9483
  40   2.0000     -10.324096      -280.9329
  41   2.0000     -10.319300      -280.8024
  42   2.0000     -10.316058      -280.7142
  43   2.0000     -10.314284      -280.6659
  44   2.0000     -10.313942      -280.6566
  45   2.0000     -10.313477      -280.6440
  46   2.0000     -10.312750      -280.6242
  47   2.0000     -10.311126      -280.5800
  48   2.0000     -10.310955      -280.5753
  49   2.0000     -10.310454      -280.5617
  50   2.0000     -10.305493      -280.4267
  51   2.0000     -10.303262      -280.3660
  52   2.0000     -10.301292      -280.3124
  53   2.0000     -10.301182      -280.3094
  54   2.0000     -10.300958      -280.3033
  55   2.0000     -10.297945      -280.2213
  56   2.0000     -10.297190      -280.2008
  57   2.0000     -10.297161      -280.2000
  58   2.0000     -10.295889      -280.1654
  59   2.0000     -10.290324      -280.0140
  60   2.0000     -10.283838      -279.8375
  61   2.0000     -10.283539      -279.8293
  62   2.0000      -8.098497      -220.3713
  63   2.0000      -8.096858      -220.3267
  64   2.0000      -8.086170      -220.0359
  65   2.0000      -8.085284      -220.0118
  66   2.0000      -8.081239      -219.9017
  67   2.0000      -8.061168      -219.3555
  68   2.0000      -6.067824      -165.1139
  69   2.0000      -6.065971      -165.0635
  70   2.0000      -6.063729      -165.0024
  71   2.0000      -6.061874      -164.9520
  72   2.0000      -6.060726      -164.9207
  73   2.0000      -6.059368      -164.8838
  74   2.0000      -6.055352      -164.7745
  75   2.0000      -6.054914      -164.7626
  76   2.0000      -6.051238      -164.6626
  77   2.0000      -6.050688      -164.6476
  78   2.0000      -6.050312      -164.6374
  79   2.0000      -6.048620      -164.5913
  80   2.0000      -6.047097      -164.5499
  81   2.0000      -6.045919      -164.5178
  82   2.0000      -6.043740      -164.4585
  83   2.0000      -6.030635      -164.1019
  84   2.0000      -6.026349      -163.9853
  85   2.0000      -6.023177      -163.8990
  86   2.0000      -1.206262       -32.8241
  87   2.0000      -1.204226       -32.7687
  88   2.0000      -1.112318       -30.2677
  89   2.0000      -1.110125       -30.2080
  90   2.0000      -1.057099       -28.7651
  91   2.0000      -1.046448       -28.4753
  92   2.0000      -1.030745       -28.0480
  93   2.0000      -1.024561       -27.8797
  94   2.0000      -1.020876       -27.7794
  95   2.0000      -1.014998       -27.6195
  96   2.0000      -1.010958       -27.5096
  97   2.0000      -1.010840       -27.5064
  98   2.0000      -0.999868       -27.2078
  99   2.0000      -0.989042       -26.9132
 100   2.0000      -0.983998       -26.7760
 101   2.0000      -0.982409       -26.7327
 102   2.0000      -0.967494       -26.3268
 103   2.0000      -0.963121       -26.2079
 104   2.0000      -0.941744       -25.6262
 105   2.0000      -0.935431       -25.4544
 106   2.0000      -0.930611       -25.3232
 107   2.0000      -0.919345       -25.0166
 108   2.0000      -0.911707       -24.8088
 109   2.0000      -0.898697       -24.4548
 110   2.0000      -0.888265       -24.1709
 111   2.0000      -0.880661       -23.9640
 112   2.0000      -0.871340       -23.7104
 113   2.0000      -0.867078       -23.5944
 114   2.0000      -0.857680       -23.3387
 115   2.0000      -0.856282       -23.3006
 116   2.0000      -0.848752       -23.0957
 117   2.0000      -0.839631       -22.8475
 118   2.0000      -0.826605       -22.4931
 119   2.0000      -0.813064       -22.1246
 120   2.0000      -0.801943       -21.8220
 121   2.0000      -0.795371       -21.6432
 122   2.0000      -0.786324       -21.3970
 123   2.0000      -0.779972       -21.2241
 124   2.0000      -0.768173       -20.9031
 125   2.0000      -0.756322       -20.5806
 126   2.0000      -0.731732       -19.9114
 127   2.0000      -0.728603       -19.8263
 128   2.0000      -0.710458       -19.3325
 129   2.0000      -0.705104       -19.1869
 130   2.0000      -0.700761       -19.0687
 131   2.0000      -0.693438       -18.8694
 132   2.0000      -0.690032       -18.7767
 133   2.0000      -0.684442       -18.6246
 134   2.0000      -0.680004       -18.5039
 135   2.0000      -0.665542       -18.1103
 136   2.0000      -0.664375       -18.0786
 137   2.0000      -0.649823       -17.6826
 138   2.0000      -0.647949       -17.6316
 139   2.0000      -0.644639       -17.5415
 140   2.0000      -0.641277       -17.4500
 141   2.0000      -0.636750       -17.3269
 142   2.0000      -0.632622       -17.2145
 143   2.0000      -0.631235       -17.1768
 144   2.0000      -0.625553       -17.0222
 145   2.0000      -0.621625       -16.9153
 146   2.0000      -0.612502       -16.6670
 147   2.0000      -0.606459       -16.5026
 148   2.0000      -0.597360       -16.2550
 149   2.0000      -0.593941       -16.1620
 150   2.0000      -0.583727       -15.8840
 151   2.0000      -0.582721       -15.8566
 152   2.0000      -0.579584       -15.7713
 153   2.0000      -0.575402       -15.6575
 154   2.0000      -0.569283       -15.4910
 155   2.0000      -0.564950       -15.3731
 156   2.0000      -0.559215       -15.2170
 157   2.0000      -0.556040       -15.1306
 158   2.0000      -0.549619       -14.9559
 159   2.0000      -0.549198       -14.9444
 160   2.0000      -0.543657       -14.7936
 161   2.0000      -0.541326       -14.7302
 162   2.0000      -0.530338       -14.4312
 163   2.0000      -0.528081       -14.3698
 164   2.0000      -0.525951       -14.3119
 165   2.0000      -0.523895       -14.2559
 166   2.0000      -0.514669       -14.0049
 167   2.0000      -0.513840       -13.9823
 168   2.0000      -0.512515       -13.9462
 169   2.0000      -0.511339       -13.9142
 170   2.0000      -0.509732       -13.8705
 171   2.0000      -0.507962       -13.8224
 172   2.0000      -0.504099       -13.7172
 173   2.0000      -0.502947       -13.6859
 174   2.0000      -0.501923       -13.6580
 175   2.0000      -0.496863       -13.5203
 176   2.0000      -0.494398       -13.4532
 177   2.0000      -0.493806       -13.4371
 178   2.0000      -0.487218       -13.2579
 179   2.0000      -0.485294       -13.2055
 180   2.0000      -0.479518       -13.0483
 181   2.0000      -0.478112       -13.0101
 182   2.0000      -0.471658       -12.8345
 183   2.0000      -0.469338       -12.7713
 184   2.0000      -0.466977       -12.7071
 185   2.0000      -0.464756       -12.6466
 186   2.0000      -0.463891       -12.6231
 187   2.0000      -0.461675       -12.5628
 188   2.0000      -0.460694       -12.5361
 189   2.0000      -0.457524       -12.4499
 190   2.0000      -0.453743       -12.3470
 191   2.0000      -0.450061       -12.2468
 192   2.0000      -0.449518       -12.2320
 193   2.0000      -0.448341       -12.2000
 194   2.0000      -0.448006       -12.1909
 195   2.0000      -0.446900       -12.1608
 196   2.0000      -0.446438       -12.1482
 197   2.0000      -0.443683       -12.0732
 198   2.0000      -0.443294       -12.0626
 199   2.0000      -0.441914       -12.0251
 200   2.0000      -0.441099       -12.0029
 201   2.0000      -0.436058       -11.8657
 202   2.0000      -0.434683       -11.8283
 203   2.0000      -0.434559       -11.8250
 204   2.0000      -0.430546       -11.7158
 205   2.0000      -0.429947       -11.6995
 206   2.0000      -0.429327       -11.6826
 207   2.0000      -0.428609       -11.6630
 208   2.0000      -0.422149       -11.4873
 209   2.0000      -0.420861       -11.4522
 210   2.0000      -0.417993       -11.3742
 211   2.0000      -0.413769       -11.2592
 212   2.0000      -0.408515       -11.1163
 213   2.0000      -0.405441       -11.0326
 214   2.0000      -0.397577       -10.8186
 215   2.0000      -0.392047       -10.6681
 216   2.0000      -0.390889       -10.6366
 217   2.0000      -0.385726       -10.4961
 218   2.0000      -0.379144       -10.3170
 219   2.0000      -0.365687        -9.9509
 220   2.0000      -0.361089        -9.8257
 221   2.0000      -0.360571        -9.8116
 222   2.0000      -0.351451        -9.5635
 223   2.0000      -0.349708        -9.5160
 224   2.0000      -0.344725        -9.3804
 225   2.0000      -0.331888        -9.0311
 226   2.0000      -0.328516        -8.9394
 227   2.0000      -0.322043        -8.7632
 228   2.0000      -0.298241        -8.1155
 229   2.0000      -0.286712        -7.8018
 230   2.0000      -0.268532        -7.3071
 231   2.0000      -0.233864        -6.3638
 232   0.0000      -0.119644        -3.2557
 233   0.0000      -0.108777        -2.9600
 234   0.0000      -0.083848        -2.2816
 235   0.0000      -0.069182        -1.8825
 236   0.0000      -0.058328        -1.5872

MULLIKEN ATOMIC CHARGES
-----------------------
   0 C :    0.111999
   1 C :   -0.182765
   2 C :    0.216958
   3 O :   -0.212363
   4 O :   -0.281479
   5 C :    0.183146
   6 C :   -0.131261
   7 N :    0.088160
   8 C :   -0.122775
   9 C :    0.017498
  10 C :   -0.016473
  11 C :   -0.085267
  12 S :    0.193325
  13 C :   -0.098935
  14 C :    0.025363
  15 C :    0.308769
  16 C :   -0.292556
  17 C :   -0.189105
  18 N :    0.172953
  19 C :   -0.186470
  20 N :    0.189391
  21 C :   -0.058967
  22 C :   -0.054216
  23 S :    0.171355
  24 C :   -0.026876
  25 C :   -0.097098
  26 C :    0.057069
  27 C :    0.053125
  28 C :   -0.118800
  29 S :    0.138822
  30 C :   -0.104778
  31 C :    0.047851
  32 C :    0.008518
  33 C :   -0.067145
  34 S :    0.135632
  35 C :    0.086170
  36 C :   -0.021582
  37 C :    0.024293
  38 C :   -0.070915
  39 C :   -0.041215
  40 C :    0.014667
  41 C :   -0.114155
  42 S :    0.184250
  43 C :   -0.067402
  44 C :    0.022741
  45 C :    0.312377
  46 C :   -0.300176
  47 C :   -0.194022
  48 N :    0.179652
  49 C :   -0.180961
  50 N :    0.161623
  51 C :   -0.042332
  52 C :   -0.063472
  53 S :    0.235799
  54 C :    0.048999
  55 C :   -0.222316
  56 C :    0.241350
  57 O :   -0.252530
  58 O :   -0.278832
  59 C :    0.188487
  60 C :   -0.122171
  61 N :    0.097261
  62 H :    0.018246
  63 H :    0.042920
  64 H :    0.043472
  65 H :    0.036867
  66 H :    0.034403
  67 H :    0.024083
  68 H :   -0.009226
  69 H :    0.042360
  70 H :   -0.008840
  71 H :    0.032834
  72 H :   -0.013403
  73 H :   -0.025446
  74 H :    0.006350
  75 H :    0.014885
  76 H :    0.028624
  77 H :    0.034354
  78 H :    0.033385
  79 H :    0.045941
Sum of atomic charges:   -0.0000000

LOEWDIN ATOMIC CHARGES
----------------------
   0 C :    0.039728
   1 C :   -0.124076
   2 C :    0.096145
   3 O :   -0.166972
   4 O :   -0.071955
   5 C :    0.084692
   6 C :   -0.038272
   7 N :   -0.062416
   8 C :   -0.181767
   9 C :    0.013393
  10 C :   -0.075023
  11 C :   -0.164301
  12 S :    0.483832
  13 C :   -0.188355
  14 C :   -0.053778
  15 C :    0.077276
  16 C :   -0.092265
  17 C :   -0.015291
  18 N :   -0.029388
  19 C :   -0.020292
  20 N :   -0.017468
  21 C :   -0.042620
  22 C :   -0.169187
  23 S :    0.474492
  24 C :   -0.183627
  25 C :   -0.028681
  26 C :   -0.018813
  27 C :   -0.046047
  28 C :   -0.137124
  29 S :    0.468168
  30 C :   -0.202508
  31 C :   -0.038668
  32 C :   -0.062627
  33 C :   -0.159554
  34 S :    0.426913
  35 C :   -0.048390
  36 C :    0.002650
  37 C :   -0.064545
  38 C :   -0.146252
  39 C :   -0.037805
  40 C :   -0.052191
  41 C :   -0.200735
  42 S :    0.470986
  43 C :   -0.163764
  44 C :   -0.085980
  45 C :    0.082340
  46 C :   -0.105627
  47 C :   -0.017797
  48 N :   -0.031835
  49 C :   -0.014610
  50 N :   -0.037951
  51 C :    0.006356
  52 C :   -0.193917
  53 S :    0.540416
  54 C :    0.058704
  55 C :   -0.151033
  56 C :    0.099514
  57 O :   -0.207437
  58 O :   -0.069457
  59 C :    0.085029
  60 C :   -0.038785
  61 N :   -0.064854
  62 H :    0.048692
  63 H :    0.027239
  64 H :    0.030244
  65 H :    0.026314
  66 H :    0.043492
  67 H :    0.035569
  68 H :    0.025397
  69 H :    0.039607
  70 H :    0.033008
  71 H :    0.025907
  72 H :    0.033733
  73 H :    0.022679
  74 H :    0.038054
  75 H :    0.043391
  76 H :    0.060008
  77 H :    0.024419
  78 H :    0.024403
  79 H :    0.031251

  Mayer bond orders larger than 0.100000
B(  0-C ,  1-C ) :   1.7370 B(  0-C ,  8-C ) :   1.1647 B(  0-C , 62-H ) :   0.9352
B(  1-C ,  2-C ) :   0.9307 B(  1-C ,  6-C ) :   1.0704 B(  2-C ,  3-O ) :   2.0345
B(  2-C ,  4-O ) :   1.2560 B(  4-O ,  5-C ) :   0.9141 B(  5-C , 63-H ) :   0.9731
B(  5-C , 64-H ) :   0.9808 B(  5-C , 65-H ) :   0.9786 B(  6-C ,  7-N ) :   3.0296
B(  8-C ,  9-C ) :   1.4285 B(  8-C , 12-S ) :   1.0762 B(  9-C , 10-C ) :   1.3197
B(  9-C , 66-H ) :   0.9711 B( 10-C , 11-C ) :   1.3936 B( 10-C , 15-C ) :   0.9984
B( 11-C , 12-S ) :   1.1569 B( 11-C , 13-C ) :   1.2000 B( 13-C , 14-C ) :   1.4432
B( 13-C , 23-S ) :   1.1085 B( 14-C , 15-C ) :   0.9931 B( 14-C , 21-C ) :   1.3116
B( 15-C , 16-C ) :   1.7165 B( 16-C , 17-C ) :   1.1357 B( 16-C , 19-C ) :   1.1338
B( 17-C , 18-N ) :   2.9863 B( 19-C , 20-N ) :   2.9938 B( 21-C , 22-C ) :   1.4477
B( 21-C , 67-H ) :   0.9773 B( 22-C , 23-S ) :   1.1113 B( 22-C , 24-C ) :   1.1742
B( 24-C , 25-C ) :   1.5124 B( 24-C , 29-S ) :   1.0605 B( 25-C , 26-C ) :   1.2559
B( 25-C , 68-H ) :   0.9586 B( 26-C , 27-C ) :   1.0539 B( 26-C , 35-C ) :   1.3675
B( 27-C , 28-C ) :   1.6092 B( 27-C , 30-C ) :   1.1803 B( 28-C , 29-S ) :   1.1381
B( 28-C , 69-H ) :   0.9402 B( 30-C , 31-C ) :   1.4372 B( 30-C , 34-S ) :   1.0785
B( 31-C , 32-C ) :   1.2199 B( 31-C , 35-C ) :   1.1020 B( 32-C , 33-C ) :   1.5893
B( 32-C , 70-H ) :   0.9974 B( 33-C , 34-S ) :   1.1547 B( 33-C , 71-H ) :   0.9656
B( 35-C , 36-C ) :   1.1747 B( 36-C , 37-C ) :   1.6320 B( 36-C , 72-H ) :   0.9595
B( 37-C , 38-C ) :   1.1360 B( 37-C , 73-H ) :   0.9562 B( 38-C , 39-C ) :   1.4326
B( 38-C , 42-S ) :   1.1162 B( 39-C , 40-C ) :   1.3139 B( 39-C , 74-H ) :   0.9881
B( 40-C , 41-C ) :   1.4248 B( 40-C , 45-C ) :   0.9980 B( 41-C , 42-S ) :   1.1027
B( 41-C , 43-C ) :   1.2122 B( 43-C , 44-C ) :   1.3601 B( 43-C , 53-S ) :   1.1258
B( 44-C , 45-C ) :   0.9940 B( 44-C , 51-C ) :   1.3323 B( 45-C , 46-C ) :   1.7075
B( 46-C , 47-C ) :   1.1379 B( 46-C , 49-C ) :   1.1333 B( 47-C , 48-N ) :   2.9948
B( 49-C , 50-N ) :   2.9830 B( 51-C , 52-C ) :   1.3521 B( 51-C , 75-H ) :   1.0042
B( 52-C , 53-S ) :   1.0732 B( 52-C , 54-C ) :   1.2297 B( 54-C , 55-C ) :   1.6332
B( 54-C , 76-H ) :   0.9591 B( 55-C , 56-C ) :   0.9922 B( 55-C , 60-C ) :   1.0636
B( 56-C , 57-O ) :   1.9576 B( 56-C , 58-O ) :   1.2758 B( 58-O , 59-C ) :   0.9162
B( 59-C , 77-H ) :   0.9756 B( 59-C , 78-H ) :   0.9769 B( 59-C , 79-H ) :   0.9813
B( 60-C , 61-N ) :   3.0348

-----------------------------------------------------------------------------
         ABSORPTION SPECTRUM VIA TRANSITION ELECTRIC DIPOLE MOMENTS
-----------------------------------------------------------------------------
State   Energy  Wavelength   fosc         T2         TX        TY        TZ
        (cm-1)    (nm)                  (au**2)     (au)      (au)      (au)
-----------------------------------------------------------------------------
   0   10301.7    970.7   0.262157305   8.37779   2.08522   1.39187   1.44650
   1   11519.6    868.1   0.168986191   4.82934   0.98719  -1.09429  -1.63013
   2   16691.9    599.1   0.156236594   3.08144   0.19424   0.97464   1.44699
   3   17638.8    566.9   0.536084578  10.00552   2.04928   1.59333   1.80756
   4   20135.2    496.6   0.074083406   1.21127   0.54001   0.62845   0.72437
   5   22292.9    448.6   0.203542729   3.00583   1.69946   0.31071  -0.14537
   6   23266.2    429.8   1.398452264  19.78777   3.08767  -1.80494  -2.64504
   7   23889.8    418.6   0.271071755   3.73548  -1.41026   0.77422   1.07110
   8   24911.4    401.4   0.003249943   0.04295  -0.13547  -0.13467   0.08037
   9   25618.6    390.3   0.049007644   0.62977  -0.36624   0.43207   0.55584
  10   26576.6    376.3   0.227583731   2.81914   1.08716  -0.04290  -1.27882
  11   27037.7    369.9   0.157061596   1.91239  -1.23578   0.41117   0.46495
  12   28733.0    348.0   0.223767012   2.56384  -1.43864  -0.58943  -0.38305
  13   29640.2    337.4   0.021050565   0.23381   0.21760  -0.25739   0.34671
  14   30194.3    331.2   0.092773781   1.01152   0.00611  -0.13074  -0.99719
  15   30591.1    326.9   0.491196299   5.28611   0.49344   0.93185   2.04310
  16   31051.2    322.0   0.469798899   4.98091  -1.96130   0.90610  -0.55964
  17   31525.9    317.2   0.103756527   1.08349   0.35701   0.10861   0.97172
  18   31914.3    313.3   0.644953167   6.65301   2.54732   0.20540   0.34922
  19   32464.4    308.0   0.169344766   1.71728   0.64938   0.49477   1.02508
  20   32919.8    303.8   0.587278530   5.87303   1.40112  -1.39301  -1.40336
  21   33117.5    302.0   0.009582007   0.09525  -0.22205   0.03484  -0.21150
  22   33404.0    299.4   0.007796052   0.07683   0.26448  -0.07028  -0.04412
  23   33773.4    296.1   0.101766840   0.99199  -0.79687   0.09511   0.58987
  24   34006.3    294.1   0.016964667   0.16423   0.04471  -0.03607  -0.40117
  25   34992.4    285.8   0.046417047   0.43670   0.00434  -0.01778  -0.66058
  26   35413.6    282.4   0.219695240   2.04233   1.40373   0.00537   0.26806
  27   35550.0    281.3   0.003575131   0.03311   0.11341   0.11288  -0.08663
  28   35701.5    280.1   0.053168187   0.49028   0.69473  -0.07171  -0.04988
  29   36315.9    275.4   0.043804535   0.39710   0.48514  -0.40216   0.00216
  30   36446.5    274.4   0.140763042   1.27148  -1.00440   0.15081   0.48980
  31   37116.1    269.4   0.045209712   0.40100  -0.38899  -0.24845  -0.43354
  32   37774.2    264.7   0.059898973   0.52203   0.66787   0.21529   0.17217
  33   37965.3    263.4   0.022144598   0.19202  -0.32071  -0.01454  -0.29826
  34   38386.8    260.5   0.047775795   0.40973   0.55883   0.05328   0.30757
  35   38862.6    257.3   0.033313780   0.28221   0.52044   0.06903  -0.08117
  36   39168.8    255.3   0.003313196   0.02785  -0.09396   0.13526  -0.02690
  37   39674.3    252.1   0.043626953   0.36201  -0.39770   0.29400   0.34265
  38   39834.7    251.0   0.020915590   0.17286  -0.02487  -0.23471  -0.34227
  39   40078.5    249.5   0.034161262   0.28061   0.28062  -0.25372  -0.37079

FINAL SINGLE POINT ENERGY     -4778.363425283808

DIPOLE MOMENT
-------------
                                X             Y             Z
Electronic contribution:     14.89879      -4.94591      -4.31525
Nuclear contribution   :    -13.85914       4.21447       1.53099
                        -----------------------------------------
Total Dipole Moment    :      1.03965      -0.73144      -2.78426
                        -----------------------------------------
Magnitude (a.u.)       :      3.06071
Magnitude (Debye)      :      7.77971

Rotational constants in cm-1:     0.000900     0.000517     0.000339
Rotational constants in MHz :    26.983232    15.488540    10.151920

                             ****ORCA TERMINATED NORMALLY****
TOTAL RUN TIME: 0 days 0 hours 6 minutes 38 seconds 315 msec
