                         Program Version 4.2.0 -  RELEASE  -
|  1> # ORCA input file
|  2> # SCF done       -174.860202766554          0.000379747224
|  3> ! CAM-B3LYP def2-SVP def2/J RIJCOSX Grid4 TightSCF
|  4> %maxcore 5000
|  5> %tddft
|  6>     Mode sTDDFT
|  7>     Ethresh 5.0
|  8>     maxcore 5000
|  9> end
| 10>
| 11> %pal
| 12>   nprocs 6
| 13>   end
| 14> * xyz 0 1
| 15>    C        2.44260        -0.13256         6.77646
| 16>    O        2.65412        -1.32422         6.79749
| 17>    N        3.16995         0.72733         5.95982
| 18>    C        3.61215         2.01387         6.19881
| 19>    N        4.40127         2.42965         5.26927
| 20>    C        4.50634         1.40994         4.36405
| 21>    C        3.78035         0.34242         4.77937
| 22>    N        1.48935         0.45818         7.57565
| 23>    C        0.89968         1.72588         7.52632
| 24>    C        0.03438         1.78870         8.56424
| 25>    N        0.04788         0.62053         9.27805
| 26>    C        0.88502        -0.16426         8.67110
| 27>    N        1.17177        -1.42700         9.04535
| 28>    C        0.59903        -1.98711        10.14886
| 29>    S       -0.43309        -1.04181        11.15642
| 30>    C       -0.59327        -2.41492        12.21769
| 31>    N       -1.45174        -2.32689        13.31421
| 32>    O       -1.54193        -3.29917        14.04508
| 33>    O       -2.06979        -1.28563        13.45423
| 34>    C        0.12071        -3.51072        11.81038
| 35>    C        0.80457        -3.29052        10.60163
| 36>    C        1.55093        -4.34149         9.94691
| 37>    C        1.74314        -4.49625         8.62734
| 38>    C        2.38949        -5.65255         8.04598
| 39>    C        3.45163        -6.32038         8.51383
| 40>    C        4.28131        -5.91080         9.68861
| 41>    C        3.80317        -7.66632         7.92480
| 42>    N        3.15421        -8.66760         8.75420
| 43>    C        3.72398        -9.16359         9.87126
| 44>    C        3.01427        -9.51757        10.97914
| 45>    C        3.54897       -10.14627        12.11385
| 46>    C        2.84398       -10.29363        13.28364
| 47>    C        3.20043       -11.01423        14.44573
| 48>    C        2.25649       -10.99068        15.43082
| 49>    C        1.12119       -10.21481        15.11220
| 50>    S        1.26839        -9.54026        13.51495
| 51>    C       -0.01427        -9.97437        15.86956
| 52>    C       -0.46382       -10.60211        17.04488
| 53>    C       -1.71367       -10.20455        17.42579
| 54>    C       -2.31320        -9.24406        16.57672
| 55>    S       -1.20331        -8.81798        15.30879
| 56>    C       -3.56507        -8.68065        16.78848
| 57>    C       -4.26858        -7.72382        16.07104
| 58>    C       -4.09942        -7.15804        14.81393
| 59>    C       -4.69248        -5.82076        14.57250
| 60>    O       -5.48099        -5.23242        15.27908
| 61>    C       -4.11044        -5.35621        13.29027
| 62>    C       -4.24548        -4.15447        12.66282
| 63>    C       -3.55332        -3.93384        11.44743
| 64>    C       -2.72488        -4.96539        10.92021
| 65>    C       -2.00809        -4.72653         9.73175
| 66>    C       -2.11786        -3.52445         9.09304
| 67>    C       -2.95112        -2.51313         9.60029
| 68>    C       -3.65361        -2.71062        10.75720
| 69>    F       -3.04009        -1.34732         8.93583
| 70>    F       -1.40008        -3.28789         7.97333
| 71>    C       -2.61976        -6.20787        11.58808
| 72>    C       -3.31208        -6.40216        12.75005
| 73>    C       -3.42454        -7.56650        13.62949
| 74>    C       -3.10835        -8.86408        13.26218
| 75>    C       -3.55598        -9.98448        13.98471
| 76>    N       -3.93031       -10.91638        14.54304
| 77>    C       -2.39896        -9.19604        12.09781
| 78>    N       -1.78351        -9.50833        11.17721
| 79>    H        3.36681         2.56270         7.08523
| 80>    H        5.10377         1.52064         3.48252
| 81>    H        3.61510        -0.62967         4.36508
| 82>    H        1.10688         2.41939         6.74018
| 83>    H       -0.61063         2.59106         8.85700
| 84>    H        1.81398        -1.96453         8.46697
| 85>    H        0.11994        -4.44137        12.34884
| 86>    H        1.88189        -5.12176        10.61838
| 87>    H        1.29013        -3.81785         7.91723
| 88>    H        1.93218        -6.00094         7.12665
| 89>    H        4.11274        -4.86844         9.94281
| 90>    H        5.33760        -6.05029         9.45936
| 91>    H        4.05188        -6.52434        10.56179
| 92>    H        4.87903        -7.84953         7.93437
| 93>    H        3.42882        -7.76585         6.90320
| 94>    H        2.14759        -8.55855         8.80290
| 95>    H        4.79840        -9.28817         9.83234
| 96>    H        1.95508        -9.29194        11.00178
| 97>    H        4.55692       -10.53708        12.07298
| 98>    H        4.13301       -11.54709        14.51132
| 99>    H        2.35065       -11.49385        16.37631
|100>    H        0.11629       -11.35255        17.55135
|101>    H       -2.23786       -10.59518        18.27962
|102>    H       -4.02624        -8.99247        17.71842
|103>    H       -5.07544        -7.24965        16.62422
|104>    H       -4.85802        -3.37456        13.08816
|105>    H       -1.36558        -5.49181         9.32537
|106>    H       -4.27311        -1.91845        11.14708
|107>    H       -1.98651        -6.97177        11.16597
|108> *
|109>
|110>                          ****END OF INPUT****

CARTESIAN COORDINATES (ANGSTROEM)
---------------------------------
  C      2.442600   -0.132560    6.776460
  O      2.654120   -1.324220    6.797490
  N      3.169950    0.727330    5.959820
  C      3.612150    2.013870    6.198810
  N      4.401270    2.429650    5.269270
  C      4.506340    1.409940    4.364050
  C      3.780350    0.342420    4.779370
  N      1.489350    0.458180    7.575650
  C      0.899680    1.725880    7.526320
  C      0.034380    1.788700    8.564240
  N      0.047880    0.620530    9.278050
  C      0.885020   -0.164260    8.671100
  N      1.171770   -1.427000    9.045350
  C      0.599030   -1.987110   10.148860
  S     -0.433090   -1.041810   11.156420
  C     -0.593270   -2.414920   12.217690
  N     -1.451740   -2.326890   13.314210
  O     -1.541930   -3.299170   14.045080
  O     -2.069790   -1.285630   13.454230
  C      0.120710   -3.510720   11.810380
  C      0.804570   -3.290520   10.601630
  C      1.550930   -4.341490    9.946910
  C      1.743140   -4.496250    8.627340
  C      2.389490   -5.652550    8.045980
  C      3.451630   -6.320380    8.513830
  C      4.281310   -5.910800    9.688610
  C      3.803170   -7.666320    7.924800
  N      3.154210   -8.667600    8.754200
  C      3.723980   -9.163590    9.871260
  C      3.014270   -9.517570   10.979140
  C      3.548970  -10.146270   12.113850
  C      2.843980  -10.293630   13.283640
  C      3.200430  -11.014230   14.445730
  C      2.256490  -10.990680   15.430820
  C      1.121190  -10.214810   15.112200
  S      1.268390   -9.540260   13.514950
  C     -0.014270   -9.974370   15.869560
  C     -0.463820  -10.602110   17.044880
  C     -1.713670  -10.204550   17.425790
  C     -2.313200   -9.244060   16.576720
  S     -1.203310   -8.817980   15.308790
  C     -3.565070   -8.680650   16.788480
  C     -4.268580   -7.723820   16.071040
  C     -4.099420   -7.158040   14.813930
  C     -4.692480   -5.820760   14.572500
  O     -5.480990   -5.232420   15.279080
  C     -4.110440   -5.356210   13.290270
  C     -4.245480   -4.154470   12.662820
  C     -3.553320   -3.933840   11.447430
  C     -2.724880   -4.965390   10.920210
  C     -2.008090   -4.726530    9.731750
  C     -2.117860   -3.524450    9.093040
  C     -2.951120   -2.513130    9.600290
  C     -3.653610   -2.710620   10.757200
  F     -3.040090   -1.347320    8.935830
  F     -1.400080   -3.287890    7.973330
  C     -2.619760   -6.207870   11.588080
  C     -3.312080   -6.402160   12.750050
  C     -3.424540   -7.566500   13.629490
  C     -3.108350   -8.864080   13.262180
  C     -3.555980   -9.984480   13.984710
  N     -3.930310  -10.916380   14.543040
  C     -2.398960   -9.196040   12.097810
  N     -1.783510   -9.508330   11.177210
  H      3.366810    2.562700    7.085230
  H      5.103770    1.520640    3.482520
  H      3.615100   -0.629670    4.365080
  H      1.106880    2.419390    6.740180
  H     -0.610630    2.591060    8.857000
  H      1.813980   -1.964530    8.466970
  H      0.119940   -4.441370   12.348840
  H      1.881890   -5.121760   10.618380
  H      1.290130   -3.817850    7.917230
  H      1.932180   -6.000940    7.126650
  H      4.112740   -4.868440    9.942810
  H      5.337600   -6.050290    9.459360
  H      4.051880   -6.524340   10.561790
  H      4.879030   -7.849530    7.934370
  H      3.428820   -7.765850    6.903200
  H      2.147590   -8.558550    8.802900
  H      4.798400   -9.288170    9.832340
  H      1.955080   -9.291940   11.001780
  H      4.556920  -10.537080   12.072980
  H      4.133010  -11.547090   14.511320
  H      2.350650  -11.493850   16.376310
  H      0.116290  -11.352550   17.551350
  H     -2.237860  -10.595180   18.279620
  H     -4.026240   -8.992470   17.718420
  H     -5.075440   -7.249650   16.624220
  H     -4.858020   -3.374560   13.088160
  H     -1.365580   -5.491810    9.325370
  H     -4.273110   -1.918450   11.147080
  H     -1.986510   -6.971770   11.165970

 Total Charge           Charge          ....    0
 Multiplicity           Mult            ....    1
 Number of Electrons    NEL             ....  466
 Basis Dimension        Dim             .... 1053

ORBITAL ENERGIES
----------------

  NO   OCC          E(Eh)            E(eV)
   0   2.0000     -88.971535     -2421.0386
   1   2.0000     -88.953004     -2420.5343
   2   2.0000     -88.949759     -2420.4460
   3   2.0000     -24.789472      -674.5558
   4   2.0000     -24.779927      -674.2961
   5   2.0000     -19.259970      -524.0904
   6   2.0000     -19.223029      -523.0852
   7   2.0000     -19.222097      -523.0598
   8   2.0000     -19.180291      -521.9223
   9   2.0000     -14.632746      -398.1773
  10   2.0000     -14.521270      -395.1438
  11   2.0000     -14.512834      -394.9143
  12   2.0000     -14.484974      -394.1562
  13   2.0000     -14.459668      -393.4676
  14   2.0000     -14.417191      -392.3117
  15   2.0000     -14.415727      -392.2719
  16   2.0000     -14.388097      -391.5200
  17   2.0000     -14.378026      -391.2460
  18   2.0000     -10.476999      -285.0936
  19   2.0000     -10.406044      -283.1628
  20   2.0000     -10.361174      -281.9419
  21   2.0000     -10.360181      -281.9149
  22   2.0000     -10.359288      -281.8905
  23   2.0000     -10.354730      -281.7665
  24   2.0000     -10.343893      -281.4716
  25   2.0000     -10.330525      -281.1079
  26   2.0000     -10.329217      -281.0723
  27   2.0000     -10.327717      -281.0315
  28   2.0000     -10.326427      -280.9964
  29   2.0000     -10.325043      -280.9587
  30   2.0000     -10.318179      -280.7719
  31   2.0000     -10.317044      -280.7410
  32   2.0000     -10.308320      -280.5036
  33   2.0000     -10.308078      -280.4971
  34   2.0000     -10.307025      -280.4684
  35   2.0000     -10.306557      -280.4557
  36   2.0000     -10.304287      -280.3939
  37   2.0000     -10.300255      -280.2842
  38   2.0000     -10.299747      -280.2704
  39   2.0000     -10.298823      -280.2452
  40   2.0000     -10.294162      -280.1184
  41   2.0000     -10.293737      -280.1068
  42   2.0000     -10.293525      -280.1010
  43   2.0000     -10.293363      -280.0966
  44   2.0000     -10.289095      -279.9805
  45   2.0000     -10.288931      -279.9761
  46   2.0000     -10.285626      -279.8861
  47   2.0000     -10.284803      -279.8637
  48   2.0000     -10.283362      -279.8245
  49   2.0000     -10.283175      -279.8194
  50   2.0000     -10.282689      -279.8062
  51   2.0000     -10.282046      -279.7887
  52   2.0000     -10.281075      -279.7623
  53   2.0000     -10.278723      -279.6983
  54   2.0000     -10.278429      -279.6903
  55   2.0000     -10.278405      -279.6896
  56   2.0000     -10.276700      -279.6432
  57   2.0000     -10.274389      -279.5803
  58   2.0000     -10.271615      -279.5049
  59   2.0000     -10.270569      -279.4764
  60   2.0000     -10.270036      -279.4619
  61   2.0000     -10.263848      -279.2935
  62   2.0000     -10.260635      -279.2061
  63   2.0000     -10.257105      -279.1100
  64   2.0000      -8.064313      -219.4411
  65   2.0000      -8.049205      -219.0300
  66   2.0000      -8.044536      -218.9030
  67   2.0000      -6.034063      -164.1952
  68   2.0000      -6.029401      -164.0684
  69   2.0000      -6.026020      -163.9763
  70   2.0000      -6.018817      -163.7803
  71   2.0000      -6.014728      -163.6691
  72   2.0000      -6.013904      -163.6466
  73   2.0000      -6.010354      -163.5501
  74   2.0000      -6.009729      -163.5330
  75   2.0000      -6.006452      -163.4439
  76   2.0000      -1.304558       -35.4988
  77   2.0000      -1.302354       -35.4389
  78   2.0000      -1.288453       -35.0606
  79   2.0000      -1.221259       -33.2322
  80   2.0000      -1.156000       -31.4564
  81   2.0000      -1.140307       -31.0293
  82   2.0000      -1.120727       -30.4965
  83   2.0000      -1.094698       -29.7882
  84   2.0000      -1.084971       -29.5236
  85   2.0000      -1.061989       -28.8982
  86   2.0000      -1.026804       -27.9408
  87   2.0000      -1.000153       -27.2156
  88   2.0000      -1.000127       -27.2148
  89   2.0000      -0.990680       -26.9578
  90   2.0000      -0.987890       -26.8818
  91   2.0000      -0.976508       -26.5721
  92   2.0000      -0.973441       -26.4887
  93   2.0000      -0.961282       -26.1578
  94   2.0000      -0.951013       -25.8784
  95   2.0000      -0.935478       -25.4557
  96   2.0000      -0.915211       -24.9042
  97   2.0000      -0.903820       -24.5942
  98   2.0000      -0.899948       -24.4888
  99   2.0000      -0.883145       -24.0316
 100   2.0000      -0.876546       -23.8520
 101   2.0000      -0.870549       -23.6888
 102   2.0000      -0.869285       -23.6544
 103   2.0000      -0.862597       -23.4724
 104   2.0000      -0.859239       -23.3811
 105   2.0000      -0.854275       -23.2460
 106   2.0000      -0.849158       -23.1068
 107   2.0000      -0.838253       -22.8100
 108   2.0000      -0.825238       -22.4559
 109   2.0000      -0.819003       -22.2862
 110   2.0000      -0.814436       -22.1619
 111   2.0000      -0.813547       -22.1377
 112   2.0000      -0.800995       -21.7962
 113   2.0000      -0.791821       -21.5465
 114   2.0000      -0.779024       -21.1983
 115   2.0000      -0.765332       -20.8258
 116   2.0000      -0.758104       -20.6291
 117   2.0000      -0.752873       -20.4867
 118   2.0000      -0.734371       -19.9833
 119   2.0000      -0.732254       -19.9257
 120   2.0000      -0.730566       -19.8797
 121   2.0000      -0.717733       -19.5305
 122   2.0000      -0.712246       -19.3812
 123   2.0000      -0.706603       -19.2276
 124   2.0000      -0.698425       -19.0051
 125   2.0000      -0.689550       -18.7636
 126   2.0000      -0.685571       -18.6553
 127   2.0000      -0.680105       -18.5066
 128   2.0000      -0.678005       -18.4495
 129   2.0000      -0.666636       -18.1401
 130   2.0000      -0.664635       -18.0856
 131   2.0000      -0.652365       -17.7517
 132   2.0000      -0.644469       -17.5369
 133   2.0000      -0.635059       -17.2808
 134   2.0000      -0.633110       -17.2278
 135   2.0000      -0.631658       -17.1883
 136   2.0000      -0.626295       -17.0424
 137   2.0000      -0.621533       -16.9128
 138   2.0000      -0.617974       -16.8159
 139   2.0000      -0.615470       -16.7478
 140   2.0000      -0.614278       -16.7154
 141   2.0000      -0.613342       -16.6899
 142   2.0000      -0.607399       -16.5282
 143   2.0000      -0.604486       -16.4489
 144   2.0000      -0.594988       -16.1904
 145   2.0000      -0.592637       -16.1265
 146   2.0000      -0.588434       -16.0121
 147   2.0000      -0.585314       -15.9272
 148   2.0000      -0.581555       -15.8249
 149   2.0000      -0.576748       -15.6941
 150   2.0000      -0.575166       -15.6510
 151   2.0000      -0.571370       -15.5478
 152   2.0000      -0.570956       -15.5365
 153   2.0000      -0.564190       -15.3524
 154   2.0000      -0.562410       -15.3039
 155   2.0000      -0.561469       -15.2784
 156   2.0000      -0.554227       -15.0813
 157   2.0000      -0.552971       -15.0471
 158   2.0000      -0.551382       -15.0039
 159   2.0000      -0.547109       -14.8876
 160   2.0000      -0.540000       -14.6941
 161   2.0000      -0.534296       -14.5389
 162   2.0000      -0.533403       -14.5146
 163   2.0000      -0.531126       -14.4527
 164   2.0000      -0.525981       -14.3127
 165   2.0000      -0.524414       -14.2700
 166   2.0000      -0.520075       -14.1520
 167   2.0000      -0.517758       -14.0889
 168   2.0000      -0.516188       -14.0462
 169   2.0000      -0.515140       -14.0177
 170   2.0000      -0.510243       -13.8844
 171   2.0000      -0.507313       -13.8047
 172   2.0000      -0.506046       -13.7702
 173   2.0000      -0.504413       -13.7258
 174   2.0000      -0.501076       -13.6350
 175   2.0000      -0.499067       -13.5803
 176   2.0000      -0.495578       -13.4854
 177   2.0000      -0.494939       -13.4680
 178   2.0000      -0.494168       -13.4470
 179   2.0000      -0.488520       -13.2933
 180   2.0000      -0.485837       -13.2203
 181   2.0000      -0.481812       -13.1108
 182   2.0000      -0.479230       -13.0405
 183   2.0000      -0.477460       -12.9923
 184   2.0000      -0.475603       -12.9418
 185   2.0000      -0.472919       -12.8688
 186   2.0000      -0.465154       -12.6575
 187   2.0000      -0.461016       -12.5449
 188   2.0000      -0.459402       -12.5010
 189   2.0000      -0.457281       -12.4432
 190   2.0000      -0.452663       -12.3176
 191   2.0000      -0.451296       -12.2804
 192   2.0000      -0.444908       -12.1066
 193   2.0000      -0.444112       -12.0849
 194   2.0000      -0.435882       -11.8610
 195   2.0000      -0.433569       -11.7980
 196   2.0000      -0.430225       -11.7070
 197   2.0000      -0.426818       -11.6143
 198   2.0000      -0.425396       -11.5756
 199   2.0000      -0.425019       -11.5654
 200   2.0000      -0.422929       -11.5085
 201   2.0000      -0.418410       -11.3855
 202   2.0000      -0.412108       -11.2140
 203   2.0000      -0.407156       -11.0793
 204   2.0000      -0.403627       -10.9832
 205   2.0000      -0.402438       -10.9509
 206   2.0000      -0.397528       -10.8173
 207   2.0000      -0.396172       -10.7804
 208   2.0000      -0.392798       -10.6886
 209   2.0000      -0.390862       -10.6359
 210   2.0000      -0.388965       -10.5843
 211   2.0000      -0.380252       -10.3472
 212   2.0000      -0.377586       -10.2746
 213   2.0000      -0.370630       -10.0854
 214   2.0000      -0.368246       -10.0205
 215   2.0000      -0.365236        -9.9386
 216   2.0000      -0.361727        -9.8431
 217   2.0000      -0.358274        -9.7491
 218   2.0000      -0.349732        -9.5167
 219   2.0000      -0.346104        -9.4180
 220   2.0000      -0.344270        -9.3681
 221   2.0000      -0.337362        -9.1801
 222   2.0000      -0.334541        -9.1033
 223   2.0000      -0.331339        -9.0162
 224   2.0000      -0.321301        -8.7431
 225   2.0000      -0.311580        -8.4785
 226   2.0000      -0.307160        -8.3583
 227   2.0000      -0.302266        -8.2251
 228   2.0000      -0.288491        -7.8502
 229   2.0000      -0.274667        -7.4741
 230   2.0000      -0.264801        -7.2056
 231   2.0000      -0.261399        -7.1130
 232   2.0000      -0.214193        -5.8285
 233   0.0000      -0.089527        -2.4361
 234   0.0000      -0.052067        -1.4168
 235   0.0000      -0.036089        -0.9820
 236   0.0000      -0.032781        -0.8920
 237   0.0000      -0.025624        -0.6973

MULLIKEN ATOMIC CHARGES
-----------------------
   0 C :    0.265032
   1 O :   -0.214362
   2 N :   -0.185877
   3 C :    0.082860
   4 N :   -0.108416
   5 C :    0.016369
   6 C :    0.086832
   7 N :   -0.194662
   8 C :    0.052484
   9 C :    0.063823
  10 N :   -0.176085
  11 C :    0.114346
  12 N :    0.000336
  13 C :   -0.123755
  14 S :    0.219115
  15 C :   -0.035539
  16 N :    0.272282
  17 O :   -0.249249
  18 O :   -0.268549
  19 C :    0.033006
  20 C :    0.115407
  21 C :   -0.034001
  22 C :   -0.013930
  23 C :    0.000086
  24 C :   -0.215414
  25 C :    0.091291
  26 C :    0.183340
  27 N :   -0.124719
  28 C :    0.055709
  29 C :   -0.044367
  30 C :    0.029085
  31 C :   -0.060879
  32 C :    0.063048
  33 C :    0.012902
  34 C :   -0.015803
  35 S :    0.106005
  36 C :   -0.072377
  37 C :    0.042252
  38 C :    0.037784
  39 C :   -0.022742
  40 S :    0.123318
  41 C :   -0.003671
  42 C :    0.025035
  43 C :   -0.147474
  44 C :    0.136070
  45 O :   -0.154567
  46 C :    0.048795
  47 C :   -0.100371
  48 C :    0.102451
  49 C :    0.122644
  50 C :   -0.094932
  51 C :    0.232615
  52 C :    0.249676
  53 C :   -0.121511
  54 F :   -0.184241
  55 F :   -0.197554
  56 C :   -0.122594
  57 C :    0.057700
  58 C :    0.278845
  59 C :   -0.393038
  60 C :   -0.210043
  61 N :    0.152127
  62 C :   -0.159980
  63 N :    0.105958
  64 H :    0.045795
  65 H :    0.014977
  66 H :    0.028533
  67 H :    0.036500
  68 H :    0.016712
  69 H :    0.159250
  70 H :    0.002003
  71 H :   -0.004322
  72 H :    0.003205
  73 H :   -0.010282
  74 H :    0.030908
  75 H :    0.011216
  76 H :    0.041603
  77 H :    0.016587
  78 H :    0.023073
  79 H :    0.130745
  80 H :    0.010655
  81 H :    0.018927
  82 H :   -0.007610
  83 H :   -0.007610
  84 H :   -0.010083
  85 H :   -0.014405
  86 H :   -0.012812
  87 H :   -0.010515
  88 H :    0.017842
  89 H :   -0.012947
  90 H :   -0.016128
  91 H :   -0.000977
  92 H :   -0.028772
Sum of atomic charges:   -0.0000000

LOEWDIN ATOMIC CHARGES
----------------------
   0 C :    0.126857
   1 O :   -0.166280
   2 N :    0.024701
   3 C :    0.026370
   4 N :   -0.088294
   5 C :   -0.022940
   6 C :   -0.001771
   7 N :    0.015756
   8 C :   -0.037644
   9 C :    0.006004
  10 N :   -0.151383
  11 C :    0.074737
  12 N :    0.040989
  13 C :   -0.097224
  14 S :    0.524620
  15 C :   -0.230713
  16 N :    0.276938
  17 O :   -0.217470
  18 O :   -0.235651
  19 C :    0.002121
  20 C :   -0.109522
  21 C :   -0.011709
  22 C :   -0.049125
  23 C :   -0.048435
  24 C :   -0.043136
  25 C :   -0.054341
  26 C :    0.050430
  27 N :    0.020105
  28 C :    0.066779
  29 C :   -0.125454
  30 C :    0.004710
  31 C :   -0.183990
  32 C :   -0.001863
  33 C :   -0.056538
  34 C :   -0.129104
  35 S :    0.406197
  36 C :   -0.215916
  37 C :   -0.020456
  38 C :   -0.046397
  39 C :   -0.113398
  40 S :    0.481313
  41 C :   -0.075806
  42 C :    0.032845
  43 C :   -0.115341
  44 C :    0.084229
  45 O :   -0.152933
  46 C :   -0.043112
  47 C :    0.027548
  48 C :   -0.019284
  49 C :   -0.009311
  50 C :   -0.033882
  51 C :    0.055708
  52 C :    0.049804
  53 C :   -0.034863
  54 F :   -0.059911
  55 F :   -0.067680
  56 C :   -0.012836
  57 C :   -0.005209
  58 C :    0.032995
  59 C :   -0.187068
  60 C :   -0.034558
  61 N :   -0.073842
  62 C :   -0.015745
  63 N :   -0.100426
  64 H :    0.025207
  65 H :    0.026945
  66 H :    0.033548
  67 H :    0.031248
  68 H :    0.032585
  69 H :    0.086125
  70 H :    0.041094
  71 H :    0.033009
  72 H :    0.023882
  73 H :    0.027575
  74 H :    0.035301
  75 H :    0.030006
  76 H :    0.035587
  77 H :    0.027613
  78 H :    0.029901
  79 H :    0.085911
  80 H :    0.029874
  81 H :    0.026919
  82 H :    0.035835
  83 H :    0.035862
  84 H :    0.033306
  85 H :    0.032105
  86 H :    0.033609
  87 H :    0.037964
  88 H :    0.044098
  89 H :    0.039633
  90 H :    0.038302
  91 H :    0.044555
  92 H :    0.031203

  Mayer bond orders larger than 0.100000
B(  0-C ,  1-O ) :   2.0543 B(  0-C ,  2-N ) :   1.0178 B(  0-C ,  7-N ) :   1.0510
B(  2-N ,  3-C ) :   1.0918 B(  2-N ,  6-C ) :   1.0982 B(  3-C ,  4-N ) :   1.7645
B(  3-C , 64-H ) :   0.9726 B(  4-N ,  5-C ) :   1.3262 B(  5-C ,  6-C ) :   1.5873
B(  5-C , 65-H ) :   0.9998 B(  6-C , 66-H ) :   0.9926 B(  7-N ,  8-C ) :   1.0146
B(  7-N , 11-C ) :   1.0742 B(  8-C ,  9-C ) :   1.6348 B(  8-C , 67-H ) :   0.9789
B(  9-C , 10-N ) :   1.2709 B(  9-C , 68-H ) :   0.9980 B( 10-N , 11-C ) :   1.6423
B( 11-C , 12-N ) :   1.2018 B( 12-N , 13-C ) :   1.1879 B( 12-N , 69-H ) :   0.8489
B( 13-C , 14-S ) :   1.1915 B( 13-C , 20-C ) :   1.3661 B( 14-S , 15-C ) :   1.0392
B( 15-C , 16-N ) :   0.9797 B( 15-C , 19-C ) :   1.4798 B( 16-N , 17-O ) :   1.5276
B( 16-N , 18-O ) :   1.5090 B( 17-O , 18-O ) :   0.2479 B( 19-C , 20-C ) :   1.2324
B( 19-C , 70-H ) :   1.0011 B( 20-C , 21-C ) :   1.0743 B( 21-C , 22-C ) :   1.7457
B( 21-C , 71-H ) :   0.9652 B( 22-C , 23-C ) :   1.0787 B( 22-C , 72-H ) :   0.9438
B( 23-C , 24-C ) :   1.8478 B( 23-C , 73-H ) :   0.9487 B( 24-C , 25-C ) :   1.0807
B( 24-C , 26-C ) :   1.0311 B( 25-C , 74-H ) :   0.9448 B( 25-C , 75-H ) :   0.9466
B( 25-C , 76-H ) :   0.9377 B( 26-C , 27-N ) :   1.0010 B( 26-C , 77-H ) :   0.9382
B( 26-C , 78-H ) :   0.9437 B( 27-N , 28-C ) :   1.2779 B( 27-N , 79-H ) :   0.9328
B( 28-C , 29-C ) :   1.5318 B( 28-C , 80-H ) :   0.9718 B( 29-C , 30-C ) :   1.2143
B( 29-C , 81-H ) :   0.9595 B( 30-C , 31-C ) :   1.5346 B( 30-C , 82-H ) :   0.9807
B( 31-C , 32-C ) :   1.1790 B( 31-C , 35-S ) :   1.0216 B( 32-C , 33-C ) :   1.5466
B( 32-C , 83-H ) :   0.9969 B( 33-C , 34-C ) :   1.2226 B( 33-C , 84-H ) :   0.9957
B( 34-C , 35-S ) :   1.1150 B( 34-C , 36-C ) :   1.4128 B( 36-C , 37-C ) :   1.2378
B( 36-C , 40-S ) :   1.0415 B( 37-C , 38-C ) :   1.5258 B( 37-C , 85-H ) :   0.9926
B( 38-C , 39-C ) :   1.2085 B( 38-C , 86-H ) :   0.9981 B( 39-C , 40-S ) :   1.1283
B( 39-C , 41-C ) :   1.3858 B( 41-C , 42-C ) :   1.3983 B( 41-C , 87-H ) :   0.9537
B( 42-C , 43-C ) :   1.4020 B( 42-C , 88-H ) :   0.9298 B( 43-C , 44-C ) :   0.9732
B( 43-C , 58-C ) :   1.1787 B( 44-C , 45-O ) :   2.2511 B( 44-C , 46-C ) :   0.9077
B( 46-C , 47-C ) :   1.4763 B( 46-C , 57-C ) :   1.2281 B( 47-C , 48-C ) :   1.1704
B( 47-C , 89-H ) :   1.0203 B( 48-C , 49-C ) :   1.2749 B( 48-C , 53-C ) :   1.1953
B( 49-C , 50-C ) :   1.1940 B( 49-C , 56-C ) :   1.1901 B( 50-C , 51-C ) :   1.4295
B( 50-C , 53-C ) :   0.1124 B( 50-C , 90-H ) :   1.0066 B( 51-C , 52-C ) :   1.2202
B( 51-C , 55-F ) :   1.0712 B( 52-C , 53-C ) :   1.4211 B( 52-C , 54-F ) :   1.1175
B( 53-C , 91-H ) :   1.0114 B( 56-C , 57-C ) :   1.4690 B( 56-C , 92-H ) :   0.9945
B( 57-C , 58-C ) :   0.9892 B( 58-C , 59-C ) :   1.4940 B( 59-C , 60-C ) :   1.1645
B( 59-C , 62-C ) :   1.1632 B( 60-C , 61-N ) :   3.0157 B( 62-C , 63-N ) :   2.9494

-----------------------------------------------------------------------------
         ABSORPTION SPECTRUM VIA TRANSITION ELECTRIC DIPOLE MOMENTS
-----------------------------------------------------------------------------
State   Energy  Wavelength   fosc         T2         TX        TY        TZ
        (cm-1)    (nm)                  (au**2)     (au)      (au)      (au)
-----------------------------------------------------------------------------
   0   12026.6    831.5   0.513910590  14.06764   3.47399  -0.88212  -1.10495
   1   21460.8    466.0   0.006208761   0.09524  -0.21034  -0.02999   0.22383
   2   23000.2    434.8   0.164314366   2.35190  -0.37206  -0.20312   1.47384
   3   23681.2    422.3   0.078942465   1.09745  -0.06963   0.28709  -1.00508
   4   23966.6    417.2   0.097184083   1.33495   0.45862  -0.64775  -0.83967
   5   24887.0    401.8   0.260105920   3.44075   0.41112  -1.21818   1.33707
   6   26062.3    383.7   0.787824216   9.95158   0.40058   1.37039  -2.81303
   7   26856.2    372.4   0.158332225   1.94089   0.47015   1.07733  -0.74779
   8   27458.4    364.2   0.057657458   0.69128   0.59688  -0.09605  -0.57078
   9   28303.1    353.3   0.051573609   0.59989   0.52312  -0.05045  -0.56894
  10   29341.0    340.8   0.072554803   0.81408  -0.31638  -0.20473   0.81980
  11   29514.7    338.8   0.052109087   0.58123  -0.07045   0.71566  -0.25319
  12   29795.5    335.6   0.134225745   1.48307   0.28401  -0.66379   0.98071
  13   30945.9    323.1   0.015050957   0.16012  -0.19519   0.04597  -0.34627
  14   31164.9    320.9   0.047681871   0.50369   0.13789  -0.39425  -0.57379
  15   31510.2    317.4   0.054443683   0.56882   0.13191  -0.56923   0.47686
  16   31826.3    314.2   0.151497510   1.56709   0.60242  -0.19054  -1.08068
  17   32500.3    307.7   0.461899406   4.67881   0.12258  -1.97251   0.87920
  18   33347.9    299.9   0.057012645   0.56283   0.62806  -0.04651  -0.40769
  19   33397.7    299.4   0.084182765   0.82982  -0.38559   0.72497  -0.39441
  20   33705.0    296.7   0.028949604   0.28276   0.11603   0.46662  -0.22708
  21   34147.2    292.8   0.026657762   0.25701  -0.08284   0.30870  -0.39351
  22   34316.1    291.4   0.051853835   0.49746  -0.24660   0.52052  -0.40707
  23   34481.3    290.0   0.242808849   2.31823   0.85727  -1.14574  -0.52019
  24   34903.7    286.5   0.023834174   0.22480  -0.32608  -0.06215   0.33854
  25   35044.9    285.3   0.239761132   2.25232  -0.28276  -0.84817   1.20539
  26   35556.3    281.2   0.080603487   0.74630   0.14639  -0.84691  -0.08721
  27   35952.6    278.1   0.064595857   0.59149  -0.12360  -0.72578   0.22238
  28   36194.1    276.3   0.090247352   0.82087  -0.71219   0.52226   0.20225
  29   36360.6    275.0   0.058979778   0.53401   0.70117  -0.07895  -0.19008
  30   36888.8    271.1   0.164239127   1.46574   0.24652   0.75361  -0.91490
  31   37773.6    264.7   0.324783831   2.83062  -0.93151   1.24768   0.63734
  32   38014.9    263.1   0.043155980   0.37373  -0.48292   0.30251  -0.22138
  33   38532.9    259.5   0.023711559   0.20258   0.35144  -0.20938  -0.18770
  34   38905.0    257.0   0.041905816   0.35460   0.50991  -0.15933  -0.26307
  35   39321.5    254.3   0.000358984   0.00301  -0.02039  -0.02734  -0.04292
  36   39445.3    253.5   0.015407587   0.12859   0.18437  -0.30551  -0.03556
  37   39686.2    252.0   0.042185763   0.34995   0.24030  -0.49157  -0.22485
  38   40182.1    248.9   0.060271036   0.49380   0.52687   0.12142  -0.44885

FINAL SINGLE POINT ENERGY     -3954.286039942993

DIPOLE MOMENT
-------------
                                X             Y             Z
Electronic contribution:    -39.44433      20.31696       9.75137
Nuclear contribution   :     45.12135     -20.03226     -12.77929
                        -----------------------------------------
Total Dipole Moment    :      5.67703       0.28470      -3.02792
                        -----------------------------------------
Magnitude (a.u.)       :      6.44034
Magnitude (Debye)      :     16.37005

Rotational constants in cm-1:     0.001858     0.000713     0.000570
Rotational constants in MHz :    55.714772    21.389448    17.091632

                             ****ORCA TERMINATED NORMALLY****
TOTAL RUN TIME: 0 days 0 hours 21 minutes 8 seconds 721 msec
