                         Program Version 4.2.0 -  RELEASE  -
|  1> # ORCA input file
|  2> # SCF done       -212.470770398155          0.000272972542
|  3> ! CAM-B3LYP def2-SVP def2/J RIJCOSX Grid4 TightSCF
|  4> %maxcore 5000
|  5> %tddft
|  6>     Mode sTDDFT
|  7>     Ethresh 5.0
|  8>     maxcore 5000
|  9> end
| 10>
| 11> %pal
| 12>   nprocs 6
| 13>   end
| 14> * xyz 0 1
| 15>    C       -6.23657       -13.09557         3.51107
| 16>    C       -7.14401       -13.23939         4.55042
| 17>    F       -7.58734       -14.46268         4.85781
| 18>    C       -7.59991       -12.14187         5.28243
| 19>    F       -8.47952       -12.32782         6.27242
| 20>    C       -7.14696       -10.86322         4.99692
| 21>    C       -6.23580       -10.72077         3.96924
| 22>    C       -5.78042       -11.82029         3.22007
| 23>    C       -4.85374       -11.34282         2.19396
| 24>    C       -4.49351       -12.03813         1.06889
| 25>    C       -4.80612       -13.39361         0.84121
| 26>    N       -4.99351       -14.50285         0.61346
| 27>    C       -3.79397       -11.47498        -0.01599
| 28>    N       -3.22724       -11.07063        -0.92936
| 29>    C       -4.58160        -9.95521         2.47478
| 30>    C       -5.57457        -9.48707         3.48405
| 31>    O       -5.76068        -8.35351         3.85143
| 32>    C       -3.60238        -9.09434         2.07098
| 33>    C       -2.35140        -9.34934         1.46089
| 34>    C       -1.66923        -8.28669         0.80741
| 35>    C       -0.41949        -8.48084         0.13648
| 36>    N        0.16959        -7.45850        -0.48991
| 37>    C       -0.41831        -6.28295        -0.49916
| 38>    C       -1.67064        -6.09100         0.16250
| 39>    N       -2.25343        -7.07822         0.79716
| 40>    C       -2.28865        -4.81301         0.15160
| 41>    N       -2.75739        -3.76935         0.11636
| 42>    C        0.21068        -5.20098        -1.16495
| 43>    N        0.68742        -4.30818        -1.70067
| 44>    C        0.22183        -9.76287         0.06578
| 45>    C       -0.41741       -10.79760         0.80014
| 46>    C       -1.65904       -10.58165         1.50530
| 47>    N       -2.02426       -11.65819         2.20066
| 48>    S       -0.93321       -12.82045         1.99172
| 49>    N        0.05424       -12.02245         1.00895
| 50>    C        1.44088        -9.85539        -0.61049
| 51>    C        2.12684       -10.97558        -1.05234
| 52>    C        1.69047       -12.29318        -1.29822
| 53>    C        2.65665       -13.10172        -1.83040
| 54>    C        3.90154       -12.46329        -1.99363
| 55>    S        3.80381       -10.79712        -1.51893
| 56>    C        5.10122       -13.02022        -2.44165
| 57>    C        5.32224       -14.31062        -2.95077
| 58>    C        6.62948       -14.52566        -3.28761
| 59>    C        7.49210       -13.43493        -3.02379
| 60>    S        6.58261       -12.09902        -2.37440
| 61>    C        8.85702       -13.50915        -3.25732
| 62>    C        9.91178       -12.64061        -2.97562
| 63>    C        9.82446       -11.37936        -2.31330
| 64>    C       10.99852       -10.64837        -1.90564
| 65>    N       10.85763        -9.44132        -1.34236
| 66>    C        9.65657        -8.98059        -1.07572
| 67>    C        8.49795        -9.73861        -1.39391
| 68>    N        8.62413       -10.88880        -2.03429
| 69>    C        7.20729        -9.26747        -1.06256
| 70>    N        6.17567        -8.85866        -0.77497
| 71>    C        9.56536        -7.71402        -0.44216
| 72>    N        9.50860        -6.70827         0.10155
| 73>    C       12.30942       -11.14809        -2.10265
| 74>    C       12.40315       -12.32833        -2.87646
| 75>    C       11.23685       -13.06149        -3.29294
| 76>    N       11.55825       -14.16685        -3.95612
| 77>    S       13.16172       -14.27471        -4.05277
| 78>    N       13.52804       -12.93212        -3.25162
| 79>    C       13.48007       -10.51425        -1.61497
| 80>    C       13.62286        -9.65375        -0.56706
| 81>    C       14.82782        -8.77843        -0.50063
| 82>    O       15.84195        -8.88679        -1.14519
| 83>    C       14.47964        -7.72673         0.48228
| 84>    C       13.23504        -8.02437         1.06642
| 85>    C       12.67057        -7.15852         1.98866
| 86>    C       13.37871        -6.01191         2.31760
| 87>    C       14.62324        -5.73209         1.74905
| 88>    C       15.18763        -6.58936         0.81751
| 89>    F       15.27635        -4.62075         2.10463
| 90>    F       12.85795        -5.15769         3.20116
| 91>    C       12.76182        -9.30289         0.53996
| 92>    C       11.82959       -10.10442         1.14615
| 93>    C       11.52132       -11.41138         0.72353
| 94>    N       11.21712       -12.47285         0.40666
| 95>    C       11.06641        -9.72524         2.27011
| 96>    N       10.39163        -9.47533         3.16377
| 97>    H       -5.91038       -13.97279         2.97650
| 98>    H       -7.49706       -10.01431         5.56233
| 99>    H       -3.78892        -8.04859         2.29926
|100>    H        1.90688        -8.89809        -0.81555
|101>    H        0.67989       -12.60181        -1.11145
|102>    H        2.50216       -14.13316        -2.09079
|103>    H        4.53941       -15.03788        -3.06998
|104>    H        7.00288       -15.44529        -3.70253
|105>    H        9.18445       -14.43783        -3.71278
|106>    H       14.38273       -10.71293        -2.18460
|107>    H       11.70661        -7.32633         2.44077
|108>    H       16.14570        -6.36900         0.37425
|109> *
|110>
|111>                          ****END OF INPUT****

CARTESIAN COORDINATES (ANGSTROEM)
---------------------------------
  C     -6.236570  -13.095570    3.511070
  C     -7.144010  -13.239390    4.550420
  F     -7.587340  -14.462680    4.857810
  C     -7.599910  -12.141870    5.282430
  F     -8.479520  -12.327820    6.272420
  C     -7.146960  -10.863220    4.996920
  C     -6.235800  -10.720770    3.969240
  C     -5.780420  -11.820290    3.220070
  C     -4.853740  -11.342820    2.193960
  C     -4.493510  -12.038130    1.068890
  C     -4.806120  -13.393610    0.841210
  N     -4.993510  -14.502850    0.613460
  C     -3.793970  -11.474980   -0.015990
  N     -3.227240  -11.070630   -0.929360
  C     -4.581600   -9.955210    2.474780
  C     -5.574570   -9.487070    3.484050
  O     -5.760680   -8.353510    3.851430
  C     -3.602380   -9.094340    2.070980
  C     -2.351400   -9.349340    1.460890
  C     -1.669230   -8.286690    0.807410
  C     -0.419490   -8.480840    0.136480
  N      0.169590   -7.458500   -0.489910
  C     -0.418310   -6.282950   -0.499160
  C     -1.670640   -6.091000    0.162500
  N     -2.253430   -7.078220    0.797160
  C     -2.288650   -4.813010    0.151600
  N     -2.757390   -3.769350    0.116360
  C      0.210680   -5.200980   -1.164950
  N      0.687420   -4.308180   -1.700670
  C      0.221830   -9.762870    0.065780
  C     -0.417410  -10.797600    0.800140
  C     -1.659040  -10.581650    1.505300
  N     -2.024260  -11.658190    2.200660
  S     -0.933210  -12.820450    1.991720
  N      0.054240  -12.022450    1.008950
  C      1.440880   -9.855390   -0.610490
  C      2.126840  -10.975580   -1.052340
  C      1.690470  -12.293180   -1.298220
  C      2.656650  -13.101720   -1.830400
  C      3.901540  -12.463290   -1.993630
  S      3.803810  -10.797120   -1.518930
  C      5.101220  -13.020220   -2.441650
  C      5.322240  -14.310620   -2.950770
  C      6.629480  -14.525660   -3.287610
  C      7.492100  -13.434930   -3.023790
  S      6.582610  -12.099020   -2.374400
  C      8.857020  -13.509150   -3.257320
  C      9.911780  -12.640610   -2.975620
  C      9.824460  -11.379360   -2.313300
  C     10.998520  -10.648370   -1.905640
  N     10.857630   -9.441320   -1.342360
  C      9.656570   -8.980590   -1.075720
  C      8.497950   -9.738610   -1.393910
  N      8.624130  -10.888800   -2.034290
  C      7.207290   -9.267470   -1.062560
  N      6.175670   -8.858660   -0.774970
  C      9.565360   -7.714020   -0.442160
  N      9.508600   -6.708270    0.101550
  C     12.309420  -11.148090   -2.102650
  C     12.403150  -12.328330   -2.876460
  C     11.236850  -13.061490   -3.292940
  N     11.558250  -14.166850   -3.956120
  S     13.161720  -14.274710   -4.052770
  N     13.528040  -12.932120   -3.251620
  C     13.480070  -10.514250   -1.614970
  C     13.622860   -9.653750   -0.567060
  C     14.827820   -8.778430   -0.500630
  O     15.841950   -8.886790   -1.145190
  C     14.479640   -7.726730    0.482280
  C     13.235040   -8.024370    1.066420
  C     12.670570   -7.158520    1.988660
  C     13.378710   -6.011910    2.317600
  C     14.623240   -5.732090    1.749050
  C     15.187630   -6.589360    0.817510
  F     15.276350   -4.620750    2.104630
  F     12.857950   -5.157690    3.201160
  C     12.761820   -9.302890    0.539960
  C     11.829590  -10.104420    1.146150
  C     11.521320  -11.411380    0.723530
  N     11.217120  -12.472850    0.406660
  C     11.066410   -9.725240    2.270110
  N     10.391630   -9.475330    3.163770
  H     -5.910380  -13.972790    2.976500
  H     -7.497060  -10.014310    5.562330
  H     -3.788920   -8.048590    2.299260
  H      1.906880   -8.898090   -0.815550
  H      0.679890  -12.601810   -1.111450
  H      2.502160  -14.133160   -2.090790
  H      4.539410  -15.037880   -3.069980
  H      7.002880  -15.445290   -3.702530
  H      9.184450  -14.437830   -3.712780
  H     14.382730  -10.712930   -2.184600
  H     11.706610   -7.326330    2.440770
  H     16.145700   -6.369000    0.374250

 Total Charge           Charge          ....    0
 Multiplicity           Mult            ....    1
 Number of Electrons    NEL             ....  576
 Basis Dimension        Dim             .... 1224

ORBITAL ENERGIES
----------------

  NO   OCC          E(Eh)            E(eV)
   0   2.0000     -89.059384     -2423.4290
   1   2.0000     -89.046453     -2423.0772
   2   2.0000     -88.989999     -2421.5410
   3   2.0000     -88.986340     -2421.4414
   4   2.0000     -24.805889      -675.0026
   5   2.0000     -24.805728      -674.9982
   6   2.0000     -24.800092      -674.8448
   7   2.0000     -24.798616      -674.8046
   8   2.0000     -19.225419      -523.1503
   9   2.0000     -19.220345      -523.0122
  10   2.0000     -14.478964      -393.9926
  11   2.0000     -14.474945      -393.8833
  12   2.0000     -14.471949      -393.8018
  13   2.0000     -14.471038      -393.7770
  14   2.0000     -14.465117      -393.6159
  15   2.0000     -14.463671      -393.5765
  16   2.0000     -14.462371      -393.5411
  17   2.0000     -14.455203      -393.3461
  18   2.0000     -14.440875      -392.9562
  19   2.0000     -14.440145      -392.9363
  20   2.0000     -14.437176      -392.8555
  21   2.0000     -14.434547      -392.7840
  22   2.0000     -14.428450      -392.6181
  23   2.0000     -14.426095      -392.5540
  24   2.0000     -14.426018      -392.5519
  25   2.0000     -14.419227      -392.3671
  26   2.0000     -10.394902      -282.8597
  27   2.0000     -10.393980      -282.8346
  28   2.0000     -10.392003      -282.7808
  29   2.0000     -10.390946      -282.7520
  30   2.0000     -10.390297      -282.7343
  31   2.0000     -10.386812      -282.6395
  32   2.0000     -10.385388      -282.6008
  33   2.0000     -10.384977      -282.5896
  34   2.0000     -10.375969      -282.3445
  35   2.0000     -10.371461      -282.2218
  36   2.0000     -10.366271      -282.0806
  37   2.0000     -10.365624      -282.0630
  38   2.0000     -10.365082      -282.0482
  39   2.0000     -10.361288      -281.9450
  40   2.0000     -10.360911      -281.9347
  41   2.0000     -10.357389      -281.8389
  42   2.0000     -10.356710      -281.8204
  43   2.0000     -10.353506      -281.7332
  44   2.0000     -10.353205      -281.7250
  45   2.0000     -10.351309      -281.6734
  46   2.0000     -10.350572      -281.6534
  47   2.0000     -10.349312      -281.6191
  48   2.0000     -10.349079      -281.6128
  49   2.0000     -10.347235      -281.5626
  50   2.0000     -10.345892      -281.5260
  51   2.0000     -10.344201      -281.4800
  52   2.0000     -10.341565      -281.4083
  53   2.0000     -10.338474      -281.3242
  54   2.0000     -10.335472      -281.2425
  55   2.0000     -10.333854      -281.1985
  56   2.0000     -10.331121      -281.1241
  57   2.0000     -10.329543      -281.0812
  58   2.0000     -10.328758      -281.0598
  59   2.0000     -10.328210      -281.0449
  60   2.0000     -10.327872      -281.0357
  61   2.0000     -10.325243      -280.9642
  62   2.0000     -10.324389      -280.9409
  63   2.0000     -10.323800      -280.9249
  64   2.0000     -10.323418      -280.9145
  65   2.0000     -10.322656      -280.8937
  66   2.0000     -10.322300      -280.8841
  67   2.0000     -10.321828      -280.8712
  68   2.0000     -10.321141      -280.8525
  69   2.0000     -10.320699      -280.8405
  70   2.0000     -10.320409      -280.8326
  71   2.0000     -10.316540      -280.7273
  72   2.0000     -10.316461      -280.7252
  73   2.0000     -10.314117      -280.6614
  74   2.0000     -10.313967      -280.6573
  75   2.0000     -10.313708      -280.6503
  76   2.0000     -10.308262      -280.5021
  77   2.0000     -10.307982      -280.4945
  78   2.0000     -10.307265      -280.4749
  79   2.0000     -10.307069      -280.4696
  80   2.0000     -10.302681      -280.3502
  81   2.0000     -10.301489      -280.3178
  82   2.0000      -8.150327      -221.7817
  83   2.0000      -8.138064      -221.4480
  84   2.0000      -8.082972      -219.9489
  85   2.0000      -8.082522      -219.9366
  86   2.0000      -6.121422      -166.5724
  87   2.0000      -6.113701      -166.3622
  88   2.0000      -6.113077      -166.3453
  89   2.0000      -6.109238      -166.2408
  90   2.0000      -6.101466      -166.0293
  91   2.0000      -6.100547      -166.0043
  92   2.0000      -6.052791      -164.7048
  93   2.0000      -6.052011      -164.6836
  94   2.0000      -6.048100      -164.5772
  95   2.0000      -6.047697      -164.5662
  96   2.0000      -6.044593      -164.4817
  97   2.0000      -6.043981      -164.4651
  98   2.0000      -1.329870       -36.1876
  99   2.0000      -1.323829       -36.0232
 100   2.0000      -1.314599       -35.7721
 101   2.0000      -1.308477       -35.6055
 102   2.0000      -1.157135       -31.4872
 103   2.0000      -1.147289       -31.2193
 104   2.0000      -1.141422       -31.0597
 105   2.0000      -1.136345       -30.9215
 106   2.0000      -1.133817       -30.8527
 107   2.0000      -1.133479       -30.8435
 108   2.0000      -1.061292       -28.8792
 109   2.0000      -1.059215       -28.8227
 110   2.0000      -1.035637       -28.1811
 111   2.0000      -1.031813       -28.0771
 112   2.0000      -1.026765       -27.9397
 113   2.0000      -1.023764       -27.8580
 114   2.0000      -1.021520       -27.7970
 115   2.0000      -1.016678       -27.6652
 116   2.0000      -1.014599       -27.6086
 117   2.0000      -1.011617       -27.5275
 118   2.0000      -1.010444       -27.4956
 119   2.0000      -1.009058       -27.4579
 120   2.0000      -1.007030       -27.4027
 121   2.0000      -1.005278       -27.3550
 122   2.0000      -1.002882       -27.2898
 123   2.0000      -1.000335       -27.2205
 124   2.0000      -0.991535       -26.9810
 125   2.0000      -0.987605       -26.8741
 126   2.0000      -0.962903       -26.2019
 127   2.0000      -0.957855       -26.0645
 128   2.0000      -0.937563       -25.5124
 129   2.0000      -0.927478       -25.2380
 130   2.0000      -0.920864       -25.0580
 131   2.0000      -0.919210       -25.0130
 132   2.0000      -0.911872       -24.8133
 133   2.0000      -0.907280       -24.6883
 134   2.0000      -0.901852       -24.5406
 135   2.0000      -0.888033       -24.1646
 136   2.0000      -0.883177       -24.0325
 137   2.0000      -0.880583       -23.9619
 138   2.0000      -0.874458       -23.7952
 139   2.0000      -0.869190       -23.6519
 140   2.0000      -0.863172       -23.4881
 141   2.0000      -0.851922       -23.1820
 142   2.0000      -0.846845       -23.0438
 143   2.0000      -0.840163       -22.8620
 144   2.0000      -0.826892       -22.5009
 145   2.0000      -0.814768       -22.1710
 146   2.0000      -0.812647       -22.1132
 147   2.0000      -0.801540       -21.8110
 148   2.0000      -0.786188       -21.3933
 149   2.0000      -0.778742       -21.1906
 150   2.0000      -0.775318       -21.0975
 151   2.0000      -0.765721       -20.8363
 152   2.0000      -0.755275       -20.5521
 153   2.0000      -0.748264       -20.3613
 154   2.0000      -0.739691       -20.1280
 155   2.0000      -0.733153       -19.9501
 156   2.0000      -0.724061       -19.7027
 157   2.0000      -0.722073       -19.6486
 158   2.0000      -0.715576       -19.4718
 159   2.0000      -0.713044       -19.4029
 160   2.0000      -0.708273       -19.2731
 161   2.0000      -0.704592       -19.1729
 162   2.0000      -0.702370       -19.1125
 163   2.0000      -0.694069       -18.8866
 164   2.0000      -0.691238       -18.8095
 165   2.0000      -0.688762       -18.7422
 166   2.0000      -0.683106       -18.5883
 167   2.0000      -0.670180       -18.2365
 168   2.0000      -0.667732       -18.1699
 169   2.0000      -0.665093       -18.0981
 170   2.0000      -0.658824       -17.9275
 171   2.0000      -0.658279       -17.9127
 172   2.0000      -0.650847       -17.7104
 173   2.0000      -0.648232       -17.6393
 174   2.0000      -0.643269       -17.5042
 175   2.0000      -0.643226       -17.5031
 176   2.0000      -0.639335       -17.3972
 177   2.0000      -0.632938       -17.2231
 178   2.0000      -0.631589       -17.1864
 179   2.0000      -0.626922       -17.0594
 180   2.0000      -0.617433       -16.8012
 181   2.0000      -0.614598       -16.7240
 182   2.0000      -0.612931       -16.6787
 183   2.0000      -0.604713       -16.4551
 184   2.0000      -0.599336       -16.3088
 185   2.0000      -0.598898       -16.2969
 186   2.0000      -0.594590       -16.1796
 187   2.0000      -0.594356       -16.1733
 188   2.0000      -0.593558       -16.1515
 189   2.0000      -0.593243       -16.1430
 190   2.0000      -0.588071       -16.0022
 191   2.0000      -0.583472       -15.8771
 192   2.0000      -0.574833       -15.6420
 193   2.0000      -0.571184       -15.5427
 194   2.0000      -0.565800       -15.3962
 195   2.0000      -0.563479       -15.3330
 196   2.0000      -0.562550       -15.3078
 197   2.0000      -0.557762       -15.1775
 198   2.0000      -0.554489       -15.0884
 199   2.0000      -0.551949       -15.0193
 200   2.0000      -0.550904       -14.9909
 201   2.0000      -0.548350       -14.9214
 202   2.0000      -0.548071       -14.9138
 203   2.0000      -0.542527       -14.7629
 204   2.0000      -0.539671       -14.6852
 205   2.0000      -0.538339       -14.6490
 206   2.0000      -0.535920       -14.5831
 207   2.0000      -0.534743       -14.5511
 208   2.0000      -0.532876       -14.5003
 209   2.0000      -0.530429       -14.4337
 210   2.0000      -0.526540       -14.3279
 211   2.0000      -0.525846       -14.3090
 212   2.0000      -0.516890       -14.0653
 213   2.0000      -0.515524       -14.0281
 214   2.0000      -0.513044       -13.9606
 215   2.0000      -0.510373       -13.8879
 216   2.0000      -0.507122       -13.7995
 217   2.0000      -0.505501       -13.7554
 218   2.0000      -0.504724       -13.7342
 219   2.0000      -0.501362       -13.6427
 220   2.0000      -0.500468       -13.6184
 221   2.0000      -0.497347       -13.5335
 222   2.0000      -0.494354       -13.4521
 223   2.0000      -0.493732       -13.4351
 224   2.0000      -0.492835       -13.4107
 225   2.0000      -0.489188       -13.3115
 226   2.0000      -0.488237       -13.2856
 227   2.0000      -0.486486       -13.2379
 228   2.0000      -0.483914       -13.1680
 229   2.0000      -0.481953       -13.1146
 230   2.0000      -0.478773       -13.0281
 231   2.0000      -0.476551       -12.9676
 232   2.0000      -0.469527       -12.7765
 233   2.0000      -0.467804       -12.7296
 234   2.0000      -0.465364       -12.6632
 235   2.0000      -0.463530       -12.6133
 236   2.0000      -0.462628       -12.5888
 237   2.0000      -0.461181       -12.5494
 238   2.0000      -0.460521       -12.5314
 239   2.0000      -0.459504       -12.5037
 240   2.0000      -0.459251       -12.4969
 241   2.0000      -0.458417       -12.4742
 242   2.0000      -0.457738       -12.4557
 243   2.0000      -0.456563       -12.4237
 244   2.0000      -0.454392       -12.3646
 245   2.0000      -0.453491       -12.3401
 246   2.0000      -0.450176       -12.2499
 247   2.0000      -0.447386       -12.1740
 248   2.0000      -0.445007       -12.1093
 249   2.0000      -0.444146       -12.0858
 250   2.0000      -0.442995       -12.0545
 251   2.0000      -0.440662       -11.9910
 252   2.0000      -0.439763       -11.9666
 253   2.0000      -0.436010       -11.8644
 254   2.0000      -0.434854       -11.8330
 255   2.0000      -0.434053       -11.8112
 256   2.0000      -0.431315       -11.7367
 257   2.0000      -0.429590       -11.6897
 258   2.0000      -0.426405       -11.6031
 259   2.0000      -0.425407       -11.5759
 260   2.0000      -0.424440       -11.5496
 261   2.0000      -0.420599       -11.4451
 262   2.0000      -0.419220       -11.4075
 263   2.0000      -0.418139       -11.3781
 264   2.0000      -0.416729       -11.3398
 265   2.0000      -0.413704       -11.2575
 266   2.0000      -0.404940       -11.0190
 267   2.0000      -0.393081       -10.6963
 268   2.0000      -0.390633       -10.6297
 269   2.0000      -0.388302       -10.5662
 270   2.0000      -0.376431       -10.2432
 271   2.0000      -0.374155       -10.1813
 272   2.0000      -0.369331       -10.0500
 273   2.0000      -0.365138        -9.9359
 274   2.0000      -0.363045        -9.8789
 275   2.0000      -0.360055        -9.7976
 276   2.0000      -0.357909        -9.7392
 277   2.0000      -0.356922        -9.7124
 278   2.0000      -0.354273        -9.6403
 279   2.0000      -0.351043        -9.5524
 280   2.0000      -0.346779        -9.4363
 281   2.0000      -0.344567        -9.3762
 282   2.0000      -0.338506        -9.2112
 283   2.0000      -0.320769        -8.7286
 284   2.0000      -0.315908        -8.5963
 285   2.0000      -0.311866        -8.4863
 286   2.0000      -0.286828        -7.8050
 287   2.0000      -0.242358        -6.5949
 288   0.0000      -0.168992        -4.5985
 289   0.0000      -0.124794        -3.3958
 290   0.0000      -0.087147        -2.3714
 291   0.0000      -0.085664        -2.3310
 292   0.0000      -0.081360        -2.2139

MULLIKEN ATOMIC CHARGES
-----------------------
   0 C :   -0.092121
   1 C :    0.235710
   2 F :   -0.164302
   3 C :    0.231000
   4 F :   -0.167404
   5 C :   -0.096989
   6 C :    0.007847
   7 C :    0.028590
   8 C :    0.330357
   9 C :   -0.343374
  10 C :   -0.200964
  11 N :    0.159264
  12 C :   -0.197059
  13 N :    0.155723
  14 C :   -0.102266
  15 C :    0.130642
  16 O :   -0.125552
  17 C :   -0.053067
  18 C :    0.114513
  19 C :   -0.035696
  20 C :   -0.054405
  21 N :    0.057965
  22 C :   -0.132830
  23 C :   -0.123896
  24 N :    0.060886
  25 C :   -0.203507
  26 N :    0.249048
  27 C :   -0.211457
  28 N :    0.246449
  29 C :    0.106340
  30 C :    0.050674
  31 C :   -0.045399
  32 N :   -0.287067
  33 S :    0.553167
  34 N :   -0.293580
  35 C :   -0.035965
  36 C :   -0.062209
  37 C :    0.100896
  38 C :    0.007427
  39 C :   -0.043921
  40 S :    0.188952
  41 C :   -0.011342
  42 C :    0.041631
  43 C :    0.027747
  44 C :    0.033997
  45 S :    0.148384
  46 C :   -0.111346
  47 C :    0.114557
  48 C :    0.043636
  49 C :   -0.109585
  50 N :    0.027374
  51 C :   -0.109339
  52 C :   -0.054016
  53 N :   -0.031037
  54 C :   -0.249044
  55 N :    0.228114
  56 C :   -0.230323
  57 N :    0.253439
  58 C :    0.088526
  59 C :    0.009747
  60 C :   -0.000332
  61 N :   -0.278161
  62 S :    0.536267
  63 N :   -0.264011
  64 C :   -0.034902
  65 C :   -0.106228
  66 C :    0.126706
  67 O :   -0.132024
  68 C :    0.021062
  69 C :    0.019756
  70 C :   -0.079606
  71 C :    0.233519
  72 C :    0.233779
  73 C :   -0.106562
  74 F :   -0.167269
  75 F :   -0.161525
  76 C :    0.329553
  77 C :   -0.371808
  78 C :   -0.176599
  79 N :    0.154215
  80 C :   -0.203600
  81 N :    0.171276
  82 H :    0.014405
  83 H :    0.014973
  84 H :    0.039039
  85 H :    0.037473
  86 H :    0.010977
  87 H :    0.001951
  88 H :   -0.000353
  89 H :    0.006476
  90 H :    0.012295
  91 H :    0.032021
  92 H :    0.022164
  93 H :    0.011536
Sum of atomic charges:   -0.0000000

LOEWDIN ATOMIC CHARGES
----------------------
   0 C :   -0.022558
   1 C :    0.074619
   2 F :   -0.042630
   3 C :    0.069498
   4 F :   -0.043980
   5 C :   -0.003116
   6 C :   -0.046656
   7 C :   -0.009155
   8 C :    0.076546
   9 C :   -0.140187
  10 C :   -0.024106
  11 N :   -0.052812
  12 C :   -0.014477
  13 N :   -0.064571
  14 C :   -0.078219
  15 C :    0.084736
  16 O :   -0.126448
  17 C :    0.070582
  18 C :   -0.053369
  19 C :    0.021957
  20 C :    0.000093
  21 N :    0.004707
  22 C :   -0.028340
  23 C :   -0.010956
  24 N :   -0.002353
  25 C :   -0.034564
  26 N :    0.008179
  27 C :   -0.038388
  28 N :    0.001325
  29 C :   -0.000008
  30 C :   -0.037525
  31 C :   -0.034284
  32 N :   -0.278928
  33 S :    0.678237
  34 N :   -0.265589
  35 C :   -0.011429
  36 C :   -0.118966
  37 C :    0.000589
  38 C :   -0.020876
  39 C :   -0.153342
  40 S :    0.474681
  41 C :   -0.182633
  42 C :   -0.017862
  43 C :   -0.018955
  44 C :   -0.121139
  45 S :    0.491787
  46 C :   -0.018591
  47 C :   -0.006740
  48 C :    0.008012
  49 C :    0.011435
  50 N :   -0.007312
  51 C :   -0.012464
  52 C :   -0.044729
  53 N :   -0.028140
  54 C :   -0.045551
  55 N :   -0.024997
  56 C :   -0.033533
  57 N :   -0.000213
  58 C :   -0.064462
  59 C :   -0.029019
  60 C :   -0.043082
  61 N :   -0.277698
  62 S :    0.667566
  63 N :   -0.283552
  64 C :    0.071713
  65 C :   -0.078188
  66 C :    0.084693
  67 O :   -0.132466
  68 C :   -0.045685
  69 C :   -0.010705
  70 C :   -0.013786
  71 C :    0.076391
  72 C :    0.070657
  73 C :   -0.005718
  74 F :   -0.044179
  75 F :   -0.039133
  76 C :    0.080423
  77 C :   -0.150563
  78 C :   -0.011971
  79 N :   -0.062451
  80 C :   -0.027753
  81 N :   -0.046722
  82 H :    0.050227
  83 H :    0.053380
  84 H :    0.051175
  85 H :    0.047223
  86 H :    0.037628
  87 H :    0.038390
  88 H :    0.036169
  89 H :    0.040399
  90 H :    0.048245
  91 H :    0.051766
  92 H :    0.052818
  93 H :    0.051977

  Mayer bond orders larger than 0.100000
B(  0-C ,  1-C ) :   1.3350 B(  0-C ,  5-C ) :   0.1037 B(  0-C ,  7-C ) :   1.3167
B(  0-C , 82-H ) :   0.9942 B(  1-C ,  2-F ) :   1.1438 B(  1-C ,  3-C ) :   1.2904
B(  3-C ,  4-F ) :   1.1322 B(  3-C ,  5-C ) :   1.3202 B(  5-C ,  6-C ) :   1.3254
B(  5-C , 83-H ) :   1.0189 B(  6-C ,  7-C ) :   1.3384 B(  6-C , 15-C ) :   0.9267
B(  7-C ,  8-C ) :   1.0223 B(  8-C ,  9-C ) :   1.6235 B(  8-C , 14-C ) :   1.0610
B(  9-C , 10-C ) :   1.1407 B(  9-C , 12-C ) :   1.1791 B( 10-C , 11-N ) :   2.9927
B( 12-C , 13-N ) :   2.9848 B( 14-C , 15-C ) :   0.9412 B( 14-C , 17-C ) :   1.5818
B( 15-C , 16-O ) :   2.2793 B( 17-C , 18-C ) :   1.1711 B( 17-C , 84-H ) :   0.9350
B( 18-C , 19-C ) :   1.2290 B( 18-C , 29-C ) :   0.1114 B( 18-C , 31-C ) :   1.1762
B( 19-C , 20-C ) :   1.1422 B( 19-C , 24-N ) :   1.4724 B( 20-C , 21-N ) :   1.5034
B( 20-C , 29-C ) :   1.1683 B( 21-N , 22-C ) :   1.6995 B( 22-C , 23-C ) :   1.2307
B( 22-C , 27-C ) :   1.1570 B( 23-C , 24-N ) :   1.7270 B( 23-C , 25-C ) :   1.1510
B( 25-C , 26-N ) :   3.0488 B( 27-C , 28-N ) :   3.0470 B( 29-C , 30-C ) :   1.1426
B( 29-C , 35-C ) :   1.3734 B( 30-C , 31-C ) :   1.1064 B( 30-C , 34-N ) :   1.5186
B( 31-C , 32-N ) :   1.5290 B( 32-N , 33-S ) :   1.2549 B( 32-N , 34-N ) :   0.1354
B( 33-S , 34-N ) :   1.2769 B( 35-C , 36-C ) :   1.3762 B( 35-C , 85-H ) :   0.9256
B( 36-C , 37-C ) :   1.2159 B( 36-C , 40-S ) :   1.0960 B( 37-C , 38-C ) :   1.5420
B( 37-C , 86-H ) :   0.9793 B( 38-C , 39-C ) :   1.2279 B( 38-C , 87-H ) :   0.9960
B( 39-C , 40-S ) :   1.1061 B( 39-C , 41-C ) :   1.3772 B( 41-C , 42-C ) :   1.2409
B( 41-C , 45-S ) :   1.0316 B( 42-C , 43-C ) :   1.5125 B( 42-C , 88-H ) :   0.9952
B( 43-C , 44-C ) :   1.2039 B( 43-C , 89-H ) :   1.0030 B( 44-C , 45-S ) :   1.1000
B( 44-C , 46-C ) :   1.3660 B( 45-S , 53-N ) :   0.1030 B( 46-C , 47-C ) :   1.3699
B( 46-C , 90-H ) :   0.9537 B( 47-C , 48-C ) :   1.1351 B( 47-C , 58-C ) :   0.1011
B( 47-C , 60-C ) :   1.1368 B( 48-C , 49-C ) :   1.1141 B( 48-C , 53-N ) :   1.4737
B( 49-C , 50-N ) :   1.4628 B( 49-C , 58-C ) :   1.2388 B( 50-N , 51-C ) :   1.6519
B( 51-C , 52-C ) :   1.2749 B( 51-C , 56-C ) :   1.1838 B( 52-C , 53-N ) :   1.5511
B( 52-C , 54-C ) :   1.1757 B( 54-C , 55-N ) :   2.9749 B( 56-C , 57-N ) :   3.0202
B( 58-C , 59-C ) :   1.1731 B( 58-C , 64-C ) :   1.1587 B( 59-C , 60-C ) :   1.1181
B( 59-C , 63-N ) :   1.5803 B( 60-C , 61-N ) :   1.5666 B( 61-N , 62-S ) :   1.2684
B( 61-N , 63-N ) :   0.1400 B( 62-S , 63-N ) :   1.2559 B( 64-C , 65-C ) :   1.6083
B( 64-C , 91-H ) :   0.9435 B( 65-C , 66-C ) :   0.9475 B( 65-C , 76-C ) :   1.0483
B( 66-C , 67-O ) :   2.2780 B( 66-C , 68-C ) :   0.9245 B( 68-C , 69-C ) :   1.3410
B( 68-C , 73-C ) :   1.3195 B( 69-C , 70-C ) :   1.3182 B( 69-C , 76-C ) :   1.0280
B( 70-C , 71-C ) :   1.3374 B( 70-C , 73-C ) :   0.1030 B( 70-C , 92-H ) :   0.9928
B( 71-C , 72-C ) :   1.2890 B( 71-C , 75-F ) :   1.1453 B( 72-C , 73-C ) :   1.3205
B( 72-C , 74-F ) :   1.1326 B( 73-C , 93-H ) :   1.0198 B( 76-C , 77-C ) :   1.6179
B( 77-C , 78-C ) :   1.1805 B( 77-C , 80-C ) :   1.1336 B( 78-C , 79-N ) :   2.9791
B( 80-C , 81-N ) :   3.0002

-----------------------------------------------------------------------------
         ABSORPTION SPECTRUM VIA TRANSITION ELECTRIC DIPOLE MOMENTS
-----------------------------------------------------------------------------
State   Energy  Wavelength   fosc         T2         TX        TY        TZ
        (cm-1)    (nm)                  (au**2)     (au)      (au)      (au)
-----------------------------------------------------------------------------
   0    3249.5   3077.4   0.319838804  32.40360   5.59000  -0.30210  -1.03160
   1   11786.9    848.4   0.047583184   1.32901   0.29586   0.68059   0.88220
   2   12754.6    784.0   0.160295994   4.13744   0.68983  -1.14289  -1.53473
   3   17649.4    566.6   0.045840743   0.85506  -0.71065   0.39637   0.43923
   4   18149.8    551.0   0.032034297   0.58106   0.08472   0.51218   0.55816
   5   19075.8    524.2   0.091155735   1.57318  -0.86951   0.43760   0.79097
   6   19367.6    516.3   0.151335001   2.57241   1.35618   0.33284   0.78892
   7   20027.1    499.3   0.109365521   1.79779  -0.36640   1.18825   0.50159
   8   20635.5    484.6   0.201268688   3.21097   1.21656   1.26154  -0.37345
   9   21941.7    455.8   0.053866076   0.80820   0.70412  -0.43148  -0.35531
  10   22499.5    444.5   0.013478754   0.19722  -0.25355  -0.24006   0.27441
  11   23556.2    424.5   0.044443726   0.62113  -0.71778   0.11926   0.30283
  12   23891.9    418.6   0.005388637   0.07425  -0.26788   0.04483   0.02194
  13   23954.7    417.5   0.008019367   0.11021   0.31001   0.11768  -0.01608
  14   24516.8    407.9   0.004207368   0.05650  -0.13830   0.05036  -0.18664
  15   24906.5    401.5   0.048851119   0.64571   0.34174   0.30541   0.66004
  16   25510.9    392.0   0.080544819   1.03941  -0.33096   0.89876   0.34944
  17   25865.9    386.6   0.022898387   0.29144  -0.31536  -0.06034   0.43399
  18   26379.8    379.1   0.018980907   0.23688  -0.18212  -0.43794  -0.10916
  19   26577.6    376.3   0.068511806   0.84864   0.27345  -0.87954  -0.01675
  20   26833.1    372.7   0.054499534   0.66865  -0.65996   0.45567   0.15959
  21   26951.2    371.0   0.242797464   2.96579   1.03784   1.13612  -0.77326
  22   27174.5    368.0   0.027073766   0.32799   0.17473  -0.43857   0.32422
  23   27510.3    363.5   0.027675082   0.33118  -0.26860  -0.45989  -0.21804
  24   27691.0    361.1   0.134614013   1.60039   0.42088   1.17255   0.21994
  25   28223.6    354.3   0.061560987   0.71807   0.38733  -0.68942  -0.30454
  26   28424.7    351.8   0.006186751   0.07165   0.11173   0.06499  -0.23441
  27   28777.4    347.5   0.277153651   3.17062  -0.81190   1.53831   0.38086
  28   29025.5    344.5   0.094791628   1.07514  -0.23008   0.43795   0.91126
  29   29412.0    340.0   0.026221931   0.29351  -0.31482   0.35433   0.26239
  30   29881.6    334.7   0.085511616   0.94210   0.68644   0.43166   0.53346
  31   30048.8    332.8   0.086896394   0.95203   0.73662  -0.63766   0.05307
  32   30299.3    330.0   0.235893580   2.56306   0.40298   1.47677  -0.46884
  33   30505.0    327.8   0.025943937   0.27999   0.43239   0.17243  -0.25158
  34   30604.5    326.7   0.036361225   0.39114   0.11601   0.59830  -0.14040
  35   30740.0    325.3   0.007813853   0.08368  -0.00911   0.28787  -0.02702
  36   31240.5    320.1   0.155065490   1.63408  -0.28578   1.21831   0.26102
  37   31470.0    317.8   0.045184318   0.47268  -0.24415   0.27497   0.58091
  38   31957.1    312.9   0.035950979   0.37036  -0.09452   0.32203  -0.50766
  39   32651.9    306.3   0.033219247   0.33493   0.28255  -0.17196  -0.47490
  40   32708.5    305.7   0.044027095   0.44313   0.39048   0.53309   0.08049
  41   32989.9    303.1   0.052791795   0.52682  -0.49934  -0.39350   0.35019
  42   33112.6    302.0   0.106899519   1.06281  -0.04497   0.56731   0.85963
  43   33319.6    300.1   0.111113653   1.09785  -0.61024   0.02802   0.85128
  44   34059.1    293.6   0.024541597   0.23722   0.38674   0.27202  -0.11686
  45   34354.4    291.1   0.074434596   0.71329   0.70108  -0.24549  -0.40189
  46   34447.8    290.3   0.055772335   0.53301   0.64269   0.34529   0.02697
  47   34818.6    287.2   0.042776430   0.40445   0.43630   0.31551  -0.33846
  48   35239.1    283.8   0.013629476   0.12733   0.06385  -0.20796   0.28285
  49   35324.5    283.1   0.094907101   0.88450  -0.10477   0.74599   0.56305
  50   35544.8    281.3   0.298564353   2.76527   1.25396   0.76398  -0.78051
  51   35612.4    280.8   0.248435724   2.29661  -0.84521  -0.42343   1.18446
  52   35707.4    280.1   0.260838904   2.40486  -1.10468  -1.08797   0.02947
  53   35935.3    278.3   0.100214434   0.91809  -0.61473  -0.63958  -0.36212
  54   36159.1    276.6   0.060106857   0.54725  -0.08515   0.65967   0.32377
  55   36342.2    275.2   0.097828229   0.88619  -0.42014  -0.17119   0.82484
  56   36455.4    274.3   0.031524681   0.28469   0.10105   0.51337  -0.10451
  57   36539.7    273.7   0.037074013   0.33403  -0.35470   0.19761   0.41130
  58   36608.2    273.2   0.218518623   1.96510   0.68617  -0.96127  -0.75513
  59   36737.1    272.2   0.150576111   1.34936   0.59393  -0.98137  -0.18308
  60   36904.6    271.0   0.043092626   0.38441   0.45485  -0.00077  -0.42133
  61   37103.8    269.5   0.015508531   0.13760  -0.18506   0.25393  -0.19717
  62   37568.0    266.2   0.050220886   0.44009   0.55873   0.32197  -0.15571
  63   37650.5    265.6   0.169061606   1.47826   0.01344  -1.21248   0.08919
  64   37755.2    264.9   0.018848636   0.16435  -0.37498   0.02970   0.15121
  65   38113.7    262.4   0.023261906   0.20093  -0.10176   0.41645  -0.13092
  66   38179.0    261.9   0.010267027   0.08853   0.19380  -0.20507  -0.09443
  67   38392.6    260.5   0.020022560   0.17169  -0.27111  -0.30915   0.05113
  68   38536.2    259.5   0.042986054   0.36723   0.37500  -0.46570   0.09858
  69   38571.6    259.3   0.055448749   0.47326  -0.07316   0.64597  -0.22501
  70   38722.1    258.3   0.014956531   0.12716   0.28916  -0.04387  -0.20402
  71   38929.9    256.9   0.004176859   0.03532   0.05096  -0.04511   0.17518
  72   39093.0    255.8   0.040989966   0.34519   0.07267  -0.55976   0.16301
  73   39193.5    255.1   0.020159747   0.16933  -0.18826   0.33405  -0.14935
  74   39237.8    254.9   0.024574157   0.20618  -0.11375  -0.27479  -0.34312
  75   39442.2    253.5   0.173116868   1.44495   0.40105  -1.11621  -0.19544
  76   39544.9    252.9   0.023503477   0.19567  -0.02617   0.43046  -0.09840
  77   39673.7    252.1   0.003699922   0.03070   0.07564   0.09052  -0.12957
  78   39859.0    250.9   0.014687850   0.12131   0.12882   0.32185   0.03364
  79   39968.8    250.2   0.008313315   0.06847   0.07844  -0.14319  -0.20450
  80   40216.3    248.7   0.049052752   0.40155  -0.35026  -0.48241   0.21482

FINAL SINGLE POINT ENERGY     -5154.640290550667

DIPOLE MOMENT
-------------
                                X             Y             Z
Electronic contribution:     -2.62471      11.84047      17.44673
Nuclear contribution   :      3.66424     -16.50289     -19.21814
                        -----------------------------------------
Total Dipole Moment    :      1.03953      -4.66242      -1.77141
                        -----------------------------------------
Magnitude (a.u.)       :      5.09477
Magnitude (Debye)      :     12.94987

Rotational constants in cm-1:     0.001269     0.000244     0.000224
Rotational constants in MHz :    38.050670     7.305314     6.727773

                             ****ORCA TERMINATED NORMALLY****
TOTAL RUN TIME: 0 days 0 hours 12 minutes 53 seconds 646 msec
