                         Program Version 4.2.0 -  RELEASE  -
|  1> # ORCA input file
|  2> # SCF done       -171.578103464205          0.000241377679
|  3> ! CAM-B3LYP def2-SVP def2/J RIJCOSX Grid4 TightSCF
|  4> %maxcore 5000
|  5> %tddft
|  6>     Mode sTDDFT
|  7>     Ethresh 5.0
|  8>     maxcore 5000
|  9> end
| 10>
| 11> %pal
| 12>   nprocs 6
| 13>   end
| 14> * xyz 0 1
| 15>    C       -0.45088        -0.25147         3.77549
| 16>    N       -0.38273         0.99618         3.44173
| 17>    C        0.08426         1.02804         2.16850
| 18>    C        0.31750        -0.24921         1.70499
| 19>    N       -0.05043        -1.08621         2.75487
| 20>    C        0.35498        -2.42148         2.93651
| 21>    O        1.44177        -2.82155         2.62731
| 22>    N       -0.59418        -3.20679         3.57085
| 23>    C       -1.94864        -2.98100         3.74680
| 24>    C       -2.44102        -4.10499         4.32334
| 25>    N       -1.43954        -5.02067         4.51420
| 26>    C       -0.36555        -4.47863         4.05503
| 27>    C        0.73192        -0.69252         0.41454
| 28>    C        0.34926        -1.84158        -0.20287
| 29>    C        0.80513        -2.32082        -1.46579
| 30>    C        0.26345        -3.50405        -1.84796
| 31>    C       -0.66843        -4.04283        -0.92506
| 32>    S       -0.86309        -2.95554         0.43329
| 33>    C       -1.33851        -5.24259        -0.97960
| 34>    C       -1.27246        -6.22967        -1.99435
| 35>    C       -2.01280        -7.33942        -1.74015
| 36>    C       -2.71653        -7.30418        -0.50608
| 37>    S       -2.40383        -5.77294         0.30516
| 38>    C       -3.51713        -8.23137         0.10183
| 39>    C       -3.84883        -9.53142        -0.32129
| 40>    N       -4.57039       -10.33405         0.41666
| 41>    C       -4.74038       -11.52558        -0.15813
| 42>    C       -4.14108       -11.69506        -1.38710
| 43>    S       -3.31176       -10.27444        -1.85933
| 44>    C       -4.29592       -13.06806        -1.91383
| 45>    C       -5.44047       -13.61205        -0.99584
| 46>    C       -5.37899       -12.79600         0.32805
| 47>    C       -6.75210       -12.63347         1.00567
| 48>    C       -6.72563       -11.75796         2.25487
| 49>    C       -4.43655       -13.47615         1.35115
| 50>    C       -3.03797       -13.84511         0.87158
| 51>    N       -6.67336       -13.51083        -1.76463
| 52>    C       -6.40912       -14.10986        -3.02804
| 53>    S       -4.85974       -13.27769        -3.64755
| 54>    C       -7.31910       -12.27318        -1.85449
| 55>    C       -8.59041       -12.15914        -2.30495
| 56>    C       -9.52351       -13.18310        -2.65467
| 57>    C      -10.73965       -12.72054        -3.02654
| 58>    C      -10.85733       -11.30402        -3.00995
| 59>    S       -9.35007       -10.57399        -2.48443
| 60>    C      -11.95206       -10.54739        -3.33999
| 61>    C      -13.21922       -10.97012        -3.81813
| 62>    C      -14.07536        -9.95786        -4.09925
| 63>    C      -13.54521        -8.65223        -3.87635
| 64>    S      -11.91119        -8.79635        -3.22441
| 65>    C      -14.18509        -7.47071        -4.07503
| 66>    C      -13.62263        -6.17070        -3.89786
| 67>    C      -14.20235        -5.00854        -3.43944
| 68>    N      -13.27944        -4.01656        -3.34884
| 69>    C      -12.15405        -4.52842        -3.72600
| 70>    N      -12.27634        -5.85857        -4.06959
| 71>    C      -11.35776        -6.56221        -4.86643
| 72>    O      -11.65676        -7.09518        -5.89751
| 73>    N      -10.05856        -6.51764        -4.37886
| 74>    C       -8.94618        -6.95793        -5.07316
| 75>    C       -7.90426        -6.86124        -4.21218
| 76>    N       -8.33551        -6.39336        -2.99866
| 77>    C       -9.60451        -6.20159        -3.11476
| 78>    H       -0.74311        -0.61781         4.73940
| 79>    H        0.20569         1.95536         1.64658
| 80>    H       -2.42640        -2.07995         3.42506
| 81>    H       -3.44681        -4.32688         4.61686
| 82>    H        0.61075        -4.91877         4.04221
| 83>    H        1.37427        -0.01446        -0.12957
| 84>    H        1.53931        -1.77342        -2.02976
| 85>    H        0.51002        -4.01625        -2.76070
| 86>    H       -0.67541        -6.09250        -2.87814
| 87>    H       -2.06870        -8.18174        -2.40453
| 88>    H       -3.94454        -7.97198         1.06123
| 89>    H       -3.36448       -13.63237        -1.83789
| 90>    H       -5.30282       -14.68018        -0.79735
| 91>    H       -7.45847       -12.19215         0.30424
| 92>    H       -7.12504       -13.63089         1.25306
| 93>    H       -6.18946       -10.83522         2.05135
| 94>    H       -6.25402       -12.26330         3.09305
| 95>    H       -7.74467       -11.51143         2.54366
| 96>    H       -4.32696       -12.78223         2.18431
| 97>    H       -4.93320       -14.37623         1.72112
| 98>    H       -2.52911       -12.98381         0.44539
| 99>    H       -3.05744       -14.64560         0.13618
|100>    H       -2.45274       -14.19147         1.72079
|101>    H       -7.19530       -13.93337        -3.75488
|102>    H       -6.19756       -15.17593        -2.93082
|103>    H       -6.77384       -11.37984        -1.58134
|104>    H       -9.26099       -14.22342        -2.58102
|105>    H      -11.56684       -13.34764        -3.30779
|106>    H      -13.45094       -12.01256        -3.94617
|107>    H      -15.07205       -10.08787        -4.48214
|108>    H      -15.23131        -7.49775        -4.34457
|109>    H      -15.22116        -4.84355        -3.15341
|110>    H      -11.22835        -3.99473        -3.80877
|111>    H       -9.02437        -7.27995        -6.09007
|112>    H       -6.87156        -7.09689        -4.37008
|113>    H      -10.25025        -5.86427        -2.32973
|114> *
|115>
|116>                          ****END OF INPUT****

CARTESIAN COORDINATES (ANGSTROEM)
---------------------------------
  C     -0.450880   -0.251470    3.775490
  N     -0.382730    0.996180    3.441730
  C      0.084260    1.028040    2.168500
  C      0.317500   -0.249210    1.704990
  N     -0.050430   -1.086210    2.754870
  C      0.354980   -2.421480    2.936510
  O      1.441770   -2.821550    2.627310
  N     -0.594180   -3.206790    3.570850
  C     -1.948640   -2.981000    3.746800
  C     -2.441020   -4.104990    4.323340
  N     -1.439540   -5.020670    4.514200
  C     -0.365550   -4.478630    4.055030
  C      0.731920   -0.692520    0.414540
  C      0.349260   -1.841580   -0.202870
  C      0.805130   -2.320820   -1.465790
  C      0.263450   -3.504050   -1.847960
  C     -0.668430   -4.042830   -0.925060
  S     -0.863090   -2.955540    0.433290
  C     -1.338510   -5.242590   -0.979600
  C     -1.272460   -6.229670   -1.994350
  C     -2.012800   -7.339420   -1.740150
  C     -2.716530   -7.304180   -0.506080
  S     -2.403830   -5.772940    0.305160
  C     -3.517130   -8.231370    0.101830
  C     -3.848830   -9.531420   -0.321290
  N     -4.570390  -10.334050    0.416660
  C     -4.740380  -11.525580   -0.158130
  C     -4.141080  -11.695060   -1.387100
  S     -3.311760  -10.274440   -1.859330
  C     -4.295920  -13.068060   -1.913830
  C     -5.440470  -13.612050   -0.995840
  C     -5.378990  -12.796000    0.328050
  C     -6.752100  -12.633470    1.005670
  C     -6.725630  -11.757960    2.254870
  C     -4.436550  -13.476150    1.351150
  C     -3.037970  -13.845110    0.871580
  N     -6.673360  -13.510830   -1.764630
  C     -6.409120  -14.109860   -3.028040
  S     -4.859740  -13.277690   -3.647550
  C     -7.319100  -12.273180   -1.854490
  C     -8.590410  -12.159140   -2.304950
  C     -9.523510  -13.183100   -2.654670
  C    -10.739650  -12.720540   -3.026540
  C    -10.857330  -11.304020   -3.009950
  S     -9.350070  -10.573990   -2.484430
  C    -11.952060  -10.547390   -3.339990
  C    -13.219220  -10.970120   -3.818130
  C    -14.075360   -9.957860   -4.099250
  C    -13.545210   -8.652230   -3.876350
  S    -11.911190   -8.796350   -3.224410
  C    -14.185090   -7.470710   -4.075030
  C    -13.622630   -6.170700   -3.897860
  C    -14.202350   -5.008540   -3.439440
  N    -13.279440   -4.016560   -3.348840
  C    -12.154050   -4.528420   -3.726000
  N    -12.276340   -5.858570   -4.069590
  C    -11.357760   -6.562210   -4.866430
  O    -11.656760   -7.095180   -5.897510
  N    -10.058560   -6.517640   -4.378860
  C     -8.946180   -6.957930   -5.073160
  C     -7.904260   -6.861240   -4.212180
  N     -8.335510   -6.393360   -2.998660
  C     -9.604510   -6.201590   -3.114760
  H     -0.743110   -0.617810    4.739400
  H      0.205690    1.955360    1.646580
  H     -2.426400   -2.079950    3.425060
  H     -3.446810   -4.326880    4.616860
  H      0.610750   -4.918770    4.042210
  H      1.374270   -0.014460   -0.129570
  H      1.539310   -1.773420   -2.029760
  H      0.510020   -4.016250   -2.760700
  H     -0.675410   -6.092500   -2.878140
  H     -2.068700   -8.181740   -2.404530
  H     -3.944540   -7.971980    1.061230
  H     -3.364480  -13.632370   -1.837890
  H     -5.302820  -14.680180   -0.797350
  H     -7.458470  -12.192150    0.304240
  H     -7.125040  -13.630890    1.253060
  H     -6.189460  -10.835220    2.051350
  H     -6.254020  -12.263300    3.093050
  H     -7.744670  -11.511430    2.543660
  H     -4.326960  -12.782230    2.184310
  H     -4.933200  -14.376230    1.721120
  H     -2.529110  -12.983810    0.445390
  H     -3.057440  -14.645600    0.136180
  H     -2.452740  -14.191470    1.720790
  H     -7.195300  -13.933370   -3.754880
  H     -6.197560  -15.175930   -2.930820
  H     -6.773840  -11.379840   -1.581340
  H     -9.260990  -14.223420   -2.581020
  H    -11.566840  -13.347640   -3.307790
  H    -13.450940  -12.012560   -3.946170
  H    -15.072050  -10.087870   -4.482140
  H    -15.231310   -7.497750   -4.344570
  H    -15.221160   -4.843550   -3.153410
  H    -11.228350   -3.994730   -3.808770
  H     -9.024370   -7.279950   -6.090070
  H     -6.871560   -7.096890   -4.370080
  H    -10.250250   -5.864270   -2.329730

 Total Charge           Charge          ....    0
 Multiplicity           Mult            ....    1
 Number of Electrons    NEL             ....  488
 Basis Dimension        Dim             .... 1086

ORBITAL ENERGIES
----------------

  NO   OCC          E(Eh)            E(eV)
   0   2.0000     -88.961684     -2420.7705
   1   2.0000     -88.951625     -2420.4968
   2   2.0000     -88.945263     -2420.3237
   3   2.0000     -88.937792     -2420.1204
   4   2.0000     -88.934666     -2420.0353
   5   2.0000     -88.903321     -2419.1824
   6   2.0000     -19.232194      -523.3346
   7   2.0000     -19.223910      -523.1092
   8   2.0000     -14.490638      -394.3103
   9   2.0000     -14.490305      -394.3013
  10   2.0000     -14.482965      -394.1015
  11   2.0000     -14.481149      -394.0521
  12   2.0000     -14.430871      -392.6840
  13   2.0000     -14.402955      -391.9243
  14   2.0000     -14.401499      -391.8847
  15   2.0000     -14.395713      -391.7273
  16   2.0000     -14.392334      -391.6353
  17   2.0000     -14.390018      -391.5723
  18   2.0000     -10.449265      -284.3390
  19   2.0000     -10.440723      -284.1065
  20   2.0000     -10.340131      -281.3693
  21   2.0000     -10.334528      -281.2168
  22   2.0000     -10.330984      -281.1204
  23   2.0000     -10.330214      -281.0994
  24   2.0000     -10.327499      -281.0255
  25   2.0000     -10.323986      -280.9299
  26   2.0000     -10.319707      -280.8135
  27   2.0000     -10.317895      -280.7642
  28   2.0000     -10.315758      -280.7060
  29   2.0000     -10.315494      -280.6989
  30   2.0000     -10.314562      -280.6735
  31   2.0000     -10.314349      -280.6677
  32   2.0000     -10.309357      -280.5319
  33   2.0000     -10.307746      -280.4880
  34   2.0000     -10.306156      -280.4448
  35   2.0000     -10.306022      -280.4411
  36   2.0000     -10.305434      -280.4251
  37   2.0000     -10.303544      -280.3737
  38   2.0000     -10.299831      -280.2726
  39   2.0000     -10.297412      -280.2068
  40   2.0000     -10.296429      -280.1801
  41   2.0000     -10.294388      -280.1245
  42   2.0000     -10.294246      -280.1207
  43   2.0000     -10.294111      -280.1170
  44   2.0000     -10.292659      -280.0775
  45   2.0000     -10.292392      -280.0702
  46   2.0000     -10.291523      -280.0466
  47   2.0000     -10.290471      -280.0180
  48   2.0000     -10.289379      -279.9882
  49   2.0000     -10.288756      -279.9713
  50   2.0000     -10.285844      -279.8920
  51   2.0000     -10.283860      -279.8381
  52   2.0000     -10.283099      -279.8174
  53   2.0000     -10.282769      -279.8084
  54   2.0000     -10.282646      -279.8050
  55   2.0000     -10.281932      -279.7856
  56   2.0000     -10.281920      -279.7853
  57   2.0000     -10.276831      -279.6468
  58   2.0000     -10.276340      -279.6334
  59   2.0000     -10.262452      -279.2555
  60   2.0000     -10.254422      -279.0370
  61   2.0000     -10.252652      -278.9889
  62   2.0000     -10.235431      -278.5202
  63   2.0000      -8.056603      -219.2313
  64   2.0000      -8.047527      -218.9843
  65   2.0000      -8.041723      -218.8264
  66   2.0000      -8.033757      -218.6096
  67   2.0000      -8.030851      -218.5306
  68   2.0000      -7.999791      -217.6854
  69   2.0000      -6.025674      -163.9669
  70   2.0000      -6.021859      -163.8631
  71   2.0000      -6.018910      -163.7829
  72   2.0000      -6.017371      -163.7410
  73   2.0000      -6.013374      -163.6322
  74   2.0000      -6.011580      -163.5834
  75   2.0000      -6.008221      -163.4920
  76   2.0000      -6.007526      -163.4731
  77   2.0000      -6.003622      -163.3669
  78   2.0000      -6.002340      -163.3320
  79   2.0000      -6.000828      -163.2908
  80   2.0000      -5.999666      -163.2592
  81   2.0000      -5.996792      -163.1810
  82   2.0000      -5.994379      -163.1154
  83   2.0000      -5.991291      -163.0313
  84   2.0000      -5.970291      -162.4599
  85   2.0000      -5.966602      -162.3595
  86   2.0000      -5.958774      -162.1465
  87   2.0000      -1.192728       -32.4558
  88   2.0000      -1.184050       -32.2196
  89   2.0000      -1.123223       -30.5645
  90   2.0000      -1.117944       -30.4208
  91   2.0000      -1.113701       -30.3054
  92   2.0000      -1.111073       -30.2338
  93   2.0000      -1.068468       -29.0745
  94   2.0000      -1.055374       -28.7182
  95   2.0000      -1.006110       -27.3776
  96   2.0000      -0.999571       -27.1997
  97   2.0000      -0.995966       -27.1016
  98   2.0000      -0.986364       -26.8403
  99   2.0000      -0.979132       -26.6435
 100   2.0000      -0.973271       -26.4841
 101   2.0000      -0.969518       -26.3819
 102   2.0000      -0.962625       -26.1943
 103   2.0000      -0.942854       -25.6564
 104   2.0000      -0.907460       -24.6932
 105   2.0000      -0.903814       -24.5940
 106   2.0000      -0.892799       -24.2943
 107   2.0000      -0.884664       -24.0729
 108   2.0000      -0.875123       -23.8133
 109   2.0000      -0.856721       -23.3126
 110   2.0000      -0.854203       -23.2440
 111   2.0000      -0.846312       -23.0293
 112   2.0000      -0.845355       -23.0033
 113   2.0000      -0.841024       -22.8854
 114   2.0000      -0.839789       -22.8518
 115   2.0000      -0.835948       -22.7473
 116   2.0000      -0.830187       -22.5905
 117   2.0000      -0.827741       -22.5240
 118   2.0000      -0.823532       -22.4095
 119   2.0000      -0.812356       -22.1053
 120   2.0000      -0.806443       -21.9444
 121   2.0000      -0.788900       -21.4671
 122   2.0000      -0.780799       -21.2466
 123   2.0000      -0.776668       -21.1342
 124   2.0000      -0.775294       -21.0968
 125   2.0000      -0.755281       -20.5522
 126   2.0000      -0.741225       -20.1697
 127   2.0000      -0.733249       -19.9527
 128   2.0000      -0.725294       -19.7363
 129   2.0000      -0.721955       -19.6454
 130   2.0000      -0.705394       -19.1947
 131   2.0000      -0.701204       -19.0807
 132   2.0000      -0.694764       -18.9055
 133   2.0000      -0.692751       -18.8507
 134   2.0000      -0.691601       -18.8194
 135   2.0000      -0.685205       -18.6454
 136   2.0000      -0.680085       -18.5061
 137   2.0000      -0.676920       -18.4199
 138   2.0000      -0.673222       -18.3193
 139   2.0000      -0.670570       -18.2471
 140   2.0000      -0.658921       -17.9301
 141   2.0000      -0.656708       -17.8699
 142   2.0000      -0.651465       -17.7273
 143   2.0000      -0.646819       -17.6008
 144   2.0000      -0.641466       -17.4552
 145   2.0000      -0.633700       -17.2439
 146   2.0000      -0.626126       -17.0378
 147   2.0000      -0.624288       -16.9877
 148   2.0000      -0.617544       -16.8042
 149   2.0000      -0.611661       -16.6441
 150   2.0000      -0.603613       -16.4251
 151   2.0000      -0.598204       -16.2780
 152   2.0000      -0.592400       -16.1200
 153   2.0000      -0.588003       -16.0004
 154   2.0000      -0.584413       -15.9027
 155   2.0000      -0.580378       -15.7929
 156   2.0000      -0.572973       -15.5914
 157   2.0000      -0.570726       -15.5302
 158   2.0000      -0.563992       -15.3470
 159   2.0000      -0.559650       -15.2289
 160   2.0000      -0.557719       -15.1763
 161   2.0000      -0.555725       -15.1220
 162   2.0000      -0.550684       -14.9849
 163   2.0000      -0.548804       -14.9337
 164   2.0000      -0.542286       -14.7564
 165   2.0000      -0.542113       -14.7516
 166   2.0000      -0.538409       -14.6508
 167   2.0000      -0.536373       -14.5955
 168   2.0000      -0.530886       -14.4462
 169   2.0000      -0.527653       -14.3582
 170   2.0000      -0.525040       -14.2871
 171   2.0000      -0.520343       -14.1593
 172   2.0000      -0.520054       -14.1514
 173   2.0000      -0.517112       -14.0713
 174   2.0000      -0.513255       -13.9664
 175   2.0000      -0.512608       -13.9488
 176   2.0000      -0.510256       -13.8848
 177   2.0000      -0.508811       -13.8454
 178   2.0000      -0.504357       -13.7242
 179   2.0000      -0.503426       -13.6989
 180   2.0000      -0.501871       -13.6566
 181   2.0000      -0.498825       -13.5737
 182   2.0000      -0.497029       -13.5248
 183   2.0000      -0.495540       -13.4843
 184   2.0000      -0.494765       -13.4632
 185   2.0000      -0.493492       -13.4286
 186   2.0000      -0.491538       -13.3754
 187   2.0000      -0.489985       -13.3332
 188   2.0000      -0.486412       -13.2360
 189   2.0000      -0.485946       -13.2233
 190   2.0000      -0.482901       -13.1404
 191   2.0000      -0.482641       -13.1333
 192   2.0000      -0.476047       -12.9539
 193   2.0000      -0.475715       -12.9449
 194   2.0000      -0.469195       -12.7675
 195   2.0000      -0.465621       -12.6702
 196   2.0000      -0.459733       -12.5100
 197   2.0000      -0.457933       -12.4610
 198   2.0000      -0.456445       -12.4205
 199   2.0000      -0.452970       -12.3259
 200   2.0000      -0.449042       -12.2190
 201   2.0000      -0.440690       -11.9918
 202   2.0000      -0.434203       -11.8153
 203   2.0000      -0.432014       -11.7557
 204   2.0000      -0.430902       -11.7254
 205   2.0000      -0.429392       -11.6843
 206   2.0000      -0.423296       -11.5185
 207   2.0000      -0.420169       -11.4334
 208   2.0000      -0.413759       -11.2590
 209   2.0000      -0.410590       -11.1727
 210   2.0000      -0.406955       -11.0738
 211   2.0000      -0.404848       -11.0165
 212   2.0000      -0.403316       -10.9748
 213   2.0000      -0.397154       -10.8071
 214   2.0000      -0.394490       -10.7346
 215   2.0000      -0.394141       -10.7251
 216   2.0000      -0.391380       -10.6500
 217   2.0000      -0.379473       -10.3260
 218   2.0000      -0.375871       -10.2280
 219   2.0000      -0.372022       -10.1232
 220   2.0000      -0.368419       -10.0252
 221   2.0000      -0.365923        -9.9573
 222   2.0000      -0.361234        -9.8297
 223   2.0000      -0.359363        -9.7788
 224   2.0000      -0.354421        -9.6443
 225   2.0000      -0.350950        -9.5498
 226   2.0000      -0.349362        -9.5066
 227   2.0000      -0.346952        -9.4411
 228   2.0000      -0.344948        -9.3865
 229   2.0000      -0.341881        -9.3030
 230   2.0000      -0.340427        -9.2635
 231   2.0000      -0.337588        -9.1862
 232   2.0000      -0.332644        -9.0517
 233   2.0000      -0.328310        -8.9338
 234   2.0000      -0.319606        -8.6969
 235   2.0000      -0.316394        -8.6095
 236   2.0000      -0.315187        -8.5767
 237   2.0000      -0.312747        -8.5103
 238   2.0000      -0.307291        -8.3618
 239   2.0000      -0.287462        -7.8222
 240   2.0000      -0.278088        -7.5672
 241   2.0000      -0.276453        -7.5227
 242   2.0000      -0.219702        -5.9784
 243   2.0000      -0.210541        -5.7291
 244   0.0000      -0.080746        -2.1972
 245   0.0000      -0.056271        -1.5312
 246   0.0000      -0.027393        -0.7454
 247   0.0000      -0.015657        -0.4260
 248   0.0000      -0.009601        -0.2613

MULLIKEN ATOMIC CHARGES
-----------------------
   0 C :    0.096978
   1 N :   -0.092866
   2 C :   -0.016885
   3 C :    0.101396
   4 N :   -0.211629
   5 C :    0.197661
   6 O :   -0.128620
   7 N :   -0.169888
   8 C :    0.057850
   9 C :    0.015403
  10 N :   -0.109137
  11 C :    0.112482
  12 C :   -0.017558
  13 C :   -0.004158
  14 C :    0.036883
  15 C :    0.039791
  16 C :   -0.042696
  17 S :    0.050892
  18 C :   -0.049335
  19 C :    0.022951
  20 C :    0.028781
  21 C :   -0.068406
  22 S :    0.102414
  23 C :    0.064940
  24 C :   -0.083980
  25 N :   -0.038675
  26 C :   -0.027482
  27 C :   -0.038941
  28 S :    0.083659
  29 C :   -0.112139
  30 C :    0.100250
  31 C :   -0.237869
  32 C :    0.085217
  33 C :    0.020959
  34 C :    0.057913
  35 C :    0.027661
  36 N :   -0.261226
  37 C :    0.082863
  38 S :   -0.072144
  39 C :    0.090572
  40 C :   -0.076363
  41 C :    0.032776
  42 C :    0.018303
  43 C :   -0.042061
  44 S :    0.093510
  45 C :   -0.055738
  46 C :    0.035461
  47 C :    0.036754
  48 C :   -0.004207
  49 S :    0.037129
  50 C :   -0.026429
  51 C :    0.102456
  52 C :   -0.021141
  53 N :   -0.095091
  54 C :    0.090751
  55 N :   -0.211294
  56 C :    0.200781
  57 O :   -0.128093
  58 N :   -0.172217
  59 C :    0.081980
  60 C :    0.019015
  61 N :   -0.116637
  62 C :    0.088002
  63 H :    0.038485
  64 H :   -0.005560
  65 H :    0.034593
  66 H :    0.007893
  67 H :    0.033924
  68 H :    0.001523
  69 H :   -0.006880
  70 H :   -0.010939
  71 H :   -0.010120
  72 H :    0.001177
  73 H :    0.005934
  74 H :    0.054937
  75 H :   -0.000204
  76 H :    0.011107
  77 H :   -0.006999
  78 H :    0.027215
  79 H :    0.005553
  80 H :    0.004871
  81 H :    0.018622
  82 H :   -0.000329
  83 H :    0.020580
  84 H :    0.008364
  85 H :    0.014830
  86 H :    0.066928
  87 H :    0.046188
  88 H :    0.021768
  89 H :   -0.007329
  90 H :   -0.015821
  91 H :   -0.016503
  92 H :   -0.015280
  93 H :   -0.006326
  94 H :   -0.009826
  95 H :    0.034899
  96 H :    0.024300
  97 H :    0.005315
  98 H :    0.041579
Sum of atomic charges:   -0.0000000

LOEWDIN ATOMIC CHARGES
----------------------
   0 C :    0.034505
   1 N :   -0.089848
   2 C :   -0.019260
   3 C :   -0.020089
   4 N :    0.012014
   5 C :    0.088546
   6 O :   -0.128674
   7 N :    0.027726
   8 C :   -0.027932
   9 C :   -0.023461
  10 N :   -0.092326
  11 C :    0.050253
  12 C :   -0.059433
  13 C :   -0.136819
  14 C :   -0.025322
  15 C :   -0.029379
  16 C :   -0.171082
  17 S :    0.381700
  18 C :   -0.180216
  19 C :   -0.014512
  20 C :   -0.048274
  21 C :   -0.135287
  22 S :    0.379525
  23 C :   -0.079012
  24 C :   -0.111976
  25 N :   -0.092002
  26 C :   -0.045854
  27 C :   -0.225101
  28 S :    0.410492
  29 C :   -0.141739
  30 C :    0.049526
  31 C :   -0.046243
  32 C :   -0.020011
  33 C :   -0.060765
  34 C :   -0.016316
  35 C :   -0.059769
  36 N :   -0.075231
  37 C :   -0.050466
  38 S :    0.166964
  39 C :    0.004383
  40 C :   -0.180778
  41 C :   -0.032693
  42 C :   -0.032294
  43 C :   -0.169250
  44 S :    0.362017
  45 C :   -0.190943
  46 C :   -0.027235
  47 C :   -0.038276
  48 C :   -0.131735
  49 S :    0.369188
  50 C :   -0.077240
  51 C :   -0.016390
  52 C :   -0.027126
  53 N :   -0.091422
  54 C :    0.027766
  55 N :    0.011388
  56 C :    0.089179
  57 O :   -0.128851
  58 N :    0.028504
  59 C :   -0.003282
  60 C :   -0.026354
  61 N :   -0.095249
  62 C :    0.024356
  63 H :    0.023697
  64 H :    0.023474
  65 H :    0.028654
  66 H :    0.024643
  67 H :    0.026669
  68 H :    0.043624
  69 H :    0.035622
  70 H :    0.033570
  71 H :    0.033936
  72 H :    0.020018
  73 H :    0.045183
  74 H :    0.025322
  75 H :    0.022504
  76 H :    0.026965
  77 H :    0.020658
  78 H :    0.024814
  79 H :    0.017319
  80 H :    0.024364
  81 H :    0.030894
  82 H :    0.021421
  83 H :    0.025732
  84 H :    0.017212
  85 H :    0.029210
  86 H :    0.024769
  87 H :    0.015059
  88 H :    0.024299
  89 H :    0.031977
  90 H :    0.031113
  91 H :    0.031361
  92 H :    0.032477
  93 H :    0.040325
  94 H :    0.021605
  95 H :    0.021617
  96 H :    0.032319
  97 H :    0.022653
  98 H :    0.022405

  Mayer bond orders larger than 0.100000
B(  0-C ,  1-N ) :   1.7256 B(  0-C ,  4-N ) :   1.0962 B(  0-C , 63-H ) :   0.9745
B(  1-N ,  2-C ) :   1.3724 B(  2-C ,  3-C ) :   1.4978 B(  2-C , 64-H ) :   1.0034
B(  3-C ,  4-N ) :   1.1002 B(  3-C , 12-C ) :   1.0857 B(  4-N ,  5-C ) :   0.9473
B(  5-C ,  6-O ) :   2.2216 B(  5-C ,  7-N ) :   1.0202 B(  7-N ,  8-C ) :   1.0826
B(  7-N , 11-C ) :   1.1068 B(  8-C ,  9-C ) :   1.6014 B(  8-C , 65-H ) :   0.9846
B(  9-C , 10-N ) :   1.3214 B(  9-C , 66-H ) :   1.0020 B( 10-N , 11-C ) :   1.7574
B( 11-C , 67-H ) :   0.9829 B( 12-C , 13-C ) :   1.6599 B( 12-C , 68-H ) :   0.9619
B( 13-C , 14-C ) :   1.1239 B( 13-C , 17-S ) :   1.0118 B( 14-C , 15-C ) :   1.6243
B( 14-C , 69-H ) :   0.9969 B( 15-C , 16-C ) :   1.1690 B( 15-C , 70-H ) :   0.9909
B( 16-C , 17-S ) :   1.0494 B( 16-C , 18-C ) :   1.5335 B( 18-C , 19-C ) :   1.1766
B( 18-C , 22-S ) :   1.0491 B( 19-C , 20-C ) :   1.6371 B( 19-C , 71-H ) :   0.9916
B( 20-C , 21-C ) :   1.1310 B( 20-C , 72-H ) :   0.9747 B( 21-C , 22-S ) :   1.0420
B( 21-C , 23-C ) :   1.5746 B( 23-C , 24-C ) :   1.1726 B( 23-C , 73-H ) :   0.9514
B( 24-C , 25-N ) :   1.6240 B( 24-C , 28-S ) :   1.0710 B( 25-N , 26-C ) :   1.3913
B( 26-C , 27-C ) :   1.5674 B( 26-C , 31-C ) :   0.9280 B( 27-C , 28-S ) :   1.1100
B( 27-C , 29-C ) :   0.9558 B( 29-C , 30-C ) :   0.9975 B( 29-C , 38-S ) :   1.0627
B( 29-C , 74-H ) :   0.8855 B( 30-C , 31-C ) :   0.9556 B( 30-C , 36-N ) :   1.0282
B( 30-C , 75-H ) :   0.9128 B( 31-C , 32-C ) :   1.0717 B( 31-C , 34-C ) :   1.0316
B( 32-C , 33-C ) :   1.1054 B( 32-C , 76-H ) :   0.9161 B( 32-C , 77-H ) :   0.9340
B( 33-C , 78-H ) :   0.9536 B( 33-C , 79-H ) :   0.9627 B( 33-C , 80-H ) :   0.9599
B( 34-C , 35-C ) :   1.1210 B( 34-C , 81-H ) :   0.9357 B( 34-C , 82-H ) :   0.9415
B( 35-C , 83-H ) :   0.9597 B( 35-C , 84-H ) :   0.9586 B( 35-C , 85-H ) :   0.9560
B( 36-N , 37-C ) :   1.0216 B( 36-N , 39-C ) :   1.0640 B( 37-C , 38-S ) :   0.9643
B( 37-C , 86-H ) :   0.9552 B( 37-C , 87-H ) :   0.9433 B( 39-C , 40-C ) :   1.7160
B( 39-C , 88-H ) :   0.9397 B( 40-C , 41-C ) :   1.0951 B( 40-C , 44-S ) :   1.0162
B( 41-C , 42-C ) :   1.6410 B( 41-C , 89-H ) :   0.9899 B( 42-C , 43-C ) :   1.1599
B( 42-C , 90-H ) :   0.9938 B( 43-C , 44-S ) :   1.0486 B( 43-C , 45-C ) :   1.5541
B( 45-C , 46-C ) :   1.1660 B( 45-C , 49-S ) :   1.0300 B( 46-C , 47-C ) :   1.6284
B( 46-C , 91-H ) :   0.9909 B( 47-C , 48-C ) :   1.1220 B( 47-C , 92-H ) :   0.9957
B( 48-C , 49-S ) :   1.0171 B( 48-C , 50-C ) :   1.6642 B( 50-C , 51-C ) :   1.0800
B( 50-C , 93-H ) :   0.9615 B( 51-C , 52-C ) :   1.5057 B( 51-C , 55-N ) :   1.1010
B( 52-C , 53-N ) :   1.3669 B( 52-C , 94-H ) :   1.0027 B( 53-N , 54-C ) :   1.7330
B( 54-C , 55-N ) :   1.0882 B( 54-C , 95-H ) :   0.9748 B( 55-N , 56-C ) :   0.9509
B( 56-C , 57-O ) :   2.2248 B( 56-C , 58-N ) :   1.0073 B( 58-N , 59-C ) :   1.1028
B( 58-N , 62-C ) :   1.0956 B( 59-C , 60-C ) :   1.5871 B( 59-C , 96-H ) :   0.9956
B( 60-C , 61-N ) :   1.3171 B( 60-C , 97-H ) :   0.9996 B( 61-N , 62-C ) :   1.7670
B( 62-C , 98-H ) :   0.9747

-----------------------------------------------------------------------------
         ABSORPTION SPECTRUM VIA TRANSITION ELECTRIC DIPOLE MOMENTS
-----------------------------------------------------------------------------
State   Energy  Wavelength   fosc         T2         TX        TY        TZ
        (cm-1)    (nm)                  (au**2)     (au)      (au)      (au)
-----------------------------------------------------------------------------
   0   16419.1    609.0   1.277975954  25.62417  -3.02140  -3.90083  -1.13088
   1   17840.9    560.5   0.052227525   0.96373   0.22312  -0.95599  -0.00614
   2   19336.1    517.2   1.230142048  20.94407  -2.53704   3.75302  -0.64988
   3   23336.0    428.5   0.066109715   0.93264  -0.69792   0.58289  -0.32525
   4   23776.4    420.6   0.006444492   0.08923   0.10470   0.27733  -0.03688
   5   25332.7    394.7   0.001872103   0.02433  -0.11640   0.10080   0.02492
   6   26741.9    373.9   0.030286934   0.37285   0.20719  -0.12269  -0.56114
   7   29914.3    334.3   0.023967938   0.26377  -0.11307  -0.42730  -0.26153
   8   30123.9    332.0   0.073719953   0.80566  -0.16757  -0.21824   0.85437
   9   30538.7    327.5   0.010718845   0.11555  -0.16394  -0.29745  -0.01407
  10   31234.5    320.2   0.005136378   0.05414   0.03342   0.21426   0.08434
  11   32411.6    308.5   0.175595517   1.78356  -0.71058  -1.10645  -0.23324
  12   32638.2    306.4   0.006136820   0.06190   0.15081   0.19443   0.03678
  13   33535.2    298.2   0.022465753   0.22054  -0.00627   0.43550   0.17562
  14   33819.7    295.7   0.007611635   0.07409  -0.25723  -0.06920   0.05602
  15   33978.5    294.3   0.035721807   0.34610  -0.28341  -0.39191   0.33494
  16   34247.0    292.0   0.003364966   0.03235  -0.07512  -0.11044   0.12045
  17   34437.4    290.4   0.042273196   0.40412  -0.52266  -0.34803  -0.09907
  18   34466.5    290.1   0.001883621   0.01799  -0.11541   0.06709   0.01305
  19   34590.2    289.1   0.001283972   0.01222   0.07918   0.07551   0.01576
  20   34872.4    286.8   0.020957949   0.19785  -0.08051   0.22203   0.37693
  21   36138.5    276.7   0.002992417   0.02726  -0.02669  -0.15529   0.04932
  22   36434.3    274.5   0.079277823   0.71634   0.45013   0.70560   0.12589
  23   36670.9    272.7   0.028387726   0.25485  -0.44269  -0.19821  -0.13996
  24   37163.9    269.1   0.027568326   0.24421   0.42561   0.25092  -0.01024
  25   37327.5    267.9   0.008975985   0.07916  -0.18933  -0.20658   0.02542
  26   37963.9    263.4   0.003078535   0.02670  -0.06086   0.12648  -0.08363
  27   38348.3    260.8   0.059765612   0.51307   0.01447   0.69570   0.16990
  28   38360.3    260.7   0.006132045   0.05263   0.14681   0.11706   0.13180
  29   38516.2    259.6   0.037251178   0.31840   0.19583  -0.52493  -0.06706
  30   39727.4    251.7   0.160333023   1.32864   0.63887   0.10531  -0.95362

FINAL SINGLE POINT ENERGY     -4819.683958931394

DIPOLE MOMENT
-------------
                                X             Y             Z
Electronic contribution:      2.76670      45.28638     -15.07230
Nuclear contribution   :     -1.99380     -47.03232      13.92477
                        -----------------------------------------
Total Dipole Moment    :      0.77290      -1.74593      -1.14752
                        -----------------------------------------
Magnitude (a.u.)       :      2.22766
Magnitude (Debye)      :      5.66227

Rotational constants in cm-1:     0.001270     0.000499     0.000398
Rotational constants in MHz :    38.088462    14.973704    11.945985

                             ****ORCA TERMINATED NORMALLY****
TOTAL RUN TIME: 0 days 0 hours 11 minutes 26 seconds 932 msec
