                         Program Version 4.2.0 -  RELEASE  -
|  1> # ORCA input file
|  2> # SCF done       -204.248201449138          0.000883760313
|  3> ! CAM-B3LYP def2-SVP def2/J RIJCOSX Grid4 TightSCF
|  4> %maxcore 5000
|  5> %tddft
|  6>     Mode sTDDFT
|  7>     Ethresh 5.0
|  8>     maxcore 5000
|  9> end
| 10>
| 11> %pal
| 12>   nprocs 6
| 13>   end
| 14> * xyz 0 1
| 15>    C       -1.09501         3.23325         1.41669
| 16>    O       -1.36410         4.38141         1.65608
| 17>    C        0.23064         2.57937         1.50319
| 18>    C        0.08313         1.18562         1.39086
| 19>    C        1.19080         0.35411         1.40497
| 20>    C        2.44071         0.93696         1.55124
| 21>    C        2.60246         2.31531         1.68698
| 22>    C        1.48134         3.14851         1.66571
| 23>    F        1.64170         4.45975         1.78815
| 24>    F        3.82307         2.83501         1.82824
| 25>    F        3.52363         0.15916         1.55715
| 26>    C       -1.33860         0.87097         1.26921
| 27>    C       -1.87956        -0.38597         1.33629
| 28>    C       -1.13947        -1.55084         1.62438
| 29>    N       -0.61750        -2.52934         1.92215
| 30>    C       -3.25591        -0.68774         1.28771
| 31>    N       -4.35373        -1.02667         1.29089
| 32>    C       -2.05029         2.12135         1.12326
| 33>    C       -3.37824         2.29209         0.88121
| 34>    C       -3.96030         3.53056         0.51304
| 35>    O       -5.29038         3.72798         0.71885
| 36>    C       -3.45878         4.63473        -0.15610
| 37>    C       -2.27747         5.16313        -0.86442
| 38>    O       -1.20785         4.66461        -1.08919
| 39>    N       -2.70524         6.40182        -1.32477
| 40>    C       -4.04012         6.71107        -1.06208
| 41>    O       -4.60091         7.71770        -1.40285
| 42>    C       -4.52503         5.53736        -0.32560
| 43>    C       -5.65286         4.94730         0.23651
| 44>    C       -6.98735         5.38978         0.32850
| 45>    C       -7.97138         4.60211         0.85924
| 46>    C       -9.32570         4.94053         0.94135
| 47>    C      -10.27903         4.06930         1.41972
| 48>    C      -11.67875         4.26720         1.49647
| 49>    C      -12.37100         3.18849         1.96148
| 50>    C      -11.55212         2.08374         2.28581
| 51>    S       -9.87405         2.46349         1.99589
| 52>    C      -11.92232         0.82961         2.73881
| 53>    C      -13.22231         0.31506         2.94478
| 54>    C      -13.23605        -0.98994         3.33566
| 55>    C      -11.94789        -1.56713         3.46750
| 56>    S      -10.71704        -0.38649         3.09115
| 57>    C      -11.64732        -2.86299         3.81514
| 58>    C      -10.33454        -3.33573         3.93741
| 59>    O       -9.28165        -2.48905         3.76041
| 60>    C       -9.82777        -4.59757         4.24140
| 61>    C      -10.18742        -5.97395         4.59438
| 62>    O      -11.25729        -6.51057         4.70564
| 63>    N       -8.95048        -6.59445         4.79132
| 64>    C       -7.83971        -5.77881         4.61260
| 65>    O       -6.69193        -6.10770         4.75255
| 66>    C       -8.42573        -4.48242         4.23949
| 67>    C       -8.11508        -3.16333         3.95110
| 68>    C       -6.86335        -2.51399         3.97338
| 69>    C       -6.69841        -1.16602         3.88368
| 70>    C       -5.46809        -0.48792         4.03579
| 71>    C       -4.30513        -0.89653         4.62770
| 72>    C       -3.06808        -0.12653         4.34911
| 73>    O       -2.99139         0.95589         3.81148
| 74>    C       -1.95807        -0.99713         4.79950
| 75>    C       -2.48474        -2.15844         5.39363
| 76>    C       -3.94264        -2.02267         5.46369
| 77>    C       -4.72369        -2.67401         6.37979
| 78>    C       -4.23833        -3.66051         7.26674
| 79>    N       -3.89387        -4.45483         8.01880
| 80>    C       -6.07774        -2.37103         6.63066
| 81>    N       -7.16699        -2.14116         6.90837
| 82>    C       -1.65215        -3.18022         5.81238
| 83>    C       -0.28345        -3.01770         5.64510
| 84>    C        0.25967        -1.85728         5.09476
| 85>    C       -0.59053        -0.83648         4.67107
| 86>    F       -0.06788         0.27374         4.14408
| 87>    F        1.57963        -1.72104         4.96672
| 88>    F        0.53773        -3.99212         6.02950
| 89>    H        1.12653        -0.71736         1.30912
| 90>    H       -4.06241         1.45695         0.94440
| 91>    H       -2.09796         7.02507        -1.83828
| 92>    H       -7.19489         6.37421        -0.06248
| 93>    H       -7.68612         3.62370         1.22657
| 94>    H       -9.64931         5.91184         0.59368
| 95>    H      -12.13006         5.19606         1.19581
| 96>    H      -13.43930         3.15838         2.07793
| 97>    H      -14.10423         0.90981         2.78884
| 98>    H      -14.12564        -1.56121         3.53159
| 99>    H      -12.44099        -3.56736         4.00848
|100>    H       -8.87247        -7.56407         5.06423
|101>    H       -6.01777        -3.17644         4.08853
|102>    H       -7.56282        -0.56029         3.64604
|103>    H       -5.41098         0.50202         3.59407
|104>    H       -2.02025        -4.09706         6.24314
|105> *
|106>
|107>                          ****END OF INPUT****

CARTESIAN COORDINATES (ANGSTROEM)
---------------------------------
  C     -1.095010    3.233250    1.416690
  O     -1.364100    4.381410    1.656080
  C      0.230640    2.579370    1.503190
  C      0.083130    1.185620    1.390860
  C      1.190800    0.354110    1.404970
  C      2.440710    0.936960    1.551240
  C      2.602460    2.315310    1.686980
  C      1.481340    3.148510    1.665710
  F      1.641700    4.459750    1.788150
  F      3.823070    2.835010    1.828240
  F      3.523630    0.159160    1.557150
  C     -1.338600    0.870970    1.269210
  C     -1.879560   -0.385970    1.336290
  C     -1.139470   -1.550840    1.624380
  N     -0.617500   -2.529340    1.922150
  C     -3.255910   -0.687740    1.287710
  N     -4.353730   -1.026670    1.290890
  C     -2.050290    2.121350    1.123260
  C     -3.378240    2.292090    0.881210
  C     -3.960300    3.530560    0.513040
  O     -5.290380    3.727980    0.718850
  C     -3.458780    4.634730   -0.156100
  C     -2.277470    5.163130   -0.864420
  O     -1.207850    4.664610   -1.089190
  N     -2.705240    6.401820   -1.324770
  C     -4.040120    6.711070   -1.062080
  O     -4.600910    7.717700   -1.402850
  C     -4.525030    5.537360   -0.325600
  C     -5.652860    4.947300    0.236510
  C     -6.987350    5.389780    0.328500
  C     -7.971380    4.602110    0.859240
  C     -9.325700    4.940530    0.941350
  C    -10.279030    4.069300    1.419720
  C    -11.678750    4.267200    1.496470
  C    -12.371000    3.188490    1.961480
  C    -11.552120    2.083740    2.285810
  S     -9.874050    2.463490    1.995890
  C    -11.922320    0.829610    2.738810
  C    -13.222310    0.315060    2.944780
  C    -13.236050   -0.989940    3.335660
  C    -11.947890   -1.567130    3.467500
  S    -10.717040   -0.386490    3.091150
  C    -11.647320   -2.862990    3.815140
  C    -10.334540   -3.335730    3.937410
  O     -9.281650   -2.489050    3.760410
  C     -9.827770   -4.597570    4.241400
  C    -10.187420   -5.973950    4.594380
  O    -11.257290   -6.510570    4.705640
  N     -8.950480   -6.594450    4.791320
  C     -7.839710   -5.778810    4.612600
  O     -6.691930   -6.107700    4.752550
  C     -8.425730   -4.482420    4.239490
  C     -8.115080   -3.163330    3.951100
  C     -6.863350   -2.513990    3.973380
  C     -6.698410   -1.166020    3.883680
  C     -5.468090   -0.487920    4.035790
  C     -4.305130   -0.896530    4.627700
  C     -3.068080   -0.126530    4.349110
  O     -2.991390    0.955890    3.811480
  C     -1.958070   -0.997130    4.799500
  C     -2.484740   -2.158440    5.393630
  C     -3.942640   -2.022670    5.463690
  C     -4.723690   -2.674010    6.379790
  C     -4.238330   -3.660510    7.266740
  N     -3.893870   -4.454830    8.018800
  C     -6.077740   -2.371030    6.630660
  N     -7.166990   -2.141160    6.908370
  C     -1.652150   -3.180220    5.812380
  C     -0.283450   -3.017700    5.645100
  C      0.259670   -1.857280    5.094760
  C     -0.590530   -0.836480    4.671070
  F     -0.067880    0.273740    4.144080
  F      1.579630   -1.721040    4.966720
  F      0.537730   -3.992120    6.029500
  H      1.126530   -0.717360    1.309120
  H     -4.062410    1.456950    0.944400
  H     -2.097960    7.025070   -1.838280
  H     -7.194890    6.374210   -0.062480
  H     -7.686120    3.623700    1.226570
  H     -9.649310    5.911840    0.593680
  H    -12.130060    5.196060    1.195810
  H    -13.439300    3.158380    2.077930
  H    -14.104230    0.909810    2.788840
  H    -14.125640   -1.561210    3.531590
  H    -12.440990   -3.567360    4.008480
  H     -8.872470   -7.564070    5.064230
  H     -6.017770   -3.176440    4.088530
  H     -7.562820   -0.560290    3.646040
  H     -5.410980    0.502020    3.594070
  H     -2.020250   -4.097060    6.243140

 Total Charge           Charge          ....    0
 Multiplicity           Mult            ....    1
 Number of Electrons    NEL             ....  520
 Basis Dimension        Dim             .... 1124

ORBITAL ENERGIES
----------------

  NO   OCC          E(Eh)            E(eV)
   0   2.0000     -88.969105     -2420.9724
   1   2.0000     -88.967366     -2420.9251
   2   2.0000     -24.819140      -675.3631
   3   2.0000     -24.810992      -675.1414
   4   2.0000     -24.809394      -675.0979
   5   2.0000     -24.807065      -675.0346
   6   2.0000     -24.806777      -675.0267
   7   2.0000     -24.806617      -675.0224
   8   2.0000     -19.320403      -525.7349
   9   2.0000     -19.320132      -525.7275
  10   2.0000     -19.227312      -523.2018
  11   2.0000     -19.221016      -523.0304
  12   2.0000     -19.218416      -522.9597
  13   2.0000     -19.216481      -522.9070
  14   2.0000     -19.215943      -522.8924
  15   2.0000     -19.213719      -522.8319
  16   2.0000     -14.459984      -393.4762
  17   2.0000     -14.457213      -393.4008
  18   2.0000     -14.430127      -392.6637
  19   2.0000     -14.427848      -392.6017
  20   2.0000     -14.422851      -392.4657
  21   2.0000     -14.418996      -392.3608
  22   2.0000     -10.406474      -283.1746
  23   2.0000     -10.405982      -283.1612
  24   2.0000     -10.404570      -283.1228
  25   2.0000     -10.403398      -283.0909
  26   2.0000     -10.399386      -282.9817
  27   2.0000     -10.396085      -282.8919
  28   2.0000     -10.395493      -282.8757
  29   2.0000     -10.394140      -282.8389
  30   2.0000     -10.392923      -282.8058
  31   2.0000     -10.392245      -282.7874
  32   2.0000     -10.381642      -282.4988
  33   2.0000     -10.378243      -282.4063
  34   2.0000     -10.374888      -282.3150
  35   2.0000     -10.373335      -282.2728
  36   2.0000     -10.368157      -282.1319
  37   2.0000     -10.366259      -282.0803
  38   2.0000     -10.352729      -281.7121
  39   2.0000     -10.352039      -281.6933
  40   2.0000     -10.351951      -281.6909
  41   2.0000     -10.350952      -281.6637
  42   2.0000     -10.337031      -281.2849
  43   2.0000     -10.335921      -281.2547
  44   2.0000     -10.334635      -281.2197
  45   2.0000     -10.333364      -281.1851
  46   2.0000     -10.331252      -281.1277
  47   2.0000     -10.331136      -281.1245
  48   2.0000     -10.327747      -281.0323
  49   2.0000     -10.327306      -281.0203
  50   2.0000     -10.325293      -280.9655
  51   2.0000     -10.323661      -280.9211
  52   2.0000     -10.320968      -280.8478
  53   2.0000     -10.320473      -280.8343
  54   2.0000     -10.314528      -280.6726
  55   2.0000     -10.313487      -280.6442
  56   2.0000     -10.311160      -280.5809
  57   2.0000     -10.311075      -280.5786
  58   2.0000     -10.311014      -280.5769
  59   2.0000     -10.310450      -280.5616
  60   2.0000     -10.310335      -280.5585
  61   2.0000     -10.309286      -280.5299
  62   2.0000     -10.307754      -280.4882
  63   2.0000     -10.307140      -280.4715
  64   2.0000     -10.307082      -280.4700
  65   2.0000     -10.306349      -280.4500
  66   2.0000     -10.304885      -280.4102
  67   2.0000     -10.303295      -280.3669
  68   2.0000     -10.303144      -280.3628
  69   2.0000     -10.302785      -280.3530
  70   2.0000     -10.301461      -280.3170
  71   2.0000     -10.299395      -280.2608
  72   2.0000     -10.297426      -280.2072
  73   2.0000     -10.296722      -280.1881
  74   2.0000      -8.065494      -219.4733
  75   2.0000      -8.063101      -219.4081
  76   2.0000      -6.035133      -164.2243
  77   2.0000      -6.032934      -164.1645
  78   2.0000      -6.031180      -164.1167
  79   2.0000      -6.028543      -164.0450
  80   2.0000      -6.026482      -163.9889
  81   2.0000      -6.024081      -163.9236
  82   2.0000      -1.340201       -36.4687
  83   2.0000      -1.336011       -36.3547
  84   2.0000      -1.329309       -36.1723
  85   2.0000      -1.324874       -36.0517
  86   2.0000      -1.317002       -35.8375
  87   2.0000      -1.314364       -35.7657
  88   2.0000      -1.236846       -33.6563
  89   2.0000      -1.236353       -33.6429
  90   2.0000      -1.162618       -31.6364
  91   2.0000      -1.159221       -31.5440
  92   2.0000      -1.144305       -31.1381
  93   2.0000      -1.143658       -31.1205
  94   2.0000      -1.138926       -30.9918
  95   2.0000      -1.137839       -30.9622
  96   2.0000      -1.049542       -28.5595
  97   2.0000      -1.046830       -28.4857
  98   2.0000      -1.032165       -28.0866
  99   2.0000      -1.028282       -27.9810
 100   2.0000      -1.020180       -27.7605
 101   2.0000      -1.012999       -27.5651
 102   2.0000      -1.009843       -27.4792
 103   2.0000      -1.007509       -27.4157
 104   2.0000      -0.999002       -27.1842
 105   2.0000      -0.998485       -27.1702
 106   2.0000      -0.967269       -26.3207
 107   2.0000      -0.965775       -26.2801
 108   2.0000      -0.946203       -25.7475
 109   2.0000      -0.942247       -25.6399
 110   2.0000      -0.933308       -25.3966
 111   2.0000      -0.930810       -25.3286
 112   2.0000      -0.922717       -25.1084
 113   2.0000      -0.915536       -24.9130
 114   2.0000      -0.909554       -24.7502
 115   2.0000      -0.906893       -24.6778
 116   2.0000      -0.889839       -24.2137
 117   2.0000      -0.877898       -23.8888
 118   2.0000      -0.877032       -23.8653
 119   2.0000      -0.874221       -23.7888
 120   2.0000      -0.870537       -23.6885
 121   2.0000      -0.848959       -23.1013
 122   2.0000      -0.845691       -23.0124
 123   2.0000      -0.834038       -22.6953
 124   2.0000      -0.817795       -22.2533
 125   2.0000      -0.803399       -21.8616
 126   2.0000      -0.790381       -21.5074
 127   2.0000      -0.783257       -21.3135
 128   2.0000      -0.781847       -21.2751
 129   2.0000      -0.776932       -21.1414
 130   2.0000      -0.772400       -21.0181
 131   2.0000      -0.770224       -20.9589
 132   2.0000      -0.766829       -20.8665
 133   2.0000      -0.754891       -20.5416
 134   2.0000      -0.743470       -20.2308
 135   2.0000      -0.730585       -19.8802
 136   2.0000      -0.725766       -19.7491
 137   2.0000      -0.724083       -19.7033
 138   2.0000      -0.715397       -19.4669
 139   2.0000      -0.710500       -19.3337
 140   2.0000      -0.706240       -19.2178
 141   2.0000      -0.700617       -19.0648
 142   2.0000      -0.696799       -18.9609
 143   2.0000      -0.689120       -18.7519
 144   2.0000      -0.685053       -18.6412
 145   2.0000      -0.667563       -18.1653
 146   2.0000      -0.666555       -18.1379
 147   2.0000      -0.663166       -18.0457
 148   2.0000      -0.657267       -17.8851
 149   2.0000      -0.655944       -17.8492
 150   2.0000      -0.651250       -17.7214
 151   2.0000      -0.646661       -17.5965
 152   2.0000      -0.645388       -17.5619
 153   2.0000      -0.641589       -17.4585
 154   2.0000      -0.635626       -17.2962
 155   2.0000      -0.628449       -17.1010
 156   2.0000      -0.627068       -17.0634
 157   2.0000      -0.619060       -16.8455
 158   2.0000      -0.612497       -16.6669
 159   2.0000      -0.611291       -16.6341
 160   2.0000      -0.609792       -16.5933
 161   2.0000      -0.605135       -16.4666
 162   2.0000      -0.604448       -16.4479
 163   2.0000      -0.602023       -16.3819
 164   2.0000      -0.599214       -16.3054
 165   2.0000      -0.598686       -16.2911
 166   2.0000      -0.593217       -16.1423
 167   2.0000      -0.592656       -16.1270
 168   2.0000      -0.592174       -16.1139
 169   2.0000      -0.590069       -16.0566
 170   2.0000      -0.586330       -15.9548
 171   2.0000      -0.578388       -15.7387
 172   2.0000      -0.576832       -15.6964
 173   2.0000      -0.571278       -15.5453
 174   2.0000      -0.569729       -15.5031
 175   2.0000      -0.566559       -15.4169
 176   2.0000      -0.562402       -15.3037
 177   2.0000      -0.558368       -15.1940
 178   2.0000      -0.556591       -15.1456
 179   2.0000      -0.554930       -15.1004
 180   2.0000      -0.553452       -15.0602
 181   2.0000      -0.550697       -14.9852
 182   2.0000      -0.549284       -14.9468
 183   2.0000      -0.548233       -14.9182
 184   2.0000      -0.545097       -14.8328
 185   2.0000      -0.542575       -14.7642
 186   2.0000      -0.542024       -14.7492
 187   2.0000      -0.537222       -14.6186
 188   2.0000      -0.535831       -14.5807
 189   2.0000      -0.532029       -14.4772
 190   2.0000      -0.530334       -14.4311
 191   2.0000      -0.527551       -14.3554
 192   2.0000      -0.526437       -14.3251
 193   2.0000      -0.521928       -14.2024
 194   2.0000      -0.520432       -14.1617
 195   2.0000      -0.519638       -14.1401
 196   2.0000      -0.518033       -14.0964
 197   2.0000      -0.515849       -14.0370
 198   2.0000      -0.513285       -13.9672
 199   2.0000      -0.511833       -13.9277
 200   2.0000      -0.507365       -13.8061
 201   2.0000      -0.505187       -13.7468
 202   2.0000      -0.504254       -13.7215
 203   2.0000      -0.502486       -13.6733
 204   2.0000      -0.498292       -13.5592
 205   2.0000      -0.495169       -13.4742
 206   2.0000      -0.490632       -13.3508
 207   2.0000      -0.490201       -13.3390
 208   2.0000      -0.485581       -13.2133
 209   2.0000      -0.485079       -13.1997
 210   2.0000      -0.484644       -13.1878
 211   2.0000      -0.480967       -13.0878
 212   2.0000      -0.479310       -13.0427
 213   2.0000      -0.476072       -12.9546
 214   2.0000      -0.473830       -12.8936
 215   2.0000      -0.472909       -12.8685
 216   2.0000      -0.469554       -12.7772
 217   2.0000      -0.468355       -12.7446
 218   2.0000      -0.464858       -12.6494
 219   2.0000      -0.462952       -12.5976
 220   2.0000      -0.457278       -12.4432
 221   2.0000      -0.456268       -12.4157
 222   2.0000      -0.454995       -12.3810
 223   2.0000      -0.453780       -12.3480
 224   2.0000      -0.452809       -12.3216
 225   2.0000      -0.445415       -12.1204
 226   2.0000      -0.441923       -12.0253
 227   2.0000      -0.441378       -12.0105
 228   2.0000      -0.440838       -11.9958
 229   2.0000      -0.436479       -11.8772
 230   2.0000      -0.432734       -11.7753
 231   2.0000      -0.426029       -11.5928
 232   2.0000      -0.422783       -11.5045
 233   2.0000      -0.421530       -11.4704
 234   2.0000      -0.414981       -11.2922
 235   2.0000      -0.412375       -11.2213
 236   2.0000      -0.407116       -11.0782
 237   2.0000      -0.390965       -10.6387
 238   2.0000      -0.389155       -10.5894
 239   2.0000      -0.386610       -10.5202
 240   2.0000      -0.377043       -10.2599
 241   2.0000      -0.376833       -10.2541
 242   2.0000      -0.373533       -10.1643
 243   2.0000      -0.367301        -9.9948
 244   2.0000      -0.365030        -9.9330
 245   2.0000      -0.361780        -9.8445
 246   2.0000      -0.356371        -9.6974
 247   2.0000      -0.351618        -9.5680
 248   2.0000      -0.349244        -9.5034
 249   2.0000      -0.348944        -9.4952
 250   2.0000      -0.348078        -9.4717
 251   2.0000      -0.345705        -9.4071
 252   2.0000      -0.344163        -9.3652
 253   2.0000      -0.342091        -9.3088
 254   2.0000      -0.331486        -9.0202
 255   2.0000      -0.321943        -8.7605
 256   2.0000      -0.320202        -8.7131
 257   2.0000      -0.297698        -8.1008
 258   2.0000      -0.275176        -7.4879
 259   2.0000      -0.231672        -6.3041
 260   0.0000      -0.120989        -3.2923
 261   0.0000      -0.103971        -2.8292
 262   0.0000      -0.091914        -2.5011
 263   0.0000      -0.071914        -1.9569
 264   0.0000      -0.067112        -1.8262

MULLIKEN ATOMIC CHARGES
-----------------------
   0 C :    0.156065
   1 O :   -0.120448
   2 C :   -0.069415
   3 C :    0.076410
   4 C :   -0.111908
   5 C :    0.238663
   6 C :    0.152715
   7 C :    0.157062
   8 F :   -0.137087
   9 F :   -0.152272
  10 F :   -0.158288
  11 C :    0.311144
  12 C :   -0.348045
  13 C :   -0.223769
  14 N :    0.164328
  15 C :   -0.180443
  16 N :    0.143350
  17 C :   -0.047752
  18 C :   -0.025427
  19 C :    0.114563
  20 O :   -0.206061
  21 C :   -0.020856
  22 C :    0.188403
  23 O :   -0.142772
  24 N :   -0.161070
  25 C :    0.167797
  26 O :   -0.136254
  27 C :   -0.048293
  28 C :    0.104558
  29 C :   -0.038482
  30 C :    0.034339
  31 C :   -0.001974
  32 C :   -0.015659
  33 C :    0.042381
  34 C :    0.032555
  35 C :   -0.042435
  36 S :    0.085300
  37 C :   -0.038985
  38 C :    0.035739
  39 C :    0.033749
  40 C :   -0.003731
  41 S :    0.114579
  42 C :   -0.038557
  43 C :    0.104613
  44 O :   -0.237102
  45 C :   -0.032882
  46 C :    0.168191
  47 O :   -0.139055
  48 N :   -0.169130
  49 C :    0.173171
  50 O :   -0.136917
  51 C :   -0.028675
  52 C :    0.094929
  53 C :    0.005661
  54 C :    0.031415
  55 C :    0.080659
  56 C :   -0.113428
  57 C :    0.135961
  58 O :   -0.153425
  59 C :   -0.046132
  60 C :    0.029957
  61 C :    0.246756
  62 C :   -0.321648
  63 C :   -0.176179
  64 N :    0.164765
  65 C :   -0.195275
  66 N :    0.175423
  67 C :   -0.085346
  68 C :    0.239514
  69 C :    0.169752
  70 C :    0.145575
  71 F :   -0.154504
  72 F :   -0.151372
  73 F :   -0.154101
  74 H :    0.014974
  75 H :    0.023060
  76 H :    0.142094
  77 H :    0.013887
  78 H :    0.019319
  79 H :   -0.003457
  80 H :   -0.001262
  81 H :   -0.001919
  82 H :   -0.005216
  83 H :    0.000581
  84 H :    0.013601
  85 H :    0.142014
  86 H :    0.038178
  87 H :    0.007958
  88 H :    0.019615
  89 H :    0.021688
Sum of atomic charges:    0.0000000

LOEWDIN ATOMIC CHARGES
----------------------
   0 C :    0.093496
   1 O :   -0.114688
   2 C :   -0.068248
   3 C :   -0.002003
   4 C :   -0.031816
   5 C :    0.080324
   6 C :    0.042753
   7 C :    0.088950
   8 F :   -0.019213
   9 F :   -0.032436
  10 F :   -0.035693
  11 C :    0.086886
  12 C :   -0.142853
  13 C :   -0.021778
  14 N :   -0.057338
  15 C :   -0.013884
  16 N :   -0.055459
  17 C :   -0.061329
  18 C :    0.051124
  19 C :    0.047509
  20 O :    0.018425
  21 C :   -0.051418
  22 C :    0.089897
  23 O :   -0.147037
  24 N :    0.000141
  25 C :    0.086357
  26 O :   -0.154109
  27 C :   -0.097977
  28 C :    0.082929
  29 C :   -0.043545
  30 C :    0.002626
  31 C :   -0.052004
  32 C :   -0.128741
  33 C :   -0.026577
  34 C :   -0.020879
  35 C :   -0.167831
  36 S :    0.389092
  37 C :   -0.178909
  38 C :   -0.019938
  39 C :   -0.028312
  40 C :   -0.123717
  41 S :    0.411107
  42 C :   -0.073769
  43 C :    0.077458
  44 O :    0.007059
  45 C :   -0.097522
  46 C :    0.086290
  47 O :   -0.155731
  48 N :   -0.005278
  49 C :    0.085646
  50 O :   -0.152427
  51 C :   -0.068778
  52 C :    0.059335
  53 C :    0.023633
  54 C :   -0.024764
  55 C :    0.079123
  56 C :   -0.093374
  57 C :    0.088473
  58 O :   -0.146972
  59 C :   -0.084351
  60 C :    0.003762
  61 C :    0.065540
  62 C :   -0.128101
  63 C :   -0.021263
  64 N :   -0.039396
  65 C :   -0.014475
  66 N :   -0.037961
  67 C :   -0.024121
  68 C :    0.087531
  69 C :    0.044685
  70 C :    0.084315
  71 F :   -0.026340
  72 F :   -0.031429
  73 F :   -0.030721
  74 H :    0.050057
  75 H :    0.049074
  76 H :    0.097241
  77 H :    0.046719
  78 H :    0.026083
  79 H :    0.037643
  80 H :    0.038304
  81 H :    0.036456
  82 H :    0.035172
  83 H :    0.038800
  84 H :    0.052574
  85 H :    0.096772
  86 H :    0.049957
  87 H :    0.035814
  88 H :    0.045118
  89 H :    0.054257

  Mayer bond orders larger than 0.100000
B(  0-C ,  1-O ) :   2.2717 B(  0-C ,  2-C ) :   0.9229 B(  0-C , 17-C ) :   0.9276
B(  2-C ,  3-C ) :   1.3589 B(  2-C ,  7-C ) :   1.2721 B(  3-C ,  4-C ) :   1.3051
B(  3-C , 11-C ) :   1.0163 B(  4-C ,  5-C ) :   1.3333 B(  4-C , 74-H ) :   1.0001
B(  5-C ,  6-C ) :   1.2915 B(  5-C , 10-F ) :   1.1511 B(  6-C ,  7-C ) :   1.2613
B(  6-C ,  9-F ) :   1.1743 B(  7-C ,  8-F ) :   1.2458 B( 11-C , 12-C ) :   1.6294
B( 11-C , 17-C ) :   1.1045 B( 12-C , 13-C ) :   1.1546 B( 12-C , 15-C ) :   1.1398
B( 13-C , 14-N ) :   2.9722 B( 15-C , 16-N ) :   2.9261 B( 17-C , 18-C ) :   1.6010
B( 18-C , 19-C ) :   1.1624 B( 18-C , 75-H ) :   0.9316 B( 19-C , 20-O ) :   1.1237
B( 19-C , 21-C ) :   1.4253 B( 20-O , 28-C ) :   1.1603 B( 21-C , 22-C ) :   0.8659
B( 21-C , 27-C ) :   1.3307 B( 22-C , 23-O ) :   2.2325 B( 22-C , 24-N ) :   1.0940
B( 24-N , 25-C ) :   1.0717 B( 24-N , 76-H ) :   0.9146 B( 25-C , 26-O ) :   2.2747
B( 25-C , 27-C ) :   0.8831 B( 27-C , 28-C ) :   1.3279 B( 28-C , 29-C ) :   1.2093
B( 29-C , 30-C ) :   1.5596 B( 29-C , 77-H ) :   0.9705 B( 30-C , 31-C ) :   1.1702
B( 30-C , 78-H ) :   0.9728 B( 31-C , 32-C ) :   1.5277 B( 31-C , 79-H ) :   0.9872
B( 32-C , 33-C ) :   1.1548 B( 32-C , 36-S ) :   1.0487 B( 33-C , 34-C ) :   1.5762
B( 33-C , 80-H ) :   0.9994 B( 34-C , 35-C ) :   1.1979 B( 34-C , 81-H ) :   0.9952
B( 35-C , 36-S ) :   1.0577 B( 35-C , 37-C ) :   1.4868 B( 37-C , 38-C ) :   1.1977
B( 37-C , 41-S ) :   1.0362 B( 38-C , 39-C ) :   1.5782 B( 38-C , 82-H ) :   0.9958
B( 39-C , 40-C ) :   1.1499 B( 39-C , 83-H ) :   1.0019 B( 40-C , 41-S ) :   1.0715
B( 40-C , 42-C ) :   1.5083 B( 42-C , 43-C ) :   1.2425 B( 42-C , 84-H ) :   0.9648
B( 43-C , 44-O ) :   1.1252 B( 43-C , 45-C ) :   1.3379 B( 44-O , 52-C ) :   1.1250
B( 45-C , 46-C ) :   0.8870 B( 45-C , 51-C ) :   1.3262 B( 46-C , 47-O ) :   2.2707
B( 46-C , 48-N ) :   1.0672 B( 48-N , 49-C ) :   1.0886 B( 48-N , 85-H ) :   0.9134
B( 49-C , 50-O ) :   2.2651 B( 49-C , 51-C ) :   0.8688 B( 51-C , 52-C ) :   1.3858
B( 52-C , 53-C ) :   1.2434 B( 53-C , 54-C ) :   1.5695 B( 53-C , 86-H ) :   0.9395
B( 54-C , 55-C ) :   1.1668 B( 54-C , 87-H ) :   0.9665 B( 55-C , 56-C ) :   1.6280
B( 55-C , 88-H ) :   0.9295 B( 56-C , 57-C ) :   0.9881 B( 56-C , 61-C ) :   1.0390
B( 57-C , 58-O ) :   2.2084 B( 57-C , 59-C ) :   0.9205 B( 59-C , 60-C ) :   1.3473
B( 59-C , 70-C ) :   1.2777 B( 60-C , 61-C ) :   1.0068 B( 60-C , 67-C ) :   1.3391
B( 61-C , 62-C ) :   1.6635 B( 62-C , 63-C ) :   1.1178 B( 62-C , 65-C ) :   1.1727
B( 63-C , 64-N ) :   3.0041 B( 65-C , 66-N ) :   2.9861 B( 67-C , 68-C ) :   1.3237
B( 67-C , 89-H ) :   0.9981 B( 68-C , 69-C ) :   1.2956 B( 68-C , 73-F ) :   1.1499
B( 69-C , 70-C ) :   1.2720 B( 69-C , 72-F ) :   1.1793 B( 70-C , 71-F ) :   1.1776

-----------------------------------------------------------------------------
         ABSORPTION SPECTRUM VIA TRANSITION ELECTRIC DIPOLE MOMENTS
-----------------------------------------------------------------------------
State   Energy  Wavelength   fosc         T2         TX        TY        TZ
        (cm-1)    (nm)                  (au**2)     (au)      (au)      (au)
-----------------------------------------------------------------------------
   0    9647.4   1036.6   0.303570337  10.35921   1.16788   2.44786  -1.73299
   1   13913.1    718.7   0.380803959   9.01057   2.92544  -0.39524   0.54423
   2   17345.8    576.5   0.537505089  10.20147  -0.74577  -2.98812   0.84644
   3   19020.4    525.8   0.694139621  12.01441  -3.24499   1.03083  -0.64951
   4   21305.3    469.4   0.201768713   3.11775  -1.72448  -0.30197   0.22962
   5   22087.1    452.8   0.246743447   3.67775  -0.59298  -1.80156   0.28372
   6   22769.8    439.2   0.178316971   2.57816  -1.44503  -0.68771  -0.13079
   7   23524.5    425.1   0.202356830   2.83186  -1.04252  -1.30936   0.17487
   8   24214.8    413.0   0.227264517   3.08977   0.74846  -1.55367   0.34012
   9   25494.3    392.2   0.362386630   4.67955   1.96816  -0.61093  -0.65776
  10   26322.4    379.9   0.010797783   0.13505   0.10668  -0.02430  -0.35082
  11   27260.7    366.8   0.191552080   2.31327  -0.22742   1.41068  -0.52109
  12   27880.8    358.7   0.013890826   0.16402   0.29074  -0.13912  -0.24523
  13   28777.8    347.5   0.143011518   1.63602   1.27233   0.08814  -0.09711
  14   28847.2    346.7   0.063902968   0.72928  -0.26966  -0.66062   0.46919
  15   29610.4    337.7   0.082973415   0.92251   0.73435   0.58543  -0.20126
  16   29814.2    335.4   0.123083055   1.35910  -1.11001  -0.31617  -0.16437
  17   30058.3    332.7   0.041565964   0.45525   0.67235   0.03791  -0.04188
  18   30224.7    330.9   0.016988072   0.18504  -0.36508   0.13253   0.18491
  19   30353.3    329.5   0.042632172   0.46239   0.04458  -0.44096   0.51571
  20   30918.3    323.4   0.013228740   0.14086  -0.27531   0.16574   0.19388
  21   31673.5    315.7   0.002808930   0.02920  -0.03274   0.11570  -0.12140
  22   31795.9    314.5   0.018455902   0.19109   0.25961   0.17451  -0.30536
  23   32001.7    312.5   0.003709487   0.03816  -0.03802   0.13254   0.13838
  24   32225.4    310.3   0.007865189   0.08035  -0.19540  -0.08795   0.18556
  25   32407.0    308.6   0.049416741   0.50201  -0.69877  -0.06055  -0.10033
  26   32612.7    306.6   0.024400372   0.24631   0.43534   0.19965  -0.13010
  27   32707.3    305.7   0.007209488   0.07257   0.21644   0.11698  -0.10971
  28   32992.1    303.1   0.110538000   1.10300  -0.68669  -0.79411  -0.02931
  29   33584.0    297.8   0.130603007   1.28025   0.68268   0.77699  -0.45879
  30   33622.4    297.4   0.000911334   0.00892   0.07170   0.03267   0.05211
  31   33970.1    294.4   0.007974452   0.07728   0.25420  -0.11138   0.01619
  32   34224.1    292.2   0.009588517   0.09223   0.03028   0.27583   0.12344
  33   34351.1    291.1   0.027351545   0.26213  -0.42078  -0.08773  -0.27817
  34   34815.8    287.2   0.039179535   0.37048   0.17165   0.31368  -0.49256
  35   34900.1    286.5   0.003310641   0.03123  -0.12162  -0.05650  -0.11509
  36   35064.7    285.2   0.211251848   1.98338  -1.09640  -0.85695   0.21665
  37   35219.0    283.9   0.111548399   1.04271  -0.82161  -0.60423  -0.05062
  38   35408.7    282.4   0.107475244   0.99925   0.52366   0.85144  -0.00849
  39   35467.9    281.9   0.028399472   0.26360  -0.45557  -0.16253   0.17218
  40   35645.9    280.5   0.153502371   1.41769   0.93399   0.64153  -0.36579
  41   35696.7    280.1   0.083999304   0.77468  -0.70421  -0.44702   0.28098
  42   36366.4    275.0   0.314273997   2.84501   1.45563   0.71864  -0.45794
  43   36549.2    273.6   0.092771434   0.83563  -0.82883   0.32356   0.20972
  44   36821.1    271.6   0.009012339   0.08058  -0.27361  -0.07073   0.02667
  45   37168.6    269.0   0.022203264   0.19666  -0.19093  -0.37140  -0.14923
  46   37492.0    266.7   0.075467740   0.66267   0.72162   0.36179   0.10511
  47   37631.7    265.7   0.018296066   0.16006  -0.30881  -0.05743  -0.24778
  48   38026.0    263.0   0.007983204   0.06911  -0.11419  -0.10534   0.21208
  49   38070.3    262.7   0.018955474   0.16392  -0.01218   0.40130  -0.05225
  50   38393.6    260.5   0.099952802   0.85706  -0.51975   0.75861  -0.10689
  51   38533.3    259.5   0.012107571   0.10344   0.05992  -0.28554  -0.13535
  52   38878.2    257.2   0.006609963   0.05597  -0.01815  -0.13500   0.19343
  53   39130.2    255.6   0.042575343   0.35820  -0.12652   0.48987  -0.31971
  54   39206.5    255.1   0.048593550   0.40803   0.08468   0.53399  -0.34017
  55   39406.0    253.8   0.006040719   0.05047   0.15998  -0.15276   0.03918
  56   39499.7    253.2   0.009465147   0.07889  -0.22380   0.12855   0.11081
  57   39650.5    252.2   0.006780209   0.05629   0.15552   0.14375   0.10698
  58   39994.5    250.0   0.019609877   0.16142  -0.05625   0.37202  -0.14091
  59   40307.6    248.1   0.017446772   0.14250   0.36109  -0.03452   0.10448

FINAL SINGLE POINT ENERGY     -4312.294977430906

DIPOLE MOMENT
-------------
                                X             Y             Z
Electronic contribution:     79.48466      -5.92469       7.89942
Nuclear contribution   :    -83.15830       7.76810      -9.51468
                        -----------------------------------------
Total Dipole Moment    :     -3.67364       1.84341      -1.61526
                        -----------------------------------------
Magnitude (a.u.)       :      4.41621
Magnitude (Debye)      :     11.22510

Rotational constants in cm-1:     0.001047     0.000682     0.000437
Rotational constants in MHz :    31.388614    20.439755    13.112103

                             ****ORCA TERMINATED NORMALLY****
TOTAL RUN TIME: 0 days 0 hours 10 minutes 48 seconds 709 msec
