                         Program Version 4.2.0 -  RELEASE  -
|  1> # ORCA input file
|  2> # SCF done       -169.332508865499          0.000580248405
|  3> ! CAM-B3LYP def2-SVP def2/J RIJCOSX Grid4 TightSCF
|  4> %maxcore 5000
|  5> %tddft
|  6>     Mode sTDDFT
|  7>     Ethresh 5.0
|  8>     maxcore 5000
|  9> end
| 10>
| 11> %pal
| 12>   nprocs 6
| 13>   end
| 14> * xyz 0 1
| 15>    C        4.37336         2.41947        -8.46842
| 16>    C        3.45021         3.24834        -9.28704
| 17>    O        3.35360         4.45724        -9.24774
| 18>    C        2.67578         2.28770       -10.09585
| 19>    C        3.16550         1.00081        -9.87568
| 20>    C        4.31498         1.07231        -8.97411
| 21>    C        5.28074         0.10296        -8.84411
| 22>    C        6.51727         0.30960        -8.20497
| 23>    N        7.56144         0.44008        -7.74398
| 24>    C        5.20571        -1.17813        -9.42492
| 25>    N        5.19623        -2.24119        -9.85893
| 26>    C        2.57524        -0.10415       -10.50115
| 27>    C        1.51436         0.10578       -11.34379
| 28>    C        1.00959         1.39768       -11.60661
| 29>    C        1.59727         2.52842       -10.96791
| 30>    C        1.08904         3.81691       -11.23190
| 31>    C        0.04288         3.97880       -12.09719
| 32>    C       -0.53959         2.86844       -12.72983
| 33>    C       -0.06916         1.60690       -12.49000
| 34>    C        5.05981         3.00492        -7.43920
| 35>    C        5.71083         2.41745        -6.34287
| 36>    S        7.01081         3.28549        -5.58222
| 37>    C        7.37733         1.99697        -4.49460
| 38>    C        6.45597         0.94295        -4.65569
| 39>    C        5.50428         1.18730        -5.69025
| 40>    C        4.45695         0.27364        -5.90328
| 41>    C        4.41646        -0.87252        -5.15912
| 42>    F        3.41864        -1.75036        -5.34569
| 43>    C        5.39664        -1.14488        -4.18246
| 44>    F        5.31970        -2.28828        -3.48173
| 45>    C        6.39470        -0.24985        -3.91620
| 46>    C        8.48431         2.04475        -3.61936
| 47>    C        9.30355         3.11798        -3.48231
| 48>    C       10.44287         3.13214        -2.63065
| 49>    C       11.26046         4.19026        -2.45311
| 50>    C       11.02641         5.52625        -3.08714
| 51>    C       12.40487         4.10586        -1.47714
| 52>    N       11.94986         4.61969        -0.19966
| 53>    C       11.62923         3.84680         0.85607
| 54>    C       10.76148         4.26015         1.82107
| 55>    C       10.43817         3.57647         3.00198
| 56>    C        9.42776         4.01599         3.82648
| 57>    C        8.94371         3.48256         5.04203
| 58>    C        7.86449         4.14579         5.55751
| 59>    C        7.43393         5.22755         4.76330
| 60>    S        8.46736         5.41648         3.37374
| 61>    C        6.34314         6.07701         4.87019
| 62>    C        5.32312         6.19281         5.83135
| 63>    C        4.37964         7.12999         5.51634
| 64>    C        4.59945         7.79054         4.28035
| 65>    S        6.07785         7.20423         3.55965
| 66>    C        3.79093         8.73895         3.70089
| 67>    C        3.95170         9.33817         2.43592
| 68>    S        2.81998        10.59261         1.93774
| 69>    C        3.53542        10.82104         0.38867
| 70>    C        4.60708         9.97578         0.23640
| 71>    C        4.83869         9.15108         1.38514
| 72>    O        5.89361         8.33499         1.16759
| 73>    C        6.33624         8.62198        -0.08320
| 74>    N        7.44832         7.91100        -0.56519
| 75>    O        7.80602         8.15432        -1.70924
| 76>    O        7.99527         7.10511         0.16554
| 77>    C        5.60396         9.60304        -0.70445
| 78>    H        2.93635        -1.10258       -10.31563
| 79>    H        1.04253        -0.73631       -11.82929
| 80>    H        1.54481         4.66134       -10.73945
| 81>    H       -0.34448         4.96598       -12.30114
| 82>    H       -1.36513         3.01961       -13.40971
| 83>    H       -0.51532         0.75116       -12.97605
| 84>    H        5.07763         4.09079        -7.47524
| 85>    H        3.67165         0.47434        -6.61305
| 86>    H        7.10797        -0.46724        -3.13860
| 87>    H        8.67686         1.15387        -3.03750
| 88>    H        9.08648         4.00900        -4.05422
| 89>    H       10.66137         2.20949        -2.10731
| 90>    H       10.08629         5.96233        -2.74874
| 91>    H       10.96997         5.43246        -4.17037
| 92>    H       11.83034         6.21777        -2.84773
| 93>    H       13.25154         4.71057        -1.82070
| 94>    H       12.74000         3.07631        -1.33959
| 95>    H       11.44459         5.49566        -0.25973
| 96>    H       12.13241         2.89103         0.91471
| 97>    H       10.24687         5.19855         1.65294
| 98>    H       10.97409         2.67500         3.26558
| 99>    H        9.39904         2.62128         5.49962
|100>    H        7.36231         3.87361         6.46909
|101>    H        5.30369         5.58808         6.72099
|102>    H        3.52126         7.35547         6.12451
|103>    H        2.92569         9.06136         4.26387
|104>    H        3.12974        11.53879        -0.29189
|105>    H        5.77037         9.98600        -1.68967
|106> *
|107>
|108>                          ****END OF INPUT****

CARTESIAN COORDINATES (ANGSTROEM)
---------------------------------
  C      4.373360    2.419470   -8.468420
  C      3.450210    3.248340   -9.287040
  O      3.353600    4.457240   -9.247740
  C      2.675780    2.287700  -10.095850
  C      3.165500    1.000810   -9.875680
  C      4.314980    1.072310   -8.974110
  C      5.280740    0.102960   -8.844110
  C      6.517270    0.309600   -8.204970
  N      7.561440    0.440080   -7.743980
  C      5.205710   -1.178130   -9.424920
  N      5.196230   -2.241190   -9.858930
  C      2.575240   -0.104150  -10.501150
  C      1.514360    0.105780  -11.343790
  C      1.009590    1.397680  -11.606610
  C      1.597270    2.528420  -10.967910
  C      1.089040    3.816910  -11.231900
  C      0.042880    3.978800  -12.097190
  C     -0.539590    2.868440  -12.729830
  C     -0.069160    1.606900  -12.490000
  C      5.059810    3.004920   -7.439200
  C      5.710830    2.417450   -6.342870
  S      7.010810    3.285490   -5.582220
  C      7.377330    1.996970   -4.494600
  C      6.455970    0.942950   -4.655690
  C      5.504280    1.187300   -5.690250
  C      4.456950    0.273640   -5.903280
  C      4.416460   -0.872520   -5.159120
  F      3.418640   -1.750360   -5.345690
  C      5.396640   -1.144880   -4.182460
  F      5.319700   -2.288280   -3.481730
  C      6.394700   -0.249850   -3.916200
  C      8.484310    2.044750   -3.619360
  C      9.303550    3.117980   -3.482310
  C     10.442870    3.132140   -2.630650
  C     11.260460    4.190260   -2.453110
  C     11.026410    5.526250   -3.087140
  C     12.404870    4.105860   -1.477140
  N     11.949860    4.619690   -0.199660
  C     11.629230    3.846800    0.856070
  C     10.761480    4.260150    1.821070
  C     10.438170    3.576470    3.001980
  C      9.427760    4.015990    3.826480
  C      8.943710    3.482560    5.042030
  C      7.864490    4.145790    5.557510
  C      7.433930    5.227550    4.763300
  S      8.467360    5.416480    3.373740
  C      6.343140    6.077010    4.870190
  C      5.323120    6.192810    5.831350
  C      4.379640    7.129990    5.516340
  C      4.599450    7.790540    4.280350
  S      6.077850    7.204230    3.559650
  C      3.790930    8.738950    3.700890
  C      3.951700    9.338170    2.435920
  S      2.819980   10.592610    1.937740
  C      3.535420   10.821040    0.388670
  C      4.607080    9.975780    0.236400
  C      4.838690    9.151080    1.385140
  O      5.893610    8.334990    1.167590
  C      6.336240    8.621980   -0.083200
  N      7.448320    7.911000   -0.565190
  O      7.806020    8.154320   -1.709240
  O      7.995270    7.105110    0.165540
  C      5.603960    9.603040   -0.704450
  H      2.936350   -1.102580  -10.315630
  H      1.042530   -0.736310  -11.829290
  H      1.544810    4.661340  -10.739450
  H     -0.344480    4.965980  -12.301140
  H     -1.365130    3.019610  -13.409710
  H     -0.515320    0.751160  -12.976050
  H      5.077630    4.090790   -7.475240
  H      3.671650    0.474340   -6.613050
  H      7.107970   -0.467240   -3.138600
  H      8.676860    1.153870   -3.037500
  H      9.086480    4.009000   -4.054220
  H     10.661370    2.209490   -2.107310
  H     10.086290    5.962330   -2.748740
  H     10.969970    5.432460   -4.170370
  H     11.830340    6.217770   -2.847730
  H     13.251540    4.710570   -1.820700
  H     12.740000    3.076310   -1.339590
  H     11.444590    5.495660   -0.259730
  H     12.132410    2.891030    0.914710
  H     10.246870    5.198550    1.652940
  H     10.974090    2.675000    3.265580
  H      9.399040    2.621280    5.499620
  H      7.362310    3.873610    6.469090
  H      5.303690    5.588080    6.720990
  H      3.521260    7.355470    6.124510
  H      2.925690    9.061360    4.263870
  H      3.129740   11.538790   -0.291890
  H      5.770370    9.986000   -1.689670

 Total Charge           Charge          ....    0
 Multiplicity           Mult            ....    1
 Number of Electrons    NEL             ....  464
 Basis Dimension        Dim             .... 1038

ORBITAL ENERGIES
----------------

  NO   OCC          E(Eh)            E(eV)
   0   2.0000     -88.976261     -2421.1672
   1   2.0000     -88.961682     -2420.7704
   2   2.0000     -88.924103     -2419.7479
   3   2.0000     -88.920133     -2419.6398
   4   2.0000     -24.791633      -674.6146
   5   2.0000     -24.788086      -674.5181
   6   2.0000     -19.297537      -525.1127
   7   2.0000     -19.245417      -523.6944
   8   2.0000     -19.242814      -523.6236
   9   2.0000     -19.209360      -522.7133
  10   2.0000     -14.655126      -398.7862
  11   2.0000     -14.439962      -392.9313
  12   2.0000     -14.406016      -392.0076
  13   2.0000     -14.405898      -392.0044
  14   2.0000     -10.382019      -282.5091
  15   2.0000     -10.376137      -282.3490
  16   2.0000     -10.371059      -282.2109
  17   2.0000     -10.359393      -281.8934
  18   2.0000     -10.334629      -281.2196
  19   2.0000     -10.333761      -281.1959
  20   2.0000     -10.331101      -281.1235
  21   2.0000     -10.327557      -281.0271
  22   2.0000     -10.319956      -280.8203
  23   2.0000     -10.319126      -280.7977
  24   2.0000     -10.313022      -280.6316
  25   2.0000     -10.312013      -280.6041
  26   2.0000     -10.309320      -280.5308
  27   2.0000     -10.308756      -280.5155
  28   2.0000     -10.308221      -280.5010
  29   2.0000     -10.306878      -280.4644
  30   2.0000     -10.303275      -280.3664
  31   2.0000     -10.300657      -280.2951
  32   2.0000     -10.299632      -280.2672
  33   2.0000     -10.297337      -280.2048
  34   2.0000     -10.297335      -280.2047
  35   2.0000     -10.296500      -280.1820
  36   2.0000     -10.294471      -280.1268
  37   2.0000     -10.294247      -280.1207
  38   2.0000     -10.293950      -280.1126
  39   2.0000     -10.293278      -280.0943
  40   2.0000     -10.292198      -280.0649
  41   2.0000     -10.289435      -279.9898
  42   2.0000     -10.288829      -279.9733
  43   2.0000     -10.288137      -279.9544
  44   2.0000     -10.287796      -279.9451
  45   2.0000     -10.286419      -279.9077
  46   2.0000     -10.286181      -279.9012
  47   2.0000     -10.283667      -279.8328
  48   2.0000     -10.283273      -279.8221
  49   2.0000     -10.282064      -279.7892
  50   2.0000     -10.278402      -279.6895
  51   2.0000     -10.277490      -279.6647
  52   2.0000     -10.277468      -279.6641
  53   2.0000     -10.276954      -279.6501
  54   2.0000     -10.275247      -279.6037
  55   2.0000     -10.275148      -279.6010
  56   2.0000     -10.274918      -279.5947
  57   2.0000     -10.272870      -279.5390
  58   2.0000     -10.270870      -279.4846
  59   2.0000     -10.269912      -279.4585
  60   2.0000     -10.267647      -279.3969
  61   2.0000     -10.264153      -279.3018
  62   2.0000     -10.254512      -279.0395
  63   2.0000      -8.071560      -219.6383
  64   2.0000      -8.056673      -219.2332
  65   2.0000      -8.020610      -218.2519
  66   2.0000      -8.016782      -218.1477
  67   2.0000      -6.040481      -164.3699
  68   2.0000      -6.036518      -164.2620
  69   2.0000      -6.034244      -164.2001
  70   2.0000      -6.026051      -163.9772
  71   2.0000      -6.021741      -163.8599
  72   2.0000      -6.018917      -163.7831
  73   2.0000      -5.990334      -163.0053
  74   2.0000      -5.986514      -162.9013
  75   2.0000      -5.986204      -162.8929
  76   2.0000      -5.982337      -162.7877
  77   2.0000      -5.981546      -162.7661
  78   2.0000      -5.977546      -162.6573
  79   2.0000      -1.324103       -36.0307
  80   2.0000      -1.312003       -35.7014
  81   2.0000      -1.296720       -35.2855
  82   2.0000      -1.220332       -33.2069
  83   2.0000      -1.138232       -30.9729
  84   2.0000      -1.123445       -30.5705
  85   2.0000      -1.043281       -28.3891
  86   2.0000      -1.016476       -27.6597
  87   2.0000      -1.006689       -27.3934
  88   2.0000      -0.990790       -26.9608
  89   2.0000      -0.984182       -26.7810
  90   2.0000      -0.983709       -26.7681
  91   2.0000      -0.977656       -26.6034
  92   2.0000      -0.961213       -26.1559
  93   2.0000      -0.955592       -26.0030
  94   2.0000      -0.951881       -25.9020
  95   2.0000      -0.932549       -25.3759
  96   2.0000      -0.930752       -25.3271
  97   2.0000      -0.918060       -24.9817
  98   2.0000      -0.907321       -24.6895
  99   2.0000      -0.893664       -24.3178
 100   2.0000      -0.891546       -24.2602
 101   2.0000      -0.886318       -24.1179
 102   2.0000      -0.874004       -23.7829
 103   2.0000      -0.866026       -23.5658
 104   2.0000      -0.861883       -23.4530
 105   2.0000      -0.848724       -23.0949
 106   2.0000      -0.841875       -22.9086
 107   2.0000      -0.839153       -22.8345
 108   2.0000      -0.833026       -22.6678
 109   2.0000      -0.826070       -22.4785
 110   2.0000      -0.812161       -22.1000
 111   2.0000      -0.807588       -21.9756
 112   2.0000      -0.799655       -21.7597
 113   2.0000      -0.788157       -21.4468
 114   2.0000      -0.784433       -21.3455
 115   2.0000      -0.775075       -21.0909
 116   2.0000      -0.765458       -20.8292
 117   2.0000      -0.754480       -20.5304
 118   2.0000      -0.744269       -20.2526
 119   2.0000      -0.741680       -20.1821
 120   2.0000      -0.720048       -19.5935
 121   2.0000      -0.711148       -19.3513
 122   2.0000      -0.706967       -19.2375
 123   2.0000      -0.702348       -19.1118
 124   2.0000      -0.699584       -19.0367
 125   2.0000      -0.694357       -18.8944
 126   2.0000      -0.692013       -18.8306
 127   2.0000      -0.669946       -18.2302
 128   2.0000      -0.667403       -18.1610
 129   2.0000      -0.664479       -18.0814
 130   2.0000      -0.658051       -17.9065
 131   2.0000      -0.655522       -17.8377
 132   2.0000      -0.644599       -17.5404
 133   2.0000      -0.638332       -17.3699
 134   2.0000      -0.636688       -17.3251
 135   2.0000      -0.631101       -17.1731
 136   2.0000      -0.623794       -16.9743
 137   2.0000      -0.620302       -16.8793
 138   2.0000      -0.619174       -16.8486
 139   2.0000      -0.616659       -16.7801
 140   2.0000      -0.613547       -16.6955
 141   2.0000      -0.610576       -16.6146
 142   2.0000      -0.604425       -16.4472
 143   2.0000      -0.597556       -16.2603
 144   2.0000      -0.595854       -16.2140
 145   2.0000      -0.587381       -15.9834
 146   2.0000      -0.585873       -15.9424
 147   2.0000      -0.580902       -15.8072
 148   2.0000      -0.580435       -15.7944
 149   2.0000      -0.577290       -15.7089
 150   2.0000      -0.572216       -15.5708
 151   2.0000      -0.567464       -15.4415
 152   2.0000      -0.564871       -15.3709
 153   2.0000      -0.560962       -15.2645
 154   2.0000      -0.556971       -15.1559
 155   2.0000      -0.556515       -15.1435
 156   2.0000      -0.550476       -14.9792
 157   2.0000      -0.544986       -14.8298
 158   2.0000      -0.540633       -14.7114
 159   2.0000      -0.538572       -14.6553
 160   2.0000      -0.535178       -14.5629
 161   2.0000      -0.528295       -14.3756
 162   2.0000      -0.526156       -14.3174
 163   2.0000      -0.521131       -14.1807
 164   2.0000      -0.518863       -14.1190
 165   2.0000      -0.516709       -14.0604
 166   2.0000      -0.514497       -14.0002
 167   2.0000      -0.511329       -13.9140
 168   2.0000      -0.508136       -13.8271
 169   2.0000      -0.505934       -13.7672
 170   2.0000      -0.503456       -13.6997
 171   2.0000      -0.501267       -13.6402
 172   2.0000      -0.500010       -13.6060
 173   2.0000      -0.498826       -13.5737
 174   2.0000      -0.493195       -13.4205
 175   2.0000      -0.487373       -13.2621
 176   2.0000      -0.485814       -13.2197
 177   2.0000      -0.484059       -13.1719
 178   2.0000      -0.480438       -13.0734
 179   2.0000      -0.475238       -12.9319
 180   2.0000      -0.473917       -12.8959
 181   2.0000      -0.473041       -12.8721
 182   2.0000      -0.469617       -12.7789
 183   2.0000      -0.466268       -12.6878
 184   2.0000      -0.465014       -12.6537
 185   2.0000      -0.461663       -12.5625
 186   2.0000      -0.460806       -12.5392
 187   2.0000      -0.459028       -12.4908
 188   2.0000      -0.456616       -12.4251
 189   2.0000      -0.451496       -12.2858
 190   2.0000      -0.446401       -12.1472
 191   2.0000      -0.443938       -12.0802
 192   2.0000      -0.443277       -12.0622
 193   2.0000      -0.437581       -11.9072
 194   2.0000      -0.436279       -11.8717
 195   2.0000      -0.435443       -11.8490
 196   2.0000      -0.434063       -11.8115
 197   2.0000      -0.431373       -11.7383
 198   2.0000      -0.426684       -11.6107
 199   2.0000      -0.425458       -11.5773
 200   2.0000      -0.423904       -11.5350
 201   2.0000      -0.422938       -11.5087
 202   2.0000      -0.421363       -11.4659
 203   2.0000      -0.419694       -11.4205
 204   2.0000      -0.414432       -11.2773
 205   2.0000      -0.413129       -11.2418
 206   2.0000      -0.409242       -11.1360
 207   2.0000      -0.403791       -10.9877
 208   2.0000      -0.398106       -10.8330
 209   2.0000      -0.397251       -10.8098
 210   2.0000      -0.393666       -10.7122
 211   2.0000      -0.388247       -10.5647
 212   2.0000      -0.380929       -10.3656
 213   2.0000      -0.375730       -10.2241
 214   2.0000      -0.371813       -10.1175
 215   2.0000      -0.369995       -10.0681
 216   2.0000      -0.367593       -10.0027
 217   2.0000      -0.362042        -9.8517
 218   2.0000      -0.340986        -9.2787
 219   2.0000      -0.335422        -9.1273
 220   2.0000      -0.326605        -8.8874
 221   2.0000      -0.322386        -8.7726
 222   2.0000      -0.318397        -8.6640
 223   2.0000      -0.315488        -8.5849
 224   2.0000      -0.311290        -8.4706
 225   2.0000      -0.304724        -8.2920
 226   2.0000      -0.302562        -8.2331
 227   2.0000      -0.292903        -7.9703
 228   2.0000      -0.286494        -7.7959
 229   2.0000      -0.252558        -6.8724
 230   2.0000      -0.243278        -6.6199
 231   2.0000      -0.187539        -5.1032
 232   0.0000      -0.094176        -2.5627
 233   0.0000      -0.068362        -1.8602
 234   0.0000      -0.066737        -1.8160
 235   0.0000      -0.053999        -1.4694
 236   0.0000      -0.033534        -0.9125

MULLIKEN ATOMIC CHARGES
-----------------------
   0 C :   -0.140176
   1 C :    0.114063
   2 O :   -0.158651
   3 C :    0.016056
   4 C :   -0.008956
   5 C :    0.241228
   6 C :   -0.341327
   7 C :   -0.187779
   8 N :    0.160629
   9 C :   -0.185523
  10 N :    0.155878
  11 C :   -0.023788
  12 C :    0.004030
  13 C :    0.077624
  14 C :    0.031003
  15 C :   -0.025054
  16 C :    0.036818
  17 C :    0.034362
  18 C :   -0.018179
  19 C :    0.058754
  20 C :   -0.155297
  21 S :    0.179237
  22 C :   -0.052988
  23 C :    0.135066
  24 C :    0.118430
  25 C :   -0.089643
  26 C :    0.222678
  27 F :   -0.170931
  28 C :    0.237596
  29 F :   -0.177533
  30 C :   -0.113779
  31 C :   -0.002971
  32 C :    0.019062
  33 C :    0.027168
  34 C :   -0.223325
  35 C :    0.072673
  36 C :    0.216442
  37 N :   -0.141841
  38 C :    0.057250
  39 C :   -0.042336
  40 C :    0.015230
  41 C :   -0.046512
  42 C :    0.043514
  43 C :    0.014086
  44 C :   -0.032993
  45 S :    0.055963
  46 C :   -0.047996
  47 C :    0.039996
  48 C :    0.016690
  49 C :   -0.023050
  50 S :    0.062914
  51 C :    0.034597
  52 C :   -0.221559
  53 S :    0.134061
  54 C :   -0.151463
  55 C :    0.133654
  56 C :    0.183173
  57 O :   -0.192504
  58 C :    0.244781
  59 N :    0.279033
  60 O :   -0.264192
  61 O :   -0.239079
  62 C :   -0.082841
  63 H :   -0.001106
  64 H :   -0.015241
  65 H :   -0.001751
  66 H :   -0.009929
  67 H :   -0.008158
  68 H :   -0.023227
  69 H :    0.020443
  70 H :    0.001748
  71 H :   -0.008495
  72 H :   -0.009271
  73 H :    0.001749
  74 H :   -0.026849
  75 H :    0.055645
  76 H :    0.044987
  77 H :    0.012477
  78 H :    0.015624
  79 H :    0.015652
  80 H :    0.128066
  81 H :   -0.001780
  82 H :    0.009952
  83 H :   -0.023074
  84 H :   -0.019605
  85 H :   -0.022331
  86 H :   -0.020425
  87 H :   -0.023963
  88 H :   -0.033672
  89 H :    0.023929
  90 H :    0.007128
Sum of atomic charges:   -0.0000000

LOEWDIN ATOMIC CHARGES
----------------------
   0 C :   -0.107531
   1 C :    0.086549
   2 O :   -0.149661
   3 C :   -0.035675
   4 C :   -0.005202
   5 C :    0.056976
   6 C :   -0.141770
   7 C :   -0.013847
   8 N :   -0.057040
   9 C :   -0.021377
  10 N :   -0.056188
  11 C :   -0.018509
  12 C :    0.016344
  13 C :   -0.010956
  14 C :   -0.003152
  15 C :   -0.003263
  16 C :   -0.014611
  17 C :   -0.015788
  18 C :   -0.013012
  19 C :    0.033551
  20 C :   -0.194211
  21 S :    0.505459
  22 C :   -0.132630
  23 C :   -0.042707
  24 C :   -0.025311
  25 C :   -0.041464
  26 C :    0.077698
  27 F :   -0.049266
  28 C :    0.059687
  29 F :   -0.055818
  30 C :   -0.025315
  31 C :   -0.045369
  32 C :    0.003739
  33 C :   -0.046977
  34 C :   -0.023334
  35 C :   -0.057456
  36 C :    0.048080
  37 N :    0.007016
  38 C :    0.049577
  39 C :   -0.122972
  40 C :   -0.025606
  41 C :   -0.178222
  42 C :   -0.024357
  43 C :   -0.055480
  44 C :   -0.162301
  45 S :    0.382131
  46 C :   -0.208993
  47 C :   -0.026481
  48 C :   -0.057660
  49 C :   -0.135906
  50 S :    0.392870
  51 C :   -0.118573
  52 C :   -0.188660
  53 S :    0.462642
  54 C :   -0.206661
  55 C :   -0.081455
  56 C :   -0.000356
  57 O :   -0.002581
  58 C :    0.019791
  59 N :    0.277635
  60 O :   -0.228002
  61 O :   -0.203227
  62 C :   -0.007064
  63 H :    0.039301
  64 H :    0.034557
  65 H :    0.034698
  66 H :    0.031309
  67 H :    0.030994
  68 H :    0.029560
  69 H :    0.044297
  70 H :    0.043900
  71 H :    0.041816
  72 H :    0.034571
  73 H :    0.023757
  74 H :    0.026357
  75 H :    0.045347
  76 H :    0.043881
  77 H :    0.029486
  78 H :    0.024712
  79 H :    0.031018
  80 H :    0.083922
  81 H :    0.025591
  82 H :    0.020291
  83 H :    0.029270
  84 H :    0.030222
  85 H :    0.028372
  86 H :    0.029665
  87 H :    0.027605
  88 H :    0.028291
  89 H :    0.024917
  90 H :    0.044542

  Mayer bond orders larger than 0.100000
B(  0-C ,  1-C ) :   0.9697 B(  0-C ,  5-C ) :   1.0679 B(  0-C , 19-C ) :   1.5925
B(  1-C ,  2-O ) :   2.1858 B(  1-C ,  3-C ) :   0.9377 B(  3-C ,  4-C ) :   1.4251
B(  3-C , 14-C ) :   1.2371 B(  4-C ,  5-C ) :   0.9942 B(  4-C , 11-C ) :   1.2630
B(  5-C ,  6-C ) :   1.6196 B(  6-C ,  7-C ) :   1.1669 B(  6-C ,  9-C ) :   1.1374
B(  7-C ,  8-N ) :   3.0080 B(  9-C , 10-N ) :   2.9915 B( 11-C , 12-C ) :   1.4629
B( 11-C , 63-H ) :   0.9875 B( 12-C , 13-C ) :   1.2282 B( 12-C , 64-H ) :   0.9939
B( 13-C , 14-C ) :   1.2397 B( 13-C , 18-C ) :   1.2361 B( 14-C , 15-C ) :   1.2735
B( 15-C , 16-C ) :   1.4779 B( 15-C , 65-H ) :   0.9865 B( 16-C , 17-C ) :   1.2506
B( 16-C , 66-H ) :   0.9881 B( 17-C , 18-C ) :   1.4987 B( 17-C , 67-H ) :   0.9898
B( 18-C , 68-H ) :   0.9975 B( 19-C , 20-C ) :   1.1928 B( 19-C , 69-H ) :   0.9269
B( 20-C , 21-S ) :   1.1165 B( 20-C , 24-C ) :   1.3072 B( 21-S , 22-C ) :   1.1888
B( 22-C , 23-C ) :   1.2972 B( 22-C , 31-C ) :   1.1615 B( 23-C , 24-C ) :   1.2334
B( 23-C , 30-C ) :   1.1767 B( 24-C , 25-C ) :   1.1970 B( 25-C , 26-C ) :   1.4722
B( 25-C , 30-C ) :   0.1085 B( 25-C , 70-H ) :   0.9883 B( 26-C , 27-F ) :   1.1399
B( 26-C , 28-C ) :   1.1730 B( 28-C , 29-F ) :   1.1278 B( 28-C , 30-C ) :   1.4843
B( 30-C , 71-H ) :   0.9983 B( 31-C , 32-C ) :   1.6444 B( 31-C , 72-H ) :   0.9758
B( 32-C , 33-C ) :   1.1344 B( 32-C , 73-H ) :   0.9676 B( 33-C , 34-C ) :   1.7391
B( 33-C , 74-H ) :   0.9791 B( 34-C , 35-C ) :   1.0708 B( 34-C , 36-C ) :   1.0483
B( 35-C , 75-H ) :   0.9440 B( 35-C , 76-H ) :   0.9410 B( 35-C , 77-H ) :   0.9530
B( 36-C , 37-N ) :   1.0134 B( 36-C , 78-H ) :   0.9291 B( 36-C , 79-H ) :   0.9408
B( 37-N , 38-C ) :   1.2417 B( 37-N , 80-H ) :   0.9346 B( 38-C , 39-C ) :   1.5748
B( 38-C , 81-H ) :   0.9701 B( 39-C , 40-C ) :   1.1893 B( 39-C , 82-H ) :   0.9565
B( 40-C , 41-C ) :   1.5610 B( 40-C , 83-H ) :   0.9830 B( 41-C , 42-C ) :   1.1612
B( 41-C , 45-S ) :   1.0172 B( 42-C , 43-C ) :   1.5680 B( 42-C , 84-H ) :   0.9971
B( 43-C , 44-C ) :   1.2054 B( 43-C , 85-H ) :   0.9956 B( 44-C , 45-S ) :   1.0744
B( 44-C , 46-C ) :   1.4634 B( 46-C , 47-C ) :   1.2137 B( 46-C , 50-S ) :   1.0260
B( 47-C , 48-C ) :   1.5678 B( 47-C , 86-H ) :   0.9936 B( 48-C , 49-C ) :   1.1558
B( 48-C , 87-H ) :   0.9985 B( 49-C , 50-S ) :   1.0648 B( 49-C , 51-C ) :   1.5706
B( 51-C , 52-C ) :   1.1608 B( 51-C , 88-H ) :   0.9448 B( 52-C , 53-S ) :   1.1359
B( 52-C , 54-C ) :   0.1066 B( 52-C , 56-C ) :   1.4178 B( 53-S , 54-C ) :   1.1639
B( 54-C , 55-C ) :   1.4291 B( 54-C , 89-H ) :   0.9781 B( 55-C , 56-C ) :   1.2294
B( 55-C , 62-C ) :   1.0753 B( 56-C , 57-O ) :   1.0757 B( 57-O , 58-C ) :   1.1284
B( 58-C , 59-N ) :   0.9288 B( 58-C , 62-C ) :   1.5527 B( 59-N , 60-O ) :   1.5125
B( 59-N , 61-O ) :   1.5001 B( 60-O , 61-O ) :   0.2691 B( 62-C , 90-H ) :   1.0249

-----------------------------------------------------------------------------
         ABSORPTION SPECTRUM VIA TRANSITION ELECTRIC DIPOLE MOMENTS
-----------------------------------------------------------------------------
State   Energy  Wavelength   fosc         T2         TX        TY        TZ
        (cm-1)    (nm)                  (au**2)     (au)      (au)      (au)
-----------------------------------------------------------------------------
   0    9476.1   1055.3   0.095719251   3.32542  -0.79599   1.53586   0.57702
   1    9905.0   1009.6   0.079407780   2.63927  -0.52817  -0.07665  -1.53442
   2   14781.4    676.5   0.634733837  14.13680   2.50160  -2.59874  -1.06083
   3   16614.4    601.9   0.876964410  17.37694  -2.86181  -0.01943  -3.03094
   4   18317.2    545.9   0.055131057   0.99086  -0.74980   0.19341  -0.62550
   5   21783.9    459.1   0.218874788   3.30777  -1.31621   0.03130  -1.25474
   6   22750.2    439.6   0.014745019   0.21337   0.27533   0.34104  -0.14581
   7   23051.4    433.8   0.011843197   0.16914   0.21085  -0.21973   0.27641
   8   24009.0    416.5   0.012782674   0.17528   0.15563  -0.04618   0.38591
   9   25045.1    399.3   0.002215338   0.02912  -0.12799   0.07734  -0.08220
  10   26002.7    384.6   0.130236876   1.64889   0.89941  -0.65702   0.63896
  11   26673.1    374.9   0.008544464   0.10546  -0.07537   0.06463   0.30920
  12   28216.2    354.4   0.484821440   5.65665   0.41344   0.39811  -2.30808
  13   28494.9    350.9   0.065987291   0.76238  -0.38272   0.07416   0.78128
  14   28918.5    345.8   0.060349489   0.68703   0.19812  -0.05403  -0.80303
  15   29288.5    341.4   0.087235517   0.98055   0.46725   0.07982  -0.86940
  16   29544.1    338.5   0.039951066   0.44518   0.56084  -0.10400   0.34615
  17   30066.2    332.6   0.285987117   3.13144   1.34069   0.73003  -0.89501
  18   30305.0    330.0   0.149064903   1.61933   0.92151   0.37958  -0.79125
  19   30921.1    323.4   0.166570127   1.77345   0.39248  -1.23029   0.32527
  20   30958.0    323.0   0.074575885   0.79305   0.64456  -0.61309   0.04143
  21   31302.0    319.5   0.032606670   0.34293   0.30929  -0.29066  -0.40348
  22   31525.1    317.2   0.041207725   0.43033  -0.64717   0.10722   0.00163
  23   31774.1    314.7   0.007375070   0.07641  -0.18463   0.02210   0.20454
  24   31980.0    312.7   0.015904437   0.16373  -0.14643   0.32256  -0.19555
  25   32661.4    306.2   0.104193721   1.05023   0.07320  -0.60248   0.82576
  26   32837.6    304.5   0.036179384   0.36272  -0.24103  -0.14777   0.53177
  27   33149.7    301.7   0.464343658   4.61143  -1.59009   0.82188  -1.18640
  28   33781.1    296.0   0.007717265   0.07521   0.11106  -0.20143  -0.14933
  29   34507.6    289.8   0.002645375   0.02524  -0.03961   0.14940  -0.03673
  30   34554.6    289.4   0.035678482   0.33992  -0.12207   0.00196  -0.57010
  31   34874.5    286.7   0.359267209   3.39145  -1.04981   1.21195   0.90584
  32   35041.3    285.4   0.024245683   0.22779   0.46877   0.03242  -0.08364
  33   35197.1    284.1   0.041015204   0.38363  -0.24554   0.54533   0.16112
  34   35351.6    282.9   0.348476048   3.24519   1.48924   1.00742   0.11160
  35   35817.8    279.2   0.206581184   1.89875   1.18276  -0.68135  -0.18867
  36   35874.2    278.8   0.011139886   0.10223  -0.22700  -0.08816   0.20719
  37   37050.9    269.9   0.208838719   1.85561   1.22324  -0.22001   0.55758
  38   37219.6    268.7   0.009450393   0.08359  -0.16665  -0.19366  -0.13533
  39   37256.3    268.4   0.019812829   0.17507   0.30038  -0.27761  -0.08820
  40   37487.4    266.8   0.056687267   0.49782  -0.54445  -0.43368  -0.11540
  41   37675.9    265.4   0.104968821   0.91722  -0.55874  -0.77566  -0.05818
  42   38496.5    259.8   0.076399547   0.65335   0.54366  -0.59769   0.02339
  43   38668.0    258.6   0.098215630   0.83619  -0.69470   0.40480  -0.43557
  44   39241.0    254.8   0.026377667   0.22130   0.36002  -0.29303  -0.07624
  45   39484.3    253.3   0.002141271   0.01785   0.12654  -0.03914   0.01761
  46   39761.5    251.5   0.055396951   0.45867   0.20322   0.63343   0.12702
  47   39841.0    251.0   0.024911844   0.20585   0.22235   0.39471  -0.02486
  48   39920.3    250.5   0.011954070   0.09858   0.01594  -0.30241   0.08291
  49   40197.2    248.8   0.005266164   0.04313  -0.02441  -0.16694   0.12109

FINAL SINGLE POINT ENERGY     -4192.438714356249

DIPOLE MOMENT
-------------
                                X             Y             Z
Electronic contribution:    -25.43415     -12.16354      -6.23651
Nuclear contribution   :     25.64274      13.46523       7.04626
                        -----------------------------------------
Total Dipole Moment    :      0.20860       1.30169       0.80975
                        -----------------------------------------
Magnitude (a.u.)       :      1.54713
Magnitude (Debye)      :      3.93249

Rotational constants in cm-1:     0.001440     0.000446     0.000389
Rotational constants in MHz :    43.180166    13.359039    11.676704

                             ****ORCA TERMINATED NORMALLY****
TOTAL RUN TIME: 0 days 0 hours 8 minutes 29 seconds 10 msec
