                         Program Version 4.2.0 -  RELEASE  -
|  1> # ORCA input file
|  2> # SCF done       -163.819289181072          0.000874210612
|  3> ! CAM-B3LYP def2-SVP def2/J RIJCOSX Grid4 TightSCF
|  4> %maxcore 5000
|  5> %tddft
|  6>     Mode sTDDFT
|  7>     Ethresh 5.0
|  8>     maxcore 5000
|  9> end
| 10>
| 11> %pal
| 12>   nprocs 6
| 13>   end
| 14> * xyz 0 1
| 15>    C        4.50978         0.43908        -7.30656
| 16>    C        4.20168         0.96367        -8.52147
| 17>    S        3.23807         2.38865        -8.36154
| 18>    C        3.24826         2.27623        -6.61653
| 19>   Cl        2.44476         3.41801        -5.65672
| 20>    C        3.96383         1.18983        -6.21179
| 21>    C        4.35001         0.55350        -4.95316
| 22>    O        4.09178         0.89484        -3.80733
| 23>    C        5.15495        -0.61552        -5.34421
| 24>    C        5.25660        -0.69131        -6.78321
| 25>    C        5.90574        -1.62859        -7.54619
| 26>    C        5.89456        -1.56490        -8.95384
| 27>    N        5.89089        -1.52504       -10.10082
| 28>    C        6.63230        -2.71804        -7.03249
| 29>    N        7.24075        -3.61325        -6.64747
| 30>    C        5.70745        -1.45874        -4.41278
| 31>    N        5.51686        -1.26493        -3.10117
| 32>    C        5.98159        -2.05528        -2.08966
| 33>    S        6.30706        -1.32936        -0.54608
| 34>    C        6.90853        -2.85268         0.02043
| 35>    N        7.35975        -2.93104         1.34543
| 36>    O        7.79065        -4.00094         1.73224
| 37>    O        7.28650        -1.91391         2.01166
| 38>    C        6.85147        -3.84825        -0.91732
| 39>    C        6.30068        -3.41742        -2.14148
| 40>    C        5.99735        -4.27137        -3.25753
| 41>    C        6.62304        -5.43161        -3.54676
| 42>    C        6.28774        -6.24477        -4.66067
| 43>    S        4.95883        -5.81109        -5.69515
| 44>    C        5.29138        -7.13897        -6.72679
| 45>    C        6.36213        -7.87979        -6.34038
| 46>    C        6.77235        -9.10564        -7.08669
| 47>    C        6.95664        -7.37828        -5.13558
| 48>    C        8.06796        -7.94861        -4.44022
| 49>    C        9.04985        -8.72152        -4.97434
| 50>    C       10.10078        -9.28094        -4.21705
| 51>    C       11.10408       -10.01400        -4.78967
| 52>    C       12.16274       -10.60603        -4.09285
| 53>    C       13.16931       -11.31723        -4.70745
| 54>    C       14.27391       -11.95719        -4.09930
| 55>    C       15.11513       -12.57548        -4.97744
| 56>    C       14.71777       -12.45220        -6.32614
| 57>    S       13.23778       -11.53550        -6.44811
| 58>    C       15.34326       -12.93677        -7.46236
| 59>    C       16.53371       -13.68584        -7.56799
| 60>    C       16.87700       -13.98779        -8.85118
| 61>    C       15.97525       -13.49302        -9.82976
| 62>    S       14.66647       -12.63277        -9.04566
| 63>    C       16.12105       -13.65353       -11.18515
| 64>    C       15.27545       -13.19027       -12.21069
| 65>    S       15.73670       -13.46231       -13.88794
| 66>    C       14.34941       -12.68559       -14.53970
| 67>    C       13.54370       -12.22705       -13.52551
| 68>    C       14.06685       -12.51248       -12.22420
| 69>    O       13.23065       -12.05092       -11.26985
| 70>    C       12.19493       -11.47776       -11.93482
| 71>    N       11.15617       -10.90658       -11.16589
| 72>    O       10.23553       -10.40461       -11.78647
| 73>    O       11.24502       -10.94754        -9.95679
| 74>    C       12.31672       -11.54622       -13.29742
| 75>    H        4.47139         0.61867        -9.49986
| 76>    H        6.33351        -2.28905        -4.70707
| 77>    H        5.00438        -0.39930        -2.87342
| 78>    H        7.16228        -4.85518        -0.70785
| 79>    H        5.19028        -3.94751        -3.90179
| 80>    H        7.46022        -5.74987        -2.94279
| 81>    H        4.65934        -7.30568        -7.57735
| 82>    H        5.95876        -9.43377        -7.72984
| 83>    H        7.02425        -9.90945        -6.39801
| 84>    H        7.63575        -8.90457        -7.71995
| 85>    H        8.13538        -7.71823        -3.38408
| 86>    H        9.07782        -8.90799        -6.03594
| 87>    H       10.10281        -9.12415        -3.14557
| 88>    H       11.08947       -10.15256        -5.86436
| 89>    H       12.20288       -10.50532        -3.01595
| 90>    H       14.41411       -11.94132        -3.03259
| 91>    H       16.00408       -13.10930        -4.69250
| 92>    H       17.10235       -13.97979        -6.70393
| 93>    H       17.75053       -14.54918        -9.13216
| 94>    H       16.99770       -14.19336       -11.51759
| 95>    H       14.21651       -12.61767       -15.59869
| 96>    H       11.62088       -11.16196       -14.01381
| 97> *
| 98>
| 99>                          ****END OF INPUT****

CARTESIAN COORDINATES (ANGSTROEM)
---------------------------------
  C      4.509780    0.439080   -7.306560
  C      4.201680    0.963670   -8.521470
  S      3.238070    2.388650   -8.361540
  C      3.248260    2.276230   -6.616530
  Cl     2.444760    3.418010   -5.656720
  C      3.963830    1.189830   -6.211790
  C      4.350010    0.553500   -4.953160
  O      4.091780    0.894840   -3.807330
  C      5.154950   -0.615520   -5.344210
  C      5.256600   -0.691310   -6.783210
  C      5.905740   -1.628590   -7.546190
  C      5.894560   -1.564900   -8.953840
  N      5.890890   -1.525040  -10.100820
  C      6.632300   -2.718040   -7.032490
  N      7.240750   -3.613250   -6.647470
  C      5.707450   -1.458740   -4.412780
  N      5.516860   -1.264930   -3.101170
  C      5.981590   -2.055280   -2.089660
  S      6.307060   -1.329360   -0.546080
  C      6.908530   -2.852680    0.020430
  N      7.359750   -2.931040    1.345430
  O      7.790650   -4.000940    1.732240
  O      7.286500   -1.913910    2.011660
  C      6.851470   -3.848250   -0.917320
  C      6.300680   -3.417420   -2.141480
  C      5.997350   -4.271370   -3.257530
  C      6.623040   -5.431610   -3.546760
  C      6.287740   -6.244770   -4.660670
  S      4.958830   -5.811090   -5.695150
  C      5.291380   -7.138970   -6.726790
  C      6.362130   -7.879790   -6.340380
  C      6.772350   -9.105640   -7.086690
  C      6.956640   -7.378280   -5.135580
  C      8.067960   -7.948610   -4.440220
  C      9.049850   -8.721520   -4.974340
  C     10.100780   -9.280940   -4.217050
  C     11.104080  -10.014000   -4.789670
  C     12.162740  -10.606030   -4.092850
  C     13.169310  -11.317230   -4.707450
  C     14.273910  -11.957190   -4.099300
  C     15.115130  -12.575480   -4.977440
  C     14.717770  -12.452200   -6.326140
  S     13.237780  -11.535500   -6.448110
  C     15.343260  -12.936770   -7.462360
  C     16.533710  -13.685840   -7.567990
  C     16.877000  -13.987790   -8.851180
  C     15.975250  -13.493020   -9.829760
  S     14.666470  -12.632770   -9.045660
  C     16.121050  -13.653530  -11.185150
  C     15.275450  -13.190270  -12.210690
  S     15.736700  -13.462310  -13.887940
  C     14.349410  -12.685590  -14.539700
  C     13.543700  -12.227050  -13.525510
  C     14.066850  -12.512480  -12.224200
  O     13.230650  -12.050920  -11.269850
  C     12.194930  -11.477760  -11.934820
  N     11.156170  -10.906580  -11.165890
  O     10.235530  -10.404610  -11.786470
  O     11.245020  -10.947540   -9.956790
  C     12.316720  -11.546220  -13.297420
  H      4.471390    0.618670   -9.499860
  H      6.333510   -2.289050   -4.707070
  H      5.004380   -0.399300   -2.873420
  H      7.162280   -4.855180   -0.707850
  H      5.190280   -3.947510   -3.901790
  H      7.460220   -5.749870   -2.942790
  H      4.659340   -7.305680   -7.577350
  H      5.958760   -9.433770   -7.729840
  H      7.024250   -9.909450   -6.398010
  H      7.635750   -8.904570   -7.719950
  H      8.135380   -7.718230   -3.384080
  H      9.077820   -8.907990   -6.035940
  H     10.102810   -9.124150   -3.145570
  H     11.089470  -10.152560   -5.864360
  H     12.202880  -10.505320   -3.015950
  H     14.414110  -11.941320   -3.032590
  H     16.004080  -13.109300   -4.692500
  H     17.102350  -13.979790   -6.703930
  H     17.750530  -14.549180   -9.132160
  H     16.997700  -14.193360  -11.517590
  H     14.216510  -12.617670  -15.598690
  H     11.620880  -11.161960  -14.013810

 Total Charge           Charge          ....    0
 Multiplicity           Mult            ....    1
 Number of Electrons    NEL             ....  470
 Basis Dimension        Dim             ....  978

ORBITAL ENERGIES
----------------

  NO   OCC          E(Eh)            E(eV)
   0   2.0000    -101.618814     -2765.1885
   1   2.0000     -88.992297     -2421.6035
   2   2.0000     -88.988817     -2421.5088
   3   2.0000     -88.971442     -2421.0360
   4   2.0000     -88.943717     -2420.2816
   5   2.0000     -88.935648     -2420.0620
   6   2.0000     -88.935163     -2420.0488
   7   2.0000     -19.304956      -525.3146
   8   2.0000     -19.241920      -523.5993
   9   2.0000     -19.240750      -523.5674
  10   2.0000     -19.240131      -523.5506
  11   2.0000     -19.239150      -523.5239
  12   2.0000     -19.230430      -523.2866
  13   2.0000     -14.653046      -398.7297
  14   2.0000     -14.652051      -398.7026
  15   2.0000     -14.497056      -394.4849
  16   2.0000     -14.418157      -392.3380
  17   2.0000     -14.414218      -392.2308
  18   2.0000     -10.384827      -282.5855
  19   2.0000     -10.383748      -282.5562
  20   2.0000     -10.377488      -282.3858
  21   2.0000     -10.368312      -282.1361
  22   2.0000     -10.368272      -282.1350
  23   2.0000     -10.348537      -281.5980
  24   2.0000     -10.348214      -281.5892
  25   2.0000     -10.343861      -281.4708
  26   2.0000     -10.340432      -281.3775
  27   2.0000     -10.329140      -281.0702
  28   2.0000     -10.319798      -280.8160
  29   2.0000     -10.317379      -280.7502
  30   2.0000     -10.316582      -280.7285
  31   2.0000     -10.312260      -280.6109
  32   2.0000     -10.310858      -280.5727
  33   2.0000     -10.309230      -280.5284
  34   2.0000     -10.308341      -280.5042
  35   2.0000     -10.307532      -280.4822
  36   2.0000     -10.306267      -280.4478
  37   2.0000     -10.304696      -280.4050
  38   2.0000     -10.301880      -280.3284
  39   2.0000     -10.300195      -280.2826
  40   2.0000     -10.299346      -280.2594
  41   2.0000     -10.299068      -280.2519
  42   2.0000     -10.295939      -280.1667
  43   2.0000     -10.291082      -280.0346
  44   2.0000     -10.289226      -279.9841
  45   2.0000     -10.285001      -279.8691
  46   2.0000     -10.284199      -279.8473
  47   2.0000     -10.282989      -279.8144
  48   2.0000     -10.282507      -279.8012
  49   2.0000     -10.281086      -279.7626
  50   2.0000     -10.280084      -279.7353
  51   2.0000     -10.279134      -279.7095
  52   2.0000     -10.275326      -279.6058
  53   2.0000     -10.272931      -279.5407
  54   2.0000     -10.270538      -279.4755
  55   2.0000     -10.269795      -279.4553
  56   2.0000     -10.268663      -279.4245
  57   2.0000     -10.268048      -279.4078
  58   2.0000     -10.266385      -279.3625
  59   2.0000     -10.256510      -279.0938
  60   2.0000      -9.573573      -260.5102
  61   2.0000      -8.088120      -220.0889
  62   2.0000      -8.084411      -219.9880
  63   2.0000      -8.066430      -219.4987
  64   2.0000      -8.039480      -218.7654
  65   2.0000      -8.032095      -218.5644
  66   2.0000      -8.031386      -218.5451
  67   2.0000      -7.344182      -199.8454
  68   2.0000      -7.333618      -199.5579
  69   2.0000      -7.333101      -199.5438
  70   2.0000      -6.057571      -164.8349
  71   2.0000      -6.054020      -164.7383
  72   2.0000      -6.052928      -164.7086
  73   2.0000      -6.050241      -164.6354
  74   2.0000      -6.049651      -164.6194
  75   2.0000      -6.045940      -164.5184
  76   2.0000      -6.035768      -164.2416
  77   2.0000      -6.031499      -164.1254
  78   2.0000      -6.028701      -164.0493
  79   2.0000      -6.008740      -163.5061
  80   2.0000      -6.004576      -163.3928
  81   2.0000      -6.001795      -163.3172
  82   2.0000      -6.001724      -163.3152
  83   2.0000      -6.001156      -163.2998
  84   2.0000      -5.997753      -163.2072
  85   2.0000      -5.996993      -163.1865
  86   2.0000      -5.992996      -163.0777
  87   2.0000      -5.992143      -163.0545
  88   2.0000      -1.323876       -36.0245
  89   2.0000      -1.321879       -35.9701
  90   2.0000      -1.227114       -33.3915
  91   2.0000      -1.146750       -31.2047
  92   2.0000      -1.140911       -31.0458
  93   2.0000      -1.139546       -31.0086
  94   2.0000      -1.101093       -29.9623
  95   2.0000      -1.038246       -28.2521
  96   2.0000      -1.014764       -27.6131
  97   2.0000      -1.009947       -27.4820
  98   2.0000      -0.995189       -27.0805
  99   2.0000      -0.993820       -27.0432
 100   2.0000      -0.987835       -26.8804
 101   2.0000      -0.986943       -26.8561
 102   2.0000      -0.976901       -26.5828
 103   2.0000      -0.967094       -26.3160
 104   2.0000      -0.952994       -25.9323
 105   2.0000      -0.932738       -25.3811
 106   2.0000      -0.919347       -25.0167
 107   2.0000      -0.909917       -24.7601
 108   2.0000      -0.907497       -24.6942
 109   2.0000      -0.897775       -24.4297
 110   2.0000      -0.895613       -24.3709
 111   2.0000      -0.883041       -24.0288
 112   2.0000      -0.871249       -23.7079
 113   2.0000      -0.869860       -23.6701
 114   2.0000      -0.856014       -23.2933
 115   2.0000      -0.849347       -23.1119
 116   2.0000      -0.839226       -22.8365
 117   2.0000      -0.832852       -22.6631
 118   2.0000      -0.827023       -22.5044
 119   2.0000      -0.820154       -22.3175
 120   2.0000      -0.813138       -22.1266
 121   2.0000      -0.800697       -21.7881
 122   2.0000      -0.796189       -21.6654
 123   2.0000      -0.785200       -21.3664
 124   2.0000      -0.777281       -21.1509
 125   2.0000      -0.759230       -20.6597
 126   2.0000      -0.755875       -20.5684
 127   2.0000      -0.746755       -20.3202
 128   2.0000      -0.728677       -19.8283
 129   2.0000      -0.714477       -19.4419
 130   2.0000      -0.710779       -19.3413
 131   2.0000      -0.705759       -19.2047
 132   2.0000      -0.695303       -18.9201
 133   2.0000      -0.689561       -18.7639
 134   2.0000      -0.675860       -18.3911
 135   2.0000      -0.670877       -18.2555
 136   2.0000      -0.668446       -18.1893
 137   2.0000      -0.663562       -18.0564
 138   2.0000      -0.650182       -17.6923
 139   2.0000      -0.648004       -17.6331
 140   2.0000      -0.643280       -17.5046
 141   2.0000      -0.637835       -17.3564
 142   2.0000      -0.635038       -17.2803
 143   2.0000      -0.633230       -17.2311
 144   2.0000      -0.628012       -17.0891
 145   2.0000      -0.626881       -17.0583
 146   2.0000      -0.621488       -16.9115
 147   2.0000      -0.616474       -16.7751
 148   2.0000      -0.613738       -16.7007
 149   2.0000      -0.610740       -16.6191
 150   2.0000      -0.609564       -16.5871
 151   2.0000      -0.601763       -16.3748
 152   2.0000      -0.597555       -16.2603
 153   2.0000      -0.593879       -16.1603
 154   2.0000      -0.588619       -16.0171
 155   2.0000      -0.584296       -15.8995
 156   2.0000      -0.578217       -15.7341
 157   2.0000      -0.571344       -15.5471
 158   2.0000      -0.563355       -15.3297
 159   2.0000      -0.562477       -15.3058
 160   2.0000      -0.559625       -15.2282
 161   2.0000      -0.551789       -15.0149
 162   2.0000      -0.547923       -14.9097
 163   2.0000      -0.545607       -14.8467
 164   2.0000      -0.539113       -14.6700
 165   2.0000      -0.536782       -14.6066
 166   2.0000      -0.530479       -14.4351
 167   2.0000      -0.528514       -14.3816
 168   2.0000      -0.526908       -14.3379
 169   2.0000      -0.520461       -14.1625
 170   2.0000      -0.520227       -14.1561
 171   2.0000      -0.515175       -14.0186
 172   2.0000      -0.510215       -13.8837
 173   2.0000      -0.505015       -13.7421
 174   2.0000      -0.500454       -13.6180
 175   2.0000      -0.499730       -13.5983
 176   2.0000      -0.498108       -13.5542
 177   2.0000      -0.494944       -13.4681
 178   2.0000      -0.492036       -13.3890
 179   2.0000      -0.491352       -13.3704
 180   2.0000      -0.489764       -13.3272
 181   2.0000      -0.486986       -13.2516
 182   2.0000      -0.478592       -13.0231
 183   2.0000      -0.474101       -12.9009
 184   2.0000      -0.471472       -12.8294
 185   2.0000      -0.470036       -12.7903
 186   2.0000      -0.467978       -12.7343
 187   2.0000      -0.462695       -12.5906
 188   2.0000      -0.460512       -12.5312
 189   2.0000      -0.458615       -12.4796
 190   2.0000      -0.456093       -12.4109
 191   2.0000      -0.455247       -12.3879
 192   2.0000      -0.449831       -12.2405
 193   2.0000      -0.447444       -12.1756
 194   2.0000      -0.445820       -12.1314
 195   2.0000      -0.444215       -12.0877
 196   2.0000      -0.442448       -12.0396
 197   2.0000      -0.441605       -12.0167
 198   2.0000      -0.434436       -11.8216
 199   2.0000      -0.432018       -11.7558
 200   2.0000      -0.431239       -11.7346
 201   2.0000      -0.426947       -11.6178
 202   2.0000      -0.426531       -11.6065
 203   2.0000      -0.418918       -11.3993
 204   2.0000      -0.415047       -11.2940
 205   2.0000      -0.413249       -11.2451
 206   2.0000      -0.410179       -11.1615
 207   2.0000      -0.406243       -11.0544
 208   2.0000      -0.404517       -11.0075
 209   2.0000      -0.403477       -10.9792
 210   2.0000      -0.402078       -10.9411
 211   2.0000      -0.394734       -10.7413
 212   2.0000      -0.388532       -10.5725
 213   2.0000      -0.387661       -10.5488
 214   2.0000      -0.384190       -10.4543
 215   2.0000      -0.380324       -10.3491
 216   2.0000      -0.379635       -10.3304
 217   2.0000      -0.376247       -10.2382
 218   2.0000      -0.368613       -10.0305
 219   2.0000      -0.368489       -10.0271
 220   2.0000      -0.356975        -9.7138
 221   2.0000      -0.354283        -9.6405
 222   2.0000      -0.351229        -9.5574
 223   2.0000      -0.342117        -9.3095
 224   2.0000      -0.336906        -9.1677
 225   2.0000      -0.332210        -9.0399
 226   2.0000      -0.323816        -8.8115
 227   2.0000      -0.317953        -8.6520
 228   2.0000      -0.315628        -8.5887
 229   2.0000      -0.313378        -8.5275
 230   2.0000      -0.293764        -7.9937
 231   2.0000      -0.289071        -7.8660
 232   2.0000      -0.265188        -7.2161
 233   2.0000      -0.245904        -6.6914
 234   2.0000      -0.198513        -5.4018
 235   0.0000      -0.085925        -2.3381
 236   0.0000      -0.079765        -2.1705
 237   0.0000      -0.059033        -1.6064
 238   0.0000      -0.058432        -1.5900
 239   0.0000      -0.045774        -1.2456

MULLIKEN ATOMIC CHARGES
-----------------------
   0 C :    0.021525
   1 C :   -0.127620
   2 S :    0.181469
   3 C :   -0.173923
   4 Cl:   -0.001813
   5 C :    0.087436
   6 C :    0.171594
   7 O :   -0.200483
   8 C :   -0.158237
   9 C :    0.315358
  10 C :   -0.332604
  11 C :   -0.199186
  12 N :    0.148850
  13 C :   -0.194107
  14 N :    0.156518
  15 C :    0.010651
  16 N :    0.000223
  17 C :   -0.122608
  18 S :    0.198771
  19 C :   -0.003127
  20 N :    0.275179
  21 O :   -0.244905
  22 O :   -0.258546
  23 C :   -0.003531
  24 C :    0.123787
  25 C :   -0.077405
  26 C :    0.034074
  27 C :   -0.114333
  28 S :    0.092026
  29 C :   -0.101216
  30 C :   -0.088657
  31 C :    0.106577
  32 C :    0.153355
  33 C :   -0.062157
  34 C :    0.018294
  35 C :    0.011341
  36 C :    0.001350
  37 C :   -0.006112
  38 C :   -0.023473
  39 C :    0.036815
  40 C :    0.022605
  41 C :   -0.046035
  42 S :    0.085859
  43 C :   -0.042067
  44 C :    0.034503
  45 C :    0.025917
  46 C :   -0.028559
  47 S :    0.094638
  48 C :    0.040170
  49 C :   -0.230181
  50 S :    0.143176
  51 C :   -0.143837
  52 C :    0.127720
  53 C :    0.196899
  54 O :   -0.193843
  55 C :    0.248398
  56 N :    0.273609
  57 O :   -0.252741
  58 O :   -0.230998
  59 C :   -0.080644
  60 H :    0.053740
  61 H :    0.064407
  62 H :    0.168242
  63 H :    0.012427
  64 H :    0.011782
  65 H :   -0.012633
  66 H :    0.014372
  67 H :    0.006263
  68 H :    0.030085
  69 H :    0.050535
  70 H :   -0.016720
  71 H :   -0.010588
  72 H :   -0.017736
  73 H :    0.011752
  74 H :   -0.017105
  75 H :   -0.012744
  76 H :   -0.016104
  77 H :   -0.015499
  78 H :   -0.016803
  79 H :   -0.025027
  80 H :    0.030532
  81 H :    0.011081
Sum of atomic charges:    0.0000000

LOEWDIN ATOMIC CHARGES
----------------------
   0 C :   -0.056024
   1 C :   -0.146188
   2 S :    0.469125
   3 C :   -0.271333
   4 Cl:    0.190528
   5 C :   -0.115735
   6 C :    0.089728
   7 O :   -0.169330
   8 C :   -0.150466
   9 C :    0.078287
  10 C :   -0.152670
  11 C :   -0.017505
  12 N :   -0.059721
  13 C :   -0.025643
  14 N :   -0.050309
  15 C :    0.121118
  16 N :    0.075504
  17 C :   -0.125905
  18 S :    0.469875
  19 C :   -0.200173
  20 N :    0.273623
  21 O :   -0.211555
  22 O :   -0.224343
  23 C :    0.001151
  24 C :   -0.076180
  25 C :   -0.060833
  26 C :   -0.011531
  27 C :   -0.169983
  28 S :    0.433954
  29 C :   -0.179401
  30 C :   -0.052556
  31 C :   -0.045123
  32 C :   -0.044312
  33 C :   -0.025618
  34 C :   -0.019784
  35 C :   -0.018918
  36 C :   -0.031847
  37 C :   -0.052860
  38 C :   -0.146110
  39 C :   -0.032424
  40 C :   -0.035051
  41 C :   -0.174465
  42 S :    0.385769
  43 C :   -0.187469
  44 C :   -0.030056
  45 C :   -0.040164
  46 C :   -0.141267
  47 S :    0.399270
  48 C :   -0.094697
  49 C :   -0.195841
  50 S :    0.469415
  51 C :   -0.194805
  52 C :   -0.080719
  53 C :    0.008287
  54 O :   -0.001278
  55 C :    0.026008
  56 N :    0.273347
  57 O :   -0.213435
  58 O :   -0.193445
  59 C :   -0.009671
  60 H :    0.038321
  61 H :    0.047346
  62 H :    0.086827
  63 H :    0.045724
  64 H :    0.019854
  65 H :    0.032070
  66 H :    0.022193
  67 H :    0.032534
  68 H :    0.035246
  69 H :    0.039177
  70 H :    0.024470
  71 H :    0.031950
  72 H :    0.025781
  73 H :    0.025803
  74 H :    0.031941
  75 H :    0.033098
  76 H :    0.030742
  77 H :    0.031015
  78 H :    0.031035
  79 H :    0.032253
  80 H :    0.027846
  81 H :    0.046525

  Mayer bond orders larger than 0.100000
B(  0-C ,  1-C ) :   1.5622 B(  0-C ,  5-C ) :   1.2260 B(  0-C ,  9-C ) :   0.9909
B(  1-C ,  2-S ) :   1.1530 B(  1-C , 60-H ) :   0.9540 B(  2-S ,  3-C ) :   1.1453
B(  3-C ,  4-Cl) :   1.1277 B(  3-C ,  5-C ) :   1.4739 B(  5-C ,  6-C ) :   0.9853
B(  6-C ,  7-O ) :   2.0760 B(  6-C ,  8-C ) :   0.9933 B(  7-O , 62-H ) :   0.1335
B(  8-C ,  9-C ) :   1.1210 B(  8-C , 15-C ) :   1.4479 B(  9-C , 10-C ) :   1.6366
B( 10-C , 11-C ) :   1.1499 B( 10-C , 13-C ) :   1.1446 B( 11-C , 12-N ) :   2.9897
B( 13-C , 14-N ) :   2.9420 B( 15-C , 16-N ) :   1.3625 B( 15-C , 61-H ) :   0.9293
B( 16-N , 17-C ) :   1.1329 B( 16-N , 62-H ) :   0.8382 B( 17-C , 18-S ) :   1.1358
B( 17-C , 24-C ) :   1.3963 B( 18-S , 19-C ) :   1.1006 B( 19-C , 20-N ) :   0.9601
B( 19-C , 23-C ) :   1.4847 B( 20-N , 21-O ) :   1.5404 B( 20-N , 22-O ) :   1.5171
B( 21-O , 22-O ) :   0.2634 B( 23-C , 24-C ) :   1.2334 B( 23-C , 63-H ) :   1.0031
B( 24-C , 25-C ) :   1.0596 B( 25-C , 26-C ) :   1.7013 B( 25-C , 64-H ) :   0.9622
B( 26-C , 27-C ) :   1.1678 B( 26-C , 65-H ) :   0.9665 B( 27-C , 28-S ) :   1.1267
B( 27-C , 32-C ) :   1.4084 B( 28-S , 29-C ) :   1.1414 B( 29-C , 30-C ) :   1.6116
B( 29-C , 66-H ) :   0.9656 B( 30-C , 31-C ) :   1.0915 B( 30-C , 32-C ) :   1.2229
B( 31-C , 67-H ) :   0.9458 B( 31-C , 68-H ) :   0.9464 B( 31-C , 69-H ) :   0.9398
B( 32-C , 33-C ) :   1.0996 B( 33-C , 34-C ) :   1.6387 B( 33-C , 70-H ) :   0.9635
B( 34-C , 35-C ) :   1.1430 B( 34-C , 71-H ) :   0.9854 B( 35-C , 36-C ) :   1.5949
B( 35-C , 72-H ) :   0.9936 B( 36-C , 37-C ) :   1.1585 B( 36-C , 73-H ) :   0.9743
B( 37-C , 38-C ) :   1.5484 B( 37-C , 74-H ) :   0.9834 B( 38-C , 39-C ) :   1.1516
B( 38-C , 42-S ) :   1.0340 B( 39-C , 40-C ) :   1.5770 B( 39-C , 75-H ) :   0.9996
B( 40-C , 41-C ) :   1.1966 B( 40-C , 76-H ) :   0.9944 B( 41-C , 42-S ) :   1.0559
B( 41-C , 43-C ) :   1.4912 B( 43-C , 44-C ) :   1.1926 B( 43-C , 47-S ) :   1.0350
B( 44-C , 45-C ) :   1.5853 B( 44-C , 77-H ) :   0.9934 B( 45-C , 46-C ) :   1.1448
B( 45-C , 78-H ) :   0.9999 B( 46-C , 47-S ) :   1.0497 B( 46-C , 48-C ) :   1.5937
B( 48-C , 49-C ) :   1.1564 B( 48-C , 79-H ) :   0.9430 B( 49-C , 50-S ) :   1.1342
B( 49-C , 51-C ) :   0.1088 B( 49-C , 53-C ) :   1.4233 B( 50-S , 51-C ) :   1.1761
B( 51-C , 52-C ) :   1.4305 B( 51-C , 80-H ) :   0.9771 B( 52-C , 53-C ) :   1.2339
B( 52-C , 59-C ) :   1.0637 B( 53-C , 54-O ) :   1.0862 B( 54-O , 55-C ) :   1.1212
B( 55-C , 56-N ) :   0.9172 B( 55-C , 59-C ) :   1.5747 B( 56-N , 57-O ) :   1.5299
B( 56-N , 58-O ) :   1.5140 B( 57-O , 58-O ) :   0.2794 B( 59-C , 81-H ) :   1.0261

-----------------------------------------------------------------------------
         ABSORPTION SPECTRUM VIA TRANSITION ELECTRIC DIPOLE MOMENTS
-----------------------------------------------------------------------------
State   Energy  Wavelength   fosc         T2         TX        TY        TZ
        (cm-1)    (nm)                  (au**2)     (au)      (au)      (au)
-----------------------------------------------------------------------------
   0   12451.4    803.1   0.895954994  23.68891  -2.48251   2.29200   3.50325
   1   14485.5    690.3   0.270970147   6.15834  -1.62026   1.84012   0.38351
   2   15415.8    648.7   0.390636194   8.34221  -1.62662   0.99107   2.17119
   3   20121.0    497.0   0.218208523   3.57023   0.41052  -1.18022   1.41732
   4   21269.8    470.2   0.000807352   0.01250   0.05377   0.05231  -0.08287
   5   21553.2    464.0   0.023323201   0.35625   0.11589  -0.39318   0.43385
   6   23466.4    426.1   0.432475050   6.06722   1.55023  -1.80310   0.64252
   7   24991.5    400.1   0.399354766   5.26068   1.60672  -1.40901   0.83296
   8   25926.8    385.7   0.026299881   0.33395   0.37868   0.06487  -0.43167
   9   26489.7    377.5   0.129240796   1.60620  -0.39054   0.49111   1.10113
  10   26739.6    374.0   0.166541744   2.05043   0.72546  -0.76397   0.96978
  11   26776.2    373.5   0.071607640   0.88041  -0.60575   0.69914  -0.15711
  12   28457.9    351.4   0.131974098   1.52673  -0.59264  -0.02242   1.08398
  13   29033.2    344.4   0.804021600   9.11691   1.65577  -0.16822   2.51933
  14   29498.3    339.0   0.071549293   0.79852   0.54675  -0.66198  -0.24772
  15   30569.6    327.1   0.005394549   0.05810  -0.13617   0.10707   0.16760
  16   31857.5    313.9   0.032336063   0.33416  -0.48685  -0.11105  -0.29121
  17   32199.2    310.6   0.024318445   0.24864  -0.07716   0.41032   0.27262
  18   32575.4    307.0   0.002383595   0.02409   0.05837   0.00896   0.14353
  19   32654.9    306.2   0.282570235   2.84874   0.89444  -0.25327   1.40875
  20   32983.9    303.2   0.069392916   0.69261   0.03447  -0.22045   0.80176
  21   33437.0    299.1   0.354835146   3.49361  -0.68137   1.68163   0.44885
  22   33637.6    297.3   0.001099623   0.01076   0.01012   0.07712   0.06865
  23   34291.1    291.6   0.107041035   1.02765   0.25336   0.25425   0.94806
  24   34387.6    290.8   0.128698963   1.23211   0.66002  -0.76067   0.46675
  25   34618.1    288.9   0.038765621   0.36865   0.29525   0.02278   0.53006
  26   34936.4    286.2   0.043535603   0.41024   0.34122  -0.39229  -0.37406
  27   35083.1    285.0   0.029874655   0.28034   0.02873  -0.00217   0.52868
  28   35458.5    282.0   0.058445122   0.54263   0.31753  -0.49825  -0.43995
  29   35903.2    278.5   0.046197701   0.42361   0.58869  -0.17004   0.21941
  30   36182.8    276.4   0.266616404   2.42583  -1.18738   0.91102   0.43128
  31   36196.1    276.3   0.084450419   0.76810  -0.69268   0.05932   0.53364
  32   36291.6    275.5   0.009613002   0.08720   0.12130  -0.13919   0.23047
  33   36619.4    273.1   0.005050103   0.04540   0.17171  -0.10235  -0.07376
  34   36836.3    271.5   0.032709731   0.29233  -0.47177   0.14924   0.21793
  35   37619.5    265.8   0.240087251   2.10103  -1.00868   0.99179   0.31613
  36   37785.7    264.7   0.139227840   1.21304  -0.44640   1.00678   0.01241
  37   38209.9    261.7   0.125610238   1.08224   0.26926  -0.69527  -0.72550
  38   38351.2    260.7   0.036333619   0.31189   0.04306  -0.41714  -0.36883
  39   38505.6    259.7   0.166190993   1.42089   0.67871  -0.76227  -0.61578
  40   38669.2    258.6   0.077256244   0.65772   0.28526  -0.75821   0.03837
  41   38999.6    256.4   0.156206126   1.31860   0.76194  -0.19213  -0.83734
  42   39378.3    253.9   0.034028214   0.28448  -0.44983   0.11845  -0.26097
  43   39498.5    253.2   0.089971526   0.74990   0.76614  -0.38559   0.11934

FINAL SINGLE POINT ENERGY     -5184.036490866901

DIPOLE MOMENT
-------------
                                X             Y             Z
Electronic contribution:    -27.82410      57.92673      -5.21645
Nuclear contribution   :     28.47311     -58.66783       3.55661
                        -----------------------------------------
Total Dipole Moment    :      0.64901      -0.74110      -1.65984
                        -----------------------------------------
Magnitude (a.u.)       :      1.93016
Magnitude (Debye)      :      4.90607

Rotational constants in cm-1:     0.001512     0.000335     0.000287
Rotational constants in MHz :    45.321768    10.039617     8.605691

                             ****ORCA TERMINATED NORMALLY****
TOTAL RUN TIME: 0 days 0 hours 6 minutes 36 seconds 99 msec
