                         Program Version 4.2.0 -  RELEASE  -
|  1> # ORCA input file
|  2> # SCF done       -102.830879408117          0.000752475444
|  3> ! CAM-B3LYP def2-SVP def2/J RIJCOSX Grid4 TightSCF
|  4> %maxcore 5000
|  5> %tddft
|  6>     Mode sTDDFT
|  7>     Ethresh 5.0
|  8>     maxcore 5000
|  9> end
| 10>
| 11> %pal
| 12>   nprocs 6
| 13>   end
| 14> * xyz 0 1
| 15>    C       -1.44138        -1.62929         1.02871
| 16>    C       -1.16991        -0.71426         0.06214
| 17>    C        0.07078        -0.09000         0.29208
| 18>    C        0.72428        -0.54235         1.43561
| 19>    S       -0.20792        -1.75688         2.23846
| 20>    C        1.96117         0.07252         1.67041
| 21>    C        2.25839         0.99976         0.70183
| 22>    S        0.99779         1.12200        -0.51690
| 23>    C        3.42189         1.81203         0.60050
| 24>    C        3.73158         2.71776        -0.38634
| 25>    C        4.96923         3.32713        -0.15895
| 26>    C        5.61510         2.89622         1.00120
| 27>    S        4.67204         1.70941         1.83116
| 28>    C        6.85355         3.50347         1.22759
| 29>    C        7.16606         4.40561         0.23724
| 30>    S        5.91407         4.50936        -0.99266
| 31>    C        8.33311         5.20821         0.12891
| 32>    C        8.64609         6.10758        -0.86416
| 33>    C        9.88055         6.72112        -0.63551
| 34>    C       10.52323         6.29856         0.53005
| 35>    S        9.58081         5.11373         1.36326
| 36>    C       11.75510         6.91624         0.76157
| 37>    C       12.06518         7.82012        -0.22829
| 38>    S       10.82093         7.90903        -1.46656
| 39>    C       13.22414         8.63552        -0.32785
| 40>    C       13.53784         9.53508        -1.32019
| 41>    C       14.76597        10.15884        -1.08265
| 42>    C       15.40096         9.74578         0.09003
| 43>    S       14.46048         8.55721         0.91955
| 44>    C       16.63076        10.36773         0.32596
| 45>    C       16.94681        11.26256        -0.66890
| 46>    S       15.71005        11.34346        -1.91459
| 47>    C       18.11379        12.06939        -0.77421
| 48>    C       18.44683        12.94025        -1.78268
| 49>    C       19.68379        13.55491        -1.54773
| 50>    C       20.30011        13.16101        -0.36281
| 51>    S       19.33753        12.00513         0.48593
| 52>    C       21.54328        13.78123        -0.13545
| 53>    C       21.85426        14.63406        -1.14611
| 54>    S       20.65527        14.70770        -2.39362
| 55>    H       -2.30755        -2.25462         1.11507
| 56>    H       -1.81667        -0.49658        -0.76697
| 57>    H        2.60920        -0.14454         2.49989
| 58>    H        3.09076         2.91997        -1.22474
| 59>    H        7.49484         3.30199         2.06626
| 60>    H        8.00715         6.30324        -1.70565
| 61>    H       12.39338         6.72170         1.60383
| 62>    H       12.90485         9.72290        -2.16813
| 63>    H       17.26348        10.17916         1.17390
| 64>    H       17.82529        13.11579        -2.64147
| 65>    H       22.16464        13.60356         0.72261
| 66>    H       22.73235        15.24058        -1.24539
| 67> *
| 68>
| 69>                          ****END OF INPUT****

CARTESIAN COORDINATES (ANGSTROEM)
---------------------------------
  C     -1.441380   -1.629290    1.028710
  C     -1.169910   -0.714260    0.062140
  C      0.070780   -0.090000    0.292080
  C      0.724280   -0.542350    1.435610
  S     -0.207920   -1.756880    2.238460
  C      1.961170    0.072520    1.670410
  C      2.258390    0.999760    0.701830
  S      0.997790    1.122000   -0.516900
  C      3.421890    1.812030    0.600500
  C      3.731580    2.717760   -0.386340
  C      4.969230    3.327130   -0.158950
  C      5.615100    2.896220    1.001200
  S      4.672040    1.709410    1.831160
  C      6.853550    3.503470    1.227590
  C      7.166060    4.405610    0.237240
  S      5.914070    4.509360   -0.992660
  C      8.333110    5.208210    0.128910
  C      8.646090    6.107580   -0.864160
  C      9.880550    6.721120   -0.635510
  C     10.523230    6.298560    0.530050
  S      9.580810    5.113730    1.363260
  C     11.755100    6.916240    0.761570
  C     12.065180    7.820120   -0.228290
  S     10.820930    7.909030   -1.466560
  C     13.224140    8.635520   -0.327850
  C     13.537840    9.535080   -1.320190
  C     14.765970   10.158840   -1.082650
  C     15.400960    9.745780    0.090030
  S     14.460480    8.557210    0.919550
  C     16.630760   10.367730    0.325960
  C     16.946810   11.262560   -0.668900
  S     15.710050   11.343460   -1.914590
  C     18.113790   12.069390   -0.774210
  C     18.446830   12.940250   -1.782680
  C     19.683790   13.554910   -1.547730
  C     20.300110   13.161010   -0.362810
  S     19.337530   12.005130    0.485930
  C     21.543280   13.781230   -0.135450
  C     21.854260   14.634060   -1.146110
  S     20.655270   14.707700   -2.393620
  H     -2.307550   -2.254620    1.115070
  H     -1.816670   -0.496580   -0.766970
  H      2.609200   -0.144540    2.499890
  H      3.090760    2.919970   -1.224740
  H      7.494840    3.301990    2.066260
  H      8.007150    6.303240   -1.705650
  H     12.393380    6.721700    1.603830
  H     12.904850    9.722900   -2.168130
  H     17.263480   10.179160    1.173900
  H     17.825290   13.115790   -2.641470
  H     22.164640   13.603560    0.722610
  H     22.732350   15.240580   -1.245390

 Total Charge           Charge          ....    0
 Multiplicity           Mult            ....    1
 Number of Electrons    NEL             ....  352
 Basis Dimension        Dim             ....  660

ORBITAL ENERGIES
----------------

  NO   OCC          E(Eh)            E(eV)
   0   2.0000     -88.955187     -2420.5937
   1   2.0000     -88.955140     -2420.5924
   2   2.0000     -88.954877     -2420.5853
   3   2.0000     -88.954868     -2420.5850
   4   2.0000     -88.954539     -2420.5761
   5   2.0000     -88.954502     -2420.5750
   6   2.0000     -88.952598     -2420.5232
   7   2.0000     -88.952528     -2420.5214
   8   2.0000     -88.951111     -2420.4828
   9   2.0000     -88.951020     -2420.4803
  10   2.0000     -10.308484      -280.5081
  11   2.0000     -10.308478      -280.5079
  12   2.0000     -10.308114      -280.4980
  13   2.0000     -10.308106      -280.4978
  14   2.0000     -10.307792      -280.4893
  15   2.0000     -10.307770      -280.4887
  16   2.0000     -10.306256      -280.4475
  17   2.0000     -10.306231      -280.4468
  18   2.0000     -10.296231      -280.1747
  19   2.0000     -10.295833      -280.1639
  20   2.0000     -10.295723      -280.1609
  21   2.0000     -10.295722      -280.1608
  22   2.0000     -10.295303      -280.1494
  23   2.0000     -10.295300      -280.1494
  24   2.0000     -10.292248      -280.0663
  25   2.0000     -10.292240      -280.0661
  26   2.0000     -10.291760      -280.0530
  27   2.0000     -10.291751      -280.0528
  28   2.0000     -10.291348      -280.0418
  29   2.0000     -10.291338      -280.0415
  30   2.0000     -10.280843      -279.7560
  31   2.0000     -10.280767      -279.7539
  32   2.0000     -10.280730      -279.7529
  33   2.0000     -10.280720      -279.7526
  34   2.0000     -10.280030      -279.7338
  35   2.0000     -10.279995      -279.7329
  36   2.0000     -10.278720      -279.6982
  37   2.0000     -10.278713      -279.6980
  38   2.0000     -10.276886      -279.6483
  39   2.0000     -10.276860      -279.6476
  40   2.0000      -8.050386      -219.0621
  41   2.0000      -8.050346      -219.0611
  42   2.0000      -8.050076      -219.0537
  43   2.0000      -8.050066      -219.0534
  44   2.0000      -8.049745      -219.0447
  45   2.0000      -8.049716      -219.0439
  46   2.0000      -8.047845      -218.9930
  47   2.0000      -8.047820      -218.9923
  48   2.0000      -8.046712      -218.9622
  49   2.0000      -8.046656      -218.9607
  50   2.0000      -6.019961      -163.8115
  51   2.0000      -6.019955      -163.8113
  52   2.0000      -6.019664      -163.8034
  53   2.0000      -6.019655      -163.8032
  54   2.0000      -6.019338      -163.7945
  55   2.0000      -6.019310      -163.7937
  56   2.0000      -6.017430      -163.7426
  57   2.0000      -6.017409      -163.7420
  58   2.0000      -6.016269      -163.7110
  59   2.0000      -6.016220      -163.7097
  60   2.0000      -6.015976      -163.7030
  61   2.0000      -6.015970      -163.7029
  62   2.0000      -6.015682      -163.6950
  63   2.0000      -6.015673      -163.6948
  64   2.0000      -6.015344      -163.6858
  65   2.0000      -6.015315      -163.6850
  66   2.0000      -6.013459      -163.6345
  67   2.0000      -6.013433      -163.6338
  68   2.0000      -6.012033      -163.5957
  69   2.0000      -6.011979      -163.5943
  70   2.0000      -6.011797      -163.5893
  71   2.0000      -6.011791      -163.5892
  72   2.0000      -6.011508      -163.5815
  73   2.0000      -6.011497      -163.5811
  74   2.0000      -6.011183      -163.5726
  75   2.0000      -6.011150      -163.5717
  76   2.0000      -6.009277      -163.5207
  77   2.0000      -6.009231      -163.5195
  78   2.0000      -6.008469      -163.4987
  79   2.0000      -6.008385      -163.4965
  80   2.0000      -1.010757       -27.5041
  81   2.0000      -1.007379       -27.4122
  82   2.0000      -1.002882       -27.2898
  83   2.0000      -0.997819       -27.1520
  84   2.0000      -0.995061       -27.0770
  85   2.0000      -0.960789       -26.1444
  86   2.0000      -0.950628       -25.8679
  87   2.0000      -0.938249       -25.5311
  88   2.0000      -0.925726       -25.1903
  89   2.0000      -0.917069       -24.9547
  90   2.0000      -0.859909       -23.3993
  91   2.0000      -0.859087       -23.3769
  92   2.0000      -0.855199       -23.2712
  93   2.0000      -0.852673       -23.2024
  94   2.0000      -0.850619       -23.1465
  95   2.0000      -0.845761       -23.0143
  96   2.0000      -0.827854       -22.5271
  97   2.0000      -0.807845       -21.9826
  98   2.0000      -0.804472       -21.8908
  99   2.0000      -0.800976       -21.7957
 100   2.0000      -0.793359       -21.5884
 101   2.0000      -0.786620       -21.4050
 102   2.0000      -0.782777       -21.3005
 103   2.0000      -0.778166       -21.1750
 104   2.0000      -0.747975       -20.3534
 105   2.0000      -0.723155       -19.6781
 106   2.0000      -0.693293       -18.8655
 107   2.0000      -0.670533       -18.2461
 108   2.0000      -0.660417       -17.9709
 109   2.0000      -0.649619       -17.6770
 110   2.0000      -0.648075       -17.6350
 111   2.0000      -0.642887       -17.4939
 112   2.0000      -0.637844       -17.3566
 113   2.0000      -0.631725       -17.1901
 114   2.0000      -0.630981       -17.1699
 115   2.0000      -0.614272       -16.7152
 116   2.0000      -0.609715       -16.5912
 117   2.0000      -0.597746       -16.2655
 118   2.0000      -0.586170       -15.9505
 119   2.0000      -0.584923       -15.9166
 120   2.0000      -0.578610       -15.7448
 121   2.0000      -0.574681       -15.6379
 122   2.0000      -0.569395       -15.4940
 123   2.0000      -0.564615       -15.3640
 124   2.0000      -0.558887       -15.2081
 125   2.0000      -0.549337       -14.9482
 126   2.0000      -0.520133       -14.1535
 127   2.0000      -0.516987       -14.0679
 128   2.0000      -0.511581       -13.9208
 129   2.0000      -0.507025       -13.7969
 130   2.0000      -0.503968       -13.7137
 131   2.0000      -0.500500       -13.6193
 132   2.0000      -0.493580       -13.4310
 133   2.0000      -0.492504       -13.4017
 134   2.0000      -0.486710       -13.2440
 135   2.0000      -0.486454       -13.2371
 136   2.0000      -0.475581       -12.9412
 137   2.0000      -0.474136       -12.9019
 138   2.0000      -0.473528       -12.8853
 139   2.0000      -0.468911       -12.7597
 140   2.0000      -0.465487       -12.6666
 141   2.0000      -0.464326       -12.6350
 142   2.0000      -0.459999       -12.5172
 143   2.0000      -0.456991       -12.4354
 144   2.0000      -0.455158       -12.3855
 145   2.0000      -0.452607       -12.3161
 146   2.0000      -0.450365       -12.2550
 147   2.0000      -0.446143       -12.1402
 148   2.0000      -0.439855       -11.9690
 149   2.0000      -0.437609       -11.9079
 150   2.0000      -0.430590       -11.7169
 151   2.0000      -0.424546       -11.5525
 152   2.0000      -0.421418       -11.4674
 153   2.0000      -0.420402       -11.4397
 154   2.0000      -0.406149       -11.0519
 155   2.0000      -0.404534       -11.0079
 156   2.0000      -0.403014       -10.9666
 157   2.0000      -0.401654       -10.9296
 158   2.0000      -0.401454       -10.9241
 159   2.0000      -0.401036       -10.9128
 160   2.0000      -0.386096       -10.5062
 161   2.0000      -0.359320        -9.7776
 162   2.0000      -0.358965        -9.7679
 163   2.0000      -0.356601        -9.7036
 164   2.0000      -0.354668        -9.6510
 165   2.0000      -0.350809        -9.5460
 166   2.0000      -0.332330        -9.0432
 167   2.0000      -0.305799        -8.3212
 168   2.0000      -0.296910        -8.0793
 169   2.0000      -0.293766        -7.9938
 170   2.0000      -0.291036        -7.9195
 171   2.0000      -0.285929        -7.7805
 172   2.0000      -0.285906        -7.7799
 173   2.0000      -0.273420        -7.4401
 174   2.0000      -0.244372        -6.6497
 175   2.0000      -0.220100        -5.9892
 176   0.0000      -0.053956        -1.4682
 177   0.0000      -0.030485        -0.8295
 178   0.0000      -0.004216        -0.1147
 179   0.0000       0.020789         0.5657
 180   0.0000       0.046422         1.2632

MULLIKEN ATOMIC CHARGES
-----------------------
   0 C :   -0.084885
   1 C :    0.025488
   2 C :   -0.043665
   3 C :   -0.044073
   4 S :    0.124687
   5 C :   -0.052586
   6 C :   -0.049332
   7 S :    0.121236
   8 C :   -0.047467
   9 C :   -0.058330
  10 C :   -0.013394
  11 C :   -0.013783
  12 S :    0.126822
  13 C :   -0.058331
  14 C :   -0.048586
  15 S :    0.126030
  16 C :   -0.048261
  17 C :   -0.058308
  18 C :   -0.012986
  19 C :   -0.013013
  20 S :    0.126802
  21 C :   -0.058442
  22 C :   -0.048136
  23 S :    0.126787
  24 C :   -0.048811
  25 C :   -0.057997
  26 C :   -0.013948
  27 C :   -0.013551
  28 S :    0.126118
  29 C :   -0.058111
  30 C :   -0.047344
  31 S :    0.126896
  32 C :   -0.050083
  33 C :   -0.051719
  34 C :   -0.044227
  35 C :   -0.043832
  36 S :    0.121093
  37 C :    0.025475
  38 C :   -0.084911
  39 S :    0.124815
  40 H :    0.029211
  41 H :   -0.010801
  42 H :   -0.009257
  43 H :   -0.008943
  44 H :   -0.008597
  45 H :   -0.008656
  46 H :   -0.008628
  47 H :   -0.008684
  48 H :   -0.008750
  49 H :   -0.009501
  50 H :   -0.010629
  51 H :    0.029101
Sum of atomic charges:   -0.0000000

LOEWDIN ATOMIC CHARGES
----------------------
   0 C :   -0.175453
   1 C :   -0.074257
   2 C :   -0.206353
   3 C :   -0.206505
   4 S :    0.415982
   5 C :   -0.073666
   6 C :   -0.174155
   7 S :    0.413846
   8 C :   -0.171313
   9 C :   -0.075497
  10 C :   -0.200088
  11 C :   -0.200711
  12 S :    0.417004
  13 C :   -0.074435
  14 C :   -0.173102
  15 S :    0.416473
  16 C :   -0.172477
  17 C :   -0.074974
  18 C :   -0.200100
  19 C :   -0.200097
  20 S :    0.416848
  21 C :   -0.074980
  22 C :   -0.172461
  23 S :    0.416856
  24 C :   -0.173152
  25 C :   -0.074412
  26 C :   -0.200717
  27 C :   -0.200103
  28 S :    0.416536
  29 C :   -0.075536
  30 C :   -0.171329
  31 S :    0.417030
  32 C :   -0.174083
  33 C :   -0.073586
  34 C :   -0.206635
  35 C :   -0.206372
  36 S :    0.413802
  37 C :   -0.074360
  38 C :   -0.175626
  39 S :    0.416342
  40 H :    0.023489
  41 H :    0.032946
  42 H :    0.028755
  43 H :    0.029183
  44 H :    0.029315
  45 H :    0.029234
  46 H :    0.029245
  47 H :    0.029266
  48 H :    0.029224
  49 H :    0.028673
  50 H :    0.032994
  51 H :    0.023498

  Mayer bond orders larger than 0.100000
B(  0-C ,  1-C ) :   1.5952 B(  0-C ,  4-S ) :   1.1462 B(  0-C , 40-H ) :   0.9681
B(  1-C ,  2-C ) :   1.2444 B(  1-C , 41-H ) :   1.0024 B(  2-C ,  3-C ) :   1.4549
B(  2-C ,  7-S ) :   1.0662 B(  3-C ,  4-S ) :   1.0795 B(  3-C ,  5-C ) :   1.2409
B(  5-C ,  6-C ) :   1.5397 B(  5-C , 42-H ) :   0.9968 B(  6-C ,  7-S ) :   1.1013
B(  6-C ,  8-C ) :   1.1665 B(  8-C ,  9-C ) :   1.5277 B(  8-C , 12-S ) :   1.1015
B(  9-C , 10-C ) :   1.2451 B(  9-C , 43-H ) :   0.9962 B( 10-C , 11-C ) :   1.4502
B( 10-C , 15-S ) :   1.0627 B( 11-C , 12-S ) :   1.0621 B( 11-C , 13-C ) :   1.2475
B( 13-C , 14-C ) :   1.5225 B( 13-C , 44-H ) :   0.9960 B( 14-C , 15-S ) :   1.0999
B( 14-C , 16-C ) :   1.1737 B( 16-C , 17-C ) :   1.5215 B( 16-C , 20-S ) :   1.1003
B( 17-C , 18-C ) :   1.2486 B( 17-C , 45-H ) :   0.9960 B( 18-C , 19-C ) :   1.4477
B( 18-C , 23-S ) :   1.0624 B( 19-C , 20-S ) :   1.0623 B( 19-C , 21-C ) :   1.2485
B( 21-C , 22-C ) :   1.5215 B( 21-C , 46-H ) :   0.9960 B( 22-C , 23-S ) :   1.1003
B( 22-C , 24-C ) :   1.1736 B( 24-C , 25-C ) :   1.5226 B( 24-C , 28-S ) :   1.1000
B( 25-C , 26-C ) :   1.2476 B( 25-C , 47-H ) :   0.9959 B( 26-C , 27-C ) :   1.4500
B( 26-C , 31-S ) :   1.0621 B( 27-C , 28-S ) :   1.0627 B( 27-C , 29-C ) :   1.2453
B( 29-C , 30-C ) :   1.5277 B( 29-C , 48-H ) :   0.9961 B( 30-C , 31-S ) :   1.1016
B( 30-C , 32-C ) :   1.1662 B( 32-C , 33-C ) :   1.5401 B( 32-C , 36-S ) :   1.1013
B( 33-C , 34-C ) :   1.2412 B( 33-C , 49-H ) :   0.9967 B( 34-C , 35-C ) :   1.4541
B( 34-C , 39-S ) :   1.0797 B( 35-C , 36-S ) :   1.0662 B( 35-C , 37-C ) :   1.2451
B( 37-C , 38-C ) :   1.5953 B( 37-C , 50-H ) :   1.0021 B( 38-C , 39-S ) :   1.1464
B( 38-C , 51-H ) :   0.9680

-----------------------------------------------------------------------------
         ABSORPTION SPECTRUM VIA TRANSITION ELECTRIC DIPOLE MOMENTS
-----------------------------------------------------------------------------
State   Energy  Wavelength   fosc         T2         TX        TY        TZ
        (cm-1)    (nm)                  (au**2)     (au)      (au)      (au)
-----------------------------------------------------------------------------
   0   21515.7    464.8   3.230945561  49.43674   5.71155   4.05279  -0.62437
   1   27703.6    361.0   0.000000421   0.00001  -0.00070   0.00057  -0.00205
   2   29410.3    340.0   0.000013297   0.00015  -0.00136  -0.00716   0.00979
   3   33004.5    303.0   0.293382636   2.92642  -1.38999  -0.98550   0.15205
   4   33696.5    296.8   0.159753868   1.56078   0.99999   0.73454  -0.14577
   5   34871.7    286.8   0.016739726   0.15803  -0.30191  -0.24647   0.07834
   6   36398.5    274.7   0.125546947   1.13553   0.08692   0.65241  -0.83806
   7   36643.5    272.9   0.000606813   0.00545  -0.01800  -0.02171   0.06824
   8   37414.5    267.3   0.091845599   0.80815   0.68672   0.02331   0.57968
   9   38021.1    263.0   0.301030643   2.60652   0.03141   0.94590  -1.30798
  10   38991.0    256.5   0.000002954   0.00002   0.00183  -0.00339   0.00317
  11   39402.8    253.8   0.000593877   0.00496   0.02439  -0.01551  -0.06424

FINAL SINGLE POINT ENERGY     -5129.647492922004

DIPOLE MOMENT
-------------
                                X             Y             Z
Electronic contribution:     -0.02605       0.04159       0.02814
Nuclear contribution   :      0.03195      -0.05017      -0.03474
                        -----------------------------------------
Total Dipole Moment    :      0.00590      -0.00857      -0.00660
                        -----------------------------------------
Magnitude (a.u.)       :      0.01232
Magnitude (Debye)      :      0.03132

Rotational constants in cm-1:     0.017098     0.000327     0.000320
Rotational constants in MHz :   512.583477     9.788954     9.605748

                             ****ORCA TERMINATED NORMALLY****
TOTAL RUN TIME: 0 days 0 hours 2 minutes 50 seconds 979 msec
