                         Program Version 4.2.0 -  RELEASE  -
|  1> # ORCA input file
|  2> # SCF done       -175.715911646821          0.000968060347
|  3> ! CAM-B3LYP def2-SVP def2/J RIJCOSX Grid4 TightSCF
|  4> %maxcore 5000
|  5> %tddft
|  6>     Mode sTDDFT
|  7>     Ethresh 5.0
|  8>     maxcore 5000
|  9> end
| 10>
| 11> %pal
| 12>   nprocs 6
| 13>   end
| 14> * xyz 0 1
| 15>    C       -2.34816        -0.45925         2.65115
| 16>    C       -3.52784        -0.17825         1.93361
| 17>    C       -4.25240         0.95792         2.27040
| 18>    C       -3.81917         1.82015         3.27877
| 19>    C       -2.62286         1.53078         3.97002
| 20>    C       -1.90311         0.37707         3.64334
| 21>    N       -2.20289         2.37830         4.95155
| 22>    C       -2.84004         3.53479         5.36909
| 23>    O       -2.36603         4.20738         6.25661
| 24>    C       -4.08387         3.81353         4.63774
| 25>    C       -4.53461         2.99438         3.65130
| 26>    C       -4.80807         4.97305         4.99528
| 27>    N       -5.41573         5.90703         5.26273
| 28>    C       -3.99388        -1.06867         0.90046
| 29>    S       -5.68397        -1.11619         0.48944
| 30>    C       -5.47475        -2.38811        -0.68427
| 31>    C       -4.13902        -2.72896        -0.75036
| 32>    C       -3.29347        -1.98772         0.13022
| 33>    C       -1.93032        -2.33925        -0.05049
| 34>    C       -1.76589        -3.30475        -0.99541
| 35>    C       -0.51758        -3.90921        -1.46771
| 36>    O       -0.45033        -4.73115        -2.34587
| 37>    O        0.54838        -3.43099        -0.80381
| 38>    C        1.80350        -3.96154        -1.20709
| 39>    S       -3.25427        -3.85322        -1.73176
| 40>    C       -6.57007        -2.93412        -1.39950
| 41>    C       -6.57095        -4.07494        -2.18066
| 42>    C       -7.83113        -4.33392        -2.72094
| 43>    C       -8.79332        -3.37403        -2.36195
| 44>    S       -8.14920        -2.16249        -1.34311
| 45>    C      -10.02977        -3.72970        -2.95356
| 46>    C       -9.85659        -4.92301        -3.67220
| 47>    C       -8.46673        -5.34028        -3.55421
| 48>    C       -7.88924        -6.44534        -4.10624
| 49>    C       -6.52502        -6.75531        -3.92094
| 50>    N       -5.41863        -7.01533        -3.77164
| 51>    C       -8.62052        -7.35668        -4.89683
| 52>    N       -9.21349        -8.09897        -5.53905
| 53>    C      -11.02785        -5.36811        -4.28319
| 54>    C      -12.09462        -4.51890        -4.05182
| 55>    S      -11.63361        -3.14334        -3.05141
| 56>    C      -13.43352        -4.65738        -4.52096
| 57>    C      -14.38052        -3.67537        -4.37152
| 58>    C      -15.70349        -3.76208        -4.80857
| 59>    C      -16.22024        -5.02673        -5.35947
| 60>    C      -15.45938        -6.11181        -5.61520
| 61>    S      -13.77310        -6.19306        -5.31632
| 62>    C      -17.61127        -4.81501        -5.55427
| 63>    C      -17.94025        -3.51171        -5.17961
| 64>    C      -19.31376        -3.23712        -5.36392
| 65>    C      -19.97599        -4.31543        -5.85773
| 66>    S      -18.96929        -5.69945        -6.12587
| 67>    C      -16.75144        -2.83037        -4.74036
| 68>    C      -16.75229        -1.45184        -4.37934
| 69>    C      -15.68736        -0.62296        -4.35460
| 70>    C      -15.70871         0.78423        -4.03035
| 71>    C      -14.49738         1.50492        -4.09420
| 72>    C      -14.43574         2.84729        -3.81947
| 73>    C      -15.59617         3.54246        -3.46660
| 74>    C      -16.82167         2.84645        -3.38913
| 75>    C      -16.85637         1.47858        -3.66871
| 76>    C      -17.98257         3.58871        -3.03020
| 77>    C      -17.92071         4.92246        -2.77263
| 78>    C      -16.65678         5.66684        -2.84654
| 79>    O      -16.50994         6.85041        -2.63464
| 80>    N      -15.57410         4.87952        -3.19665
| 81>    C      -19.08753         5.63823        -2.42456
| 82>    N      -20.05313         6.18901        -2.14628
| 83>    H       -1.80550        -1.36550         2.43951
| 84>    H       -5.16610         1.18826         1.74228
| 85>    H       -0.99978         0.14451         4.18764
| 86>    H       -1.34251         2.16169         5.44278
| 87>    H       -5.45429         3.22772         3.13255
| 88>    H       -1.09826        -1.88891         0.45712
| 89>    H        2.55285        -3.46234        -0.59856
| 90>    H        1.97449        -3.76540        -2.26742
| 91>    H        1.82924        -5.04056        -1.04184
| 92>    H       -5.69879        -4.68433        -2.32815
| 93>    H      -11.11110        -6.26109        -4.87583
| 94>    H      -14.06697        -2.78207        -3.84881
| 95>    H      -15.86269        -7.01444        -6.04648
| 96>    H      -19.79277        -2.30005        -5.14491
| 97>    H      -21.01983        -4.39463        -6.09112
| 98>    H      -17.73595        -1.05279        -4.16940
| 99>    H      -14.71774        -1.00295        -4.64239
|100>    H      -13.59424         0.97968        -4.36935
|101>    H      -13.49631         3.37754        -3.87608
|102>    H      -17.80674         0.97293        -3.60079
|103>    H      -18.93066         3.07185        -2.96643
|104>    H      -14.68829         5.36957        -3.25550
|105> *
|106>
|107>                          ****END OF INPUT****

CARTESIAN COORDINATES (ANGSTROEM)
---------------------------------
  C     -2.348160   -0.459250    2.651150
  C     -3.527840   -0.178250    1.933610
  C     -4.252400    0.957920    2.270400
  C     -3.819170    1.820150    3.278770
  C     -2.622860    1.530780    3.970020
  C     -1.903110    0.377070    3.643340
  N     -2.202890    2.378300    4.951550
  C     -2.840040    3.534790    5.369090
  O     -2.366030    4.207380    6.256610
  C     -4.083870    3.813530    4.637740
  C     -4.534610    2.994380    3.651300
  C     -4.808070    4.973050    4.995280
  N     -5.415730    5.907030    5.262730
  C     -3.993880   -1.068670    0.900460
  S     -5.683970   -1.116190    0.489440
  C     -5.474750   -2.388110   -0.684270
  C     -4.139020   -2.728960   -0.750360
  C     -3.293470   -1.987720    0.130220
  C     -1.930320   -2.339250   -0.050490
  C     -1.765890   -3.304750   -0.995410
  C     -0.517580   -3.909210   -1.467710
  O     -0.450330   -4.731150   -2.345870
  O      0.548380   -3.430990   -0.803810
  C      1.803500   -3.961540   -1.207090
  S     -3.254270   -3.853220   -1.731760
  C     -6.570070   -2.934120   -1.399500
  C     -6.570950   -4.074940   -2.180660
  C     -7.831130   -4.333920   -2.720940
  C     -8.793320   -3.374030   -2.361950
  S     -8.149200   -2.162490   -1.343110
  C    -10.029770   -3.729700   -2.953560
  C     -9.856590   -4.923010   -3.672200
  C     -8.466730   -5.340280   -3.554210
  C     -7.889240   -6.445340   -4.106240
  C     -6.525020   -6.755310   -3.920940
  N     -5.418630   -7.015330   -3.771640
  C     -8.620520   -7.356680   -4.896830
  N     -9.213490   -8.098970   -5.539050
  C    -11.027850   -5.368110   -4.283190
  C    -12.094620   -4.518900   -4.051820
  S    -11.633610   -3.143340   -3.051410
  C    -13.433520   -4.657380   -4.520960
  C    -14.380520   -3.675370   -4.371520
  C    -15.703490   -3.762080   -4.808570
  C    -16.220240   -5.026730   -5.359470
  C    -15.459380   -6.111810   -5.615200
  S    -13.773100   -6.193060   -5.316320
  C    -17.611270   -4.815010   -5.554270
  C    -17.940250   -3.511710   -5.179610
  C    -19.313760   -3.237120   -5.363920
  C    -19.975990   -4.315430   -5.857730
  S    -18.969290   -5.699450   -6.125870
  C    -16.751440   -2.830370   -4.740360
  C    -16.752290   -1.451840   -4.379340
  C    -15.687360   -0.622960   -4.354600
  C    -15.708710    0.784230   -4.030350
  C    -14.497380    1.504920   -4.094200
  C    -14.435740    2.847290   -3.819470
  C    -15.596170    3.542460   -3.466600
  C    -16.821670    2.846450   -3.389130
  C    -16.856370    1.478580   -3.668710
  C    -17.982570    3.588710   -3.030200
  C    -17.920710    4.922460   -2.772630
  C    -16.656780    5.666840   -2.846540
  O    -16.509940    6.850410   -2.634640
  N    -15.574100    4.879520   -3.196650
  C    -19.087530    5.638230   -2.424560
  N    -20.053130    6.189010   -2.146280
  H     -1.805500   -1.365500    2.439510
  H     -5.166100    1.188260    1.742280
  H     -0.999780    0.144510    4.187640
  H     -1.342510    2.161690    5.442780
  H     -5.454290    3.227720    3.132550
  H     -1.098260   -1.888910    0.457120
  H      2.552850   -3.462340   -0.598560
  H      1.974490   -3.765400   -2.267420
  H      1.829240   -5.040560   -1.041840
  H     -5.698790   -4.684330   -2.328150
  H    -11.111100   -6.261090   -4.875830
  H    -14.066970   -2.782070   -3.848810
  H    -15.862690   -7.014440   -6.046480
  H    -19.792770   -2.300050   -5.144910
  H    -21.019830   -4.394630   -6.091120
  H    -17.735950   -1.052790   -4.169400
  H    -14.717740   -1.002950   -4.642390
  H    -13.594240    0.979680   -4.369350
  H    -13.496310    3.377540   -3.876080
  H    -17.806740    0.972930   -3.600790
  H    -18.930660    3.071850   -2.966430
  H    -14.688290    5.369570   -3.255500

 Total Charge           Charge          ....    0
 Multiplicity           Mult            ....    1
 Number of Electrons    NEL             ....  504
 Basis Dimension        Dim             .... 1086

ORBITAL ENERGIES
----------------

  NO   OCC          E(Eh)            E(eV)
   0   2.0000     -88.995425     -2421.6886
   1   2.0000     -88.994857     -2421.6732
   2   2.0000     -88.985360     -2421.4148
   3   2.0000     -88.979629     -2421.2588
   4   2.0000     -88.969108     -2420.9725
   5   2.0000     -88.959458     -2420.7099
   6   2.0000     -19.270535      -524.3779
   7   2.0000     -19.215088      -522.8691
   8   2.0000     -19.198573      -522.4197
   9   2.0000     -19.188971      -522.1585
  10   2.0000     -14.482654      -394.0931
  11   2.0000     -14.472638      -393.8205
  12   2.0000     -14.434166      -392.7736
  13   2.0000     -14.432752      -392.7351
  14   2.0000     -14.407145      -392.0383
  15   2.0000     -14.399266      -391.8240
  16   2.0000     -10.414273      -283.3868
  17   2.0000     -10.399723      -282.9909
  18   2.0000     -10.390243      -282.7329
  19   2.0000     -10.369066      -282.1566
  20   2.0000     -10.358482      -281.8686
  21   2.0000     -10.355245      -281.7805
  22   2.0000     -10.346198      -281.5344
  23   2.0000     -10.336136      -281.2606
  24   2.0000     -10.335932      -281.2550
  25   2.0000     -10.334804      -281.2243
  26   2.0000     -10.334274      -281.2099
  27   2.0000     -10.333193      -281.1805
  28   2.0000     -10.332810      -281.1701
  29   2.0000     -10.332506      -281.1618
  30   2.0000     -10.332007      -281.1482
  31   2.0000     -10.331399      -281.1317
  32   2.0000     -10.331376      -281.1310
  33   2.0000     -10.330906      -281.1182
  34   2.0000     -10.330741      -281.1137
  35   2.0000     -10.329985      -281.0932
  36   2.0000     -10.323712      -280.9225
  37   2.0000     -10.322471      -280.8887
  38   2.0000     -10.320374      -280.8317
  39   2.0000     -10.320058      -280.8230
  40   2.0000     -10.315669      -280.7036
  41   2.0000     -10.315144      -280.6893
  42   2.0000     -10.312373      -280.6139
  43   2.0000     -10.311778      -280.5977
  44   2.0000     -10.307984      -280.4945
  45   2.0000     -10.307299      -280.4759
  46   2.0000     -10.307195      -280.4730
  47   2.0000     -10.306626      -280.4576
  48   2.0000     -10.306231      -280.4468
  49   2.0000     -10.305860      -280.4367
  50   2.0000     -10.305017      -280.4138
  51   2.0000     -10.304478      -280.3991
  52   2.0000     -10.303143      -280.3628
  53   2.0000     -10.302719      -280.3512
  54   2.0000     -10.301356      -280.3141
  55   2.0000     -10.299744      -280.2703
  56   2.0000     -10.299738      -280.2701
  57   2.0000     -10.297975      -280.2222
  58   2.0000     -10.296744      -280.1887
  59   2.0000     -10.295228      -280.1474
  60   2.0000     -10.294013      -280.1143
  61   2.0000     -10.289486      -279.9911
  62   2.0000     -10.289135      -279.9816
  63   2.0000     -10.284425      -279.8534
  64   2.0000     -10.280768      -279.7539
  65   2.0000     -10.279860      -279.7292
  66   2.0000     -10.278499      -279.6922
  67   2.0000     -10.275837      -279.6197
  68   2.0000      -8.090198      -220.1455
  69   2.0000      -8.089148      -220.1169
  70   2.0000      -8.080353      -219.8776
  71   2.0000      -8.074875      -219.7285
  72   2.0000      -8.063835      -219.4281
  73   2.0000      -8.054836      -219.1832
  74   2.0000      -6.059542      -164.8885
  75   2.0000      -6.058483      -164.8597
  76   2.0000      -6.055318      -164.7736
  77   2.0000      -6.054362      -164.7476
  78   2.0000      -6.052393      -164.6940
  79   2.0000      -6.051349      -164.6656
  80   2.0000      -6.049714      -164.6211
  81   2.0000      -6.045507      -164.5066
  82   2.0000      -6.044555      -164.4807
  83   2.0000      -6.042500      -164.4248
  84   2.0000      -6.039961      -164.3557
  85   2.0000      -6.036568      -164.2634
  86   2.0000      -6.033709      -164.1856
  87   2.0000      -6.029365      -164.0674
  88   2.0000      -6.024969      -163.9477
  89   2.0000      -6.024315      -163.9299
  90   2.0000      -6.020025      -163.8132
  91   2.0000      -6.016838      -163.7265
  92   2.0000      -1.201654       -32.6987
  93   2.0000      -1.147479       -31.2245
  94   2.0000      -1.137596       -30.9556
  95   2.0000      -1.108853       -30.1734
  96   2.0000      -1.069868       -29.1126
  97   2.0000      -1.059233       -28.8232
  98   2.0000      -1.049104       -28.5476
  99   2.0000      -1.030056       -28.0293
 100   2.0000      -1.024893       -27.8888
 101   2.0000      -1.011673       -27.5290
 102   2.0000      -1.010475       -27.4964
 103   2.0000      -1.001867       -27.2622
 104   2.0000      -0.993365       -27.0308
 105   2.0000      -0.985504       -26.8169
 106   2.0000      -0.984533       -26.7905
 107   2.0000      -0.977546       -26.6004
 108   2.0000      -0.970336       -26.4042
 109   2.0000      -0.964299       -26.2399
 110   2.0000      -0.957217       -26.0472
 111   2.0000      -0.942818       -25.6554
 112   2.0000      -0.934734       -25.4354
 113   2.0000      -0.931028       -25.3346
 114   2.0000      -0.920024       -25.0351
 115   2.0000      -0.902674       -24.5630
 116   2.0000      -0.894622       -24.3439
 117   2.0000      -0.885724       -24.1018
 118   2.0000      -0.875051       -23.8113
 119   2.0000      -0.873342       -23.7649
 120   2.0000      -0.864798       -23.5323
 121   2.0000      -0.862272       -23.4636
 122   2.0000      -0.859105       -23.3774
 123   2.0000      -0.857516       -23.3342
 124   2.0000      -0.852942       -23.2097
 125   2.0000      -0.834188       -22.6994
 126   2.0000      -0.828476       -22.5440
 127   2.0000      -0.814815       -22.1722
 128   2.0000      -0.807965       -21.9859
 129   2.0000      -0.792477       -21.5644
 130   2.0000      -0.781076       -21.2542
 131   2.0000      -0.778339       -21.1797
 132   2.0000      -0.775318       -21.0975
 133   2.0000      -0.767141       -20.8750
 134   2.0000      -0.760704       -20.6998
 135   2.0000      -0.756254       -20.5787
 136   2.0000      -0.750330       -20.4175
 137   2.0000      -0.746344       -20.3090
 138   2.0000      -0.729078       -19.8392
 139   2.0000      -0.724012       -19.7014
 140   2.0000      -0.713496       -19.4152
 141   2.0000      -0.707630       -19.2556
 142   2.0000      -0.692942       -18.8559
 143   2.0000      -0.690792       -18.7974
 144   2.0000      -0.683583       -18.6012
 145   2.0000      -0.669974       -18.2309
 146   2.0000      -0.668876       -18.2010
 147   2.0000      -0.667217       -18.1559
 148   2.0000      -0.656823       -17.8731
 149   2.0000      -0.654811       -17.8183
 150   2.0000      -0.650738       -17.7075
 151   2.0000      -0.647459       -17.6182
 152   2.0000      -0.639281       -17.3957
 153   2.0000      -0.634335       -17.2611
 154   2.0000      -0.626643       -17.0518
 155   2.0000      -0.620583       -16.8869
 156   2.0000      -0.617302       -16.7976
 157   2.0000      -0.615192       -16.7402
 158   2.0000      -0.602993       -16.4083
 159   2.0000      -0.601531       -16.3685
 160   2.0000      -0.598280       -16.2800
 161   2.0000      -0.594569       -16.1790
 162   2.0000      -0.590003       -16.0548
 163   2.0000      -0.584821       -15.9138
 164   2.0000      -0.580845       -15.8056
 165   2.0000      -0.579554       -15.7705
 166   2.0000      -0.572919       -15.5899
 167   2.0000      -0.567124       -15.4322
 168   2.0000      -0.563290       -15.3279
 169   2.0000      -0.562461       -15.3054
 170   2.0000      -0.559808       -15.2332
 171   2.0000      -0.555807       -15.1243
 172   2.0000      -0.553363       -15.0578
 173   2.0000      -0.552031       -15.0215
 174   2.0000      -0.551774       -15.0145
 175   2.0000      -0.551416       -15.0048
 176   2.0000      -0.541162       -14.7258
 177   2.0000      -0.535356       -14.5678
 178   2.0000      -0.531581       -14.4650
 179   2.0000      -0.529694       -14.4137
 180   2.0000      -0.527810       -14.3624
 181   2.0000      -0.519846       -14.1457
 182   2.0000      -0.517843       -14.0912
 183   2.0000      -0.517462       -14.0809
 184   2.0000      -0.513400       -13.9703
 185   2.0000      -0.511610       -13.9216
 186   2.0000      -0.508565       -13.8388
 187   2.0000      -0.507122       -13.7995
 188   2.0000      -0.504508       -13.7284
 189   2.0000      -0.503616       -13.7041
 190   2.0000      -0.498576       -13.5670
 191   2.0000      -0.498016       -13.5517
 192   2.0000      -0.496479       -13.5099
 193   2.0000      -0.495755       -13.4902
 194   2.0000      -0.488647       -13.2968
 195   2.0000      -0.486941       -13.2503
 196   2.0000      -0.485504       -13.2112
 197   2.0000      -0.484197       -13.1757
 198   2.0000      -0.482852       -13.1391
 199   2.0000      -0.476694       -12.9715
 200   2.0000      -0.468763       -12.7557
 201   2.0000      -0.464402       -12.6370
 202   2.0000      -0.464141       -12.6299
 203   2.0000      -0.462692       -12.5905
 204   2.0000      -0.462284       -12.5794
 205   2.0000      -0.460539       -12.5319
 206   2.0000      -0.459362       -12.4999
 207   2.0000      -0.457235       -12.4420
 208   2.0000      -0.454258       -12.3610
 209   2.0000      -0.452019       -12.3001
 210   2.0000      -0.448005       -12.1908
 211   2.0000      -0.444919       -12.1068
 212   2.0000      -0.443425       -12.0662
 213   2.0000      -0.442800       -12.0492
 214   2.0000      -0.440129       -11.9765
 215   2.0000      -0.439362       -11.9556
 216   2.0000      -0.435962       -11.8631
 217   2.0000      -0.435307       -11.8453
 218   2.0000      -0.434056       -11.8113
 219   2.0000      -0.431652       -11.7458
 220   2.0000      -0.430152       -11.7050
 221   2.0000      -0.429689       -11.6924
 222   2.0000      -0.428068       -11.6483
 223   2.0000      -0.425704       -11.5840
 224   2.0000      -0.421532       -11.4705
 225   2.0000      -0.413072       -11.2403
 226   2.0000      -0.412930       -11.2364
 227   2.0000      -0.411404       -11.1949
 228   2.0000      -0.407428       -11.0867
 229   2.0000      -0.405315       -11.0292
 230   2.0000      -0.403678       -10.9846
 231   2.0000      -0.399687       -10.8760
 232   2.0000      -0.393710       -10.7134
 233   2.0000      -0.388970       -10.5844
 234   2.0000      -0.384179       -10.4541
 235   2.0000      -0.368551       -10.0288
 236   2.0000      -0.363769        -9.8987
 237   2.0000      -0.355114        -9.6631
 238   2.0000      -0.354848        -9.6559
 239   2.0000      -0.353388        -9.6162
 240   2.0000      -0.345756        -9.4085
 241   2.0000      -0.338445        -9.2096
 242   2.0000      -0.337232        -9.1766
 243   2.0000      -0.328164        -8.9298
 244   2.0000      -0.325633        -8.8609
 245   2.0000      -0.320421        -8.7191
 246   2.0000      -0.317442        -8.6380
 247   2.0000      -0.302698        -8.2368
 248   2.0000      -0.295250        -8.0342
 249   2.0000      -0.277589        -7.5536
 250   2.0000      -0.252727        -6.8770
 251   2.0000      -0.228993        -6.2312
 252   0.0000      -0.110137        -2.9970
 253   0.0000      -0.072419        -1.9706
 254   0.0000      -0.064647        -1.7591
 255   0.0000      -0.062233        -1.6934
 256   0.0000      -0.052294        -1.4230

MULLIKEN ATOMIC CHARGES
-----------------------
   0 C :   -0.016445
   1 C :    0.124902
   2 C :   -0.100552
   3 C :    0.044134
   4 C :    0.091018
   5 C :   -0.012496
   6 N :   -0.031527
   7 C :    0.131062
   8 O :   -0.163458
   9 C :   -0.228662
  10 C :    0.092596
  11 C :   -0.137717
  12 N :    0.128885
  13 C :   -0.116344
  14 S :    0.140263
  15 C :   -0.125328
  16 C :   -0.041279
  17 C :    0.129860
  18 C :   -0.010229
  19 C :   -0.135999
  20 C :    0.208392
  21 O :   -0.189163
  22 O :   -0.307189
  23 C :    0.188764
  24 S :    0.169427
  25 C :   -0.066827
  26 C :   -0.058727
  27 C :    0.006647
  28 C :   -0.101465
  29 S :    0.179948
  30 C :   -0.098438
  31 C :    0.014926
  32 C :    0.302981
  33 C :   -0.294889
  34 C :   -0.189791
  35 N :    0.181944
  36 C :   -0.187289
  37 N :    0.174389
  38 C :   -0.056376
  39 C :   -0.059982
  40 S :    0.163482
  41 C :   -0.024853
  42 C :   -0.099357
  43 C :    0.046840
  44 C :    0.056608
  45 C :   -0.121871
  46 S :    0.127985
  47 C :   -0.106512
  48 C :    0.047442
  49 C :    0.008097
  50 C :   -0.068438
  51 S :    0.130500
  52 C :    0.079987
  53 C :    0.001614
  54 C :   -0.028269
  55 C :    0.131592
  56 C :   -0.013014
  57 C :   -0.013932
  58 C :    0.085661
  59 C :    0.048751
  60 C :   -0.080499
  61 C :    0.084918
  62 C :   -0.230848
  63 C :    0.127551
  64 O :   -0.168553
  65 N :   -0.030813
  66 C :   -0.137761
  67 N :    0.124380
  68 H :   -0.007862
  69 H :   -0.014304
  70 H :   -0.026105
  71 H :    0.135987
  72 H :    0.009677
  73 H :   -0.000151
  74 H :    0.034319
  75 H :    0.037685
  76 H :    0.037624
  77 H :    0.012023
  78 H :    0.021509
  79 H :   -0.011602
  80 H :    0.038944
  81 H :   -0.019888
  82 H :    0.027661
  83 H :   -0.028989
  84 H :   -0.030700
  85 H :   -0.015942
  86 H :   -0.032135
  87 H :   -0.029972
  88 H :    0.008277
  89 H :    0.133290
Sum of atomic charges:   -0.0000000

LOEWDIN ATOMIC CHARGES
----------------------
   0 C :    0.013907
   1 C :   -0.053215
   2 C :    0.002770
   3 C :   -0.058633
   4 C :    0.052245
   5 C :   -0.042539
   6 N :    0.048753
   7 C :    0.071302
   8 O :   -0.187532
   9 C :   -0.108685
  10 C :    0.067499
  11 C :   -0.024953
  12 N :   -0.039209
  13 C :   -0.161144
  14 S :    0.451196
  15 C :   -0.216753
  16 C :   -0.180242
  17 C :   -0.075575
  18 C :   -0.022270
  19 C :   -0.192913
  20 C :    0.064386
  21 O :   -0.166457
  22 O :   -0.096738
  23 C :    0.082859
  24 S :    0.444550
  25 C :   -0.179608
  26 C :   -0.036199
  27 C :   -0.067175
  28 C :   -0.183087
  29 S :    0.460910
  30 C :   -0.180252
  31 C :   -0.068856
  32 C :    0.081566
  33 C :   -0.097326
  34 C :   -0.019162
  35 N :   -0.024498
  36 C :   -0.015824
  37 N :   -0.030767
  38 C :   -0.042094
  39 C :   -0.177779
  40 S :    0.468140
  41 C :   -0.183138
  42 C :   -0.033938
  43 C :   -0.024124
  44 C :   -0.047468
  45 C :   -0.138737
  46 S :    0.457476
  47 C :   -0.203543
  48 C :   -0.040732
  49 C :   -0.065986
  50 C :   -0.163828
  51 S :    0.422640
  52 C :   -0.049416
  53 C :   -0.012152
  54 C :   -0.035710
  55 C :   -0.037421
  56 C :    0.009724
  57 C :   -0.049486
  58 C :    0.048850
  59 C :   -0.059910
  60 C :    0.011126
  61 C :    0.067649
  62 C :   -0.113042
  63 C :    0.069863
  64 O :   -0.193495
  65 N :    0.047533
  66 C :   -0.024343
  67 N :   -0.045047
  68 H :    0.036260
  69 H :    0.026409
  70 H :    0.033882
  71 H :    0.100731
  72 H :    0.047811
  73 H :    0.035216
  74 H :    0.026016
  75 H :    0.025503
  76 H :    0.025655
  77 H :    0.031637
  78 H :    0.035007
  79 H :    0.024829
  80 H :    0.037918
  81 H :    0.028763
  82 H :    0.023913
  83 H :    0.025653
  84 H :    0.023150
  85 H :    0.031745
  86 H :    0.030977
  87 H :    0.029166
  88 H :    0.046579
  89 H :    0.099235

  Mayer bond orders larger than 0.100000
B(  0-C ,  1-C ) :   1.2934 B(  0-C ,  5-C ) :   1.4378 B(  0-C , 68-H ) :   0.9884
B(  1-C ,  2-C ) :   1.3515 B(  1-C , 13-C ) :   1.0561 B(  2-C ,  3-C ) :   1.2898
B(  2-C , 69-H ) :   0.9966 B(  3-C ,  4-C ) :   1.2937 B(  3-C , 10-C ) :   1.1251
B(  4-C ,  5-C ) :   1.2891 B(  4-C ,  6-N ) :   1.2033 B(  5-C , 70-H ) :   0.9930
B(  6-N ,  7-C ) :   1.0831 B(  6-N , 71-H ) :   0.9018 B(  7-C ,  8-O ) :   2.2449
B(  7-C ,  9-C ) :   0.9489 B(  9-C , 10-C ) :   1.6483 B(  9-C , 11-C ) :   1.1103
B( 10-C , 72-H ) :   0.9860 B( 11-C , 12-N ) :   3.0437 B( 13-C , 14-S ) :   1.1378
B( 13-C , 15-C ) :   0.1238 B( 13-C , 17-C ) :   1.4299 B( 14-S , 15-C ) :   1.1161
B( 15-C , 16-C ) :   1.5480 B( 15-C , 25-C ) :   1.1423 B( 16-C , 17-C ) :   1.2301
B( 16-C , 24-S ) :   1.0530 B( 17-C , 18-C ) :   1.1096 B( 18-C , 19-C ) :   1.6309
B( 18-C , 73-H ) :   0.9964 B( 19-C , 20-C ) :   0.9584 B( 19-C , 24-S ) :   1.0688
B( 20-C , 21-O ) :   2.1492 B( 20-C , 22-O ) :   1.2385 B( 22-O , 23-C ) :   0.9191
B( 23-C , 74-H ) :   0.9806 B( 23-C , 75-H ) :   0.9758 B( 23-C , 76-H ) :   0.9767
B( 25-C , 26-C ) :   1.4821 B( 25-C , 29-S ) :   1.0941 B( 26-C , 27-C ) :   1.2990
B( 26-C , 77-H ) :   0.9820 B( 27-C , 28-C ) :   1.4470 B( 27-C , 32-C ) :   0.9952
B( 28-C , 29-S ) :   1.1120 B( 28-C , 30-C ) :   1.1917 B( 30-C , 31-C ) :   1.4527
B( 30-C , 40-S ) :   1.1139 B( 31-C , 32-C ) :   0.9971 B( 31-C , 38-C ) :   1.2966
B( 32-C , 33-C ) :   1.7138 B( 33-C , 34-C ) :   1.1347 B( 33-C , 36-C ) :   1.1333
B( 34-C , 35-N ) :   2.9905 B( 36-C , 37-N ) :   2.9898 B( 38-C , 39-C ) :   1.4638
B( 38-C , 78-H ) :   0.9791 B( 39-C , 40-S ) :   1.1004 B( 39-C , 41-C ) :   1.1614
B( 41-C , 42-C ) :   1.5320 B( 41-C , 46-S ) :   1.0533 B( 42-C , 43-C ) :   1.2344
B( 42-C , 79-H ) :   0.9581 B( 43-C , 44-C ) :   1.0492 B( 43-C , 52-C ) :   1.4070
B( 44-C , 45-C ) :   1.6162 B( 44-C , 47-C ) :   1.1790 B( 45-C , 46-S ) :   1.1337
B( 45-C , 80-H ) :   0.9402 B( 47-C , 48-C ) :   1.4408 B( 47-C , 51-S ) :   1.0746
B( 48-C , 49-C ) :   1.2165 B( 48-C , 52-C ) :   1.1054 B( 49-C , 50-C ) :   1.5874
B( 49-C , 81-H ) :   0.9967 B( 50-C , 51-S ) :   1.1554 B( 50-C , 82-H ) :   0.9662
B( 52-C , 53-C ) :   1.1325 B( 53-C , 54-C ) :   1.6717 B( 53-C , 83-H ) :   0.9538
B( 54-C , 55-C ) :   1.0706 B( 54-C , 84-H ) :   0.9802 B( 55-C , 56-C ) :   1.2755
B( 55-C , 60-C ) :   1.3618 B( 56-C , 57-C ) :   1.4240 B( 56-C , 85-H ) :   0.9933
B( 57-C , 58-C ) :   1.2969 B( 57-C , 86-H ) :   0.9918 B( 58-C , 59-C ) :   1.2925
B( 58-C , 65-N ) :   1.1957 B( 59-C , 60-C ) :   1.2899 B( 59-C , 61-C ) :   1.1282
B( 60-C , 87-H ) :   0.9988 B( 61-C , 62-C ) :   1.6410 B( 61-C , 88-H ) :   0.9864
B( 62-C , 63-C ) :   0.9509 B( 62-C , 66-C ) :   1.1112 B( 63-C , 64-O ) :   2.2419
B( 63-C , 65-N ) :   1.0877 B( 65-N , 89-H ) :   0.9023 B( 66-C , 67-N ) :   3.0433

-----------------------------------------------------------------------------
         ABSORPTION SPECTRUM VIA TRANSITION ELECTRIC DIPOLE MOMENTS
-----------------------------------------------------------------------------
State   Energy  Wavelength   fosc         T2         TX        TY        TZ
        (cm-1)    (nm)                  (au**2)     (au)      (au)      (au)
-----------------------------------------------------------------------------
   0    9803.0   1020.1   0.161212449   5.41396   2.13736   0.13119   0.91018
   1   15786.5    633.5   0.027276676   0.56883  -0.06668   0.70641   0.25568
   2   19084.2    524.0   0.839264472  14.47770  -3.47734   1.01005  -1.16859
   3   21957.0    455.4   0.618220084   9.26929  -1.42452  -1.95267  -1.85125
   4   22531.5    443.8   0.128588810   1.87884   0.78058   0.85103   0.73843
   5   23898.2    418.4   0.339527893   4.67721   0.82034  -1.82263  -0.82599
   6   24427.6    409.4   0.146455502   1.97379   0.82878  -1.11362  -0.21622
   7   24833.6    402.7   0.110105898   1.45964   0.23393   0.96132   0.69339
   8   26000.8    384.6   0.369117110   4.67361  -0.94515  -1.67799  -0.98217
   9   27142.5    368.4   0.007806131   0.09468  -0.15014   0.21070   0.16657
  10   28326.3    353.0   0.072684172   0.84474  -0.22945  -0.83735   0.30158
  11   29261.4    341.7   0.037719940   0.42438  -0.59876   0.25215  -0.04778
  12   29943.8    334.0   0.123874005   1.36191   1.07877   0.12005   0.42866
  13   30067.4    332.6   0.054732463   0.59927   0.31469  -0.70653  -0.03262
  14   31149.8    321.0   0.036752253   0.38842   0.28053   0.51751   0.20471
  15   31395.0    318.5   0.838688161   8.79460  -0.69428  -2.59370  -1.25909
  16   31707.2    315.4   0.178174092   1.84996   1.31651  -0.10742  -0.32436
  17   32016.0    312.3   0.155680800   1.60082  -0.93696   0.76582   0.36941
  18   32621.9    306.5   0.654021087   6.60022   1.65753  -1.87867  -0.56869
  19   33072.1    302.4   0.113047073   1.12531  -0.41739  -0.66530  -0.71308
  20   33688.1    296.8   0.203280672   1.98653   0.88500  -1.06662  -0.25616
  21   34141.7    292.9   0.284481235   2.74311   1.61581  -0.12160   0.34277
  22   34389.4    290.8   0.088149084   0.84386   0.33878   0.85013   0.07980
  23   34852.8    286.9   0.248527766   2.34754  -1.22793  -0.79240  -0.46025
  24   35382.4    282.6   0.056999873   0.53035  -0.07727  -0.67458  -0.26328
  25   35649.7    280.5   0.053516175   0.49420   0.67495   0.19106   0.04634
  26   35738.3    279.8   0.034893728   0.32143   0.36874  -0.36077  -0.23518
  27   35951.2    278.2   0.052609848   0.48176  -0.67906   0.11691   0.08348
  28   36586.2    273.3   0.036361948   0.32719  -0.17818  -0.53860   0.07318
  29   36810.7    271.7   0.280848835   2.51174   1.43282   0.36400   0.57119
  30   37635.4    265.7   0.016053431   0.14043   0.20704  -0.09809  -0.29655
  31   37699.6    265.3   0.000990373   0.00865   0.02313  -0.02183   0.08739
  32   37972.1    263.4   0.015241287   0.13214  -0.01544   0.11922   0.34306
  33   38141.0    262.2   0.010713017   0.09247  -0.18589  -0.11293  -0.21251
  34   38232.3    261.6   0.016341878   0.14072   0.37098  -0.05223   0.01902
  35   38251.1    261.4   0.000956525   0.00823   0.04546   0.04887  -0.06146
  36   38440.4    260.1   0.073225778   0.62712   0.40910  -0.64389  -0.21253
  37   38819.1    257.6   0.002571999   0.02181  -0.12937  -0.01092  -0.07040
  38   39099.7    255.8   0.085865265   0.72297  -0.33987   0.72980   0.27360
  39   39897.9    250.6   0.103984804   0.85802  -0.10648   0.73741   0.55036
  40   40111.6    249.3   0.088068516   0.72281  -0.15746  -0.71056  -0.43946
  41   40303.9    248.1   0.042819727   0.34976   0.52541  -0.25104  -0.10338

FINAL SINGLE POINT ENERGY     -5009.286454559683

DIPOLE MOMENT
-------------
                                X             Y             Z
Electronic contribution:     -3.20166     -12.28977      -1.02069
Nuclear contribution   :      5.41236       8.99620       0.13491
                        -----------------------------------------
Total Dipole Moment    :      2.21070      -3.29357      -0.88578
                        -----------------------------------------
Magnitude (a.u.)       :      4.06441
Magnitude (Debye)      :     10.33090

Rotational constants in cm-1:     0.000859     0.000370     0.000267
Rotational constants in MHz :    25.755794    11.078268     7.996478

                             ****ORCA TERMINATED NORMALLY****
TOTAL RUN TIME: 0 days 0 hours 7 minutes 33 seconds 39 msec
