                         Program Version 4.2.0 -  RELEASE  -
|  1> # ORCA input file
|  2> # SCF done       -151.387381426798          0.000883927739
|  3> ! CAM-B3LYP def2-SVP def2/J RIJCOSX Grid4 TightSCF
|  4> %maxcore 5000
|  5> %tddft
|  6>     Mode sTDDFT
|  7>     Ethresh 5.0
|  8>     maxcore 5000
|  9> end
| 10>
| 11> %pal
| 12>   nprocs 6
| 13>   end
| 14> * xyz 0 1
| 15>    O       -2.33168         2.94638         2.14824
| 16>    C       -1.91870         3.91556         1.29191
| 17>    N       -2.72036         4.08388         0.28240
| 18>    C       -3.72828         3.17847         0.46694
| 19>    C       -3.46964         2.48420         1.62709
| 20>    C       -4.84126         3.04613        -0.46618
| 21>    O       -5.74759         2.26392        -0.34449
| 22>    C       -0.70257         4.62238         1.55129
| 23>    O       -0.28520         5.56734         0.69638
| 24>    C        0.88291         6.06566         1.15500
| 25>    C        1.22804         5.43190         2.33560
| 26>    C        0.20626         4.50174         2.59162
| 27>    C        0.12290         3.57274         3.75044
| 28>    F       -0.97915         3.76804         4.49564
| 29>    F        0.10458         2.27971         3.38099
| 30>    F        1.16823         3.71369         4.57766
| 31>    C        1.58067         7.08429         0.44070
| 32>    C        1.11487         7.61741        -0.71020
| 33>    C        1.74733         8.58956        -1.53538
| 34>    S        1.14997         8.69774        -3.16833
| 35>    C        2.37406         9.84420        -3.59137
| 36>    C        3.19350        10.13578        -2.50472
| 37>    C        2.81365         9.45719        -1.33338
| 38>    C        3.44725         9.74231         0.00163
| 39>    C        2.40532        10.00145         1.05593
| 40>    C        2.52891         9.66458         2.32563
| 41>    C        4.34655        10.98785        -0.08587
| 42>    C        5.23799        10.91872        -1.31593
| 43>    C        4.37994        11.04382        -2.56997
| 44>    C        2.46513        10.39051        -4.90369
| 45>    O        3.44342        11.27995        -5.15701
| 46>    C        3.35869        11.67847        -6.45140
| 47>    C        2.29180        11.03706        -7.05179
| 48>    C        1.71853        10.21139        -6.06717
| 49>    C        0.54009         9.33527        -6.28720
| 50>    F       -0.50298         9.64033        -5.49072
| 51>    F        0.08485         9.42460        -7.54525
| 52>    F        0.80245         8.03062        -6.07740
| 53>    C        4.32176        12.59627        -6.94523
| 54>    C        5.33466        13.03983        -6.15096
| 55>    C        6.36962        13.91456        -6.51708
| 56>    C        7.37649        14.25427        -5.65034
| 57>    C        8.48757        15.10281        -5.89150
| 58>    C        9.33835        15.22875        -4.83922
| 59>    C        8.95370        14.48685        -3.69389
| 60>    S        7.45817        13.62884        -4.00769
| 61>    C        9.60006        14.38866        -2.48595
| 62>    C       10.82054        15.01096        -2.09999
| 63>    C       11.22354        14.71664        -0.84469
| 64>    C       10.34748        13.83165        -0.13086
| 65>    S        8.97765        13.40943        -1.17170
| 66>    C       10.48889        13.36605         1.11707
| 67>    H       -3.99311         1.69881         2.13233
| 68>    H       -4.77327         3.74939        -1.31382
| 69>    H        2.09448         5.60893         2.93795
| 70>    H        2.51704         7.38499         0.87555
| 71>    H        0.18436         7.22583        -1.10184
| 72>    H        4.07297         8.89154         0.29675
| 73>    H        1.53904        10.55366         0.71802
| 74>    H        3.38603         9.12135         2.69082
| 75>    H        1.77986         9.91402         3.05668
| 76>    H        4.94347        11.05406         0.82460
| 77>    H        3.72155        11.88176        -0.14220
| 78>    H        5.77173         9.96619        -1.32644
| 79>    H        5.97831        11.71985        -1.29947
| 80>    H        4.97550        10.80342        -3.45233
| 81>    H        4.03773        12.07682        -2.68433
| 82>    H        1.96156        11.13832        -8.06469
| 83>    H        4.22544        12.90780        -7.97351
| 84>    H        5.36318        12.67504        -5.13182
| 85>    H        6.38958        14.32728        -7.51617
| 86>    H        8.61960        15.58903        -6.84218
| 87>    H       10.23028        15.82935        -4.85101
| 88>    H       11.35674        15.65488        -2.77438
| 89>    H       12.11948        15.09060        -0.38187
| 90>    H       11.33690        13.64882         1.71532
| 91>    H        9.76743        12.70376         1.55916
| 92> *
| 93>
| 94>                          ****END OF INPUT****

CARTESIAN COORDINATES (ANGSTROEM)
---------------------------------
  O     -2.331680    2.946380    2.148240
  C     -1.918700    3.915560    1.291910
  N     -2.720360    4.083880    0.282400
  C     -3.728280    3.178470    0.466940
  C     -3.469640    2.484200    1.627090
  C     -4.841260    3.046130   -0.466180
  O     -5.747590    2.263920   -0.344490
  C     -0.702570    4.622380    1.551290
  O     -0.285200    5.567340    0.696380
  C      0.882910    6.065660    1.155000
  C      1.228040    5.431900    2.335600
  C      0.206260    4.501740    2.591620
  C      0.122900    3.572740    3.750440
  F     -0.979150    3.768040    4.495640
  F      0.104580    2.279710    3.380990
  F      1.168230    3.713690    4.577660
  C      1.580670    7.084290    0.440700
  C      1.114870    7.617410   -0.710200
  C      1.747330    8.589560   -1.535380
  S      1.149970    8.697740   -3.168330
  C      2.374060    9.844200   -3.591370
  C      3.193500   10.135780   -2.504720
  C      2.813650    9.457190   -1.333380
  C      3.447250    9.742310    0.001630
  C      2.405320   10.001450    1.055930
  C      2.528910    9.664580    2.325630
  C      4.346550   10.987850   -0.085870
  C      5.237990   10.918720   -1.315930
  C      4.379940   11.043820   -2.569970
  C      2.465130   10.390510   -4.903690
  O      3.443420   11.279950   -5.157010
  C      3.358690   11.678470   -6.451400
  C      2.291800   11.037060   -7.051790
  C      1.718530   10.211390   -6.067170
  C      0.540090    9.335270   -6.287200
  F     -0.502980    9.640330   -5.490720
  F      0.084850    9.424600   -7.545250
  F      0.802450    8.030620   -6.077400
  C      4.321760   12.596270   -6.945230
  C      5.334660   13.039830   -6.150960
  C      6.369620   13.914560   -6.517080
  C      7.376490   14.254270   -5.650340
  C      8.487570   15.102810   -5.891500
  C      9.338350   15.228750   -4.839220
  C      8.953700   14.486850   -3.693890
  S      7.458170   13.628840   -4.007690
  C      9.600060   14.388660   -2.485950
  C     10.820540   15.010960   -2.099990
  C     11.223540   14.716640   -0.844690
  C     10.347480   13.831650   -0.130860
  S      8.977650   13.409430   -1.171700
  C     10.488890   13.366050    1.117070
  H     -3.993110    1.698810    2.132330
  H     -4.773270    3.749390   -1.313820
  H      2.094480    5.608930    2.937950
  H      2.517040    7.384990    0.875550
  H      0.184360    7.225830   -1.101840
  H      4.072970    8.891540    0.296750
  H      1.539040   10.553660    0.718020
  H      3.386030    9.121350    2.690820
  H      1.779860    9.914020    3.056680
  H      4.943470   11.054060    0.824600
  H      3.721550   11.881760   -0.142200
  H      5.771730    9.966190   -1.326440
  H      5.978310   11.719850   -1.299470
  H      4.975500   10.803420   -3.452330
  H      4.037730   12.076820   -2.684330
  H      1.961560   11.138320   -8.064690
  H      4.225440   12.907800   -7.973510
  H      5.363180   12.675040   -5.131820
  H      6.389580   14.327280   -7.516170
  H      8.619600   15.589030   -6.842180
  H     10.230280   15.829350   -4.851010
  H     11.356740   15.654880   -2.774380
  H     12.119480   15.090600   -0.381870
  H     11.336900   13.648820    1.715320
  H      9.767430   12.703760    1.559160

 Total Charge           Charge          ....    0
 Multiplicity           Mult            ....    1
 Number of Electrons    NEL             ....  394
 Basis Dimension        Dim             ....  865

ORBITAL ENERGIES
----------------

  NO   OCC          E(Eh)            E(eV)
   0   2.0000     -88.953329     -2420.5431
   1   2.0000     -88.943736     -2420.2821
   2   2.0000     -88.941471     -2420.2205
   3   2.0000     -24.798132      -674.7915
   4   2.0000     -24.793225      -674.6579
   5   2.0000     -24.791398      -674.6082
   6   2.0000     -24.791081      -674.5996
   7   2.0000     -24.788178      -674.5206
   8   2.0000     -24.787677      -674.5070
   9   2.0000     -19.320187      -525.7290
  10   2.0000     -19.309870      -525.4483
  11   2.0000     -19.297153      -525.1022
  12   2.0000     -19.210109      -522.7336
  13   2.0000     -14.419230      -392.3672
  14   2.0000     -10.518942      -286.2350
  15   2.0000     -10.513108      -286.0762
  16   2.0000     -10.380007      -282.4544
  17   2.0000     -10.358722      -281.8751
  18   2.0000     -10.354874      -281.7704
  19   2.0000     -10.352694      -281.7111
  20   2.0000     -10.350536      -281.6524
  21   2.0000     -10.345744      -281.5220
  22   2.0000     -10.333993      -281.2022
  23   2.0000     -10.311932      -280.6019
  24   2.0000     -10.310106      -280.5522
  25   2.0000     -10.308920      -280.5200
  26   2.0000     -10.307886      -280.4918
  27   2.0000     -10.305745      -280.4336
  28   2.0000     -10.303970      -280.3853
  29   2.0000     -10.303353      -280.3685
  30   2.0000     -10.300426      -280.2888
  31   2.0000     -10.291679      -280.0508
  32   2.0000     -10.290203      -280.0107
  33   2.0000     -10.289362      -279.9878
  34   2.0000     -10.288278      -279.9583
  35   2.0000     -10.287935      -279.9489
  36   2.0000     -10.286691      -279.9151
  37   2.0000     -10.285790      -279.8906
  38   2.0000     -10.284549      -279.8568
  39   2.0000     -10.282609      -279.8040
  40   2.0000     -10.282132      -279.7910
  41   2.0000     -10.280986      -279.7599
  42   2.0000     -10.280919      -279.7580
  43   2.0000     -10.278038      -279.6796
  44   2.0000     -10.277663      -279.6694
  45   2.0000     -10.277422      -279.6629
  46   2.0000     -10.272340      -279.5246
  47   2.0000     -10.269360      -279.4435
  48   2.0000     -10.264049      -279.2990
  49   2.0000     -10.263327      -279.2793
  50   2.0000     -10.258607      -279.1509
  51   2.0000     -10.257914      -279.1320
  52   2.0000      -8.048751      -219.0177
  53   2.0000      -8.039872      -218.7760
  54   2.0000      -8.037985      -218.7247
  55   2.0000      -6.018013      -163.7584
  56   2.0000      -6.013859      -163.6454
  57   2.0000      -6.010807      -163.5624
  58   2.0000      -6.009632      -163.5304
  59   2.0000      -6.007837      -163.4815
  60   2.0000      -6.005723      -163.4240
  61   2.0000      -6.003902      -163.3745
  62   2.0000      -6.000653      -163.2861
  63   2.0000      -5.998521      -163.2281
  64   2.0000      -1.384169       -37.6652
  65   2.0000      -1.379818       -37.5468
  66   2.0000      -1.288129       -35.0518
  67   2.0000      -1.283454       -34.9246
  68   2.0000      -1.283046       -34.9135
  69   2.0000      -1.279055       -34.8049
  70   2.0000      -1.250657       -34.0321
  71   2.0000      -1.230877       -33.4939
  72   2.0000      -1.219225       -33.1768
  73   2.0000      -1.123736       -30.5784
  74   2.0000      -1.027827       -27.9686
  75   2.0000      -0.993959       -27.0470
  76   2.0000      -0.991643       -26.9840
  77   2.0000      -0.971073       -26.4243
  78   2.0000      -0.935390       -25.4532
  79   2.0000      -0.928711       -25.2715
  80   2.0000      -0.923898       -25.1405
  81   2.0000      -0.918013       -24.9804
  82   2.0000      -0.915610       -24.9150
  83   2.0000      -0.899597       -24.4793
  84   2.0000      -0.885659       -24.1000
  85   2.0000      -0.873829       -23.7781
  86   2.0000      -0.865736       -23.5579
  87   2.0000      -0.847188       -23.0532
  88   2.0000      -0.846450       -23.0331
  89   2.0000      -0.830693       -22.6043
  90   2.0000      -0.823005       -22.3951
  91   2.0000      -0.819563       -22.3014
  92   2.0000      -0.812761       -22.1163
  93   2.0000      -0.798763       -21.7355
  94   2.0000      -0.795134       -21.6367
  95   2.0000      -0.787594       -21.4315
  96   2.0000      -0.775435       -21.1006
  97   2.0000      -0.764999       -20.8167
  98   2.0000      -0.741668       -20.1818
  99   2.0000      -0.725990       -19.7552
 100   2.0000      -0.719472       -19.5778
 101   2.0000      -0.718495       -19.5512
 102   2.0000      -0.710542       -19.3348
 103   2.0000      -0.700854       -19.0712
 104   2.0000      -0.697395       -18.9771
 105   2.0000      -0.690659       -18.7938
 106   2.0000      -0.687679       -18.7127
 107   2.0000      -0.678393       -18.4600
 108   2.0000      -0.675760       -18.3884
 109   2.0000      -0.666603       -18.1392
 110   2.0000      -0.663045       -18.0424
 111   2.0000      -0.662252       -18.0208
 112   2.0000      -0.662226       -18.0201
 113   2.0000      -0.655841       -17.8463
 114   2.0000      -0.646140       -17.5824
 115   2.0000      -0.640077       -17.4174
 116   2.0000      -0.635911       -17.3040
 117   2.0000      -0.622315       -16.9340
 118   2.0000      -0.616031       -16.7630
 119   2.0000      -0.614368       -16.7178
 120   2.0000      -0.610472       -16.6118
 121   2.0000      -0.604266       -16.4429
 122   2.0000      -0.600146       -16.3308
 123   2.0000      -0.597218       -16.2511
 124   2.0000      -0.590149       -16.0588
 125   2.0000      -0.584065       -15.8932
 126   2.0000      -0.570102       -15.5133
 127   2.0000      -0.567118       -15.4321
 128   2.0000      -0.566581       -15.4175
 129   2.0000      -0.565221       -15.3805
 130   2.0000      -0.562143       -15.2967
 131   2.0000      -0.554180       -15.0800
 132   2.0000      -0.547493       -14.8980
 133   2.0000      -0.542677       -14.7670
 134   2.0000      -0.542543       -14.7633
 135   2.0000      -0.540028       -14.6949
 136   2.0000      -0.539490       -14.6803
 137   2.0000      -0.538611       -14.6563
 138   2.0000      -0.535031       -14.5589
 139   2.0000      -0.533464       -14.5163
 140   2.0000      -0.518618       -14.1123
 141   2.0000      -0.515923       -14.0390
 142   2.0000      -0.513638       -13.9768
 143   2.0000      -0.509458       -13.8631
 144   2.0000      -0.507923       -13.8213
 145   2.0000      -0.504366       -13.7245
 146   2.0000      -0.503260       -13.6944
 147   2.0000      -0.501678       -13.6513
 148   2.0000      -0.501261       -13.6400
 149   2.0000      -0.497954       -13.5500
 150   2.0000      -0.497309       -13.5325
 151   2.0000      -0.496417       -13.5082
 152   2.0000      -0.494560       -13.4577
 153   2.0000      -0.490666       -13.3517
 154   2.0000      -0.487031       -13.2528
 155   2.0000      -0.484989       -13.1972
 156   2.0000      -0.481570       -13.1042
 157   2.0000      -0.480372       -13.0716
 158   2.0000      -0.478958       -13.0331
 159   2.0000      -0.477209       -12.9855
 160   2.0000      -0.476050       -12.9540
 161   2.0000      -0.470676       -12.8077
 162   2.0000      -0.467838       -12.7305
 163   2.0000      -0.464485       -12.6393
 164   2.0000      -0.463325       -12.6077
 165   2.0000      -0.461394       -12.5552
 166   2.0000      -0.460254       -12.5241
 167   2.0000      -0.457076       -12.4377
 168   2.0000      -0.454901       -12.3785
 169   2.0000      -0.451945       -12.2981
 170   2.0000      -0.444111       -12.0849
 171   2.0000      -0.429650       -11.6914
 172   2.0000      -0.428961       -11.6726
 173   2.0000      -0.422260       -11.4903
 174   2.0000      -0.420768       -11.4497
 175   2.0000      -0.416381       -11.3303
 176   2.0000      -0.408800       -11.1240
 177   2.0000      -0.406612       -11.0645
 178   2.0000      -0.400395       -10.8953
 179   2.0000      -0.397115       -10.8060
 180   2.0000      -0.394927       -10.7465
 181   2.0000      -0.386261       -10.5107
 182   2.0000      -0.382942       -10.4204
 183   2.0000      -0.380784       -10.3617
 184   2.0000      -0.380725       -10.3600
 185   2.0000      -0.373025       -10.1505
 186   2.0000      -0.356664        -9.7053
 187   2.0000      -0.339656        -9.2425
 188   2.0000      -0.338590        -9.2135
 189   2.0000      -0.331128        -9.0105
 190   2.0000      -0.328612        -8.9420
 191   2.0000      -0.323324        -8.7981
 192   2.0000      -0.307893        -8.3782
 193   2.0000      -0.305848        -8.3225
 194   2.0000      -0.278220        -7.5707
 195   2.0000      -0.245619        -6.6836
 196   2.0000      -0.212503        -5.7825
 197   0.0000      -0.075313        -2.0494
 198   0.0000      -0.051826        -1.4102
 199   0.0000      -0.019612        -0.5337
 200   0.0000      -0.012605        -0.3430
 201   0.0000       0.000168         0.0046

MULLIKEN ATOMIC CHARGES
-----------------------
   0 O :   -0.164844
   1 C :    0.034944
   2 N :   -0.056595
   3 C :   -0.050344
   4 C :    0.142843
   5 C :    0.167677
   6 O :   -0.175431
   7 C :    0.147712
   8 O :   -0.170614
   9 C :    0.177483
  10 C :   -0.067209
  11 C :   -0.127585
  12 C :    0.537275
  13 F :   -0.163641
  14 F :   -0.164194
  15 F :   -0.157164
  16 C :    0.008827
  17 C :    0.045045
  18 C :   -0.121662
  19 S :    0.147042
  20 C :   -0.170407
  21 C :   -0.085414
  22 C :   -0.022048
  23 C :    0.005067
  24 C :   -0.018659
  25 C :   -0.020868
  26 C :    0.068103
  27 C :    0.059619
  28 C :    0.116231
  29 C :    0.175351
  30 O :   -0.215571
  31 C :    0.199826
  32 C :   -0.067356
  33 C :   -0.162844
  34 C :    0.532793
  35 F :   -0.167075
  36 F :   -0.156861
  37 F :   -0.166562
  38 C :   -0.024365
  39 C :    0.004704
  40 C :    0.000867
  41 C :   -0.021384
  42 C :    0.038579
  43 C :    0.028542
  44 C :   -0.043415
  45 S :    0.052449
  46 C :   -0.063114
  47 C :    0.025758
  48 C :    0.053659
  49 C :   -0.061384
  50 S :    0.073733
  51 C :   -0.029352
  52 H :    0.038175
  53 H :   -0.007086
  54 H :   -0.004580
  55 H :   -0.018315
  56 H :    0.007358
  57 H :    0.006244
  58 H :    0.006334
  59 H :    0.006056
  60 H :    0.022522
  61 H :   -0.003227
  62 H :   -0.000852
  63 H :   -0.000095
  64 H :    0.003312
  65 H :    0.032758
  66 H :    0.017314
  67 H :   -0.007444
  68 H :   -0.011752
  69 H :    0.010259
  70 H :   -0.019521
  71 H :   -0.012948
  72 H :   -0.013621
  73 H :   -0.010156
  74 H :   -0.011005
  75 H :    0.021165
  76 H :    0.020940
Sum of atomic charges:   -0.0000000

LOEWDIN ATOMIC CHARGES
----------------------
   0 O :    0.037301
   1 C :    0.027189
   2 N :   -0.084429
   3 C :   -0.107447
   4 C :    0.079114
   5 C :    0.104723
   6 O :   -0.131063
   7 C :    0.020538
   8 O :    0.047871
   9 C :    0.048827
  10 C :   -0.048789
  11 C :   -0.108869
  12 C :    0.165277
  13 F :   -0.063444
  14 F :   -0.063741
  15 F :   -0.056792
  16 C :   -0.037323
  17 C :   -0.026783
  18 C :   -0.168482
  19 S :    0.467329
  20 C :   -0.203211
  21 C :   -0.037638
  22 C :   -0.051761
  23 C :   -0.029146
  24 C :   -0.003216
  25 C :   -0.063762
  26 C :   -0.015236
  27 C :   -0.030140
  28 C :   -0.031025
  29 C :    0.043640
  30 O :    0.029597
  31 C :    0.031754
  32 C :   -0.042769
  33 C :   -0.136679
  34 C :    0.162399
  35 F :   -0.067540
  36 F :   -0.056783
  37 F :   -0.067172
  38 C :   -0.042922
  39 C :   -0.027690
  40 C :   -0.060626
  41 C :   -0.137781
  42 C :   -0.035510
  43 C :   -0.029128
  44 C :   -0.180893
  45 S :    0.363098
  46 C :   -0.176713
  47 C :   -0.026542
  48 C :   -0.030985
  49 C :   -0.138846
  50 S :    0.348914
  51 C :   -0.076277
  52 H :    0.038460
  53 H :    0.003423
  54 H :    0.037070
  55 H :    0.035627
  56 H :    0.034258
  57 H :    0.029792
  58 H :    0.028324
  59 H :    0.016582
  60 H :    0.025049
  61 H :    0.024516
  62 H :    0.023798
  63 H :    0.021726
  64 H :    0.023772
  65 H :    0.031775
  66 H :    0.032763
  67 H :    0.035913
  68 H :    0.035875
  69 H :    0.022717
  70 H :    0.031362
  71 H :    0.033624
  72 H :    0.031500
  73 H :    0.032738
  74 H :    0.033694
  75 H :    0.029219
  76 H :    0.026009

  Mayer bond orders larger than 0.100000
B(  0-O ,  1-C ) :   1.2013 B(  0-O ,  4-C ) :   1.1687 B(  1-C ,  2-N ) :   1.7417
B(  1-C ,  7-C ) :   1.0274 B(  2-N ,  3-C ) :   1.2958 B(  3-C ,  4-C ) :   1.5021
B(  3-C ,  5-C ) :   0.9657 B(  4-C , 52-H ) :   0.9915 B(  5-C ,  6-O ) :   2.2058
B(  5-C , 53-H ) :   0.9517 B(  7-C ,  8-O ) :   1.2075 B(  7-C ,  9-C ) :   0.1211
B(  7-C , 11-C ) :   1.4956 B(  8-O ,  9-C ) :   1.1445 B(  9-C , 10-C ) :   1.4177
B(  9-C , 16-C ) :   1.1625 B( 10-C , 11-C ) :   1.2498 B( 10-C , 54-H ) :   1.0196
B( 11-C , 12-C ) :   0.9376 B( 12-C , 13-F ) :   1.1767 B( 12-C , 14-F ) :   1.1746
B( 12-C , 15-F ) :   1.1806 B( 16-C , 17-C ) :   1.6746 B( 16-C , 55-H ) :   0.9469
B( 17-C , 18-C ) :   1.1132 B( 17-C , 56-H ) :   0.9498 B( 18-C , 19-S ) :   1.1191
B( 18-C , 20-C ) :   0.1178 B( 18-C , 22-C ) :   1.4813 B( 19-S , 20-C ) :   1.1484
B( 20-C , 21-C ) :   1.4750 B( 20-C , 29-C ) :   1.1144 B( 21-C , 22-C ) :   1.3519
B( 21-C , 28-C ) :   1.0551 B( 22-C , 23-C ) :   0.9698 B( 23-C , 24-C ) :   1.0218
B( 23-C , 26-C ) :   1.0649 B( 23-C , 57-H ) :   0.8784 B( 24-C , 25-C ) :   2.0027
B( 24-C , 58-H ) :   0.9641 B( 25-C , 59-H ) :   0.9510 B( 25-C , 60-H ) :   0.9509
B( 26-C , 27-C ) :   1.0695 B( 26-C , 61-H ) :   0.9319 B( 26-C , 62-H ) :   0.9329
B( 27-C , 28-C ) :   1.0863 B( 27-C , 63-H ) :   0.9367 B( 27-C , 64-H ) :   0.9292
B( 28-C , 65-H ) :   0.9102 B( 28-C , 66-H ) :   0.9045 B( 29-C , 30-O ) :   1.1771
B( 29-C , 31-C ) :   0.1023 B( 29-C , 33-C ) :   1.4572 B( 30-O , 31-C ) :   1.1085
B( 31-C , 32-C ) :   1.4115 B( 31-C , 38-C ) :   1.1463 B( 32-C , 33-C ) :   1.2499
B( 32-C , 67-H ) :   1.0201 B( 33-C , 34-C ) :   0.9538 B( 34-C , 35-F ) :   1.1651
B( 34-C , 36-F ) :   1.1776 B( 34-C , 37-F ) :   1.1655 B( 38-C , 39-C ) :   1.6203
B( 38-C , 68-H ) :   0.9750 B( 39-C , 40-C ) :   1.1508 B( 39-C , 69-H ) :   0.9702
B( 40-C , 41-C ) :   1.5727 B( 40-C , 70-H ) :   0.9842 B( 41-C , 42-C ) :   1.1358
B( 41-C , 45-S ) :   1.0323 B( 42-C , 43-C ) :   1.6061 B( 42-C , 71-H ) :   0.9981
B( 43-C , 44-C ) :   1.1717 B( 43-C , 72-H ) :   0.9926 B( 44-C , 45-S ) :   1.0369
B( 44-C , 46-C ) :   1.5571 B( 46-C , 47-C ) :   1.1524 B( 46-C , 50-S ) :   1.0430
B( 47-C , 48-C ) :   1.6622 B( 47-C , 73-H ) :   0.9918 B( 48-C , 49-C ) :   1.0789
B( 48-C , 74-H ) :   0.9933 B( 49-C , 50-S ) :   1.0060 B( 49-C , 51-C ) :   1.8648
B( 51-C , 75-H ) :   0.9504 B( 51-C , 76-H ) :   0.9420

-----------------------------------------------------------------------------
         ABSORPTION SPECTRUM VIA TRANSITION ELECTRIC DIPOLE MOMENTS
-----------------------------------------------------------------------------
State   Energy  Wavelength   fosc         T2         TX        TY        TZ
        (cm-1)    (nm)                  (au**2)     (au)      (au)      (au)
-----------------------------------------------------------------------------
   0   16186.9    617.8   1.070829009  21.77865  -3.89452  -2.35101  -1.04122
   1   22409.5    446.2   0.274792925   4.03692  -0.28108   0.70978  -1.85853
   2   23887.3    418.6   1.349058842  18.59261  -0.37747  -2.11418   3.73903
   3   28511.0    350.7   0.172826425   1.99560  -0.57930  -0.95281   0.86728
   4   28835.5    346.8   0.153460765   1.75204   0.86795   0.34611   0.93750
   5   31675.5    315.7   0.205115769   2.13182   0.01049  -0.52849   1.36103
   6   32513.7    307.6   0.020773147   0.21034   0.22815   0.24980  -0.30965
   7   33701.0    296.7   0.030306398   0.29605   0.42216   0.33613   0.06962
   8   33981.4    294.3   0.000173279   0.00168   0.02823   0.02913   0.00580
   9   34294.7    291.6   0.016322414   0.15669  -0.00054   0.17820  -0.35345
  10   35562.2    281.2   0.024304902   0.22500  -0.34946  -0.30562  -0.09732
  11   35879.7    278.7   0.466357965   4.27904  -1.67889  -0.96694  -0.72484
  12   36238.9    275.9   0.020717633   0.18821   0.15142   0.25772  -0.31442
  13   37892.0    263.9   0.016091994   0.13981   0.35560   0.11169  -0.02969
  14   38307.2    261.0   0.088463252   0.76025  -0.57033  -0.09571  -0.65255
  15   38893.5    257.1   0.021545200   0.18237  -0.25681  -0.07377  -0.33312
  16   39530.2    253.0   0.060439969   0.50335   0.47507   0.34218   0.40072
  17   39805.1    251.2   0.068121168   0.56340   0.60581   0.44313  -0.00553
  18   40327.6    248.0   0.031573019   0.25774  -0.19025  -0.36129   0.30170

FINAL SINGLE POINT ENERGY     -3609.048624270939

DIPOLE MOMENT
-------------
                                X             Y             Z
Electronic contribution:    -54.51798     -53.97253      -1.31636
Nuclear contribution   :     57.75799      56.44868       1.25019
                        -----------------------------------------
Total Dipole Moment    :      3.24001       2.47615      -0.06617
                        -----------------------------------------
Magnitude (a.u.)       :      4.07841
Magnitude (Debye)      :     10.36649

Rotational constants in cm-1:     0.002227     0.000601     0.000481
Rotational constants in MHz :    66.764868    18.020567    14.420603

                             ****ORCA TERMINATED NORMALLY****
TOTAL RUN TIME: 0 days 0 hours 5 minutes 2 seconds 312 msec
