                         Program Version 4.2.0 -  RELEASE  -
|  1> # ORCA input file
|  2> # SCF done       -153.255246355050          0.000596199392
|  3> ! CAM-B3LYP def2-SVP def2/J RIJCOSX Grid4 TightSCF
|  4> %maxcore 5000
|  5> %tddft
|  6>     Mode sTDDFT
|  7>     Ethresh 5.0
|  8>     maxcore 5000
|  9> end
| 10>
| 11> %pal
| 12>   nprocs 6
| 13>   end
| 14> * xyz 0 1
| 15>    O       -2.42892         3.65716         2.47513
| 16>    C       -2.72845         3.18498         1.23851
| 17>    N       -3.37176         2.05600         1.26167
| 18>    C       -3.51472         1.74786         2.58481
| 19>    C       -2.92496         2.75094         3.32034
| 20>    C       -4.19687         0.53908         3.03610
| 21>    O       -4.34753         0.23085         4.18927
| 22>    C       -2.34562         3.91350         0.07065
| 23>    O       -1.69933         5.08378         0.18151
| 24>    C       -1.46466         5.55755        -1.06296
| 25>    C       -1.97032         4.67047        -1.99872
| 26>    C       -2.53709         3.61294        -1.26920
| 27>    C       -3.20979         2.40628        -1.82797
| 28>    F       -4.49379         2.30883        -1.45594
| 29>    F       -3.20686         2.42444        -3.17120
| 30>    F       -2.60956         1.26358        -1.46614
| 31>    C       -0.78439         6.80128        -1.19219
| 32>    C       -0.49081         7.39429        -2.37164
| 33>    C        0.18908         8.62973        -2.49291
| 34>    S        0.74528         9.57467        -1.12078
| 35>    C        1.42773        10.83542        -2.10324
| 36>    C        1.22897        10.53208        -3.45391
| 37>    C        0.53945         9.30455        -3.64701
| 38>    O        0.37164         9.05206        -4.95938
| 39>    C        0.94810        10.10633        -5.60394
| 40>    N        0.92683        10.12054        -7.01538
| 41>    O        1.44816        11.08396        -7.55071
| 42>    O        0.40263         9.19087        -7.59078
| 43>    C        1.48507        11.03551        -4.74866
| 44>    C        2.08584        11.97784        -1.60612
| 45>    O        2.56559        12.86616        -2.50540
| 46>    C        3.17185        13.87651        -1.83451
| 47>    C        3.08061        13.63820        -0.46743
| 48>    C        2.38827        12.43289        -0.31926
| 49>    C        2.05022        11.78077         0.97248
| 50>    F        2.59639        10.55554         1.09834
| 51>    F        2.47825        12.49441         2.01995
| 52>    F        0.72402        11.61455         1.14204
| 53>    C        3.77638        14.95018        -2.52220
| 54>    C        3.74267        15.07365        -3.88402
| 55>    C        4.32419        16.07946        -4.67104
| 56>    C        5.12955        17.13098        -4.29697
| 57>    C        5.66689        18.08544        -5.20213
| 58>    C        6.46329        19.02647        -4.63051
| 59>    C        6.60946        18.87704        -3.23029
| 60>    S        5.68153        17.49508        -2.67628
| 61>    C        7.35152        19.64881        -2.36691
| 62>    C        8.14135        20.78872        -2.69475
| 63>    C        8.77369        21.34727        -1.64041
| 64>    C        8.53213        20.68889        -0.38757
| 65>    S        7.44284        19.31719        -0.65305
| 66>    C        9.02363        21.01093         0.81596
| 67>    H       -2.81109         2.90412         4.37394
| 68>    H       -4.56880        -0.07610         2.19986
| 69>    H       -1.94210         4.75892        -3.06447
| 70>    H       -0.49754         7.27527        -0.26345
| 71>    H       -0.77093         6.93090        -3.30708
| 72>    H        1.98651        11.93731        -5.02981
| 73>    H        3.46321        14.25690         0.31760
| 74>    H        4.26307        15.68133        -1.89790
| 75>    H        3.19906        14.31325        -4.42894
| 76>    H        4.12746        16.01876        -5.73414
| 77>    H        5.44432        18.03792        -6.25357
| 78>    H        6.95052        19.81632        -5.17292
| 79>    H        8.20952        21.15030        -3.70518
| 80>    H        9.41285        22.21060        -1.69128
| 81>    H        9.68412        21.85217         0.93137
| 82>    H        8.77924        20.44672         1.69725
| 83> *
| 84>
| 85>                          ****END OF INPUT****

CARTESIAN COORDINATES (ANGSTROEM)
---------------------------------
  O     -2.428920    3.657160    2.475130
  C     -2.728450    3.184980    1.238510
  N     -3.371760    2.056000    1.261670
  C     -3.514720    1.747860    2.584810
  C     -2.924960    2.750940    3.320340
  C     -4.196870    0.539080    3.036100
  O     -4.347530    0.230850    4.189270
  C     -2.345620    3.913500    0.070650
  O     -1.699330    5.083780    0.181510
  C     -1.464660    5.557550   -1.062960
  C     -1.970320    4.670470   -1.998720
  C     -2.537090    3.612940   -1.269200
  C     -3.209790    2.406280   -1.827970
  F     -4.493790    2.308830   -1.455940
  F     -3.206860    2.424440   -3.171200
  F     -2.609560    1.263580   -1.466140
  C     -0.784390    6.801280   -1.192190
  C     -0.490810    7.394290   -2.371640
  C      0.189080    8.629730   -2.492910
  S      0.745280    9.574670   -1.120780
  C      1.427730   10.835420   -2.103240
  C      1.228970   10.532080   -3.453910
  C      0.539450    9.304550   -3.647010
  O      0.371640    9.052060   -4.959380
  C      0.948100   10.106330   -5.603940
  N      0.926830   10.120540   -7.015380
  O      1.448160   11.083960   -7.550710
  O      0.402630    9.190870   -7.590780
  C      1.485070   11.035510   -4.748660
  C      2.085840   11.977840   -1.606120
  O      2.565590   12.866160   -2.505400
  C      3.171850   13.876510   -1.834510
  C      3.080610   13.638200   -0.467430
  C      2.388270   12.432890   -0.319260
  C      2.050220   11.780770    0.972480
  F      2.596390   10.555540    1.098340
  F      2.478250   12.494410    2.019950
  F      0.724020   11.614550    1.142040
  C      3.776380   14.950180   -2.522200
  C      3.742670   15.073650   -3.884020
  C      4.324190   16.079460   -4.671040
  C      5.129550   17.130980   -4.296970
  C      5.666890   18.085440   -5.202130
  C      6.463290   19.026470   -4.630510
  C      6.609460   18.877040   -3.230290
  S      5.681530   17.495080   -2.676280
  C      7.351520   19.648810   -2.366910
  C      8.141350   20.788720   -2.694750
  C      8.773690   21.347270   -1.640410
  C      8.532130   20.688890   -0.387570
  S      7.442840   19.317190   -0.653050
  C      9.023630   21.010930    0.815960
  H     -2.811090    2.904120    4.373940
  H     -4.568800   -0.076100    2.199860
  H     -1.942100    4.758920   -3.064470
  H     -0.497540    7.275270   -0.263450
  H     -0.770930    6.930900   -3.307080
  H      1.986510   11.937310   -5.029810
  H      3.463210   14.256900    0.317600
  H      4.263070   15.681330   -1.897900
  H      3.199060   14.313250   -4.428940
  H      4.127460   16.018760   -5.734140
  H      5.444320   18.037920   -6.253570
  H      6.950520   19.816320   -5.172920
  H      8.209520   21.150300   -3.705180
  H      9.412850   22.210600   -1.691280
  H      9.684120   21.852170    0.931370
  H      8.779240   20.446720    1.697250

 Total Charge           Charge          ....    0
 Multiplicity           Mult            ....    1
 Number of Electrons    NEL             ....  392
 Basis Dimension        Dim             ....  820

ORBITAL ENERGIES
----------------

  NO   OCC          E(Eh)            E(eV)
   0   2.0000     -88.984619     -2421.3946
   1   2.0000     -88.955805     -2420.6105
   2   2.0000     -88.949901     -2420.4499
   3   2.0000     -24.807255      -675.0397
   4   2.0000     -24.802992      -674.9237
   5   2.0000     -24.802857      -674.9201
   6   2.0000     -24.792685      -674.6433
   7   2.0000     -24.785105      -674.4370
   8   2.0000     -24.784977      -674.4335
   9   2.0000     -19.322390      -525.7890
  10   2.0000     -19.316833      -525.6377
  11   2.0000     -19.315649      -525.6055
  12   2.0000     -19.313095      -525.5360
  13   2.0000     -19.246697      -523.7292
  14   2.0000     -19.243896      -523.6530
  15   2.0000     -19.211720      -522.7775
  16   2.0000     -14.658299      -398.8726
  17   2.0000     -14.421186      -392.4204
  18   2.0000     -10.527941      -286.4798
  19   2.0000     -10.514398      -286.1113
  20   2.0000     -10.391862      -282.7770
  21   2.0000     -10.382344      -282.5179
  22   2.0000     -10.365939      -282.0715
  23   2.0000     -10.360617      -281.9267
  24   2.0000     -10.357860      -281.8517
  25   2.0000     -10.356294      -281.8091
  26   2.0000     -10.351993      -281.6920
  27   2.0000     -10.351910      -281.6898
  28   2.0000     -10.350435      -281.6496
  29   2.0000     -10.338788      -281.3327
  30   2.0000     -10.325456      -280.9699
  31   2.0000     -10.323378      -280.9134
  32   2.0000     -10.318110      -280.7701
  33   2.0000     -10.317040      -280.7409
  34   2.0000     -10.316709      -280.7319
  35   2.0000     -10.316653      -280.7304
  36   2.0000     -10.308457      -280.5074
  37   2.0000     -10.307801      -280.4895
  38   2.0000     -10.307549      -280.4827
  39   2.0000     -10.305622      -280.4302
  40   2.0000     -10.305527      -280.4276
  41   2.0000     -10.299570      -280.2656
  42   2.0000     -10.297789      -280.2171
  43   2.0000     -10.296496      -280.1819
  44   2.0000     -10.295119      -280.1444
  45   2.0000     -10.293741      -280.1069
  46   2.0000     -10.292967      -280.0859
  47   2.0000     -10.290410      -280.0163
  48   2.0000     -10.288183      -279.9557
  49   2.0000     -10.286786      -279.9177
  50   2.0000     -10.282372      -279.7976
  51   2.0000     -10.282165      -279.7919
  52   2.0000      -8.078815      -219.8357
  53   2.0000      -8.051559      -219.0941
  54   2.0000      -8.046700      -218.9618
  55   2.0000      -6.048292      -164.5824
  56   2.0000      -6.044082      -164.4678
  57   2.0000      -6.040683      -164.3753
  58   2.0000      -6.021278      -163.8473
  59   2.0000      -6.017225      -163.7370
  60   2.0000      -6.016510      -163.7175
  61   2.0000      -6.012618      -163.6116
  62   2.0000      -6.012565      -163.6102
  63   2.0000      -6.007245      -163.4655
  64   2.0000      -1.394605       -37.9491
  65   2.0000      -1.378897       -37.5217
  66   2.0000      -1.328748       -36.1571
  67   2.0000      -1.298530       -35.3348
  68   2.0000      -1.293698       -35.2033
  69   2.0000      -1.281875       -34.8816
  70   2.0000      -1.278311       -34.7846
  71   2.0000      -1.253851       -34.1190
  72   2.0000      -1.236801       -33.6551
  73   2.0000      -1.234290       -33.5867
  74   2.0000      -1.231975       -33.5238
  75   2.0000      -1.145129       -31.1605
  76   2.0000      -1.125425       -30.6244
  77   2.0000      -1.031604       -28.0714
  78   2.0000      -1.009784       -27.4776
  79   2.0000      -1.002422       -27.2773
  80   2.0000      -0.979458       -26.6524
  81   2.0000      -0.947285       -25.7769
  82   2.0000      -0.936889       -25.4940
  83   2.0000      -0.934313       -25.4239
  84   2.0000      -0.930719       -25.3261
  85   2.0000      -0.925949       -25.1964
  86   2.0000      -0.906327       -24.6624
  87   2.0000      -0.898761       -24.4565
  88   2.0000      -0.888287       -24.1715
  89   2.0000      -0.876710       -23.8565
  90   2.0000      -0.857675       -23.3385
  91   2.0000      -0.854255       -23.2455
  92   2.0000      -0.836344       -22.7581
  93   2.0000      -0.829614       -22.5749
  94   2.0000      -0.819603       -22.3025
  95   2.0000      -0.806861       -21.9558
  96   2.0000      -0.798003       -21.7148
  97   2.0000      -0.797204       -21.6930
  98   2.0000      -0.780258       -21.2319
  99   2.0000      -0.770885       -20.9768
 100   2.0000      -0.755972       -20.5711
 101   2.0000      -0.740922       -20.1615
 102   2.0000      -0.725762       -19.7490
 103   2.0000      -0.719816       -19.5872
 104   2.0000      -0.717045       -19.5118
 105   2.0000      -0.703829       -19.1522
 106   2.0000      -0.702461       -19.1149
 107   2.0000      -0.700037       -19.0490
 108   2.0000      -0.692270       -18.8376
 109   2.0000      -0.682939       -18.5837
 110   2.0000      -0.679405       -18.4876
 111   2.0000      -0.676905       -18.4195
 112   2.0000      -0.672444       -18.2981
 113   2.0000      -0.661209       -17.9924
 114   2.0000      -0.660359       -17.9693
 115   2.0000      -0.659210       -17.9380
 116   2.0000      -0.653544       -17.7838
 117   2.0000      -0.643569       -17.5124
 118   2.0000      -0.643016       -17.4973
 119   2.0000      -0.637209       -17.3393
 120   2.0000      -0.629891       -17.1402
 121   2.0000      -0.627548       -17.0764
 122   2.0000      -0.617635       -16.8067
 123   2.0000      -0.610030       -16.5998
 124   2.0000      -0.608231       -16.5508
 125   2.0000      -0.600589       -16.3429
 126   2.0000      -0.600181       -16.3318
 127   2.0000      -0.590729       -16.0745
 128   2.0000      -0.588502       -16.0140
 129   2.0000      -0.586272       -15.9533
 130   2.0000      -0.583233       -15.8706
 131   2.0000      -0.576019       -15.6743
 132   2.0000      -0.571045       -15.5389
 133   2.0000      -0.568746       -15.4764
 134   2.0000      -0.567907       -15.4535
 135   2.0000      -0.564956       -15.3732
 136   2.0000      -0.559642       -15.2286
 137   2.0000      -0.555286       -15.1101
 138   2.0000      -0.552789       -15.0422
 139   2.0000      -0.546507       -14.8712
 140   2.0000      -0.537478       -14.6255
 141   2.0000      -0.536813       -14.6074
 142   2.0000      -0.532817       -14.4987
 143   2.0000      -0.532464       -14.4891
 144   2.0000      -0.523889       -14.2557
 145   2.0000      -0.518111       -14.0985
 146   2.0000      -0.515239       -14.0204
 147   2.0000      -0.514075       -13.9887
 148   2.0000      -0.512343       -13.9416
 149   2.0000      -0.511986       -13.9318
 150   2.0000      -0.510700       -13.8968
 151   2.0000      -0.507605       -13.8126
 152   2.0000      -0.504524       -13.7288
 153   2.0000      -0.501655       -13.6507
 154   2.0000      -0.500028       -13.6064
 155   2.0000      -0.496177       -13.5017
 156   2.0000      -0.491552       -13.3758
 157   2.0000      -0.491344       -13.3702
 158   2.0000      -0.489472       -13.3192
 159   2.0000      -0.486800       -13.2465
 160   2.0000      -0.481703       -13.1078
 161   2.0000      -0.480285       -13.0692
 162   2.0000      -0.477110       -12.9828
 163   2.0000      -0.475333       -12.9345
 164   2.0000      -0.472637       -12.8611
 165   2.0000      -0.471803       -12.8384
 166   2.0000      -0.470624       -12.8063
 167   2.0000      -0.465746       -12.6736
 168   2.0000      -0.465371       -12.6634
 169   2.0000      -0.461489       -12.5578
 170   2.0000      -0.449464       -12.2305
 171   2.0000      -0.439527       -11.9601
 172   2.0000      -0.435485       -11.8501
 173   2.0000      -0.433282       -11.7902
 174   2.0000      -0.429083       -11.6760
 175   2.0000      -0.421678       -11.4744
 176   2.0000      -0.417202       -11.3527
 177   2.0000      -0.405841       -11.0435
 178   2.0000      -0.393614       -10.7108
 179   2.0000      -0.392812       -10.6890
 180   2.0000      -0.389981       -10.6119
 181   2.0000      -0.386711       -10.5229
 182   2.0000      -0.383477       -10.4349
 183   2.0000      -0.382016       -10.3952
 184   2.0000      -0.381472       -10.3804
 185   2.0000      -0.374152       -10.1812
 186   2.0000      -0.360208        -9.8018
 187   2.0000      -0.347506        -9.4561
 188   2.0000      -0.344594        -9.3769
 189   2.0000      -0.332992        -9.0612
 190   2.0000      -0.332615        -9.0509
 191   2.0000      -0.329913        -8.9774
 192   2.0000      -0.312291        -8.4979
 193   2.0000      -0.286309        -7.7909
 194   2.0000      -0.252900        -6.8818
 195   2.0000      -0.220056        -5.9880
 196   0.0000      -0.097397        -2.6503
 197   0.0000      -0.070943        -1.9305
 198   0.0000      -0.050572        -1.3761
 199   0.0000      -0.021513        -0.5854
 200   0.0000      -0.015252        -0.4150

MULLIKEN ATOMIC CHARGES
-----------------------
   0 O :   -0.154758
   1 C :    0.028265
   2 N :   -0.068018
   3 C :   -0.044907
   4 C :    0.135350
   5 C :    0.169979
   6 O :   -0.174747
   7 C :    0.167103
   8 O :   -0.175321
   9 C :    0.207081
  10 C :   -0.089071
  11 C :   -0.139208
  12 C :    0.546110
  13 F :   -0.155642
  14 F :   -0.161471
  15 F :   -0.155926
  16 C :   -0.007288
  17 C :    0.018540
  18 C :   -0.171881
  19 S :    0.170469
  20 C :   -0.177904
  21 C :    0.135769
  22 C :    0.206698
  23 O :   -0.182497
  24 C :    0.233204
  25 N :    0.275074
  26 O :   -0.252374
  27 O :   -0.229671
  28 C :   -0.079836
  29 C :    0.175246
  30 O :   -0.213904
  31 C :    0.189220
  32 C :   -0.061622
  33 C :   -0.145968
  34 C :    0.532193
  35 F :   -0.165735
  36 F :   -0.149972
  37 F :   -0.166598
  38 C :   -0.030571
  39 C :    0.022881
  40 C :   -0.008863
  41 C :   -0.019096
  42 C :    0.035607
  43 C :    0.029057
  44 C :   -0.041404
  45 S :    0.060594
  46 C :   -0.057714
  47 C :    0.030157
  48 C :    0.057412
  49 C :   -0.067466
  50 S :    0.088050
  51 C :   -0.021867
  52 H :    0.037080
  53 H :   -0.004075
  54 H :    0.004058
  55 H :    0.008661
  56 H :    0.009125
  57 H :    0.001663
  58 H :   -0.000142
  59 H :    0.002212
  60 H :   -0.009457
  61 H :   -0.011398
  62 H :   -0.008568
  63 H :   -0.011173
  64 H :   -0.007658
  65 H :   -0.005774
  66 H :    0.025883
  67 H :    0.026800
Sum of atomic charges:   -0.0000000

LOEWDIN ATOMIC CHARGES
----------------------
   0 O :    0.037004
   1 C :    0.027322
   2 N :   -0.083969
   3 C :   -0.104773
   4 C :    0.074756
   5 C :    0.106237
   6 O :   -0.130171
   7 C :    0.017419
   8 O :    0.038980
   9 C :    0.040542
  10 C :   -0.042184
  11 C :   -0.096918
  12 C :    0.166344
  13 F :   -0.054846
  14 F :   -0.061488
  15 F :   -0.054984
  16 C :   -0.046620
  17 C :   -0.017965
  18 C :   -0.199665
  19 S :    0.486758
  20 C :   -0.181963
  21 C :   -0.073537
  22 C :    0.027873
  23 O :    0.003585
  24 C :    0.025479
  25 N :    0.272025
  26 O :   -0.214652
  27 O :   -0.192119
  28 C :   -0.003298
  29 C :    0.029326
  30 O :    0.019197
  31 C :    0.049185
  32 C :   -0.042774
  33 C :   -0.119881
  34 C :    0.163239
  35 F :   -0.066279
  36 F :   -0.050397
  37 F :   -0.066408
  38 C :   -0.063053
  39 C :   -0.017348
  40 C :   -0.073210
  41 C :   -0.132662
  42 C :   -0.032838
  43 C :   -0.030762
  44 C :   -0.185547
  45 S :    0.386987
  46 C :   -0.166606
  47 C :   -0.026518
  48 C :   -0.022494
  49 C :   -0.140460
  50 S :    0.358681
  51 C :   -0.064069
  52 H :    0.037419
  53 H :    0.005041
  54 H :    0.038411
  55 H :    0.034468
  56 H :    0.042843
  57 H :    0.045362
  58 H :    0.039055
  59 H :    0.021505
  60 H :    0.031620
  61 H :    0.036327
  62 H :    0.035029
  63 H :    0.032667
  64 H :    0.033980
  65 H :    0.035787
  66 H :    0.031294
  67 H :    0.028715

  Mayer bond orders larger than 0.100000
B(  0-O ,  1-C ) :   1.2071 B(  0-O ,  4-C ) :   1.1700 B(  1-C ,  2-N ) :   1.7631
B(  1-C ,  7-C ) :   1.0016 B(  2-N ,  3-C ) :   1.3023 B(  3-C ,  4-C ) :   1.5046
B(  3-C ,  5-C ) :   0.9631 B(  4-C , 52-H ) :   0.9892 B(  5-C ,  6-O ) :   2.2065
B(  5-C , 53-H ) :   0.9520 B(  7-C ,  8-O ) :   1.1935 B(  7-C ,  9-C ) :   0.1269
B(  7-C , 11-C ) :   1.5214 B(  8-O ,  9-C ) :   1.1277 B(  9-C , 10-C ) :   1.4405
B(  9-C , 16-C ) :   1.1194 B( 10-C , 11-C ) :   1.2618 B( 10-C , 54-H ) :   1.0135
B( 11-C , 12-C ) :   0.9320 B( 12-C , 13-F ) :   1.1836 B( 12-C , 14-F ) :   1.1722
B( 12-C , 15-F ) :   1.1826 B( 16-C , 17-C ) :   1.6305 B( 16-C , 55-H ) :   0.9643
B( 17-C , 18-C ) :   1.1817 B( 17-C , 56-H ) :   0.9803 B( 18-C , 19-S ) :   1.0800
B( 18-C , 20-C ) :   0.1183 B( 18-C , 22-C ) :   1.4406 B( 19-S , 20-C ) :   1.1681
B( 20-C , 21-C ) :   1.3333 B( 20-C , 29-C ) :   1.1832 B( 21-C , 22-C ) :   1.2142
B( 21-C , 28-C ) :   1.0995 B( 22-C , 23-O ) :   1.1336 B( 23-O , 24-C ) :   1.1142
B( 24-C , 25-N ) :   0.9244 B( 24-C , 28-C ) :   1.5418 B( 25-N , 26-O ) :   1.5235
B( 25-N , 27-O ) :   1.5102 B( 26-O , 27-O ) :   0.2781 B( 28-C , 57-H ) :   1.0316
B( 29-C , 30-O ) :   1.1720 B( 29-C , 31-C ) :   0.1010 B( 29-C , 33-C ) :   1.4285
B( 30-O , 31-C ) :   1.1236 B( 31-C , 32-C ) :   1.3817 B( 31-C , 38-C ) :   1.2140
B( 32-C , 33-C ) :   1.2732 B( 32-C , 58-H ) :   1.0192 B( 33-C , 34-C ) :   0.9473
B( 34-C , 35-F ) :   1.1673 B( 34-C , 36-F ) :   1.1880 B( 34-C , 37-F ) :   1.1645
B( 38-C , 39-C ) :   1.5720 B( 38-C , 59-H ) :   0.9381 B( 39-C , 40-C ) :   1.2182
B( 39-C , 60-H ) :   0.9726 B( 40-C , 41-C ) :   1.5523 B( 40-C , 61-H ) :   0.9633
B( 41-C , 42-C ) :   1.1480 B( 41-C , 45-S ) :   1.0524 B( 42-C , 43-C ) :   1.5989
B( 42-C , 62-H ) :   0.9988 B( 43-C , 44-C ) :   1.1755 B( 43-C , 63-H ) :   0.9925
B( 44-C , 45-S ) :   1.0272 B( 44-C , 46-C ) :   1.5493 B( 46-C , 47-C ) :   1.1500
B( 46-C , 50-S ) :   1.0551 B( 47-C , 48-C ) :   1.6621 B( 47-C , 64-H ) :   0.9925
B( 48-C , 49-C ) :   1.0793 B( 48-C , 65-H ) :   0.9934 B( 49-C , 50-S ) :   1.0047
B( 49-C , 51-C ) :   1.8651 B( 51-C , 66-H ) :   0.9510 B( 51-C , 67-H ) :   0.9419

-----------------------------------------------------------------------------
         ABSORPTION SPECTRUM VIA TRANSITION ELECTRIC DIPOLE MOMENTS
-----------------------------------------------------------------------------
State   Energy  Wavelength   fosc         T2         TX        TY        TZ
        (cm-1)    (nm)                  (au**2)     (au)      (au)      (au)
-----------------------------------------------------------------------------
   0   13154.9    760.2   1.589423128  39.77645  -3.44387  -5.25430  -0.55545
   1   19643.6    509.1   0.311570416   5.22168   1.47941   1.73762   0.11705
   2   20534.9    487.0   0.050253110   0.80565  -0.06086  -0.68440   0.57753
   3   23959.9    417.4   0.610530755   8.38878   0.85428   1.94485  -1.96889
   4   26462.0    377.9   0.029550406   0.36763   0.35937   0.25428   0.41693
   5   28019.8    356.9   0.111836936   1.31400   0.17491   0.04685   1.13191
   6   29668.2    337.1   0.095370802   1.05828   0.58622   0.70531  -0.46600
   7   30829.5    324.4   0.181206681   1.93501   0.63194   1.11786  -0.53483
   8   32084.6    311.7   0.090415980   0.92774  -0.11452  -0.40115   0.86816
   9   33198.7    301.2   0.094548234   0.93758  -0.03604   0.00718  -0.96759
  10   34125.4    293.0   0.639106843   6.16555   0.12373   0.44193  -2.44027
  11   34967.3    286.0   0.002267848   0.02135   0.03444   0.09590  -0.10473
  12   35151.3    284.5   0.207795254   1.94612   0.05650   0.29869  -1.36151
  13   35597.1    280.9   0.028363586   0.26231   0.26157   0.41580  -0.14493
  14   35872.1    278.8   0.029102443   0.26708   0.14350   0.28812  -0.40433
  15   37442.0    267.1   0.129294791   1.13684  -0.22989  -0.48322   0.92222
  16   37938.4    263.6   0.013078363   0.11349  -0.19981  -0.26950   0.03059
  17   38187.2    261.9   0.045649022   0.39354   0.08451  -0.10671   0.61238
  18   38659.0    258.7   0.220413480   1.87700  -0.48187  -0.53159  -1.16714
  19   40294.6    248.2   0.168485061   1.37654  -0.05629  -0.31794   1.12796

FINAL SINGLE POINT ENERGY     -3731.420815107088

DIPOLE MOMENT
-------------
                                X             Y             Z
Electronic contribution:    -38.32505     -61.73181      12.42526
Nuclear contribution   :     41.03277      66.20086     -12.17884
                        -----------------------------------------
Total Dipole Moment    :      2.70771       4.46905       0.24642
                        -----------------------------------------
Magnitude (a.u.)       :      5.23114
Magnitude (Debye)      :     13.29651

Rotational constants in cm-1:     0.003279     0.000401     0.000360
Rotational constants in MHz :    98.307991    12.035501    10.786872

                             ****ORCA TERMINATED NORMALLY****
TOTAL RUN TIME: 0 days 0 hours 4 minutes 18 seconds 94 msec
