                         Program Version 4.2.0 -  RELEASE  -
|  1> # ORCA input file
|  2> # SCF done       -160.867258011343          0.000814121571
|  3> ! CAM-B3LYP def2-SVP def2/J RIJCOSX Grid4 TightSCF
|  4> %maxcore 5000
|  5> %tddft
|  6>     Mode sTDDFT
|  7>     Ethresh 5.0
|  8>     maxcore 5000
|  9> end
| 10>
| 11> %pal
| 12>   nprocs 6
| 13>   end
| 14> * xyz 0 1
| 15>    O       -4.33350        12.17522         1.76612
| 16>    C       -4.02438        11.89110         3.05601
| 17>    N       -4.00800        12.94335         3.82420
| 18>    C       -4.32279        13.99283         3.00601
| 19>    C       -4.52019        13.49663         1.73761
| 20>    C       -4.40767        15.36344         3.49014
| 21>    O       -4.68043        16.31771         2.80797
| 22>    C       -3.75408        10.55746         3.46715
| 23>    S       -3.36085        10.24315         5.16568
| 24>    C       -3.21334         8.59015         4.73937
| 25>    C       -3.46911         8.40981         3.37146
| 26>    N       -3.76517         9.50990         2.69218
| 27>    C       -3.33984         6.96976         2.98899
| 28>    C       -2.97255         6.35410         4.30748
| 29>    C       -2.91188         7.33274         5.30541
| 30>    S       -2.49407         6.68006         6.83439
| 31>    C       -2.38989         5.07330         6.13602
| 32>    C       -2.67802         5.08208         4.77783
| 33>    C       -2.03181         3.99342         6.97858
| 34>    C       -1.87240         2.70641         6.57977
| 35>    C       -1.48186         1.65617         7.43954
| 36>    S       -1.13667         1.92125         9.12821
| 37>    C       -0.74883         0.23941         9.37537
| 38>    C       -0.86129        -0.46874         8.18476
| 39>    C       -1.27941         0.32365         7.09951
| 40>    S       -1.60968        -0.23922         5.46605
| 41>    C       -0.08476        -1.18713         5.06076
| 42>    C        0.25015        -0.99270         3.59544
| 43>    S       -0.56710        -2.20819         8.09920
| 44>    C        1.24258        -2.27929         8.45875
| 45>    C        1.56002        -3.41277         9.41255
| 46>    C       -0.41548        -0.26659        10.64981
| 47>    C       -0.30634         0.49310        11.77357
| 48>    C        0.01300        -0.02608        13.04336
| 49>    C        0.08762         0.75195        14.16103
| 50>    C        0.41179         0.29220        15.44939
| 51>    S        0.40566         1.41304        16.80242
| 52>    C        0.87916         0.19295        17.95959
| 53>    C        1.03695        -1.04146        17.29981
| 54>    C        0.77003        -0.96638        15.91201
| 55>    S        0.97912        -2.50089        15.13868
| 56>    C        1.42274        -3.23581        16.67256
| 57>    C        1.76760        -4.65177        16.78640
| 58>    O        2.07796        -5.13548        17.85477
| 59>    C        1.70612        -5.44315        15.49768
| 60>    C        2.11806        -6.89396        15.69785
| 61>    C        1.40414        -2.33808        17.70569
| 62>    C        1.06249         0.43226        19.31742
| 63>    C        0.89694         1.62538        19.98684
| 64>    C        1.08950         1.82566        21.37479
| 65>    C        0.85059         3.09751        21.79733
| 66>    C        0.45392         3.97679        20.76352
| 67>    S        0.40224         3.12336        19.23022
| 68>    C        0.13339         5.31265        20.86001
| 69>    C        0.13041         6.11687        22.03322
| 70>    C       -0.23643         7.40164        21.82690
| 71>    C       -0.55372         7.71486        20.46349
| 72>    S       -0.34936         6.26136        19.47133
| 73>    C       -0.94751         8.89345        19.96126
| 74>    H       -4.77867        13.96660         0.81099
| 75>    H       -4.19371        15.44940         4.56965
| 76>    H       -2.56892         6.81901         2.23144
| 77>    H       -4.27570         6.57115         2.59339
| 78>    H       -2.67133         4.19332         4.17445
| 79>    H       -1.86873         4.23698         8.02099
| 80>    H       -2.03777         2.42294         5.55023
| 81>    H       -0.27095        -2.23557         5.28881
| 82>    H        0.70617        -0.80066         5.70128
| 83>    H       -0.56718        -1.34391         2.97006
| 84>    H        1.14752        -1.55477         3.34430
| 85>    H        0.42304         0.05920         3.37907
| 86>    H        1.52560        -1.31426         8.87446
| 87>    H        1.74620        -2.42681         7.50268
| 88>    H        1.06642        -3.26475        10.36981
| 89>    H        2.63406        -3.46261         9.58049
| 90>    H        1.22728        -4.36087         8.99802
| 91>    H       -0.26855        -1.33606        10.71658
| 92>    H       -0.47020         1.56090        11.69540
| 93>    H        0.20032        -1.08866        13.12011
| 94>    H       -0.12064         1.81042        14.07666
| 95>    H        2.35458        -4.95511        14.76489
| 96>    H        0.68330        -5.38343        15.11499
| 97>    H        3.14381        -6.94661        16.05362
| 98>    H        2.03878        -7.44548        14.76450
| 99>    H        1.48039        -7.36390        16.44205
|100>    H        1.65109        -2.62686        18.71117
|101>    H        1.36500        -0.41933        19.91291
|102>    H        1.39801         1.01942        22.01686
|103>    H        0.94670         3.42320        22.81731
|104>    H        0.40099         5.70988        22.99129
|105>    H       -0.29853         8.15510        22.59185
|106>    H       -1.06052         9.75189        20.59954
|107>    H       -1.16227         9.01912        18.91599
|108> *
|109>
|110>                          ****END OF INPUT****

CARTESIAN COORDINATES (ANGSTROEM)
---------------------------------
  O     -4.333500   12.175220    1.766120
  C     -4.024380   11.891100    3.056010
  N     -4.008000   12.943350    3.824200
  C     -4.322790   13.992830    3.006010
  C     -4.520190   13.496630    1.737610
  C     -4.407670   15.363440    3.490140
  O     -4.680430   16.317710    2.807970
  C     -3.754080   10.557460    3.467150
  S     -3.360850   10.243150    5.165680
  C     -3.213340    8.590150    4.739370
  C     -3.469110    8.409810    3.371460
  N     -3.765170    9.509900    2.692180
  C     -3.339840    6.969760    2.988990
  C     -2.972550    6.354100    4.307480
  C     -2.911880    7.332740    5.305410
  S     -2.494070    6.680060    6.834390
  C     -2.389890    5.073300    6.136020
  C     -2.678020    5.082080    4.777830
  C     -2.031810    3.993420    6.978580
  C     -1.872400    2.706410    6.579770
  C     -1.481860    1.656170    7.439540
  S     -1.136670    1.921250    9.128210
  C     -0.748830    0.239410    9.375370
  C     -0.861290   -0.468740    8.184760
  C     -1.279410    0.323650    7.099510
  S     -1.609680   -0.239220    5.466050
  C     -0.084760   -1.187130    5.060760
  C      0.250150   -0.992700    3.595440
  S     -0.567100   -2.208190    8.099200
  C      1.242580   -2.279290    8.458750
  C      1.560020   -3.412770    9.412550
  C     -0.415480   -0.266590   10.649810
  C     -0.306340    0.493100   11.773570
  C      0.013000   -0.026080   13.043360
  C      0.087620    0.751950   14.161030
  C      0.411790    0.292200   15.449390
  S      0.405660    1.413040   16.802420
  C      0.879160    0.192950   17.959590
  C      1.036950   -1.041460   17.299810
  C      0.770030   -0.966380   15.912010
  S      0.979120   -2.500890   15.138680
  C      1.422740   -3.235810   16.672560
  C      1.767600   -4.651770   16.786400
  O      2.077960   -5.135480   17.854770
  C      1.706120   -5.443150   15.497680
  C      2.118060   -6.893960   15.697850
  C      1.404140   -2.338080   17.705690
  C      1.062490    0.432260   19.317420
  C      0.896940    1.625380   19.986840
  C      1.089500    1.825660   21.374790
  C      0.850590    3.097510   21.797330
  C      0.453920    3.976790   20.763520
  S      0.402240    3.123360   19.230220
  C      0.133390    5.312650   20.860010
  C      0.130410    6.116870   22.033220
  C     -0.236430    7.401640   21.826900
  C     -0.553720    7.714860   20.463490
  S     -0.349360    6.261360   19.471330
  C     -0.947510    8.893450   19.961260
  H     -4.778670   13.966600    0.810990
  H     -4.193710   15.449400    4.569650
  H     -2.568920    6.819010    2.231440
  H     -4.275700    6.571150    2.593390
  H     -2.671330    4.193320    4.174450
  H     -1.868730    4.236980    8.020990
  H     -2.037770    2.422940    5.550230
  H     -0.270950   -2.235570    5.288810
  H      0.706170   -0.800660    5.701280
  H     -0.567180   -1.343910    2.970060
  H      1.147520   -1.554770    3.344300
  H      0.423040    0.059200    3.379070
  H      1.525600   -1.314260    8.874460
  H      1.746200   -2.426810    7.502680
  H      1.066420   -3.264750   10.369810
  H      2.634060   -3.462610    9.580490
  H      1.227280   -4.360870    8.998020
  H     -0.268550   -1.336060   10.716580
  H     -0.470200    1.560900   11.695400
  H      0.200320   -1.088660   13.120110
  H     -0.120640    1.810420   14.076660
  H      2.354580   -4.955110   14.764890
  H      0.683300   -5.383430   15.114990
  H      3.143810   -6.946610   16.053620
  H      2.038780   -7.445480   14.764500
  H      1.480390   -7.363900   16.442050
  H      1.651090   -2.626860   18.711170
  H      1.365000   -0.419330   19.912910
  H      1.398010    1.019420   22.016860
  H      0.946700    3.423200   22.817310
  H      0.400990    5.709880   22.991290
  H     -0.298530    8.155100   22.591850
  H     -1.060520    9.751890   20.599540
  H     -1.162270    9.019120   18.915990

 Total Charge           Charge          ....    0
 Multiplicity           Mult            ....    1
 Number of Electrons    NEL             ....  486
 Basis Dimension        Dim             .... 1032

ORBITAL ENERGIES
----------------

  NO   OCC          E(Eh)            E(eV)
   0   2.0000     -88.971150     -2421.0281
   1   2.0000     -88.962007     -2420.7793
   2   2.0000     -88.960171     -2420.7293
   3   2.0000     -88.956510     -2420.6297
   4   2.0000     -88.950277     -2420.4601
   5   2.0000     -88.950067     -2420.4544
   6   2.0000     -88.943962     -2420.2882
   7   2.0000     -88.916266     -2419.5346
   8   2.0000     -88.914269     -2419.4803
   9   2.0000     -19.313694      -525.5523
  10   2.0000     -19.208256      -522.6832
  11   2.0000     -19.198897      -522.4285
  12   2.0000     -14.417135      -392.3102
  13   2.0000     -14.415497      -392.2656
  14   2.0000     -10.372332      -282.2455
  15   2.0000     -10.353377      -281.7297
  16   2.0000     -10.353223      -281.7255
  17   2.0000     -10.345698      -281.5208
  18   2.0000     -10.337961      -281.3102
  19   2.0000     -10.316980      -280.7393
  20   2.0000     -10.312924      -280.6289
  21   2.0000     -10.312098      -280.6064
  22   2.0000     -10.311645      -280.5941
  23   2.0000     -10.311479      -280.5896
  24   2.0000     -10.307766      -280.4886
  25   2.0000     -10.304440      -280.3981
  26   2.0000     -10.302889      -280.3559
  27   2.0000     -10.302798      -280.3534
  28   2.0000     -10.302411      -280.3429
  29   2.0000     -10.302098      -280.3343
  30   2.0000     -10.301745      -280.3247
  31   2.0000     -10.301698      -280.3235
  32   2.0000     -10.298614      -280.2395
  33   2.0000     -10.296168      -280.1730
  34   2.0000     -10.295510      -280.1551
  35   2.0000     -10.294190      -280.1192
  36   2.0000     -10.293616      -280.1035
  37   2.0000     -10.292414      -280.0708
  38   2.0000     -10.290597      -280.0214
  39   2.0000     -10.289938      -280.0035
  40   2.0000     -10.287521      -279.9377
  41   2.0000     -10.286591      -279.9124
  42   2.0000     -10.286528      -279.9107
  43   2.0000     -10.286420      -279.9077
  44   2.0000     -10.285932      -279.8945
  45   2.0000     -10.283601      -279.8310
  46   2.0000     -10.282989      -279.8144
  47   2.0000     -10.280554      -279.7481
  48   2.0000     -10.279549      -279.7207
  49   2.0000     -10.276956      -279.6502
  50   2.0000     -10.276392      -279.6348
  51   2.0000     -10.275892      -279.6212
  52   2.0000     -10.274947      -279.5955
  53   2.0000     -10.273901      -279.5671
  54   2.0000     -10.273613      -279.5592
  55   2.0000     -10.269372      -279.4438
  56   2.0000     -10.264770      -279.3186
  57   2.0000     -10.259886      -279.1857
  58   2.0000     -10.250554      -278.9317
  59   2.0000      -8.065781      -219.4811
  60   2.0000      -8.056675      -219.2333
  61   2.0000      -8.055308      -219.1961
  62   2.0000      -8.051165      -219.0833
  63   2.0000      -8.046249      -218.9496
  64   2.0000      -8.045531      -218.9300
  65   2.0000      -8.040761      -218.8002
  66   2.0000      -8.010765      -217.9840
  67   2.0000      -8.009469      -217.9487
  68   2.0000      -6.035089      -164.2231
  69   2.0000      -6.030964      -164.1109
  70   2.0000      -6.027924      -164.0281
  71   2.0000      -6.025996      -163.9757
  72   2.0000      -6.024623      -163.9383
  73   2.0000      -6.021888      -163.8639
  74   2.0000      -6.020901      -163.8371
  75   2.0000      -6.020596      -163.8288
  76   2.0000      -6.018792      -163.7797
  77   2.0000      -6.017390      -163.7415
  78   2.0000      -6.016711      -163.7230
  79   2.0000      -6.016044      -163.7049
  80   2.0000      -6.014715      -163.6687
  81   2.0000      -6.012572      -163.6104
  82   2.0000      -6.011865      -163.5912
  83   2.0000      -6.011032      -163.5685
  84   2.0000      -6.010549      -163.5554
  85   2.0000      -6.007401      -163.4697
  86   2.0000      -6.007194      -163.4641
  87   2.0000      -6.006634      -163.4488
  88   2.0000      -6.001317      -163.3041
  89   2.0000      -5.981279      -162.7589
  90   2.0000      -5.979918      -162.7218
  91   2.0000      -5.977522      -162.6566
  92   2.0000      -5.976000      -162.6152
  93   2.0000      -5.970124      -162.4553
  94   2.0000      -5.969020      -162.4253
  95   2.0000      -1.243346       -33.8332
  96   2.0000      -1.121584       -30.5199
  97   2.0000      -1.115593       -30.3568
  98   2.0000      -1.070591       -29.1323
  99   2.0000      -1.023692       -27.8561
 100   2.0000      -1.007326       -27.4107
 101   2.0000      -0.996683       -27.1211
 102   2.0000      -0.994843       -27.0711
 103   2.0000      -0.989016       -26.9125
 104   2.0000      -0.974756       -26.5245
 105   2.0000      -0.946663       -25.7600
 106   2.0000      -0.930720       -25.3262
 107   2.0000      -0.918562       -24.9953
 108   2.0000      -0.905490       -24.6396
 109   2.0000      -0.901919       -24.5425
 110   2.0000      -0.901259       -24.5245
 111   2.0000      -0.889459       -24.2034
 112   2.0000      -0.884525       -24.0691
 113   2.0000      -0.878216       -23.8975
 114   2.0000      -0.872188       -23.7335
 115   2.0000      -0.867136       -23.5960
 116   2.0000      -0.853420       -23.2227
 117   2.0000      -0.849220       -23.1085
 118   2.0000      -0.841152       -22.8889
 119   2.0000      -0.839242       -22.8369
 120   2.0000      -0.830783       -22.6067
 121   2.0000      -0.825330       -22.4584
 122   2.0000      -0.821200       -22.3460
 123   2.0000      -0.816952       -22.2304
 124   2.0000      -0.801464       -21.8090
 125   2.0000      -0.794410       -21.6170
 126   2.0000      -0.781077       -21.2542
 127   2.0000      -0.776660       -21.1340
 128   2.0000      -0.767600       -20.8875
 129   2.0000      -0.758690       -20.6450
 130   2.0000      -0.754648       -20.5350
 131   2.0000      -0.747624       -20.3439
 132   2.0000      -0.742078       -20.1930
 133   2.0000      -0.719863       -19.5885
 134   2.0000      -0.705219       -19.1900
 135   2.0000      -0.694014       -18.8851
 136   2.0000      -0.687741       -18.7144
 137   2.0000      -0.687117       -18.6974
 138   2.0000      -0.682372       -18.5683
 139   2.0000      -0.677599       -18.4384
 140   2.0000      -0.672622       -18.3030
 141   2.0000      -0.659680       -17.9508
 142   2.0000      -0.654323       -17.8050
 143   2.0000      -0.651644       -17.7321
 144   2.0000      -0.636882       -17.3304
 145   2.0000      -0.631233       -17.1767
 146   2.0000      -0.629247       -17.1227
 147   2.0000      -0.622901       -16.9500
 148   2.0000      -0.612813       -16.6755
 149   2.0000      -0.608858       -16.5679
 150   2.0000      -0.604466       -16.4484
 151   2.0000      -0.603081       -16.4107
 152   2.0000      -0.597195       -16.2505
 153   2.0000      -0.596051       -16.2194
 154   2.0000      -0.587431       -15.9848
 155   2.0000      -0.586215       -15.9517
 156   2.0000      -0.585410       -15.9298
 157   2.0000      -0.578820       -15.7505
 158   2.0000      -0.568294       -15.4641
 159   2.0000      -0.562154       -15.2970
 160   2.0000      -0.559003       -15.2113
 161   2.0000      -0.555170       -15.1070
 162   2.0000      -0.549455       -14.9514
 163   2.0000      -0.548989       -14.9387
 164   2.0000      -0.545861       -14.8536
 165   2.0000      -0.543481       -14.7889
 166   2.0000      -0.541734       -14.7413
 167   2.0000      -0.538277       -14.6473
 168   2.0000      -0.533309       -14.5121
 169   2.0000      -0.529283       -14.4025
 170   2.0000      -0.526819       -14.3355
 171   2.0000      -0.517760       -14.0890
 172   2.0000      -0.516977       -14.0677
 173   2.0000      -0.511496       -13.9185
 174   2.0000      -0.509128       -13.8541
 175   2.0000      -0.508266       -13.8306
 176   2.0000      -0.506181       -13.7739
 177   2.0000      -0.505597       -13.7580
 178   2.0000      -0.497491       -13.5374
 179   2.0000      -0.497440       -13.5360
 180   2.0000      -0.495206       -13.4752
 181   2.0000      -0.493615       -13.4320
 182   2.0000      -0.488251       -13.2860
 183   2.0000      -0.488032       -13.2800
 184   2.0000      -0.487110       -13.2549
 185   2.0000      -0.481505       -13.1024
 186   2.0000      -0.479843       -13.0572
 187   2.0000      -0.475667       -12.9436
 188   2.0000      -0.471378       -12.8269
 189   2.0000      -0.469852       -12.7853
 190   2.0000      -0.468592       -12.7510
 191   2.0000      -0.466091       -12.6830
 192   2.0000      -0.465257       -12.6603
 193   2.0000      -0.461359       -12.5542
 194   2.0000      -0.460360       -12.5270
 195   2.0000      -0.458736       -12.4828
 196   2.0000      -0.457283       -12.4433
 197   2.0000      -0.453345       -12.3361
 198   2.0000      -0.451316       -12.2809
 199   2.0000      -0.445825       -12.1315
 200   2.0000      -0.440521       -11.9872
 201   2.0000      -0.440130       -11.9766
 202   2.0000      -0.436913       -11.8890
 203   2.0000      -0.435483       -11.8501
 204   2.0000      -0.433779       -11.8037
 205   2.0000      -0.430280       -11.7085
 206   2.0000      -0.429802       -11.6955
 207   2.0000      -0.428688       -11.6652
 208   2.0000      -0.427322       -11.6280
 209   2.0000      -0.421441       -11.4680
 210   2.0000      -0.418032       -11.3752
 211   2.0000      -0.417686       -11.3658
 212   2.0000      -0.415135       -11.2964
 213   2.0000      -0.414839       -11.2883
 214   2.0000      -0.412639       -11.2285
 215   2.0000      -0.409712       -11.1488
 216   2.0000      -0.405472       -11.0335
 217   2.0000      -0.403911       -10.9910
 218   2.0000      -0.392071       -10.6688
 219   2.0000      -0.389971       -10.6117
 220   2.0000      -0.384665       -10.4673
 221   2.0000      -0.380732       -10.3602
 222   2.0000      -0.379131       -10.3167
 223   2.0000      -0.374498       -10.1906
 224   2.0000      -0.360088        -9.7985
 225   2.0000      -0.354369        -9.6429
 226   2.0000      -0.348745        -9.4898
 227   2.0000      -0.342426        -9.3179
 228   2.0000      -0.337226        -9.1764
 229   2.0000      -0.334110        -9.0916
 230   2.0000      -0.329602        -8.9689
 231   2.0000      -0.329497        -8.9661
 232   2.0000      -0.324091        -8.8190
 233   2.0000      -0.321370        -8.7449
 234   2.0000      -0.321022        -8.7354
 235   2.0000      -0.308989        -8.4080
 236   2.0000      -0.303444        -8.2571
 237   2.0000      -0.299913        -8.1610
 238   2.0000      -0.279783        -7.6133
 239   2.0000      -0.274054        -7.4574
 240   2.0000      -0.257686        -7.0120
 241   2.0000      -0.227678        -6.1954
 242   2.0000      -0.202329        -5.5057
 243   0.0000      -0.087605        -2.3839
 244   0.0000      -0.060360        -1.6425
 245   0.0000      -0.035031        -0.9532
 246   0.0000      -0.024740        -0.6732
 247   0.0000      -0.013288        -0.3616

MULLIKEN ATOMIC CHARGES
-----------------------
   0 O :   -0.148475
   1 C :    0.118233
   2 N :   -0.092563
   3 C :   -0.047102
   4 C :    0.136320
   5 C :    0.168694
   6 O :   -0.179211
   7 C :   -0.154658
   8 S :    0.187910
   9 C :   -0.042805
  10 C :   -0.236895
  11 N :    0.002595
  12 C :    0.396436
  13 C :   -0.160687
  14 C :   -0.110824
  15 S :    0.149451
  16 C :   -0.069927
  17 C :   -0.023187
  18 C :    0.033774
  19 C :   -0.001841
  20 C :   -0.083836
  21 S :    0.094928
  22 C :   -0.047028
  23 C :   -0.055858
  24 C :   -0.032706
  25 S :   -0.017627
  26 C :   -0.118986
  27 C :    0.023923
  28 S :   -0.032228
  29 C :   -0.108548
  30 C :    0.028496
  31 C :   -0.015933
  32 C :    0.014396
  33 C :    0.001377
  34 C :    0.036609
  35 C :   -0.134750
  36 S :    0.123957
  37 C :   -0.074342
  38 C :    0.130373
  39 C :   -0.015207
  40 S :    0.086593
  41 C :   -0.066103
  42 C :    0.030610
  43 O :   -0.182053
  44 C :   -0.071926
  45 C :    0.061319
  46 C :   -0.022355
  47 C :   -0.031994
  48 C :   -0.030344
  49 C :    0.029628
  50 C :    0.029940
  51 C :   -0.039055
  52 S :    0.070481
  53 C :   -0.062181
  54 C :    0.026966
  55 C :    0.057177
  56 C :   -0.068141
  57 S :    0.087546
  58 C :   -0.022949
  59 H :    0.033728
  60 H :   -0.012303
  61 H :    0.036620
  62 H :    0.036224
  63 H :   -0.021064
  64 H :   -0.016046
  65 H :   -0.007100
  66 H :    0.066255
  67 H :    0.052468
  68 H :    0.023733
  69 H :    0.021124
  70 H :    0.022446
  71 H :    0.061170
  72 H :    0.044544
  73 H :    0.020812
  74 H :    0.024910
  75 H :    0.024764
  76 H :   -0.012396
  77 H :   -0.006237
  78 H :   -0.012157
  79 H :   -0.021340
  80 H :    0.035761
  81 H :    0.038658
  82 H :    0.018597
  83 H :    0.005773
  84 H :    0.021748
  85 H :    0.000427
  86 H :   -0.013818
  87 H :   -0.010844
  88 H :   -0.013577
  89 H :   -0.009720
  90 H :   -0.007489
  91 H :    0.023675
  92 H :    0.025246
Sum of atomic charges:   -0.0000000

LOEWDIN ATOMIC CHARGES
----------------------
   0 O :    0.044668
   1 C :    0.018295
   2 N :   -0.106100
   3 C :   -0.108654
   4 C :    0.074605
   5 C :    0.103984
   6 O :   -0.134528
   7 C :   -0.168336
   8 S :    0.454783
   9 C :   -0.203215
  10 C :   -0.046971
  11 N :   -0.067168
  12 C :   -0.011909
  13 C :   -0.040909
  14 C :   -0.210342
  15 S :    0.437493
  16 C :   -0.157846
  17 C :   -0.055961
  18 C :   -0.056122
  19 C :   -0.036809
  20 C :   -0.183101
  21 S :    0.425368
  22 C :   -0.170094
  23 C :   -0.220189
  24 C :   -0.207284
  25 S :    0.276349
  26 C :   -0.129094
  27 C :   -0.072092
  28 S :    0.276129
  29 C :   -0.124239
  30 C :   -0.068801
  31 C :   -0.055483
  32 C :   -0.019620
  33 C :   -0.035822
  34 C :   -0.041414
  35 C :   -0.197825
  36 S :    0.445027
  37 C :   -0.159966
  38 C :   -0.080956
  39 C :   -0.180679
  40 S :    0.406337
  41 C :   -0.206179
  42 C :    0.063954
  43 O :   -0.152908
  44 C :   -0.078025
  45 C :   -0.048817
  46 C :    0.001556
  47 C :   -0.079028
  48 C :   -0.147771
  49 C :   -0.035233
  50 C :   -0.033018
  51 C :   -0.183987
  52 S :    0.373546
  53 C :   -0.169286
  54 C :   -0.027230
  55 C :   -0.025685
  56 C :   -0.140353
  57 S :    0.358521
  58 C :   -0.067491
  59 H :    0.036259
  60 H :    0.001580
  61 H :    0.056052
  62 H :    0.056491
  63 H :    0.031649
  64 H :    0.018996
  65 H :    0.024820
  66 H :    0.014850
  67 H :    0.022215
  68 H :    0.025285
  69 H :    0.028446
  70 H :    0.024215
  71 H :    0.026629
  72 H :    0.017382
  73 H :    0.022795
  74 H :    0.030277
  75 H :    0.026181
  76 H :    0.028606
  77 H :    0.021363
  78 H :    0.016751
  79 H :    0.029151
  80 H :    0.034902
  81 H :    0.037815
  82 H :    0.028973
  83 H :    0.023472
  84 H :    0.029733
  85 H :    0.038169
  86 H :    0.040336
  87 H :    0.034284
  88 H :    0.031829
  89 H :    0.033223
  90 H :    0.034905
  91 H :    0.030344
  92 H :    0.027947

  Mayer bond orders larger than 0.100000
B(  0-O ,  1-C ) :   1.2051 B(  0-O ,  4-C ) :   1.1761 B(  1-C ,  2-N ) :   1.7828
B(  1-C ,  7-C ) :   1.0515 B(  2-N ,  3-C ) :   1.3009 B(  3-C ,  4-C ) :   1.5054
B(  3-C ,  5-C ) :   0.9718 B(  4-C , 59-H ) :   0.9911 B(  5-C ,  6-O ) :   2.2017
B(  5-C , 60-H ) :   0.9518 B(  7-C ,  8-S ) :   1.1026 B(  7-C , 11-N ) :   1.6710
B(  8-S ,  9-C ) :   1.0952 B(  8-S , 11-N ) :   0.1103 B(  9-C , 10-C ) :   1.4737
B(  9-C , 14-C ) :   1.1920 B( 10-C , 11-N ) :   1.4457 B( 10-C , 12-C ) :   1.0428
B( 12-C , 13-C ) :   0.9826 B( 12-C , 61-H ) :   0.8612 B( 12-C , 62-H ) :   0.8586
B( 13-C , 14-C ) :   1.5145 B( 13-C , 17-C ) :   1.3153 B( 14-C , 15-S ) :   1.0797
B( 15-S , 16-C ) :   1.1088 B( 16-C , 17-C ) :   1.4580 B( 16-C , 18-C ) :   1.1349
B( 17-C , 63-H ) :   0.9994 B( 18-C , 19-C ) :   1.6515 B( 18-C , 64-H ) :   0.9571
B( 19-C , 20-C ) :   1.1902 B( 19-C , 65-H ) :   0.9609 B( 20-C , 21-S ) :   1.0892
B( 20-C , 24-C ) :   1.5072 B( 21-S , 22-C ) :   1.1037 B( 22-C , 23-C ) :   1.4878
B( 22-C , 31-C ) :   1.1672 B( 23-C , 24-C ) :   1.2910 B( 23-C , 28-S ) :   1.0438
B( 24-C , 25-S ) :   1.0444 B( 25-S , 26-C ) :   0.9743 B( 26-C , 27-C ) :   1.0765
B( 26-C , 66-H ) :   0.9472 B( 26-C , 67-H ) :   0.9551 B( 27-C , 68-H ) :   0.9709
B( 27-C , 69-H ) :   0.9662 B( 27-C , 70-H ) :   0.9708 B( 28-S , 29-C ) :   0.9723
B( 29-C , 30-C ) :   1.0782 B( 29-C , 71-H ) :   0.9566 B( 29-C , 72-H ) :   0.9501
B( 30-C , 73-H ) :   0.9734 B( 30-C , 74-H ) :   0.9629 B( 30-C , 75-H ) :   0.9694
B( 31-C , 32-C ) :   1.5870 B( 31-C , 76-H ) :   0.9716 B( 32-C , 33-C ) :   1.1863
B( 32-C , 77-H ) :   0.9845 B( 33-C , 34-C ) :   1.5861 B( 33-C , 78-H ) :   0.9768
B( 34-C , 35-C ) :   1.1736 B( 34-C , 79-H ) :   0.9631 B( 35-C , 36-S ) :   1.0974
B( 35-C , 39-C ) :   1.4375 B( 36-S , 37-C ) :   1.1087 B( 37-C , 38-C ) :   1.2976
B( 37-C , 47-C ) :   1.2540 B( 38-C , 39-C ) :   1.2775 B( 38-C , 46-C ) :   1.1546
B( 39-C , 40-S ) :   1.0617 B( 40-S , 41-C ) :   1.0467 B( 41-C , 42-C ) :   0.9994
B( 41-C , 46-C ) :   1.5899 B( 42-C , 43-O ) :   2.1995 B( 42-C , 44-C ) :   1.0000
B( 44-C , 45-C ) :   1.1106 B( 44-C , 80-H ) :   0.9253 B( 44-C , 81-H ) :   0.9241
B( 45-C , 82-H ) :   0.9689 B( 45-C , 83-H ) :   0.9634 B( 45-C , 84-H ) :   0.9667
B( 46-C , 85-H ) :   1.0079 B( 47-C , 48-C ) :   1.5210 B( 47-C , 86-H ) :   0.9643
B( 48-C , 49-C ) :   1.1574 B( 48-C , 52-S ) :   1.0493 B( 49-C , 50-C ) :   1.5853
B( 49-C , 87-H ) :   0.9998 B( 50-C , 51-C ) :   1.1818 B( 50-C , 88-H ) :   0.9927
B( 51-C , 52-S ) :   1.0325 B( 51-C , 53-C ) :   1.5404 B( 53-C , 54-C ) :   1.1567
B( 53-C , 57-S ) :   1.0536 B( 54-C , 55-C ) :   1.6562 B( 54-C , 89-H ) :   0.9924
B( 55-C , 56-C ) :   1.0807 B( 55-C , 90-H ) :   0.9936 B( 56-C , 57-S ) :   1.0071
B( 56-C , 58-C ) :   1.8621 B( 58-C , 91-H ) :   0.9507 B( 58-C , 92-H ) :   0.9418

-----------------------------------------------------------------------------
         ABSORPTION SPECTRUM VIA TRANSITION ELECTRIC DIPOLE MOMENTS
-----------------------------------------------------------------------------
State   Energy  Wavelength   fosc         T2         TX        TY        TZ
        (cm-1)    (nm)                  (au**2)     (au)      (au)      (au)
-----------------------------------------------------------------------------
   0   12550.6    796.8   1.264786150  33.17628  -0.43879  -1.97703  -5.39213
   1   18690.7    535.0   1.470713027  25.90461  -1.32290   4.48405  -2.01193
   2   19219.6    520.3   0.931342639  15.95290   1.00800  -3.73205   1.00431
   3   23395.5    427.4   0.031883205   0.44865  -0.02812   0.58739   0.32067
   4   23774.3    420.6   0.222681278   3.08356  -0.11798   1.67182   0.52407
   5   25051.5    399.2   0.010739589   0.14113  -0.20157   0.16267  -0.27211
   6   26566.4    376.4   0.245635187   3.04392   0.54596  -0.90829   1.38595
   7   27966.1    357.6   0.039638181   0.46661  -0.09782  -0.16013  -0.65681
   8   28814.5    347.0   0.054812930   0.62625  -0.15880   0.75665  -0.16885
   9   29598.7    337.9   0.359283619   3.99614   0.43872  -1.74612   0.86875
  10   30544.0    327.4   0.000156287   0.00168  -0.03935  -0.01168   0.00023
  11   31099.5    321.5   0.110025794   1.16471   0.21942  -1.02336   0.26326
  12   31437.6    318.1   0.035198590   0.36860  -0.00709   0.45687   0.39977
  13   31735.8    315.1   0.001707227   0.01771   0.05420  -0.01562   0.12054
  14   32221.2    310.4   0.044722619   0.45694  -0.10303  -0.11867  -0.65745
  15   32891.6    304.0   0.066616376   0.66676   0.04331   0.43900   0.68714
  16   33342.3    299.9   0.004901598   0.04840   0.03004  -0.08208   0.20188
  17   33481.5    298.7   0.008663339   0.08518  -0.06663  -0.02182  -0.28331
  18   33792.5    295.9   0.045005749   0.43845   0.11221   0.04730   0.65086
  19   34170.8    292.6   0.053141726   0.51198   0.18633  -0.59192   0.35623
  20   34245.9    292.0   0.001760221   0.01692  -0.01411   0.10146  -0.08018
  21   34585.5    289.1   0.000020970   0.00020   0.00423   0.00273  -0.01320
  22   35031.8    285.5   0.013420088   0.12612  -0.02015   0.34809  -0.06738
  23   35958.1    278.1   0.026966544   0.24689   0.13261  -0.35211   0.32454
  24   36494.2    274.0   0.065460463   0.59052  -0.04773   0.61807   0.45413
  25   36947.3    270.7   0.063184718   0.56300   0.08870  -0.62044  -0.41253
  26   37598.1    266.0   0.014694121   0.12866   0.12216  -0.29257   0.16776
  27   37724.9    265.1   0.099418017   0.86759   0.24398  -0.64537   0.62575
  28   38531.7    259.5   0.007289190   0.06228  -0.09251   0.10034  -0.20893
  29   38725.3    258.2   0.025101376   0.21339  -0.09063   0.01631  -0.45267
  30   38845.6    257.4   0.010366288   0.08785  -0.06990   0.28798   0.00607
  31   39315.2    254.4   0.066553346   0.55729  -0.15863   0.72629   0.06813
  32   39567.2    252.7   0.012310701   0.10243   0.08138  -0.30631   0.04446
  33   39755.2    251.5   0.071178576   0.58943   0.07692   0.47846   0.59547

FINAL SINGLE POINT ENERGY     -5650.344832718653

DIPOLE MOMENT
-------------
                                X             Y             Z
Electronic contribution:    -27.80707      72.50583      -5.60364
Nuclear contribution   :     29.02035     -73.27515       7.16247
                        -----------------------------------------
Total Dipole Moment    :      1.21328      -0.76932       1.55883
                        -----------------------------------------
Magnitude (a.u.)       :      2.11987
Magnitude (Debye)      :      5.38828

Rotational constants in cm-1:     0.000878     0.000318     0.000235
Rotational constants in MHz :    26.328455     9.543739     7.030544

                             ****ORCA TERMINATED NORMALLY****
TOTAL RUN TIME: 0 days 0 hours 7 minutes 39 seconds 257 msec
