                         Program Version 4.2.0 -  RELEASE  -
|  1> # ORCA input file
|  2> # SCF done       -132.379353883199          0.000490203070
|  3> ! CAM-B3LYP def2-SVP def2/J RIJCOSX Grid4 TightSCF
|  4> %maxcore 5000
|  5> %tddft
|  6>     Mode sTDDFT
|  7>     Ethresh 5.0
|  8>     maxcore 5000
|  9> end
| 10>
| 11> %pal
| 12>   nprocs 6
| 13>   end
| 14> * xyz 0 1
| 15>    O       -8.29416         1.15574         0.65373
| 16>    C       -7.00938         1.43456         1.01533
| 17>    N       -6.17278         0.50039         0.66209
| 18>    C       -6.93119        -0.45396         0.03198
| 19>    C       -8.23708        -0.03067         0.03802
| 20>    C       -6.35540        -1.67250        -0.51156
| 21>    O       -6.97602        -2.53791        -1.07574
| 22>    C       -6.74995         2.66301         1.69099
| 23>    N       -5.51426         3.09319         2.09447
| 24>    C       -4.28734         2.35667         1.92359
| 25>    C       -4.15034         1.23688         2.95223
| 26>    C       -5.64433         4.32532         2.66272
| 27>    C       -6.98848         4.68107         2.62149
| 28>    C       -7.68239         3.63943         2.01750
| 29>    C       -4.52955         5.07254         3.20520
| 30>    N       -4.32320         6.39884         2.95663
| 31>    C       -5.14647         7.24438         2.13032
| 32>    C       -6.04615         8.14918         2.96947
| 33>    C       -3.19704         6.80550         3.62408
| 34>    C       -2.68721         5.71045         4.31470
| 35>    C       -3.51540         4.62814         4.04634
| 36>    C       -2.64468         8.11243         3.57920
| 37>    S       -1.21222         8.46864         4.58675
| 38>    C       -1.25318        10.06485         3.95334
| 39>    C       -2.30785        10.20377         3.05366
| 40>    N       -3.06204         9.11944         2.86503
| 41>    C       -2.35235        11.58939         2.49016
| 42>    C       -1.18706        12.22193         3.19470
| 43>    C       -0.57221        11.30069         4.04196
| 44>    S        0.76021        11.97234         4.88850
| 45>    C        0.49912        13.51917         4.09426
| 46>    C       -0.57643        13.47151         3.22417
| 47>    C        1.32584        14.63827         4.36747
| 48>    C        2.32936        14.64902         5.27371
| 49>    C        3.15984        15.76517         5.55701
| 50>    S        3.01976        17.25955         4.66992
| 51>    C        4.30349        17.98607         5.59385
| 52>    C        4.80300        17.10389         6.53035
| 53>    C        4.15342        15.85444         6.51593
| 54>    C        4.53206        14.74691         7.45073
| 55>    C        5.27996        15.28848         8.66790
| 56>    C        4.44117        16.06205         9.68210
| 57>    O        4.97216        16.63964        10.59854
| 58>    C        2.94660        16.05749         9.50495
| 59>    C        6.43470        16.17969         8.19110
| 60>    C        5.89376        17.43234         7.50354
| 61>    C        4.72186        19.33725         5.35434
| 62>    C        4.20040        20.14467         4.43281
| 63>    H       -9.13943        -0.46526        -0.33903
| 64>    H       -5.26320        -1.73711        -0.35678
| 65>    H       -3.45838         3.06240         2.01388
| 66>    H       -4.28878         1.91700         0.92359
| 67>    H       -4.28225         1.61832         3.96153
| 68>    H       -3.16604         0.78503         2.87164
| 69>    H       -4.89942         0.47342         2.76576
| 70>    H       -7.41779         5.57913         3.01629
| 71>    H       -8.73613         3.58292         1.83162
| 72>    H       -5.74767         6.60072         1.48423
| 73>    H       -4.49132         7.86784         1.51755
| 74>    H       -5.44118         8.87369         3.50639
| 75>    H       -6.61475         7.56863         3.69158
| 76>    H       -6.73665         8.68310         2.32296
| 77>    H       -1.81203         5.71568         4.93399
| 78>    H       -3.41159         3.63990         4.44569
| 79>    H       -3.29472        12.09079         2.71827
| 80>    H       -2.22917        11.58906         1.40557
| 81>    H       -0.88912        14.32381         2.64791
| 82>    H        1.11003        15.53520         3.80099
| 83>    H        2.53123        13.74694         5.83674
| 84>    H        5.19514        14.05286         6.92184
| 85>    H        3.65150        14.17799         7.75129
| 86>    H        5.70344        14.44411         9.22654
| 87>    H        2.48878        16.67605        10.27284
| 88>    H        2.56679        15.04151         9.59130
| 89>    H        2.68170        16.43750         8.52100
| 90>    H        7.05797        15.61315         7.49628
| 91>    H        7.04645        16.47324         9.04455
| 92>    H        6.70923        17.95043         6.99361
| 93>    H        5.49577        18.11510         8.26180
| 94>    H        5.51998        19.69059         5.99370
| 95>    H        3.40099        19.81890         3.78799
| 96>    H        4.55318        21.15166         4.29943
| 97> *
| 98>
| 99>                          ****END OF INPUT****

CARTESIAN COORDINATES (ANGSTROEM)
---------------------------------
  O     -8.294160    1.155740    0.653730
  C     -7.009380    1.434560    1.015330
  N     -6.172780    0.500390    0.662090
  C     -6.931190   -0.453960    0.031980
  C     -8.237080   -0.030670    0.038020
  C     -6.355400   -1.672500   -0.511560
  O     -6.976020   -2.537910   -1.075740
  C     -6.749950    2.663010    1.690990
  N     -5.514260    3.093190    2.094470
  C     -4.287340    2.356670    1.923590
  C     -4.150340    1.236880    2.952230
  C     -5.644330    4.325320    2.662720
  C     -6.988480    4.681070    2.621490
  C     -7.682390    3.639430    2.017500
  C     -4.529550    5.072540    3.205200
  N     -4.323200    6.398840    2.956630
  C     -5.146470    7.244380    2.130320
  C     -6.046150    8.149180    2.969470
  C     -3.197040    6.805500    3.624080
  C     -2.687210    5.710450    4.314700
  C     -3.515400    4.628140    4.046340
  C     -2.644680    8.112430    3.579200
  S     -1.212220    8.468640    4.586750
  C     -1.253180   10.064850    3.953340
  C     -2.307850   10.203770    3.053660
  N     -3.062040    9.119440    2.865030
  C     -2.352350   11.589390    2.490160
  C     -1.187060   12.221930    3.194700
  C     -0.572210   11.300690    4.041960
  S      0.760210   11.972340    4.888500
  C      0.499120   13.519170    4.094260
  C     -0.576430   13.471510    3.224170
  C      1.325840   14.638270    4.367470
  C      2.329360   14.649020    5.273710
  C      3.159840   15.765170    5.557010
  S      3.019760   17.259550    4.669920
  C      4.303490   17.986070    5.593850
  C      4.803000   17.103890    6.530350
  C      4.153420   15.854440    6.515930
  C      4.532060   14.746910    7.450730
  C      5.279960   15.288480    8.667900
  C      4.441170   16.062050    9.682100
  O      4.972160   16.639640   10.598540
  C      2.946600   16.057490    9.504950
  C      6.434700   16.179690    8.191100
  C      5.893760   17.432340    7.503540
  C      4.721860   19.337250    5.354340
  C      4.200400   20.144670    4.432810
  H     -9.139430   -0.465260   -0.339030
  H     -5.263200   -1.737110   -0.356780
  H     -3.458380    3.062400    2.013880
  H     -4.288780    1.917000    0.923590
  H     -4.282250    1.618320    3.961530
  H     -3.166040    0.785030    2.871640
  H     -4.899420    0.473420    2.765760
  H     -7.417790    5.579130    3.016290
  H     -8.736130    3.582920    1.831620
  H     -5.747670    6.600720    1.484230
  H     -4.491320    7.867840    1.517550
  H     -5.441180    8.873690    3.506390
  H     -6.614750    7.568630    3.691580
  H     -6.736650    8.683100    2.322960
  H     -1.812030    5.715680    4.933990
  H     -3.411590    3.639900    4.445690
  H     -3.294720   12.090790    2.718270
  H     -2.229170   11.589060    1.405570
  H     -0.889120   14.323810    2.647910
  H      1.110030   15.535200    3.800990
  H      2.531230   13.746940    5.836740
  H      5.195140   14.052860    6.921840
  H      3.651500   14.177990    7.751290
  H      5.703440   14.444110    9.226540
  H      2.488780   16.676050   10.272840
  H      2.566790   15.041510    9.591300
  H      2.681700   16.437500    8.521000
  H      7.057970   15.613150    7.496280
  H      7.046450   16.473240    9.044550
  H      6.709230   17.950430    6.993610
  H      5.495770   18.115100    8.261800
  H      5.519980   19.690590    5.993700
  H      3.400990   19.818900    3.787990
  H      4.553180   21.151660    4.299430

 Total Charge           Charge          ....    0
 Multiplicity           Mult            ....    1
 Number of Electrons    NEL             ....  362
 Basis Dimension        Dim             ....  854

ORBITAL ENERGIES
----------------

  NO   OCC          E(Eh)            E(eV)
   0   2.0000     -88.961178     -2420.7567
   1   2.0000     -88.955913     -2420.6134
   2   2.0000     -88.940459     -2420.1929
   3   2.0000     -19.310928      -525.4771
   4   2.0000     -19.208316      -522.6849
   5   2.0000     -19.195840      -522.3454
   6   2.0000     -14.466876      -393.6637
   7   2.0000     -14.463067      -393.5601
   8   2.0000     -14.411677      -392.1617
   9   2.0000     -14.408041      -392.0627
  10   2.0000     -10.373275      -282.2712
  11   2.0000     -10.353780      -281.7407
  12   2.0000     -10.347047      -281.5575
  13   2.0000     -10.344090      -281.4770
  14   2.0000     -10.337793      -281.3057
  15   2.0000     -10.304590      -280.4022
  16   2.0000     -10.301827      -280.3270
  17   2.0000     -10.301696      -280.3234
  18   2.0000     -10.301648      -280.3221
  19   2.0000     -10.300410      -280.2884
  20   2.0000     -10.300301      -280.2854
  21   2.0000     -10.299814      -280.2722
  22   2.0000     -10.298461      -280.2354
  23   2.0000     -10.298248      -280.2296
  24   2.0000     -10.297428      -280.2073
  25   2.0000     -10.296841      -280.1913
  26   2.0000     -10.290403      -280.0161
  27   2.0000     -10.286406      -279.9073
  28   2.0000     -10.284796      -279.8635
  29   2.0000     -10.278190      -279.6838
  30   2.0000     -10.276036      -279.6251
  31   2.0000     -10.273850      -279.5657
  32   2.0000     -10.273657      -279.5604
  33   2.0000     -10.273519      -279.5567
  34   2.0000     -10.273476      -279.5555
  35   2.0000     -10.273032      -279.5434
  36   2.0000     -10.269267      -279.4410
  37   2.0000     -10.268016      -279.4069
  38   2.0000     -10.265808      -279.3468
  39   2.0000     -10.262920      -279.2682
  40   2.0000     -10.261208      -279.2217
  41   2.0000     -10.259525      -279.1759
  42   2.0000     -10.258568      -279.1498
  43   2.0000     -10.258136      -279.1381
  44   2.0000     -10.255710      -279.0720
  45   2.0000     -10.255180      -279.0576
  46   2.0000     -10.254660      -279.0435
  47   2.0000     -10.254050      -279.0269
  48   2.0000      -8.056228      -219.2211
  49   2.0000      -8.050930      -219.0769
  50   2.0000      -8.036144      -218.6746
  51   2.0000      -6.025582      -163.9644
  52   2.0000      -6.021649      -163.8574
  53   2.0000      -6.020285      -163.8203
  54   2.0000      -6.018062      -163.7598
  55   2.0000      -6.016306      -163.7120
  56   2.0000      -6.012881      -163.6188
  57   2.0000      -6.005299      -163.4125
  58   2.0000      -6.001516      -163.3096
  59   2.0000      -5.998163      -163.2183
  60   2.0000      -1.239413       -33.7261
  61   2.0000      -1.121350       -30.5135
  62   2.0000      -1.114910       -30.3382
  63   2.0000      -1.095335       -29.8056
  64   2.0000      -1.084341       -29.5064
  65   2.0000      -1.059786       -28.8382
  66   2.0000      -1.019713       -27.7478
  67   2.0000      -0.990960       -26.9654
  68   2.0000      -0.980920       -26.6922
  69   2.0000      -0.927168       -25.2295
  70   2.0000      -0.917893       -24.9771
  71   2.0000      -0.911915       -24.8145
  72   2.0000      -0.905708       -24.6456
  73   2.0000      -0.897850       -24.4317
  74   2.0000      -0.893455       -24.3121
  75   2.0000      -0.888274       -24.1712
  76   2.0000      -0.863880       -23.5074
  77   2.0000      -0.856789       -23.3144
  78   2.0000      -0.847343       -23.0574
  79   2.0000      -0.833370       -22.6771
  80   2.0000      -0.820002       -22.3134
  81   2.0000      -0.818904       -22.2835
  82   2.0000      -0.817302       -22.2399
  83   2.0000      -0.814659       -22.1680
  84   2.0000      -0.809503       -22.0277
  85   2.0000      -0.788306       -21.4509
  86   2.0000      -0.771624       -20.9969
  87   2.0000      -0.766644       -20.8615
  88   2.0000      -0.754427       -20.5290
  89   2.0000      -0.731230       -19.8978
  90   2.0000      -0.721871       -19.6431
  91   2.0000      -0.720429       -19.6039
  92   2.0000      -0.719776       -19.5861
  93   2.0000      -0.707478       -19.2515
  94   2.0000      -0.695457       -18.9243
  95   2.0000      -0.690248       -18.7826
  96   2.0000      -0.682789       -18.5796
  97   2.0000      -0.668817       -18.1994
  98   2.0000      -0.662117       -18.0171
  99   2.0000      -0.648511       -17.6469
 100   2.0000      -0.637941       -17.3593
 101   2.0000      -0.632532       -17.2121
 102   2.0000      -0.618602       -16.8330
 103   2.0000      -0.616640       -16.7796
 104   2.0000      -0.616152       -16.7663
 105   2.0000      -0.612107       -16.6563
 106   2.0000      -0.607038       -16.5184
 107   2.0000      -0.597329       -16.2542
 108   2.0000      -0.594280       -16.1712
 109   2.0000      -0.582743       -15.8572
 110   2.0000      -0.580314       -15.7911
 111   2.0000      -0.571765       -15.5585
 112   2.0000      -0.564580       -15.3630
 113   2.0000      -0.559108       -15.2141
 114   2.0000      -0.555372       -15.1124
 115   2.0000      -0.552021       -15.0213
 116   2.0000      -0.550154       -14.9705
 117   2.0000      -0.544464       -14.8156
 118   2.0000      -0.543845       -14.7988
 119   2.0000      -0.538647       -14.6573
 120   2.0000      -0.532924       -14.5016
 121   2.0000      -0.528789       -14.3891
 122   2.0000      -0.524503       -14.2725
 123   2.0000      -0.523579       -14.2473
 124   2.0000      -0.516542       -14.0558
 125   2.0000      -0.513880       -13.9834
 126   2.0000      -0.511822       -13.9274
 127   2.0000      -0.508130       -13.8269
 128   2.0000      -0.506800       -13.7907
 129   2.0000      -0.502746       -13.6804
 130   2.0000      -0.500189       -13.6108
 131   2.0000      -0.497699       -13.5431
 132   2.0000      -0.491729       -13.3806
 133   2.0000      -0.489061       -13.3080
 134   2.0000      -0.485943       -13.2232
 135   2.0000      -0.484688       -13.1890
 136   2.0000      -0.481761       -13.1094
 137   2.0000      -0.476749       -12.9730
 138   2.0000      -0.472191       -12.8490
 139   2.0000      -0.469182       -12.7671
 140   2.0000      -0.467844       -12.7307
 141   2.0000      -0.466606       -12.6970
 142   2.0000      -0.465026       -12.6540
 143   2.0000      -0.462885       -12.5957
 144   2.0000      -0.457836       -12.4583
 145   2.0000      -0.456735       -12.4284
 146   2.0000      -0.453084       -12.3290
 147   2.0000      -0.451466       -12.2850
 148   2.0000      -0.448767       -12.2116
 149   2.0000      -0.446661       -12.1543
 150   2.0000      -0.444065       -12.0836
 151   2.0000      -0.441563       -12.0155
 152   2.0000      -0.435502       -11.8506
 153   2.0000      -0.431038       -11.7291
 154   2.0000      -0.428445       -11.6586
 155   2.0000      -0.423684       -11.5290
 156   2.0000      -0.422301       -11.4914
 157   2.0000      -0.420148       -11.4328
 158   2.0000      -0.418862       -11.3978
 159   2.0000      -0.409649       -11.1471
 160   2.0000      -0.402850       -10.9621
 161   2.0000      -0.402447       -10.9511
 162   2.0000      -0.396426       -10.7873
 163   2.0000      -0.392013       -10.6672
 164   2.0000      -0.382233       -10.4011
 165   2.0000      -0.376591       -10.2476
 166   2.0000      -0.374673       -10.1954
 167   2.0000      -0.353940        -9.6312
 168   2.0000      -0.347417        -9.4537
 169   2.0000      -0.346410        -9.4263
 170   2.0000      -0.335381        -9.1262
 171   2.0000      -0.329993        -8.9796
 172   2.0000      -0.318868        -8.6768
 173   2.0000      -0.316986        -8.6256
 174   2.0000      -0.313637        -8.5345
 175   2.0000      -0.311562        -8.4780
 176   2.0000      -0.301351        -8.2002
 177   2.0000      -0.300626        -8.1804
 178   2.0000      -0.273307        -7.4371
 179   2.0000      -0.246852        -6.7172
 180   2.0000      -0.216234        -5.8840
 181   0.0000      -0.051020        -1.3883
 182   0.0000      -0.016915        -0.4603
 183   0.0000      -0.013065        -0.3555
 184   0.0000       0.004976         0.1354
 185   0.0000       0.026298         0.7156

MULLIKEN ATOMIC CHARGES
-----------------------
   0 O :   -0.168341
   1 C :    0.084190
   2 N :   -0.112709
   3 C :   -0.035331
   4 C :    0.131437
   5 C :    0.161254
   6 O :   -0.180527
   7 C :    0.067875
   8 N :   -0.155197
   9 C :    0.100520
  10 C :    0.006871
  11 C :    0.079052
  12 C :   -0.036138
  13 C :   -0.035519
  14 C :    0.070743
  15 N :   -0.159041
  16 C :    0.101037
  17 C :    0.005907
  18 C :    0.126599
  19 C :   -0.055814
  20 C :   -0.028349
  21 C :   -0.116993
  22 S :    0.112631
  23 C :   -0.043729
  24 C :   -0.220340
  25 N :   -0.048701
  26 C :    0.393227
  27 C :   -0.157871
  28 C :   -0.097828
  29 S :    0.118327
  30 C :   -0.045041
  31 C :   -0.027530
  32 C :    0.009519
  33 C :   -0.034946
  34 C :   -0.083825
  35 S :    0.084179
  36 C :   -0.113835
  37 C :   -0.063113
  38 C :   -0.120450
  39 C :    0.193485
  40 C :   -0.101869
  41 C :   -0.044272
  42 O :   -0.189053
  43 C :    0.085760
  44 C :    0.067725
  45 C :    0.097843
  46 C :   -0.009414
  47 C :   -0.024842
  48 H :    0.031007
  49 H :   -0.015562
  50 H :    0.037976
  51 H :    0.035343
  52 H :    0.017253
  53 H :    0.017474
  54 H :    0.026600
  55 H :   -0.041866
  56 H :   -0.022781
  57 H :    0.034784
  58 H :    0.035771
  59 H :    0.026107
  60 H :    0.016446
  61 H :    0.016545
  62 H :   -0.022068
  63 H :   -0.044883
  64 H :    0.030300
  65 H :    0.032379
  66 H :   -0.026951
  67 H :   -0.008220
  68 H :   -0.009759
  69 H :    0.016965
  70 H :    0.002323
  71 H :    0.022621
  72 H :    0.027334
  73 H :    0.029970
  74 H :    0.044739
  75 H :    0.002459
  76 H :    0.017349
  77 H :    0.016761
  78 H :    0.032495
  79 H :   -0.007855
  80 H :    0.020184
  81 H :    0.021195
Sum of atomic charges:   -0.0000000

LOEWDIN ATOMIC CHARGES
----------------------
   0 O :    0.024954
   1 C :    0.055723
   2 N :   -0.113487
   3 C :   -0.109611
   4 C :    0.069710
   5 C :    0.101711
   6 O :   -0.136717
   7 C :   -0.055959
   8 N :    0.088885
   9 C :    0.036748
  10 C :   -0.060455
  11 C :   -0.011169
  12 C :   -0.074699
  13 C :   -0.044354
  14 C :   -0.017431
  15 N :    0.086681
  16 C :    0.035411
  17 C :   -0.060681
  18 C :   -0.053708
  19 C :   -0.062848
  20 C :   -0.071558
  21 C :   -0.114219
  22 S :    0.405573
  23 C :   -0.218336
  24 C :   -0.041725
  25 N :   -0.098422
  26 C :   -0.012499
  27 C :   -0.056738
  28 C :   -0.195359
  29 S :    0.422516
  30 C :   -0.165778
  31 C :   -0.053573
  32 C :   -0.042739
  33 C :   -0.056909
  34 C :   -0.171785
  35 S :    0.419238
  36 C :   -0.175568
  37 C :   -0.060116
  38 C :   -0.069145
  39 C :   -0.023289
  40 C :   -0.060423
  41 C :    0.090119
  42 O :   -0.147063
  43 C :   -0.079861
  44 C :   -0.012487
  45 C :   -0.030062
  46 C :   -0.039222
  47 C :   -0.052896
  48 H :    0.034848
  49 H :   -0.000360
  50 H :    0.029990
  51 H :    0.029728
  52 H :    0.020151
  53 H :    0.030306
  54 H :    0.025151
  55 H :    0.023317
  56 H :    0.027517
  57 H :    0.028362
  58 H :    0.028975
  59 H :    0.025614
  60 H :    0.019959
  61 H :    0.029212
  62 H :    0.020519
  63 H :    0.022965
  64 H :    0.053603
  65 H :    0.054405
  66 H :    0.030264
  67 H :    0.028423
  68 H :    0.022262
  69 H :    0.037625
  70 H :    0.025368
  71 H :    0.043980
  72 H :    0.036768
  73 H :    0.041960
  74 H :    0.046542
  75 H :    0.022454
  76 H :    0.030315
  77 H :    0.032955
  78 H :    0.035688
  79 H :    0.033002
  80 H :    0.016511
  81 H :    0.025244

  Mayer bond orders larger than 0.100000
B(  0-O ,  1-C ) :   1.2261 B(  0-O ,  4-C ) :   1.1549 B(  1-C ,  2-N ) :   1.6709
B(  1-C ,  7-C ) :   1.0240 B(  2-N ,  3-C ) :   1.2683 B(  3-C ,  4-C ) :   1.5228
B(  3-C ,  5-C ) :   0.9714 B(  4-C , 48-H ) :   0.9909 B(  5-C ,  6-O ) :   2.2015
B(  5-C , 49-H ) :   0.9518 B(  7-C ,  8-N ) :   1.2016 B(  7-C , 11-C ) :   0.1280
B(  7-C , 13-C ) :   1.4120 B(  8-N ,  9-C ) :   0.9535 B(  8-N , 11-C ) :   1.2574
B(  9-C , 10-C ) :   1.1117 B(  9-C , 50-H ) :   0.9385 B(  9-C , 51-H ) :   0.9299
B( 10-C , 52-H ) :   0.9629 B( 10-C , 53-H ) :   0.9664 B( 10-C , 54-H ) :   0.9574
B( 11-C , 12-C ) :   1.4241 B( 11-C , 14-C ) :   0.9145 B( 12-C , 13-C ) :   1.3042
B( 12-C , 55-H ) :   1.0209 B( 13-C , 56-H ) :   1.0133 B( 14-C , 15-N ) :   1.2499
B( 14-C , 18-C ) :   0.1193 B( 14-C , 20-C ) :   1.4255 B( 15-N , 16-C ) :   0.9558
B( 15-N , 18-C ) :   1.1982 B( 16-C , 17-C ) :   1.1121 B( 16-C , 57-H ) :   0.9387
B( 16-C , 58-H ) :   0.9276 B( 17-C , 59-H ) :   0.9580 B( 17-C , 60-H ) :   0.9631
B( 17-C , 61-H ) :   0.9666 B( 18-C , 19-C ) :   1.4174 B( 18-C , 21-C ) :   1.0833
B( 19-C , 20-C ) :   1.3278 B( 19-C , 62-H ) :   0.9918 B( 20-C , 63-H ) :   1.0197
B( 21-C , 22-S ) :   1.0899 B( 21-C , 25-N ) :   1.6290 B( 22-S , 23-C ) :   1.0659
B( 23-C , 24-C ) :   1.5082 B( 23-C , 28-C ) :   1.1795 B( 24-C , 25-N ) :   1.3889
B( 24-C , 26-C ) :   1.0494 B( 26-C , 27-C ) :   0.9809 B( 26-C , 64-H ) :   0.8594
B( 26-C , 65-H ) :   0.8589 B( 27-C , 28-C ) :   1.5373 B( 27-C , 31-C ) :   1.2826
B( 28-C , 29-S ) :   1.0788 B( 29-S , 30-C ) :   1.0893 B( 30-C , 31-C ) :   1.4502
B( 30-C , 32-C ) :   1.1649 B( 31-C , 66-H ) :   1.0080 B( 32-C , 33-C ) :   1.6350
B( 32-C , 67-H ) :   0.9773 B( 33-C , 34-C ) :   1.1729 B( 33-C , 68-H ) :   0.9626
B( 34-C , 35-S ) :   1.1066 B( 34-C , 38-C ) :   1.4943 B( 35-S , 36-C ) :   1.0962
B( 36-C , 37-C ) :   1.5246 B( 36-C , 46-C ) :   1.1297 B( 37-C , 38-C ) :   1.2928
B( 37-C , 45-C ) :   1.0487 B( 38-C , 39-C ) :   1.0442 B( 39-C , 40-C ) :   1.0560
B( 39-C , 69-H ) :   0.8940 B( 39-C , 70-H ) :   0.8975 B( 40-C , 41-C ) :   0.8823
B( 40-C , 44-C ) :   1.0509 B( 40-C , 71-H ) :   0.8909 B( 41-C , 42-O ) :   2.1844
B( 41-C , 43-C ) :   1.0713 B( 43-C , 72-H ) :   0.9455 B( 43-C , 73-H ) :   0.9345
B( 43-C , 74-H ) :   0.9347 B( 44-C , 45-C ) :   1.0975 B( 44-C , 75-H ) :   0.9479
B( 44-C , 76-H ) :   0.9242 B( 45-C , 77-H ) :   0.9105 B( 45-C , 78-H ) :   0.9052
B( 46-C , 47-C ) :   1.9127 B( 46-C , 79-H ) :   0.9593 B( 47-C , 80-H ) :   0.9557
B( 47-C , 81-H ) :   0.9484

-----------------------------------------------------------------------------
         ABSORPTION SPECTRUM VIA TRANSITION ELECTRIC DIPOLE MOMENTS
-----------------------------------------------------------------------------
State   Energy  Wavelength   fosc         T2         TX        TY        TZ
        (cm-1)    (nm)                  (au**2)     (au)      (au)      (au)
-----------------------------------------------------------------------------
   0   21143.4    473.0   2.221236279  34.58563  -3.27749  -4.76037  -1.08749
   1   29194.3    342.5   0.042467555   0.47889   0.17924   0.62459   0.23802
   2   29624.3    337.6   0.069778156   0.77544   0.26965   0.82940   0.12173
   3   32631.0    306.5   0.063214696   0.63777   0.53925   0.44610   0.38468
   4   34570.4    289.3   0.105261038   1.00239   0.16050   0.89987   0.40849
   5   35485.0    281.8   0.234347991   2.17416   0.48038   1.26743   0.58053
   6   37837.2    264.3   0.023472263   0.20423   0.35212   0.27786  -0.05501
   7   38526.5    259.6   0.101297302   0.86559  -0.36521  -0.85568  -0.00556
   8   39033.0    256.2   0.102869805   0.86762  -0.50765   0.25477  -0.73825
   9   39437.2    253.6   0.087624379   0.73147  -0.46654  -0.43715  -0.56807

FINAL SINGLE POINT ENERGY     -3104.974477481031

DIPOLE MOMENT
-------------
                                X             Y             Z
Electronic contribution:    -15.98866     -22.69244     -15.75516
Nuclear contribution   :     15.70085      23.34580      15.37755
                        -----------------------------------------
Total Dipole Moment    :     -0.28780       0.65336      -0.37761
                        -----------------------------------------
Magnitude (a.u.)       :      0.80765
Magnitude (Debye)      :      2.05287

Rotational constants in cm-1:     0.006784     0.000381     0.000372
Rotational constants in MHz :   203.378938    11.426588    11.152555

                             ****ORCA TERMINATED NORMALLY****
TOTAL RUN TIME: 0 days 0 hours 5 minutes 11 seconds 137 msec
