                         Program Version 4.2.0 -  RELEASE  -
|  1> # ORCA input file
|  2> # SCF done       -108.258473667933          0.000858852371
|  3> ! CAM-B3LYP def2-SVP def2/J RIJCOSX Grid4 TightSCF
|  4> %maxcore 5000
|  5> %tddft
|  6>     Mode sTDDFT
|  7>     Ethresh 5.0
|  8>     maxcore 5000
|  9> end
| 10>
| 11> %pal
| 12>   nprocs 6
| 13>   end
| 14> * xyz 0 1
| 15>    O       -3.12286         0.40623        -1.71611
| 16>    C       -1.91850         0.80466        -1.22619
| 17>    N       -0.94520         0.00303        -1.54864
| 18>    C       -1.52498        -0.98808        -2.29554
| 19>    C       -2.87014        -0.72146        -2.38836
| 20>    C       -0.76084        -2.09553        -2.85116
| 21>    O       -1.22496        -2.98792        -3.51364
| 22>    C       -1.81140         1.99282        -0.44864
| 23>    S       -3.20766         2.94919        -0.07506
| 24>    C       -2.21918         4.08211         0.80740
| 25>    C       -0.89031         3.70857         0.79261
| 26>    C       -0.66106         2.52910         0.08557
| 27>    C       -2.77638         5.19471         1.41642
| 28>    C       -3.28244         6.16737         1.93951
| 29>    C       -3.84141         7.28976         2.53782
| 30>    C       -3.09295         8.28243         3.07229
| 31>    C       -3.61392         9.45221         3.69124
| 32>    S       -2.51349        10.68547         4.24282
| 33>    C       -3.83605        11.67414         4.79997
| 34>    C       -5.04849        11.05525         4.56650
| 35>    C       -4.92302         9.81528         3.94556
| 36>    C       -3.61288        12.91302         5.37397
| 37>    C       -3.38843        14.00342         5.86146
| 38>    C       -3.17461        15.26141         6.40868
| 39>    C       -1.94369        15.81512         6.50982
| 40>    C       -1.67597        17.11124         7.03167
| 41>    S       -0.03749        17.69928         7.04607
| 42>    C       -0.54458        19.21540         7.74172
| 43>    C       -1.91015        19.23337         7.94610
| 44>    C       -2.54117        18.05732         7.54948
| 45>    C        0.36811        20.22080         8.00720
| 46>    C        1.18860        21.09199         8.21666
| 47>    C        2.12947        22.08751         8.44774
| 48>    C        1.82283        23.31782         8.90958
| 49>    C        2.80386        24.33240         9.12513
| 50>    N        2.57658        25.54006         9.55480
| 51>    C        3.79882        26.15308         9.59991
| 52>    C        4.74426        25.24701         9.17799
| 53>    O        4.12679        24.10205         8.87822
| 54>    C        3.97077        27.53228        10.03172
| 55>    O        5.02674        28.10954        10.08557
| 56>    H       -3.67733        -1.23064        -2.87263
| 57>    H        0.31327        -2.04149        -2.60125
| 58>    H       -0.12517         4.28097         1.28497
| 59>    H        0.29818         2.06442        -0.04663
| 60>    H       -4.92203         7.33386         2.55397
| 61>    H       -2.01444         8.20458         3.02709
| 62>    H       -5.98610        11.50510         4.84121
| 63>    H       -5.76471         9.19672         3.69086
| 64>    H       -4.05515        15.79482         6.74191
| 65>    H       -1.08766        15.25230         6.16152
| 66>    H       -2.41727        20.08232         8.36917
| 67>    H       -3.60113        17.90009         7.63652
| 68>    H        3.15908        21.83224         8.22715
| 69>    H        0.80796        23.60378         9.13685
| 70>    H        5.80665        25.31228         9.06260
| 71>    H        3.01840        28.01466        10.31361
| 72> *
| 73>
| 74>                          ****END OF INPUT****

CARTESIAN COORDINATES (ANGSTROEM)
---------------------------------
  O     -3.122860    0.406230   -1.716110
  C     -1.918500    0.804660   -1.226190
  N     -0.945200    0.003030   -1.548640
  C     -1.524980   -0.988080   -2.295540
  C     -2.870140   -0.721460   -2.388360
  C     -0.760840   -2.095530   -2.851160
  O     -1.224960   -2.987920   -3.513640
  C     -1.811400    1.992820   -0.448640
  S     -3.207660    2.949190   -0.075060
  C     -2.219180    4.082110    0.807400
  C     -0.890310    3.708570    0.792610
  C     -0.661060    2.529100    0.085570
  C     -2.776380    5.194710    1.416420
  C     -3.282440    6.167370    1.939510
  C     -3.841410    7.289760    2.537820
  C     -3.092950    8.282430    3.072290
  C     -3.613920    9.452210    3.691240
  S     -2.513490   10.685470    4.242820
  C     -3.836050   11.674140    4.799970
  C     -5.048490   11.055250    4.566500
  C     -4.923020    9.815280    3.945560
  C     -3.612880   12.913020    5.373970
  C     -3.388430   14.003420    5.861460
  C     -3.174610   15.261410    6.408680
  C     -1.943690   15.815120    6.509820
  C     -1.675970   17.111240    7.031670
  S     -0.037490   17.699280    7.046070
  C     -0.544580   19.215400    7.741720
  C     -1.910150   19.233370    7.946100
  C     -2.541170   18.057320    7.549480
  C      0.368110   20.220800    8.007200
  C      1.188600   21.091990    8.216660
  C      2.129470   22.087510    8.447740
  C      1.822830   23.317820    8.909580
  C      2.803860   24.332400    9.125130
  N      2.576580   25.540060    9.554800
  C      3.798820   26.153080    9.599910
  C      4.744260   25.247010    9.177990
  O      4.126790   24.102050    8.878220
  C      3.970770   27.532280   10.031720
  O      5.026740   28.109540   10.085570
  H     -3.677330   -1.230640   -2.872630
  H      0.313270   -2.041490   -2.601250
  H     -0.125170    4.280970    1.284970
  H      0.298180    2.064420   -0.046630
  H     -4.922030    7.333860    2.553970
  H     -2.014440    8.204580    3.027090
  H     -5.986100   11.505100    4.841210
  H     -5.764710    9.196720    3.690860
  H     -4.055150   15.794820    6.741910
  H     -1.087660   15.252300    6.161520
  H     -2.417270   20.082320    8.369170
  H     -3.601130   17.900090    7.636520
  H      3.159080   21.832240    8.227150
  H      0.807960   23.603780    9.136850
  H      5.806650   25.312280    9.062600
  H      3.018400   28.014660   10.313610

 Total Charge           Charge          ....    0
 Multiplicity           Mult            ....    1
 Number of Electrons    NEL             ....  302
 Basis Dimension        Dim             ....  666

ORBITAL ENERGIES
----------------

  NO   OCC          E(Eh)            E(eV)
   0   2.0000     -88.968913     -2420.9672
   1   2.0000     -88.964691     -2420.8523
   2   2.0000     -88.962828     -2420.8016
   3   2.0000     -19.319118      -525.6999
   4   2.0000     -19.316552      -525.6301
   5   2.0000     -19.210933      -522.7561
   6   2.0000     -19.210185      -522.7357
   7   2.0000     -14.416297      -392.2874
   8   2.0000     -14.415847      -392.2751
   9   2.0000     -10.377513      -282.3865
  10   2.0000     -10.370305      -282.1903
  11   2.0000     -10.355903      -281.7984
  12   2.0000     -10.355165      -281.7784
  13   2.0000     -10.349951      -281.6365
  14   2.0000     -10.348862      -281.6068
  15   2.0000     -10.322939      -280.9014
  16   2.0000     -10.319620      -280.8111
  17   2.0000     -10.318645      -280.7846
  18   2.0000     -10.314746      -280.6785
  19   2.0000     -10.311902      -280.6011
  20   2.0000     -10.309258      -280.5292
  21   2.0000     -10.307586      -280.4837
  22   2.0000     -10.305643      -280.4308
  23   2.0000     -10.304405      -280.3971
  24   2.0000     -10.298883      -280.2469
  25   2.0000     -10.297692      -280.2144
  26   2.0000     -10.297334      -280.2047
  27   2.0000     -10.296990      -280.1953
  28   2.0000     -10.296388      -280.1790
  29   2.0000     -10.287066      -279.9253
  30   2.0000     -10.285921      -279.8941
  31   2.0000     -10.285844      -279.8920
  32   2.0000     -10.284869      -279.8655
  33   2.0000     -10.284145      -279.8458
  34   2.0000     -10.282353      -279.7970
  35   2.0000     -10.281728      -279.7800
  36   2.0000     -10.281512      -279.7742
  37   2.0000     -10.281433      -279.7720
  38   2.0000     -10.280659      -279.7510
  39   2.0000     -10.279290      -279.7137
  40   2.0000     -10.278382      -279.6890
  41   2.0000      -8.064306      -219.4409
  42   2.0000      -8.060456      -219.3362
  43   2.0000      -8.058652      -219.2871
  44   2.0000      -6.033588      -164.1823
  45   2.0000      -6.029675      -164.0758
  46   2.0000      -6.029440      -164.0694
  47   2.0000      -6.027855      -164.0263
  48   2.0000      -6.026404      -163.9868
  49   2.0000      -6.025591      -163.9647
  50   2.0000      -6.023811      -163.9162
  51   2.0000      -6.022597      -163.8832
  52   2.0000      -6.020764      -163.8333
  53   2.0000      -1.247425       -33.9442
  54   2.0000      -1.243919       -33.8487
  55   2.0000      -1.124163       -30.5900
  56   2.0000      -1.123416       -30.5697
  57   2.0000      -1.026050       -27.9202
  58   2.0000      -1.023868       -27.8609
  59   2.0000      -0.994744       -27.0683
  60   2.0000      -0.992780       -27.0149
  61   2.0000      -0.990848       -26.9624
  62   2.0000      -0.928455       -25.2645
  63   2.0000      -0.918420       -24.9915
  64   2.0000      -0.913421       -24.8555
  65   2.0000      -0.901505       -24.5312
  66   2.0000      -0.881975       -23.9997
  67   2.0000      -0.870997       -23.7010
  68   2.0000      -0.858431       -23.3591
  69   2.0000      -0.847002       -23.0481
  70   2.0000      -0.840485       -22.8707
  71   2.0000      -0.838978       -22.8298
  72   2.0000      -0.836615       -22.7654
  73   2.0000      -0.819344       -22.2955
  74   2.0000      -0.803375       -21.8610
  75   2.0000      -0.785358       -21.3707
  76   2.0000      -0.770132       -20.9563
  77   2.0000      -0.766789       -20.8654
  78   2.0000      -0.751361       -20.4456
  79   2.0000      -0.739074       -20.1112
  80   2.0000      -0.723482       -19.6869
  81   2.0000      -0.712507       -19.3883
  82   2.0000      -0.697256       -18.9733
  83   2.0000      -0.697151       -18.9704
  84   2.0000      -0.681631       -18.5481
  85   2.0000      -0.678062       -18.4510
  86   2.0000      -0.664017       -18.0688
  87   2.0000      -0.640132       -17.4189
  88   2.0000      -0.630497       -17.1567
  89   2.0000      -0.627754       -17.0820
  90   2.0000      -0.626107       -17.0372
  91   2.0000      -0.617414       -16.8007
  92   2.0000      -0.615845       -16.7580
  93   2.0000      -0.608478       -16.5575
  94   2.0000      -0.607064       -16.5190
  95   2.0000      -0.596938       -16.2435
  96   2.0000      -0.593920       -16.1614
  97   2.0000      -0.588461       -16.0128
  98   2.0000      -0.587491       -15.9864
  99   2.0000      -0.584889       -15.9156
 100   2.0000      -0.582498       -15.8506
 101   2.0000      -0.565831       -15.3970
 102   2.0000      -0.563489       -15.3333
 103   2.0000      -0.542770       -14.7695
 104   2.0000      -0.528010       -14.3679
 105   2.0000      -0.525996       -14.3131
 106   2.0000      -0.524124       -14.2621
 107   2.0000      -0.511196       -13.9103
 108   2.0000      -0.509671       -13.8688
 109   2.0000      -0.509344       -13.8599
 110   2.0000      -0.506087       -13.7713
 111   2.0000      -0.502489       -13.6734
 112   2.0000      -0.494032       -13.4433
 113   2.0000      -0.491920       -13.3858
 114   2.0000      -0.489290       -13.3143
 115   2.0000      -0.489159       -13.3107
 116   2.0000      -0.488457       -13.2916
 117   2.0000      -0.487931       -13.2773
 118   2.0000      -0.486393       -13.2354
 119   2.0000      -0.479578       -13.0500
 120   2.0000      -0.479147       -13.0382
 121   2.0000      -0.478819       -13.0293
 122   2.0000      -0.478803       -13.0289
 123   2.0000      -0.459174       -12.4948
 124   2.0000      -0.456848       -12.4315
 125   2.0000      -0.448082       -12.1929
 126   2.0000      -0.439831       -11.9684
 127   2.0000      -0.432098       -11.7580
 128   2.0000      -0.429031       -11.6745
 129   2.0000      -0.427608       -11.6358
 130   2.0000      -0.427147       -11.6233
 131   2.0000      -0.414349       -11.2750
 132   2.0000      -0.408716       -11.1217
 133   2.0000      -0.391866       -10.6632
 134   2.0000      -0.380659       -10.3583
 135   2.0000      -0.378499       -10.2995
 136   2.0000      -0.375474       -10.2172
 137   2.0000      -0.356020        -9.6878
 138   2.0000      -0.352397        -9.5892
 139   2.0000      -0.349649        -9.5144
 140   2.0000      -0.345704        -9.4071
 141   2.0000      -0.335613        -9.1325
 142   2.0000      -0.333316        -9.0700
 143   2.0000      -0.332348        -9.0436
 144   2.0000      -0.332116        -9.0373
 145   2.0000      -0.331509        -9.0208
 146   2.0000      -0.330648        -8.9974
 147   2.0000      -0.311554        -8.4778
 148   2.0000      -0.287088        -7.8121
 149   2.0000      -0.261173        -7.1069
 150   2.0000      -0.236399        -6.4328
 151   0.0000      -0.074942        -2.0393
 152   0.0000      -0.054388        -1.4800
 153   0.0000      -0.028478        -0.7749
 154   0.0000      -0.016541        -0.4501
 155   0.0000      -0.014311        -0.3894

MULLIKEN ATOMIC CHARGES
-----------------------
   0 O :   -0.170242
   1 C :    0.120679
   2 N :   -0.080940
   3 C :   -0.046453
   4 C :    0.132095
   5 C :    0.167683
   6 O :   -0.177985
   7 C :   -0.118346
   8 S :    0.191857
   9 C :   -0.134165
  10 C :    0.052627
  11 C :    0.012661
  12 C :    0.066568
  13 C :   -0.033253
  14 C :   -0.085671
  15 C :    0.074296
  16 C :   -0.090398
  17 S :    0.162863
  18 C :   -0.156384
  19 C :    0.062024
  20 C :    0.012143
  21 C :    0.059214
  22 C :   -0.023640
  23 C :   -0.083810
  24 C :    0.075959
  25 C :   -0.085436
  26 S :    0.166310
  27 C :   -0.161429
  28 C :    0.067366
  29 C :    0.003958
  30 C :    0.060955
  31 C :   -0.010884
  32 C :   -0.068327
  33 C :    0.006092
  34 C :    0.090597
  35 N :   -0.071643
  36 C :   -0.060682
  37 C :    0.135273
  38 O :   -0.178645
  39 C :    0.170898
  40 O :   -0.179022
  41 H :    0.034555
  42 H :   -0.010732
  43 H :   -0.006514
  44 H :    0.004128
  45 H :    0.026460
  46 H :    0.000333
  47 H :   -0.010200
  48 H :   -0.012000
  49 H :    0.025778
  50 H :   -0.001151
  51 H :   -0.006993
  52 H :   -0.010590
  53 H :    0.042869
  54 H :    0.023603
  55 H :    0.036347
  56 H :   -0.010656
Sum of atomic charges:    0.0000000

LOEWDIN ATOMIC CHARGES
----------------------
   0 O :    0.022240
   1 C :    0.030281
   2 N :   -0.099980
   3 C :   -0.106439
   4 C :    0.071355
   5 C :    0.104098
   6 O :   -0.133546
   7 C :   -0.202938
   8 S :    0.468391
   9 C :   -0.177963
  10 C :   -0.036140
  11 C :   -0.024385
  12 C :   -0.062402
  13 C :   -0.019226
  14 C :   -0.041682
  15 C :   -0.013573
  16 C :   -0.171463
  17 S :    0.452971
  18 C :   -0.186732
  19 C :   -0.032085
  20 C :   -0.050862
  21 C :   -0.057341
  22 C :   -0.025816
  23 C :   -0.035473
  24 C :   -0.019202
  25 C :   -0.166140
  26 S :    0.456248
  27 C :   -0.192505
  28 C :   -0.026519
  29 C :   -0.054225
  30 C :   -0.044043
  31 C :   -0.031188
  32 C :   -0.016581
  33 C :   -0.023177
  34 C :    0.041850
  35 N :   -0.093826
  36 C :   -0.110050
  37 C :    0.075481
  38 O :    0.022851
  39 C :    0.104016
  40 O :   -0.134746
  41 H :    0.035917
  42 H :    0.002019
  43 H :    0.036604
  44 H :    0.040187
  45 H :    0.042439
  46 H :    0.035242
  47 H :    0.035506
  48 H :    0.030561
  49 H :    0.042767
  50 H :    0.034942
  51 H :    0.036631
  52 H :    0.030771
  53 H :    0.048452
  54 H :    0.050279
  55 H :    0.035965
  56 H :    0.002179

  Mayer bond orders larger than 0.100000
B(  0-O ,  1-C ) :   1.2058 B(  0-O ,  4-C ) :   1.1593 B(  1-C ,  2-N ) :   1.7725
B(  1-C ,  7-C ) :   1.0474 B(  2-N ,  3-C ) :   1.2967 B(  3-C ,  4-C ) :   1.5172
B(  3-C ,  5-C ) :   0.9696 B(  4-C , 41-H ) :   0.9906 B(  5-C ,  6-O ) :   2.2034
B(  5-C , 42-H ) :   0.9521 B(  7-C ,  8-S ) :   1.1240 B(  7-C ,  9-C ) :   0.1195
B(  7-C , 11-C ) :   1.5305 B(  8-S ,  9-C ) :   1.1149 B(  9-C , 10-C ) :   1.4982
B(  9-C , 12-C ) :   0.9576 B( 10-C , 11-C ) :   1.2566 B( 10-C , 43-H ) :   1.0034
B( 11-C , 44-H ) :   1.0036 B( 12-C , 13-C ) :   2.2895 B( 13-C , 14-C ) :   1.0271
B( 14-C , 15-C ) :   1.7269 B( 14-C , 45-H ) :   0.9498 B( 15-C , 16-C ) :   1.1194
B( 15-C , 46-H ) :   0.9644 B( 16-C , 17-S ) :   1.1214 B( 16-C , 18-C ) :   0.1003
B( 16-C , 20-C ) :   1.4850 B( 17-S , 18-C ) :   1.1147 B( 18-C , 19-C ) :   1.4830
B( 18-C , 21-C ) :   0.9878 B( 19-C , 20-C ) :   1.2921 B( 19-C , 47-H ) :   1.0007
B( 20-C , 48-H ) :   0.9885 B( 21-C , 22-C ) :   2.2764 B( 22-C , 23-C ) :   1.0259
B( 23-C , 24-C ) :   1.7214 B( 23-C , 49-H ) :   0.9529 B( 24-C , 25-C ) :   1.1162
B( 24-C , 50-H ) :   0.9650 B( 25-C , 26-S ) :   1.1280 B( 25-C , 27-C ) :   0.1015
B( 25-C , 29-C ) :   1.4833 B( 26-S , 27-C ) :   1.1132 B( 27-C , 28-C ) :   1.4814
B( 27-C , 30-C ) :   0.9883 B( 28-C , 29-C ) :   1.2930 B( 28-C , 51-H ) :   1.0003
B( 29-C , 52-H ) :   0.9894 B( 30-C , 31-C ) :   2.2955 B( 31-C , 32-C ) :   0.9940
B( 32-C , 33-C ) :   1.6968 B( 32-C , 53-H ) :   0.9563 B( 33-C , 34-C ) :   1.1107
B( 33-C , 54-H ) :   0.9709 B( 34-C , 35-N ) :   1.7053 B( 34-C , 38-O ) :   1.1500
B( 35-N , 36-C ) :   1.3104 B( 36-C , 37-C ) :   1.5096 B( 36-C , 39-C ) :   0.9722
B( 37-C , 38-O ) :   1.1729 B( 37-C , 55-H ) :   0.9913 B( 39-C , 40-O ) :   2.2021
B( 39-C , 56-H ) :   0.9517

-----------------------------------------------------------------------------
         ABSORPTION SPECTRUM VIA TRANSITION ELECTRIC DIPOLE MOMENTS
-----------------------------------------------------------------------------
State   Energy  Wavelength   fosc         T2         TX        TY        TZ
        (cm-1)    (nm)                  (au**2)     (au)      (au)      (au)
-----------------------------------------------------------------------------
   0   20987.9    476.5   3.286886403  51.55744   1.44317   6.44626   2.81433
   1   26584.1    376.2   0.440225128   5.45165   2.19998  -0.15554  -0.76651
   2   28642.6    349.1   0.013793084   0.15854   0.35071   0.17626  -0.06686
   3   31902.3    313.5   0.304732215   3.14465  -0.40014  -1.59378  -0.66664
   4   32691.0    305.9   0.113588248   1.14388   0.22573   0.97037   0.38899
   5   36244.4    275.9   0.097269190   0.88351  -0.29931  -0.80661  -0.37856
   6   36450.3    274.3   0.025234988   0.22792   0.21937  -0.40189  -0.13521
   7   37721.6    265.1   0.051128692   0.44622   0.47553  -0.44710  -0.14209
   8   38435.3    260.2   0.020718831   0.17746   0.08104  -0.33509  -0.24210
   9   39133.0    255.5   0.009081204   0.07640  -0.08277  -0.15834   0.21089

FINAL SINGLE POINT ENERGY     -2831.346463688370

DIPOLE MOMENT
-------------
                                X             Y             Z
Electronic contribution:      2.35878     -11.73777      -6.70577
Nuclear contribution   :     -3.51265      11.70259       7.05843
                        -----------------------------------------
Total Dipole Moment    :     -1.15387      -0.03518       0.35266
                        -----------------------------------------
Magnitude (a.u.)       :      1.20708
Magnitude (Debye)      :      3.06814

Rotational constants in cm-1:     0.006735     0.000266     0.000256
Rotational constants in MHz :   201.896214     7.968760     7.676825

                             ****ORCA TERMINATED NORMALLY****
TOTAL RUN TIME: 0 days 0 hours 2 minutes 11 seconds 95 msec
