                         Program Version 4.2.0 -  RELEASE  -
|  1> # ORCA input file
|  2> # SCF done       -160.451157072734          0.000841191713
|  3> ! CAM-B3LYP def2-SVP def2/J RIJCOSX Grid4 TightSCF
|  4> %maxcore 5000
|  5> %tddft
|  6>     Mode sTDDFT
|  7>     Ethresh 5.0
|  8>     maxcore 5000
|  9> end
| 10>
| 11> %pal
| 12>   nprocs 6
| 13>   end
| 14> * xyz 0 1
| 15>    O        6.61365        -5.84168        12.64999
| 16>    C        6.49773        -5.87172        11.29379
| 17>    N        6.71000        -7.05128        10.78966
| 18>    C        6.98101        -7.85867        11.85931
| 19>    C        6.91767        -7.09329        13.00090
| 20>    C        7.27535        -9.27783        11.71025
| 21>    O        7.53579       -10.02507        12.61798
| 22>    C        6.17475        -4.67331        10.59923
| 23>    S        5.91703        -3.17531        11.52053
| 24>    C        5.62373        -2.40136        10.02626
| 25>    C        5.73838        -3.31475         8.96865
| 26>    N        6.04529        -4.55874         9.31031
| 27>    C        5.46817        -2.64741         7.65717
| 28>    C        5.16791        -1.24664         8.10481
| 29>    C        5.27937        -1.13956         9.49405
| 30>    S        4.92452         0.43656        10.05941
| 31>    C        4.55733         0.95599         8.42616
| 32>    C        4.76599        -0.05798         7.50631
| 33>    C        4.10577         2.29328         8.22547
| 34>    C        3.27892         2.76854         7.26363
| 35>    C        2.47123         2.06726         6.31203
| 36>    C        1.94238         0.76942         6.47312
| 37>    C        1.18897         0.10089         5.43230
| 38>    N        0.85307        -1.17590         5.58843
| 39>    C        1.14420        -1.81372         6.70677
| 40>    C        1.73501        -1.10050         7.79105
| 41>    N        2.11414         0.14514         7.64963
| 42>    C        1.97056        -1.74784         9.02975
| 43>    N        2.19876        -2.30756        10.00286
| 44>    C        0.84954        -3.18953         6.81764
| 45>    N        0.63375        -4.30903         6.94506
| 46>    C        0.79920         0.76972         4.23924
| 47>    C        1.22335         2.11862         4.14485
| 48>    C        2.04869         2.74431         5.14405
| 49>    N        2.34691         4.00147         4.81635
| 50>    S        1.65339         4.36501         3.41191
| 51>    N        0.94600         2.93946         3.13807
| 52>    C        0.04971         0.18963         3.19984
| 53>    S       -0.43089         1.18067         1.84200
| 54>    C       -1.31280        -0.12633         1.06098
| 55>    C       -1.16134        -1.31195         1.80899
| 56>    C       -0.41880        -1.11196         3.00090
| 57>    S       -0.20134        -2.57469         3.88574
| 58>    C       -1.04414        -3.46611         2.63614
| 59>    C       -1.22790        -4.92256         2.70516
| 60>    O       -1.85010        -5.51343         1.84924
| 61>    C       -0.58172        -5.59586         3.89128
| 62>    C       -0.83488        -7.09595         3.91358
| 63>    C       -1.49096        -2.66943         1.61946
| 64>    C       -1.98561         0.20909        -0.10856
| 65>    C       -2.99468        -0.43003        -0.80683
| 66>    C       -3.55766         0.07748        -2.00277
| 67>    C       -4.60274        -0.64870        -2.49082
| 68>    C       -4.93197        -1.76804        -1.69670
| 69>    S       -3.85379        -1.86985        -0.32047
| 70>    C       -5.93681        -2.69415        -1.89705
| 71>    C       -6.87055        -2.72958        -2.96978
| 72>    C       -7.75131        -3.75357        -2.90317
| 73>    C       -7.57710        -4.60724        -1.76375
| 74>    S       -6.21733        -4.01634        -0.79427
| 75>    C       -8.29499        -5.68882        -1.42898
| 76>    H        7.06016        -7.32364        14.03666
| 77>    H        7.23641        -9.61257        10.65928
| 78>    H        4.62494        -3.11103         7.14082
| 79>    H        6.33263        -2.69692         6.99218
| 80>    H        4.64501         0.08858         6.44741
| 81>    H        4.48526         3.00890         8.94497
| 82>    H        3.18976         3.84447         7.17681
| 83>    H       -0.95710        -5.12942         4.80594
| 84>    H        0.49164        -5.38986         3.85423
| 85>    H       -1.90279        -7.29538         3.95086
| 86>    H       -0.36056        -7.54370         4.78218
| 87>    H       -0.43737        -7.55832         3.01344
| 88>    H       -2.00585        -3.07614         0.77038
| 89>    H       -1.71801         1.18115        -0.50853
| 90>    H       -3.16874         0.96597        -2.46801
| 91>    H       -5.14103        -0.40462        -3.38860
| 92>    H       -6.85335        -1.99369        -3.75369
| 93>    H       -8.52825        -3.94614        -3.62127
| 94>    H       -9.11597        -6.01560        -2.04266
| 95>    H       -8.07604        -6.26039        -0.54569
| 96> *
| 97>
| 98>                          ****END OF INPUT****

CARTESIAN COORDINATES (ANGSTROEM)
---------------------------------
  O      6.613650   -5.841680   12.649990
  C      6.497730   -5.871720   11.293790
  N      6.710000   -7.051280   10.789660
  C      6.981010   -7.858670   11.859310
  C      6.917670   -7.093290   13.000900
  C      7.275350   -9.277830   11.710250
  O      7.535790  -10.025070   12.617980
  C      6.174750   -4.673310   10.599230
  S      5.917030   -3.175310   11.520530
  C      5.623730   -2.401360   10.026260
  C      5.738380   -3.314750    8.968650
  N      6.045290   -4.558740    9.310310
  C      5.468170   -2.647410    7.657170
  C      5.167910   -1.246640    8.104810
  C      5.279370   -1.139560    9.494050
  S      4.924520    0.436560   10.059410
  C      4.557330    0.955990    8.426160
  C      4.765990   -0.057980    7.506310
  C      4.105770    2.293280    8.225470
  C      3.278920    2.768540    7.263630
  C      2.471230    2.067260    6.312030
  C      1.942380    0.769420    6.473120
  C      1.188970    0.100890    5.432300
  N      0.853070   -1.175900    5.588430
  C      1.144200   -1.813720    6.706770
  C      1.735010   -1.100500    7.791050
  N      2.114140    0.145140    7.649630
  C      1.970560   -1.747840    9.029750
  N      2.198760   -2.307560   10.002860
  C      0.849540   -3.189530    6.817640
  N      0.633750   -4.309030    6.945060
  C      0.799200    0.769720    4.239240
  C      1.223350    2.118620    4.144850
  C      2.048690    2.744310    5.144050
  N      2.346910    4.001470    4.816350
  S      1.653390    4.365010    3.411910
  N      0.946000    2.939460    3.138070
  C      0.049710    0.189630    3.199840
  S     -0.430890    1.180670    1.842000
  C     -1.312800   -0.126330    1.060980
  C     -1.161340   -1.311950    1.808990
  C     -0.418800   -1.111960    3.000900
  S     -0.201340   -2.574690    3.885740
  C     -1.044140   -3.466110    2.636140
  C     -1.227900   -4.922560    2.705160
  O     -1.850100   -5.513430    1.849240
  C     -0.581720   -5.595860    3.891280
  C     -0.834880   -7.095950    3.913580
  C     -1.490960   -2.669430    1.619460
  C     -1.985610    0.209090   -0.108560
  C     -2.994680   -0.430030   -0.806830
  C     -3.557660    0.077480   -2.002770
  C     -4.602740   -0.648700   -2.490820
  C     -4.931970   -1.768040   -1.696700
  S     -3.853790   -1.869850   -0.320470
  C     -5.936810   -2.694150   -1.897050
  C     -6.870550   -2.729580   -2.969780
  C     -7.751310   -3.753570   -2.903170
  C     -7.577100   -4.607240   -1.763750
  S     -6.217330   -4.016340   -0.794270
  C     -8.294990   -5.688820   -1.428980
  H      7.060160   -7.323640   14.036660
  H      7.236410   -9.612570   10.659280
  H      4.624940   -3.111030    7.140820
  H      6.332630   -2.696920    6.992180
  H      4.645010    0.088580    6.447410
  H      4.485260    3.008900    8.944970
  H      3.189760    3.844470    7.176810
  H     -0.957100   -5.129420    4.805940
  H      0.491640   -5.389860    3.854230
  H     -1.902790   -7.295380    3.950860
  H     -0.360560   -7.543700    4.782180
  H     -0.437370   -7.558320    3.013440
  H     -2.005850   -3.076140    0.770380
  H     -1.718010    1.181150   -0.508530
  H     -3.168740    0.965970   -2.468010
  H     -5.141030   -0.404620   -3.388600
  H     -6.853350   -1.993690   -3.753690
  H     -8.528250   -3.946140   -3.621270
  H     -9.115970   -6.015600   -2.042660
  H     -8.076040   -6.260390   -0.545690

 Total Charge           Charge          ....    0
 Multiplicity           Mult            ....    1
 Number of Electrons    NEL             ....  470
 Basis Dimension        Dim             ....  982

ORBITAL ENERGIES
----------------

  NO   OCC          E(Eh)            E(eV)
   0   2.0000     -89.033352     -2422.7207
   1   2.0000     -88.965854     -2420.8840
   2   2.0000     -88.964109     -2420.8365
   3   2.0000     -88.962985     -2420.8059
   4   2.0000     -88.961655     -2420.7697
   5   2.0000     -88.960052     -2420.7261
   6   2.0000     -88.952620     -2420.5238
   7   2.0000     -19.309220      -525.4306
   8   2.0000     -19.201295      -522.4938
   9   2.0000     -19.193753      -522.2886
  10   2.0000     -14.456469      -393.3805
  11   2.0000     -14.450059      -393.2061
  12   2.0000     -14.441757      -392.9802
  13   2.0000     -14.440049      -392.9337
  14   2.0000     -14.421139      -392.4191
  15   2.0000     -14.420918      -392.4131
  16   2.0000     -14.407499      -392.0480
  17   2.0000     -14.404389      -391.9633
  18   2.0000     -10.369155      -282.1591
  19   2.0000     -10.364071      -282.0207
  20   2.0000     -10.363070      -281.9935
  21   2.0000     -10.346237      -281.5354
  22   2.0000     -10.345805      -281.5237
  23   2.0000     -10.342498      -281.4337
  24   2.0000     -10.339545      -281.3533
  25   2.0000     -10.336860      -281.2802
  26   2.0000     -10.335168      -281.2342
  27   2.0000     -10.332986      -281.1748
  28   2.0000     -10.332524      -281.1623
  29   2.0000     -10.331383      -281.1312
  30   2.0000     -10.330709      -281.1129
  31   2.0000     -10.326043      -280.9859
  32   2.0000     -10.325656      -280.9754
  33   2.0000     -10.325267      -280.9648
  34   2.0000     -10.322901      -280.9004
  35   2.0000     -10.320285      -280.8292
  36   2.0000     -10.317111      -280.7429
  37   2.0000     -10.316378      -280.7229
  38   2.0000     -10.314232      -280.6645
  39   2.0000     -10.308474      -280.5079
  40   2.0000     -10.307347      -280.4772
  41   2.0000     -10.307273      -280.4751
  42   2.0000     -10.299345      -280.2594
  43   2.0000     -10.299343      -280.2594
  44   2.0000     -10.299244      -280.2567
  45   2.0000     -10.295155      -280.1454
  46   2.0000     -10.294869      -280.1376
  47   2.0000     -10.294728      -280.1338
  48   2.0000     -10.293874      -280.1106
  49   2.0000     -10.293603      -280.1032
  50   2.0000     -10.292263      -280.0667
  51   2.0000     -10.289780      -279.9992
  52   2.0000     -10.284683      -279.8605
  53   2.0000     -10.281655      -279.7780
  54   2.0000     -10.280559      -279.7482
  55   2.0000     -10.277247      -279.6581
  56   2.0000     -10.272976      -279.5419
  57   2.0000     -10.271686      -279.5068
  58   2.0000     -10.268566      -279.4219
  59   2.0000     -10.256164      -279.0844
  60   2.0000     -10.238954      -278.6161
  61   2.0000      -8.124726      -221.0850
  62   2.0000      -8.061686      -219.3696
  63   2.0000      -8.058136      -219.2730
  64   2.0000      -8.057840      -219.2650
  65   2.0000      -8.056788      -219.2364
  66   2.0000      -8.053782      -219.1545
  67   2.0000      -8.047654      -218.9878
  68   2.0000      -6.095957      -165.8794
  69   2.0000      -6.088298      -165.6710
  70   2.0000      -6.087067      -165.6375
  71   2.0000      -6.031358      -164.1216
  72   2.0000      -6.027828      -164.0255
  73   2.0000      -6.027185      -164.0080
  74   2.0000      -6.026954      -164.0018
  75   2.0000      -6.026522      -163.9900
  76   2.0000      -6.023462      -163.9067
  77   2.0000      -6.023288      -163.9020
  78   2.0000      -6.023066      -163.8960
  79   2.0000      -6.022838      -163.8897
  80   2.0000      -6.022553      -163.8820
  81   2.0000      -6.020120      -163.8158
  82   2.0000      -6.019770      -163.8063
  83   2.0000      -6.018878      -163.7820
  84   2.0000      -6.017464      -163.7435
  85   2.0000      -6.017002      -163.7309
  86   2.0000      -6.015827      -163.6990
  87   2.0000      -6.012873      -163.6186
  88   2.0000      -6.009795      -163.5348
  89   2.0000      -1.237745       -33.6808
  90   2.0000      -1.132749       -30.8237
  91   2.0000      -1.114587       -30.3295
  92   2.0000      -1.110287       -30.2124
  93   2.0000      -1.109528       -30.1918
  94   2.0000      -1.062611       -28.9151
  95   2.0000      -1.036999       -28.2182
  96   2.0000      -1.016122       -27.6501
  97   2.0000      -1.013728       -27.5849
  98   2.0000      -1.011811       -27.5328
  99   2.0000      -1.004917       -27.3452
 100   2.0000      -0.995502       -27.0890
 101   2.0000      -0.990587       -26.9552
 102   2.0000      -0.988678       -26.9033
 103   2.0000      -0.987151       -26.8617
 104   2.0000      -0.968255       -26.3476
 105   2.0000      -0.947221       -25.7752
 106   2.0000      -0.922179       -25.0938
 107   2.0000      -0.912476       -24.8297
 108   2.0000      -0.898673       -24.4541
 109   2.0000      -0.897412       -24.4198
 110   2.0000      -0.895359       -24.3640
 111   2.0000      -0.879601       -23.9352
 112   2.0000      -0.872916       -23.7533
 113   2.0000      -0.865253       -23.5447
 114   2.0000      -0.859704       -23.3937
 115   2.0000      -0.854969       -23.2649
 116   2.0000      -0.841016       -22.8852
 117   2.0000      -0.840325       -22.8664
 118   2.0000      -0.827666       -22.5219
 119   2.0000      -0.822977       -22.3944
 120   2.0000      -0.820104       -22.3162
 121   2.0000      -0.814883       -22.1741
 122   2.0000      -0.795162       -21.6375
 123   2.0000      -0.786021       -21.3887
 124   2.0000      -0.777870       -21.1669
 125   2.0000      -0.768842       -20.9212
 126   2.0000      -0.755031       -20.5454
 127   2.0000      -0.750996       -20.4356
 128   2.0000      -0.742793       -20.2124
 129   2.0000      -0.729265       -19.8443
 130   2.0000      -0.723416       -19.6852
 131   2.0000      -0.708793       -19.2872
 132   2.0000      -0.698879       -19.0175
 133   2.0000      -0.692156       -18.8345
 134   2.0000      -0.689785       -18.7700
 135   2.0000      -0.680568       -18.5192
 136   2.0000      -0.674832       -18.3631
 137   2.0000      -0.667313       -18.1585
 138   2.0000      -0.661634       -18.0040
 139   2.0000      -0.648347       -17.6424
 140   2.0000      -0.643041       -17.4980
 141   2.0000      -0.639538       -17.4027
 142   2.0000      -0.639178       -17.3929
 143   2.0000      -0.632835       -17.2203
 144   2.0000      -0.621557       -16.9134
 145   2.0000      -0.617985       -16.8162
 146   2.0000      -0.616327       -16.7711
 147   2.0000      -0.613252       -16.6874
 148   2.0000      -0.603098       -16.4111
 149   2.0000      -0.597282       -16.2529
 150   2.0000      -0.592321       -16.1179
 151   2.0000      -0.586405       -15.9569
 152   2.0000      -0.583691       -15.8830
 153   2.0000      -0.579491       -15.7687
 154   2.0000      -0.579035       -15.7564
 155   2.0000      -0.572030       -15.5657
 156   2.0000      -0.558476       -15.1969
 157   2.0000      -0.554504       -15.0888
 158   2.0000      -0.552939       -15.0462
 159   2.0000      -0.551101       -14.9962
 160   2.0000      -0.549253       -14.9459
 161   2.0000      -0.542266       -14.7558
 162   2.0000      -0.540552       -14.7092
 163   2.0000      -0.537862       -14.6360
 164   2.0000      -0.535694       -14.5770
 165   2.0000      -0.533228       -14.5099
 166   2.0000      -0.531229       -14.4555
 167   2.0000      -0.524159       -14.2631
 168   2.0000      -0.523783       -14.2529
 169   2.0000      -0.517275       -14.0758
 170   2.0000      -0.512332       -13.9413
 171   2.0000      -0.510418       -13.8892
 172   2.0000      -0.507089       -13.7986
 173   2.0000      -0.501290       -13.6408
 174   2.0000      -0.500084       -13.6080
 175   2.0000      -0.498577       -13.5670
 176   2.0000      -0.490994       -13.3606
 177   2.0000      -0.485091       -13.2000
 178   2.0000      -0.483132       -13.1467
 179   2.0000      -0.480768       -13.0824
 180   2.0000      -0.479084       -13.0365
 181   2.0000      -0.477596       -12.9960
 182   2.0000      -0.475214       -12.9312
 183   2.0000      -0.472589       -12.8598
 184   2.0000      -0.470702       -12.8084
 185   2.0000      -0.468606       -12.7514
 186   2.0000      -0.468432       -12.7467
 187   2.0000      -0.466512       -12.6944
 188   2.0000      -0.463209       -12.6046
 189   2.0000      -0.459617       -12.5068
 190   2.0000      -0.455096       -12.3838
 191   2.0000      -0.449455       -12.2303
 192   2.0000      -0.448515       -12.2047
 193   2.0000      -0.446563       -12.1516
 194   2.0000      -0.444780       -12.1031
 195   2.0000      -0.442540       -12.0421
 196   2.0000      -0.440718       -11.9926
 197   2.0000      -0.438610       -11.9352
 198   2.0000      -0.434300       -11.8179
 199   2.0000      -0.429833       -11.6963
 200   2.0000      -0.427284       -11.6270
 201   2.0000      -0.422706       -11.5024
 202   2.0000      -0.421242       -11.4626
 203   2.0000      -0.419790       -11.4231
 204   2.0000      -0.418575       -11.3900
 205   2.0000      -0.417060       -11.3488
 206   2.0000      -0.414527       -11.2799
 207   2.0000      -0.411026       -11.1846
 208   2.0000      -0.410483       -11.1698
 209   2.0000      -0.402871       -10.9627
 210   2.0000      -0.401063       -10.9135
 211   2.0000      -0.398848       -10.8532
 212   2.0000      -0.394479       -10.7343
 213   2.0000      -0.389603       -10.6016
 214   2.0000      -0.372866       -10.1462
 215   2.0000      -0.366885        -9.9835
 216   2.0000      -0.365760        -9.9528
 217   2.0000      -0.362371        -9.8606
 218   2.0000      -0.355623        -9.6770
 219   2.0000      -0.351284        -9.5589
 220   2.0000      -0.344537        -9.3753
 221   2.0000      -0.343351        -9.3430
 222   2.0000      -0.341160        -9.2834
 223   2.0000      -0.339865        -9.2482
 224   2.0000      -0.337658        -9.1882
 225   2.0000      -0.328737        -8.9454
 226   2.0000      -0.322168        -8.7666
 227   2.0000      -0.317145        -8.6299
 228   2.0000      -0.316243        -8.6054
 229   2.0000      -0.311429        -8.4744
 230   2.0000      -0.304937        -8.2978
 231   2.0000      -0.295002        -8.0274
 232   2.0000      -0.268348        -7.3021
 233   2.0000      -0.237687        -6.4678
 234   2.0000      -0.212715        -5.7883
 235   0.0000      -0.123985        -3.3738
 236   0.0000      -0.079484        -2.1629
 237   0.0000      -0.045451        -1.2368
 238   0.0000      -0.041541        -1.1304
 239   0.0000      -0.029412        -0.8003

MULLIKEN ATOMIC CHARGES
-----------------------
   0 O :   -0.174555
   1 C :    0.132305
   2 N :   -0.046359
   3 C :   -0.048399
   4 C :    0.131052
   5 C :    0.168668
   6 O :   -0.181357
   7 C :   -0.184344
   8 S :    0.164455
   9 C :   -0.022067
  10 C :   -0.238087
  11 N :    0.025196
  12 C :    0.400372
  13 C :   -0.196772
  14 C :   -0.097002
  15 S :    0.150380
  16 C :   -0.082435
  17 C :    0.010570
  18 C :    0.051621
  19 C :   -0.066508
  20 C :    0.055016
  21 C :   -0.091089
  22 C :   -0.028872
  23 N :   -0.014755
  24 C :   -0.095106
  25 C :   -0.128607
  26 N :    0.052319
  27 C :   -0.218432
  28 N :    0.237849
  29 C :   -0.227504
  30 N :    0.215346
  31 C :    0.189122
  32 C :   -0.041120
  33 C :    0.013928
  34 N :   -0.277212
  35 S :    0.523827
  36 N :   -0.327889
  37 C :   -0.236630
  38 S :    0.170390
  39 C :   -0.078062
  40 C :    0.123467
  41 C :   -0.004850
  42 S :    0.136587
  43 C :   -0.049294
  44 C :    0.017663
  45 O :   -0.179909
  46 C :   -0.064711
  47 C :    0.062027
  48 C :   -0.038641
  49 C :   -0.003963
  50 C :   -0.018824
  51 C :    0.023976
  52 C :    0.046864
  53 C :   -0.063204
  54 S :    0.115863
  55 C :   -0.054429
  56 C :    0.026649
  57 C :    0.064447
  58 C :   -0.074792
  59 S :    0.120221
  60 C :   -0.009369
  61 H :    0.033536
  62 H :   -0.008621
  63 H :    0.027889
  64 H :    0.036104
  65 H :   -0.021538
  66 H :   -0.003199
  67 H :    0.002708
  68 H :    0.047574
  69 H :    0.036906
  70 H :    0.013624
  71 H :    0.015398
  72 H :    0.013720
  73 H :    0.000226
  74 H :   -0.010820
  75 H :   -0.006306
  76 H :   -0.007264
  77 H :   -0.003420
  78 H :   -0.000126
  79 H :    0.031665
  80 H :    0.036915
Sum of atomic charges:   -0.0000000

LOEWDIN ATOMIC CHARGES
----------------------
   0 O :    0.020759
   1 C :    0.019023
   2 N :   -0.078530
   3 C :   -0.107409
   4 C :    0.070698
   5 C :    0.105003
   6 O :   -0.136178
   7 C :   -0.163292
   8 S :    0.439724
   9 C :   -0.199589
  10 C :   -0.042027
  11 N :   -0.052293
  12 C :   -0.012448
  13 C :   -0.053323
  14 C :   -0.202550
  15 S :    0.445413
  16 C :   -0.160590
  17 C :   -0.058323
  18 C :   -0.034928
  19 C :   -0.024721
  20 C :   -0.066224
  21 C :   -0.009132
  22 C :   -0.008630
  23 N :   -0.026069
  24 C :   -0.057741
  25 C :   -0.021150
  26 N :    0.005527
  27 C :   -0.029933
  28 N :   -0.012633
  29 C :   -0.045506
  30 N :   -0.026312
  31 C :   -0.038417
  32 C :   -0.054850
  33 C :   -0.035025
  34 N :   -0.287727
  35 S :    0.648186
  36 N :   -0.299748
  37 C :   -0.181150
  38 S :    0.481440
  39 C :   -0.130605
  40 C :   -0.090064
  41 C :   -0.163408
  42 S :    0.496848
  43 C :   -0.218135
  44 C :    0.064700
  45 O :   -0.151765
  46 C :   -0.076527
  47 C :   -0.047831
  48 C :   -0.017276
  49 C :   -0.094325
  50 C :   -0.127205
  51 C :   -0.039063
  52 C :   -0.018116
  53 C :   -0.192896
  54 S :    0.428898
  55 C :   -0.154086
  56 C :   -0.028973
  57 C :   -0.012510
  58 C :   -0.143225
  59 S :    0.385256
  60 C :   -0.043811
  61 H :    0.035058
  62 H :    0.002980
  63 H :    0.052185
  64 H :    0.056400
  65 H :    0.028091
  66 H :    0.031996
  67 H :    0.036602
  68 H :    0.038120
  69 H :    0.038712
  70 H :    0.026852
  71 H :    0.027642
  72 H :    0.026460
  73 H :    0.017647
  74 H :    0.035416
  75 H :    0.035542
  76 H :    0.034515
  77 H :    0.035253
  78 H :    0.038112
  79 H :    0.034041
  80 H :    0.033173

  Mayer bond orders larger than 0.100000
B(  0-O ,  1-C ) :   1.2148 B(  0-O ,  4-C ) :   1.1641 B(  1-C ,  2-N ) :   1.7575
B(  1-C ,  7-C ) :   1.0418 B(  2-N ,  3-C ) :   1.3018 B(  3-C ,  4-C ) :   1.5058
B(  3-C ,  5-C ) :   0.9693 B(  4-C , 61-H ) :   0.9909 B(  5-C ,  6-O ) :   2.2008
B(  5-C , 62-H ) :   0.9514 B(  7-C ,  8-S ) :   1.0886 B(  7-C , 11-N ) :   1.7117
B(  8-S ,  9-C ) :   1.1009 B(  8-S , 11-N ) :   0.1147 B(  9-C , 10-C ) :   1.4757
B(  9-C , 14-C ) :   1.1830 B( 10-C , 11-N ) :   1.4435 B( 10-C , 12-C ) :   1.0389
B( 12-C , 13-C ) :   0.9807 B( 12-C , 63-H ) :   0.8633 B( 12-C , 64-H ) :   0.8553
B( 13-C , 14-C ) :   1.5223 B( 13-C , 17-C ) :   1.3158 B( 14-C , 15-S ) :   1.0862
B( 15-S , 16-C ) :   1.1157 B( 16-C , 17-C ) :   1.4629 B( 16-C , 18-C ) :   1.0915
B( 17-C , 65-H ) :   0.9973 B( 18-C , 19-C ) :   1.7439 B( 18-C , 66-H ) :   0.9469
B( 19-C , 20-C ) :   1.1286 B( 19-C , 67-H ) :   0.9498 B( 20-C , 21-C ) :   1.2892
B( 20-C , 33-C ) :   1.1890 B( 21-C , 22-C ) :   1.0852 B( 21-C , 26-N ) :   1.4192
B( 22-C , 23-N ) :   1.4805 B( 22-C , 31-C ) :   1.1780 B( 23-N , 24-C ) :   1.5839
B( 24-C , 25-C ) :   1.2406 B( 24-C , 29-C ) :   1.1677 B( 25-C , 26-N ) :   1.7052
B( 25-C , 27-C ) :   1.1810 B( 27-C , 28-N ) :   3.0212 B( 29-C , 30-N ) :   2.9602
B( 31-C , 32-C ) :   1.1551 B( 31-C , 37-C ) :   1.3168 B( 32-C , 33-C ) :   1.1141
B( 32-C , 36-N ) :   1.5059 B( 33-C , 34-N ) :   1.5519 B( 34-N , 35-S ) :   1.2582
B( 34-N , 36-N ) :   0.1424 B( 35-S , 36-N ) :   1.2440 B( 37-C , 38-S ) :   1.1089
B( 37-C , 41-C ) :   1.3660 B( 38-S , 39-C ) :   1.0894 B( 39-C , 40-C ) :   1.2559
B( 39-C , 49-C ) :   1.2650 B( 40-C , 41-C ) :   1.2821 B( 40-C , 48-C ) :   1.1521
B( 41-C , 42-S ) :   1.1063 B( 42-S , 43-C ) :   1.0295 B( 43-C , 44-C ) :   0.9895
B( 43-C , 48-C ) :   1.5954 B( 44-C , 45-O ) :   2.1989 B( 44-C , 46-C ) :   1.0057
B( 46-C , 47-C ) :   1.1103 B( 46-C , 68-H ) :   0.9182 B( 46-C , 69-H ) :   0.9230
B( 47-C , 70-H ) :   0.9679 B( 47-C , 71-H ) :   0.9637 B( 47-C , 72-H ) :   0.9674
B( 48-C , 73-H ) :   0.9911 B( 49-C , 50-C ) :   1.5097 B( 49-C , 74-H ) :   0.9373
B( 50-C , 51-C ) :   1.1729 B( 50-C , 54-S ) :   1.0730 B( 51-C , 52-C ) :   1.5644
B( 51-C , 75-H ) :   0.9997 B( 52-C , 53-C ) :   1.1981 B( 52-C , 76-H ) :   0.9918
B( 53-C , 54-S ) :   1.0431 B( 53-C , 55-C ) :   1.5056 B( 55-C , 56-C ) :   1.1589
B( 55-C , 59-S ) :   1.0801 B( 56-C , 57-C ) :   1.6544 B( 56-C , 77-H ) :   0.9928
B( 57-C , 58-C ) :   1.0801 B( 57-C , 78-H ) :   0.9936 B( 58-C , 59-S ) :   1.0061
B( 58-C , 60-C ) :   1.8575 B( 60-C , 79-H ) :   0.9522 B( 60-C , 80-H ) :   0.9420

-----------------------------------------------------------------------------
         ABSORPTION SPECTRUM VIA TRANSITION ELECTRIC DIPOLE MOMENTS
-----------------------------------------------------------------------------
State   Energy  Wavelength   fosc         T2         TX        TY        TZ
        (cm-1)    (nm)                  (au**2)     (au)      (au)      (au)
-----------------------------------------------------------------------------
   0    5471.8   1827.6   0.380348231  22.88388  -3.23622  -1.11214  -3.34273
   1   10841.6    922.4   0.312884036   9.50094  -2.01280  -1.46139  -1.82042
   2   15638.0    639.5   0.265814688   5.59595  -1.88970  -0.29524  -1.39205
   3   17408.7    574.4   0.166610937   3.15074  -1.57410  -0.52201  -0.63283
   4   19893.4    502.7   0.062268359   1.03046   0.88757   0.47140   0.14307
   5   21293.1    469.6   0.084721989   1.30988  -0.41131   0.83926  -0.66057
   6   21473.0    465.7   0.140912942   2.16040  -0.92706   0.60978  -0.96391
   7   23005.6    434.7   0.007009564   0.10031  -0.11373  -0.09718   0.27916
   8   23754.9    421.0   0.007980223   0.11060  -0.01784  -0.17127   0.28450
   9   24144.0    414.2   0.338745040   4.61890  -0.68665   1.67579  -1.15721
  10   24218.9    412.9   0.152834949   2.07751  -0.74239   1.12352  -0.51388
  11   25316.1    395.0   0.039031712   0.50757  -0.60761  -0.11874  -0.35253
  12   25510.4    392.0   0.126384973   1.63100   0.36445   1.15241  -0.41248
  13   26054.7    383.8   0.008868165   0.11205   0.04042  -0.19836   0.26659
  14   26929.1    371.3   0.014302306   0.17485   0.35522  -0.08118  -0.20513
  15   27244.3    367.0   0.160697817   1.94182  -0.71156   1.14108  -0.36531
  16   27416.8    364.7   0.042564964   0.51111   0.35728  -0.59041   0.18674
  17   28441.3    351.6   0.253311151   2.93211  -0.17578  -1.60635   0.56644
  18   29541.6    338.5   0.192522346   2.14547   0.37458   1.35713  -0.40417
  19   30011.2    333.2   0.087981668   0.96513  -0.28571  -0.71153  -0.61418
  20   30425.1    328.7   0.517825882   5.60308   0.07814  -2.11585   1.05838
  21   30690.3    325.8   0.029509992   0.31655   0.09627   0.42686  -0.35366
  22   31239.7    320.1   0.176605687   1.86112   0.21171   1.00959  -0.89276
  23   31528.7    317.2   0.050047866   0.52258  -0.28762  -0.31575  -0.58323
  24   32433.8    308.3   0.224455898   2.27829  -0.30943  -1.45173   0.27391
  25   32756.2    305.3   0.003528657   0.03546   0.07808  -0.08915   0.14635
  26   33165.4    301.5   0.016277201   0.16157   0.23895   0.31944  -0.04936
  27   33615.1    297.5   0.015475179   0.15156   0.09616  -0.09483  -0.36513
  28   33905.4    294.9   0.025053514   0.24326   0.26609  -0.38900   0.14537
  29   34421.5    290.5   0.019763106   0.18902   0.03301  -0.26193  -0.34543
  30   34960.2    286.0   0.361079896   3.40021   0.19581   1.69222  -0.70588
  31   35010.5    285.6   0.080134420   0.75352   0.20567   0.79233  -0.28885
  32   35233.1    283.8   0.057967038   0.54163  -0.46902  -0.49396  -0.27868
  33   35617.3    280.8   0.097907456   0.90496  -0.63979  -0.69343  -0.12162
  34   35687.6    280.2   0.007128581   0.06576  -0.10368  -0.08387  -0.21903
  35   35823.6    279.1   0.024617951   0.22623  -0.18028  -0.24144  -0.36802
  36   36236.9    276.0   0.061691621   0.56047  -0.10322   0.54035  -0.50778
  37   36379.7    274.9   0.043212071   0.39104  -0.15697  -0.59168   0.12776
  38   36478.9    274.1   0.005668374   0.05116  -0.12865  -0.18304  -0.03318
  39   36636.3    273.0   0.009307840   0.08364   0.10283   0.26847  -0.03144
  40   37077.7    269.7   0.017681639   0.15699   0.09626   0.31776  -0.21623
  41   37408.2    267.3   0.084327489   0.74213   0.06191   0.82794  -0.22979
  42   37681.8    265.4   0.005269613   0.04604   0.09215   0.13769   0.13634
  43   37901.1    263.8   0.010128138   0.08797  -0.21589  -0.14115  -0.14642
  44   38190.1    261.8   0.009649021   0.08318   0.25523   0.02719   0.13152
  45   38379.4    260.6   0.011667625   0.10008  -0.05717  -0.03833   0.30878
  46   38621.1    258.9   0.022762233   0.19403  -0.08886  -0.20544   0.37938
  47   38828.7    257.5   0.117790211   0.99869  -0.15955  -0.95656   0.24131
  48   39280.2    254.6   0.040950675   0.34321  -0.15144  -0.56463   0.03844
  49   39385.2    253.9   0.018094038   0.15124  -0.09593  -0.11553   0.35874
  50   39599.5    252.5   0.020647880   0.17166  -0.00861   0.39035   0.13860
  51   39765.2    251.5   0.010022009   0.08297   0.06637  -0.18080  -0.21419
  52   40031.1    249.8   0.036510615   0.30026  -0.11949  -0.33848   0.41402

FINAL SINGLE POINT ENERGY     -5097.736819425766

DIPOLE MOMENT
-------------
                                X             Y             Z
Electronic contribution:     24.52775      30.98690      28.25971
Nuclear contribution   :    -27.91375     -27.63186     -32.97511
                        -----------------------------------------
Total Dipole Moment    :     -3.38600       3.35504      -4.71540
                        -----------------------------------------
Magnitude (a.u.)       :      6.70494
Magnitude (Debye)      :     17.04261

Rotational constants in cm-1:     0.001664     0.000471     0.000378
Rotational constants in MHz :    49.884247    14.129380    11.329891

                             ****ORCA TERMINATED NORMALLY****
TOTAL RUN TIME: 0 days 0 hours 7 minutes 43 seconds 406 msec
