                         Program Version 4.2.0 -  RELEASE  -
|  1> # ORCA input file
|  2> # SCF done       -128.358229584677          0.000497938685
|  3> ! CAM-B3LYP def2-SVP def2/J RIJCOSX Grid4 TightSCF
|  4> %maxcore 5000
|  5> %tddft
|  6>     Mode sTDDFT
|  7>     Ethresh 5.0
|  8>     maxcore 5000
|  9> end
| 10>
| 11> %pal
| 12>   nprocs 6
| 13>   end
| 14> * xyz 0 1
| 15>    O       -3.76442         0.14425         5.87641
| 16>    C       -3.94307         0.40756         4.55433
| 17>    N       -4.12694        -0.66496         3.84007
| 18>    C       -4.06890        -1.70578         4.72879
| 19>    C       -3.84452        -1.18583         5.98145
| 20>    C       -4.22961        -3.09265         4.31733
| 21>    O       -4.18827        -4.04008         5.05946
| 22>    C       -3.92121         1.74809         4.07429
| 23>    S       -3.65968         3.08218         5.14861
| 24>    C       -3.79405         4.20210         3.81963
| 25>    C       -4.02663         3.54415         2.62742
| 26>    C       -4.09728         2.16000         2.77140
| 27>    C       -3.67967         5.56738         4.01864
| 28>    C       -3.58499         6.76304         4.21576
| 29>    C       -3.49541         8.13218         4.41866
| 30>    C       -3.69062         9.03220         3.42355
| 31>    C       -3.62670        10.43373         3.61702
| 32>    S       -3.93017        11.55523         2.30066
| 33>    C       -3.71033        12.98366         3.28267
| 34>    C       -3.40360        12.59137         4.58701
| 35>    C       -3.36355        11.17717         4.74998
| 36>    O       -3.06903        10.85200         6.02668
| 37>    C       -2.92154        12.04224         6.67553
| 38>    N       -2.60595        12.00736         8.04817
| 39>    O       -2.48013        13.08490         8.60526
| 40>    O       -2.48235        10.92097         8.57770
| 41>    C       -3.11118        13.13013         5.86129
| 42>    C       -3.85989        14.27490         2.74930
| 43>    S       -3.66020        15.69625         3.74084
| 44>    C       -4.02545        16.73340         2.38319
| 45>    C       -4.27800        15.98752         1.24040
| 46>    C       -4.18487        14.62074         1.44467
| 47>    C       -4.05296        18.10261         2.51300
| 48>    C       -4.08284        19.31477         2.64571
| 49>    C       -4.13299        20.68579         2.77240
| 50>    C       -4.47864        21.51869         1.74509
| 51>    C       -4.54633        22.91281         1.86848
| 52>    C       -4.90658        23.76540         0.85416
| 53>    C       -5.00083        25.17824         0.92608
| 54>    C       -5.38855        25.77500        -0.23216
| 55>    C       -5.62408        24.86875        -1.29515
| 56>    S       -5.33272        23.22420        -0.76134
| 57>    C       -6.02236        25.15867        -2.57922
| 58>    C       -6.29292        26.44339        -3.12949
| 59>    C       -6.66684        26.42578        -4.42765
| 60>    C       -6.72185        25.11582        -5.01118
| 61>    S       -6.26657        23.91692        -3.78943
| 62>    C       -7.05416        24.78986        -6.26749
| 63>    H       -3.73368        -1.63944         6.94459
| 64>    H       -4.39818        -3.19937         3.23136
| 65>    H       -4.13859         4.06532         1.69383
| 66>    H       -4.27095         1.46320         1.97270
| 67>    H       -3.26764         8.46331         5.42310
| 68>    H       -3.91833         8.69115         2.42324
| 69>    H       -3.04401        14.15586         6.15974
| 70>    H       -4.52233        16.44851         0.30034
| 71>    H       -4.34789        13.87863         0.68305
| 72>    H       -3.88811        21.09624         3.74440
| 73>    H       -4.72063        21.08794         0.78150
| 74>    H       -4.30491        23.35689         2.82594
| 75>    H       -4.77841        25.70551         1.83726
| 76>    H       -5.51167        26.83618        -0.35373
| 77>    H       -6.19961        27.33660        -2.53767
| 78>    H       -6.91099        27.29609        -5.01048
| 79>    H       -7.32389        25.55032        -6.97885
| 80>    H       -7.06191        23.76940        -6.60391
| 81> *
| 82>
| 83>                          ****END OF INPUT****

CARTESIAN COORDINATES (ANGSTROEM)
---------------------------------
  O     -3.764420    0.144250    5.876410
  C     -3.943070    0.407560    4.554330
  N     -4.126940   -0.664960    3.840070
  C     -4.068900   -1.705780    4.728790
  C     -3.844520   -1.185830    5.981450
  C     -4.229610   -3.092650    4.317330
  O     -4.188270   -4.040080    5.059460
  C     -3.921210    1.748090    4.074290
  S     -3.659680    3.082180    5.148610
  C     -3.794050    4.202100    3.819630
  C     -4.026630    3.544150    2.627420
  C     -4.097280    2.160000    2.771400
  C     -3.679670    5.567380    4.018640
  C     -3.584990    6.763040    4.215760
  C     -3.495410    8.132180    4.418660
  C     -3.690620    9.032200    3.423550
  C     -3.626700   10.433730    3.617020
  S     -3.930170   11.555230    2.300660
  C     -3.710330   12.983660    3.282670
  C     -3.403600   12.591370    4.587010
  C     -3.363550   11.177170    4.749980
  O     -3.069030   10.852000    6.026680
  C     -2.921540   12.042240    6.675530
  N     -2.605950   12.007360    8.048170
  O     -2.480130   13.084900    8.605260
  O     -2.482350   10.920970    8.577700
  C     -3.111180   13.130130    5.861290
  C     -3.859890   14.274900    2.749300
  S     -3.660200   15.696250    3.740840
  C     -4.025450   16.733400    2.383190
  C     -4.278000   15.987520    1.240400
  C     -4.184870   14.620740    1.444670
  C     -4.052960   18.102610    2.513000
  C     -4.082840   19.314770    2.645710
  C     -4.132990   20.685790    2.772400
  C     -4.478640   21.518690    1.745090
  C     -4.546330   22.912810    1.868480
  C     -4.906580   23.765400    0.854160
  C     -5.000830   25.178240    0.926080
  C     -5.388550   25.775000   -0.232160
  C     -5.624080   24.868750   -1.295150
  S     -5.332720   23.224200   -0.761340
  C     -6.022360   25.158670   -2.579220
  C     -6.292920   26.443390   -3.129490
  C     -6.666840   26.425780   -4.427650
  C     -6.721850   25.115820   -5.011180
  S     -6.266570   23.916920   -3.789430
  C     -7.054160   24.789860   -6.267490
  H     -3.733680   -1.639440    6.944590
  H     -4.398180   -3.199370    3.231360
  H     -4.138590    4.065320    1.693830
  H     -4.270950    1.463200    1.972700
  H     -3.267640    8.463310    5.423100
  H     -3.918330    8.691150    2.423240
  H     -3.044010   14.155860    6.159740
  H     -4.522330   16.448510    0.300340
  H     -4.347890   13.878630    0.683050
  H     -3.888110   21.096240    3.744400
  H     -4.720630   21.087940    0.781500
  H     -4.304910   23.356890    2.825940
  H     -4.778410   25.705510    1.837260
  H     -5.511670   26.836180   -0.353730
  H     -6.199610   27.336600   -2.537670
  H     -6.910990   27.296090   -5.010480
  H     -7.323890   25.550320   -6.978850
  H     -7.061910   23.769400   -6.603910

 Total Charge           Charge          ....    0
 Multiplicity           Mult            ....    1
 Number of Electrons    NEL             ....  368
 Basis Dimension        Dim             ....  782

ORBITAL ENERGIES
----------------

  NO   OCC          E(Eh)            E(eV)
   0   2.0000     -88.979406     -2421.2527
   1   2.0000     -88.969070     -2420.9715
   2   2.0000     -88.966156     -2420.8922
   3   2.0000     -88.946597     -2420.3599
   4   2.0000     -88.943275     -2420.2696
   5   2.0000     -19.316358      -525.6248
   6   2.0000     -19.314860      -525.5841
   7   2.0000     -19.243444      -523.6407
   8   2.0000     -19.241262      -523.5814
   9   2.0000     -19.208737      -522.6963
  10   2.0000     -14.655302      -398.7910
  11   2.0000     -14.413721      -392.2173
  12   2.0000     -10.389709      -282.7184
  13   2.0000     -10.374846      -282.3139
  14   2.0000     -10.353617      -281.7362
  15   2.0000     -10.353171      -281.7241
  16   2.0000     -10.346225      -281.5351
  17   2.0000     -10.334189      -281.2076
  18   2.0000     -10.323513      -280.9171
  19   2.0000     -10.319983      -280.8210
  20   2.0000     -10.319966      -280.8206
  21   2.0000     -10.319818      -280.8165
  22   2.0000     -10.317171      -280.7445
  23   2.0000     -10.315969      -280.7118
  24   2.0000     -10.312377      -280.6140
  25   2.0000     -10.312319      -280.6125
  26   2.0000     -10.311930      -280.6019
  27   2.0000     -10.311008      -280.5768
  28   2.0000     -10.303416      -280.3702
  29   2.0000     -10.303058      -280.3605
  30   2.0000     -10.298830      -280.2454
  31   2.0000     -10.294146      -280.1180
  32   2.0000     -10.293505      -280.1005
  33   2.0000     -10.293138      -280.0905
  34   2.0000     -10.290007      -280.0053
  35   2.0000     -10.288920      -279.9757
  36   2.0000     -10.288343      -279.9600
  37   2.0000     -10.287348      -279.9330
  38   2.0000     -10.286228      -279.9025
  39   2.0000     -10.286146      -279.9003
  40   2.0000     -10.283240      -279.8212
  41   2.0000     -10.282113      -279.7905
  42   2.0000     -10.279338      -279.7150
  43   2.0000     -10.279257      -279.7128
  44   2.0000     -10.278413      -279.6898
  45   2.0000     -10.275984      -279.6237
  46   2.0000     -10.275725      -279.6167
  47   2.0000     -10.275434      -279.6088
  48   2.0000      -8.074087      -219.7071
  49   2.0000      -8.064403      -219.4436
  50   2.0000      -8.061476      -219.3639
  51   2.0000      -8.042869      -218.8576
  52   2.0000      -8.040055      -218.7810
  53   2.0000      -6.043503      -164.4521
  54   2.0000      -6.039432      -164.3413
  55   2.0000      -6.035990      -164.2476
  56   2.0000      -6.033838      -164.1891
  57   2.0000      -6.030774      -164.1057
  58   2.0000      -6.029659      -164.0754
  59   2.0000      -6.026587      -163.9918
  60   2.0000      -6.026262      -163.9829
  61   2.0000      -6.023599      -163.9105
  62   2.0000      -6.012617      -163.6116
  63   2.0000      -6.009865      -163.5367
  64   2.0000      -6.008674      -163.5043
  65   2.0000      -6.005961      -163.4305
  66   2.0000      -6.003683      -163.3685
  67   2.0000      -6.000576      -163.2840
  68   2.0000      -1.325117       -36.0583
  69   2.0000      -1.244805       -33.8729
  70   2.0000      -1.233327       -33.5605
  71   2.0000      -1.141213       -31.0540
  72   2.0000      -1.122049       -30.5325
  73   2.0000      -1.023421       -27.8487
  74   2.0000      -1.010768       -27.5044
  75   2.0000      -0.996742       -27.1227
  76   2.0000      -0.991904       -26.9911
  77   2.0000      -0.986814       -26.8526
  78   2.0000      -0.973920       -26.5017
  79   2.0000      -0.942071       -25.6350
  80   2.0000      -0.916837       -24.9484
  81   2.0000      -0.914277       -24.8787
  82   2.0000      -0.899963       -24.4892
  83   2.0000      -0.894981       -24.3537
  84   2.0000      -0.886507       -24.1231
  85   2.0000      -0.878266       -23.8988
  86   2.0000      -0.860760       -23.4225
  87   2.0000      -0.851486       -23.1701
  88   2.0000      -0.848984       -23.1020
  89   2.0000      -0.844471       -22.9792
  90   2.0000      -0.836634       -22.7660
  91   2.0000      -0.829718       -22.5778
  92   2.0000      -0.822113       -22.3708
  93   2.0000      -0.807877       -21.9834
  94   2.0000      -0.798429       -21.7264
  95   2.0000      -0.788831       -21.4652
  96   2.0000      -0.773489       -21.0477
  97   2.0000      -0.767543       -20.8859
  98   2.0000      -0.744224       -20.2514
  99   2.0000      -0.736186       -20.0326
 100   2.0000      -0.718216       -19.5436
 101   2.0000      -0.714281       -19.4366
 102   2.0000      -0.696723       -18.9588
 103   2.0000      -0.695375       -18.9221
 104   2.0000      -0.685700       -18.6588
 105   2.0000      -0.674225       -18.3466
 106   2.0000      -0.666007       -18.1230
 107   2.0000      -0.660988       -17.9864
 108   2.0000      -0.651918       -17.7396
 109   2.0000      -0.640557       -17.4304
 110   2.0000      -0.639522       -17.4023
 111   2.0000      -0.634930       -17.2773
 112   2.0000      -0.623942       -16.9783
 113   2.0000      -0.623465       -16.9653
 114   2.0000      -0.620601       -16.8874
 115   2.0000      -0.619399       -16.8547
 116   2.0000      -0.615132       -16.7386
 117   2.0000      -0.608192       -16.5497
 118   2.0000      -0.602503       -16.3949
 119   2.0000      -0.593919       -16.1614
 120   2.0000      -0.590297       -16.0628
 121   2.0000      -0.586615       -15.9626
 122   2.0000      -0.585789       -15.9401
 123   2.0000      -0.573458       -15.6046
 124   2.0000      -0.570578       -15.5262
 125   2.0000      -0.568314       -15.4646
 126   2.0000      -0.563384       -15.3305
 127   2.0000      -0.554340       -15.0844
 128   2.0000      -0.544747       -14.8233
 129   2.0000      -0.541331       -14.7304
 130   2.0000      -0.524284       -14.2665
 131   2.0000      -0.522186       -14.2094
 132   2.0000      -0.517118       -14.0715
 133   2.0000      -0.511561       -13.9203
 134   2.0000      -0.507761       -13.8169
 135   2.0000      -0.505190       -13.7469
 136   2.0000      -0.502920       -13.6851
 137   2.0000      -0.502610       -13.6767
 138   2.0000      -0.500809       -13.6277
 139   2.0000      -0.499177       -13.5833
 140   2.0000      -0.492139       -13.3918
 141   2.0000      -0.490669       -13.3518
 142   2.0000      -0.488111       -13.2822
 143   2.0000      -0.486349       -13.2342
 144   2.0000      -0.481604       -13.1051
 145   2.0000      -0.477678       -12.9983
 146   2.0000      -0.476676       -12.9710
 147   2.0000      -0.474596       -12.9144
 148   2.0000      -0.471718       -12.8361
 149   2.0000      -0.470307       -12.7977
 150   2.0000      -0.467077       -12.7098
 151   2.0000      -0.456972       -12.4348
 152   2.0000      -0.452369       -12.3096
 153   2.0000      -0.444065       -12.0836
 154   2.0000      -0.442498       -12.0410
 155   2.0000      -0.432022       -11.7559
 156   2.0000      -0.429365       -11.6836
 157   2.0000      -0.429104       -11.6765
 158   2.0000      -0.427035       -11.6202
 159   2.0000      -0.423479       -11.5234
 160   2.0000      -0.415938       -11.3182
 161   2.0000      -0.402311       -10.9474
 162   2.0000      -0.400763       -10.9053
 163   2.0000      -0.396235       -10.7821
 164   2.0000      -0.390093       -10.6150
 165   2.0000      -0.380207       -10.3460
 166   2.0000      -0.378114       -10.2890
 167   2.0000      -0.373183       -10.1548
 168   2.0000      -0.370948       -10.0940
 169   2.0000      -0.365895        -9.9565
 170   2.0000      -0.345781        -9.4092
 171   2.0000      -0.344747        -9.3811
 172   2.0000      -0.343788        -9.3549
 173   2.0000      -0.341644        -9.2966
 174   2.0000      -0.337025        -9.1709
 175   2.0000      -0.331505        -9.0207
 176   2.0000      -0.329966        -8.9788
 177   2.0000      -0.329899        -8.9770
 178   2.0000      -0.324439        -8.8284
 179   2.0000      -0.319196        -8.6858
 180   2.0000      -0.295217        -8.0333
 181   2.0000      -0.271606        -7.3908
 182   2.0000      -0.240404        -6.5417
 183   2.0000      -0.213681        -5.8146
 184   0.0000      -0.092203        -2.5090
 185   0.0000      -0.069309        -1.8860
 186   0.0000      -0.052033        -1.4159
 187   0.0000      -0.025806        -0.7022
 188   0.0000      -0.013993        -0.3808

MULLIKEN ATOMIC CHARGES
-----------------------
   0 O :   -0.171020
   1 C :    0.122660
   2 N :   -0.080851
   3 C :   -0.049023
   4 C :    0.132528
   5 C :    0.168359
   6 O :   -0.177763
   7 C :   -0.119795
   8 S :    0.195750
   9 C :   -0.134105
  10 C :    0.051407
  11 C :    0.013118
  12 C :    0.063128
  13 C :   -0.023642
  14 C :   -0.090024
  15 C :    0.059731
  16 C :   -0.202824
  17 S :    0.163982
  18 C :   -0.078573
  19 C :    0.087803
  20 C :    0.200934
  21 O :   -0.188201
  22 C :    0.242354
  23 N :    0.276735
  24 O :   -0.250970
  25 O :   -0.232902
  26 C :   -0.099569
  27 C :   -0.070344
  28 S :    0.149408
  29 C :   -0.134289
  30 C :    0.064192
  31 C :   -0.016342
  32 C :    0.050754
  33 C :    0.000092
  34 C :   -0.107889
  35 C :    0.029032
  36 C :   -0.025784
  37 C :   -0.011114
  38 C :    0.035429
  39 C :    0.026855
  40 C :   -0.049600
  41 S :    0.076839
  42 C :   -0.063941
  43 C :    0.029522
  44 C :    0.055853
  45 C :   -0.067201
  46 S :    0.084495
  47 C :   -0.025583
  48 H :    0.034893
  49 H :   -0.011967
  50 H :   -0.008832
  51 H :    0.004628
  52 H :    0.047452
  53 H :   -0.009013
  54 H :    0.021021
  55 H :   -0.006832
  56 H :   -0.003701
  57 H :    0.020965
  58 H :    0.011926
  59 H :   -0.014616
  60 H :   -0.011555
  61 H :   -0.010754
  62 H :   -0.010576
  63 H :   -0.009654
  64 H :    0.022388
  65 H :    0.024620
Sum of atomic charges:   -0.0000000

LOEWDIN ATOMIC CHARGES
----------------------
   0 O :    0.022536
   1 C :    0.030652
   2 N :   -0.100468
   3 C :   -0.106981
   4 C :    0.071407
   5 C :    0.103693
   6 O :   -0.133621
   7 C :   -0.203478
   8 S :    0.471579
   9 C :   -0.177728
  10 C :   -0.037024
  11 C :   -0.024901
  12 C :   -0.062201
  13 C :   -0.017589
  14 C :   -0.041199
  15 C :   -0.018016
  16 C :   -0.204205
  17 S :    0.465941
  18 C :   -0.172175
  19 C :   -0.085701
  20 C :    0.029502
  21 O :    0.004500
  22 C :    0.026365
  23 N :    0.272802
  24 O :   -0.212356
  25 O :   -0.195007
  26 C :   -0.009786
  27 C :   -0.189694
  28 S :    0.450258
  29 C :   -0.173161
  30 C :   -0.034589
  31 C :   -0.051888
  32 C :   -0.072399
  33 C :   -0.012189
  34 C :   -0.054480
  35 C :    0.000811
  36 C :   -0.068249
  37 C :   -0.133966
  38 C :   -0.037197
  39 C :   -0.025376
  40 C :   -0.183253
  41 S :    0.368493
  42 C :   -0.171977
  43 C :   -0.027031
  44 C :   -0.027373
  45 C :   -0.139976
  46 S :    0.355476
  47 C :   -0.070473
  48 H :    0.036028
  49 H :    0.001536
  50 H :    0.035797
  51 H :    0.040009
  52 H :    0.047809
  53 H :    0.035391
  54 H :    0.043120
  55 H :    0.037465
  56 H :    0.029245
  57 H :    0.042204
  58 H :    0.029244
  59 H :    0.032884
  60 H :    0.033997
  61 H :    0.032389
  62 H :    0.032812
  63 H :    0.034368
  64 H :    0.029862
  65 H :    0.027532

  Mayer bond orders larger than 0.100000
B(  0-O ,  1-C ) :   1.2027 B(  0-O ,  4-C ) :   1.1602 B(  1-C ,  2-N ) :   1.7721
B(  1-C ,  7-C ) :   1.0489 B(  2-N ,  3-C ) :   1.2978 B(  3-C ,  4-C ) :   1.5156
B(  3-C ,  5-C ) :   0.9706 B(  4-C , 48-H ) :   0.9910 B(  5-C ,  6-O ) :   2.2038
B(  5-C , 49-H ) :   0.9517 B(  7-C ,  8-S ) :   1.1244 B(  7-C ,  9-C ) :   0.1193
B(  7-C , 11-C ) :   1.5277 B(  8-S ,  9-C ) :   1.1155 B(  9-C , 10-C ) :   1.4925
B(  9-C , 12-C ) :   0.9633 B( 10-C , 11-C ) :   1.2597 B( 10-C , 50-H ) :   1.0034
B( 11-C , 51-H ) :   1.0029 B( 12-C , 13-C ) :   2.2854 B( 13-C , 14-C ) :   1.0262
B( 14-C , 15-C ) :   1.6984 B( 14-C , 52-H ) :   0.9451 B( 15-C , 16-C ) :   1.1432
B( 15-C , 53-H ) :   0.9599 B( 16-C , 17-S ) :   1.0867 B( 16-C , 18-C ) :   0.1053
B( 16-C , 20-C ) :   1.4577 B( 17-S , 18-C ) :   1.1537 B( 18-C , 19-C ) :   1.3519
B( 18-C , 27-C ) :   1.2083 B( 19-C , 20-C ) :   1.2323 B( 19-C , 26-C ) :   1.0905
B( 20-C , 21-O ) :   1.1104 B( 21-O , 22-C ) :   1.1132 B( 22-C , 23-N ) :   0.9262
B( 22-C , 26-C ) :   1.5613 B( 23-N , 24-O ) :   1.5241 B( 23-N , 25-O ) :   1.5043
B( 24-O , 25-O ) :   0.2794 B( 26-C , 54-H ) :   1.0163 B( 27-C , 28-S ) :   1.1184
B( 27-C , 31-C ) :   1.4446 B( 28-S , 29-C ) :   1.1048 B( 29-C , 30-C ) :   1.4667
B( 29-C , 32-C ) :   0.9963 B( 30-C , 31-C ) :   1.3006 B( 30-C , 55-H ) :   1.0009
B( 31-C , 56-H ) :   0.9927 B( 32-C , 33-C ) :   2.2257 B( 33-C , 34-C ) :   1.0247
B( 34-C , 35-C ) :   1.6337 B( 34-C , 57-H ) :   0.9617 B( 35-C , 36-C ) :   1.1732
B( 35-C , 58-H ) :   0.9760 B( 36-C , 37-C ) :   1.5603 B( 36-C , 59-H ) :   0.9795
B( 37-C , 38-C ) :   1.1395 B( 37-C , 41-S ) :   1.0398 B( 38-C , 39-C ) :   1.6001
B( 38-C , 60-H ) :   0.9994 B( 39-C , 40-C ) :   1.1760 B( 39-C , 61-H ) :   0.9937
B( 40-C , 41-S ) :   1.0348 B( 40-C , 42-C ) :   1.5491 B( 42-C , 43-C ) :   1.1535
B( 42-C , 46-S ) :   1.0507 B( 43-C , 44-C ) :   1.6606 B( 43-C , 62-H ) :   0.9923
B( 44-C , 45-C ) :   1.0806 B( 44-C , 63-H ) :   0.9928 B( 45-C , 46-S ) :   1.0061
B( 45-C , 47-C ) :   1.8644 B( 47-C , 64-H ) :   0.9504 B( 47-C , 65-H ) :   0.9420

-----------------------------------------------------------------------------
         ABSORPTION SPECTRUM VIA TRANSITION ELECTRIC DIPOLE MOMENTS
-----------------------------------------------------------------------------
State   Energy  Wavelength   fosc         T2         TX        TY        TZ
        (cm-1)    (nm)                  (au**2)     (au)      (au)      (au)
-----------------------------------------------------------------------------
   0   13850.6    722.0   2.255755725  53.61672   1.13596  -6.34294   3.47756
   1   19135.5    522.6   0.227843547   3.91987   0.73855   0.20266   1.82575
   2   20391.8    490.4   0.254349815   4.10631   0.26269  -1.80783   0.87696
   3   23264.6    429.8   1.045927443  14.80065  -0.42931  -3.68000  -1.03631
   4   25638.5    390.0   0.012859319   0.16512  -0.03110   0.00963  -0.40504
   5   27216.5    367.4   0.109574490   1.32542  -0.26081   0.05805  -1.11983
   6   28381.9    352.3   0.015972465   0.18527  -0.02117  -0.30011   0.30783
   7   29600.8    337.8   0.183266800   2.03824  -0.01119   1.37390  -0.38797
   8   31052.8    322.0   0.097698513   1.03577   0.07565   0.80464   0.61855
   9   32833.0    304.6   0.218503363   2.19090  -0.25642  -1.08280  -0.97606
  10   33698.4    296.8   0.006198189   0.06055  -0.00594   0.22789   0.09266
  11   33985.8    294.2   0.134734916   1.30514   0.15550   0.88987   0.69935
  12   34420.8    290.5   0.000004414   0.00004   0.00003  -0.00525  -0.00382
  13   34646.8    288.6   0.000094471   0.00090   0.01318   0.00894  -0.02538
  14   34857.8    286.9   0.043043683   0.40652  -0.16838  -0.15705  -0.59456
  15   34986.1    285.8   0.219270235   2.06329  -0.15451   0.91577  -1.09580
  16   35436.4    282.2   0.031814158   0.29556   0.02479   0.52892  -0.12327
  17   35875.2    278.7   0.133373527   1.22391  -0.23958  -0.15394  -1.06903
  18   36234.5    276.0   0.006859205   0.06232   0.05668  -0.07811   0.23023
  19   36445.8    274.4   0.079781404   0.72066  -0.17131   0.31308  -0.77026
  20   36957.4    270.6   0.065211267   0.58089  -0.10549  -0.49157  -0.57282
  21   37933.9    263.6   0.000690530   0.00599  -0.00821  -0.07076  -0.03031
  22   38170.6    262.0   0.090195118   0.77791  -0.30009   0.24166  -0.79338
  23   38830.6    257.5   0.005189734   0.04400   0.03760   0.05930   0.19766
  24   39171.4    255.3   0.088258477   0.74176   0.15935   0.21993   0.81731
  25   39557.2    252.8   0.000687572   0.00572   0.00416  -0.03024   0.06921
  26   39816.7    251.2   0.019955440   0.16500   0.07702  -0.04638   0.39612

FINAL SINGLE POINT ENERGY     -3855.982860286433

DIPOLE MOMENT
-------------
                                X             Y             Z
Electronic contribution:      8.13319     -40.13954      24.83902
Nuclear contribution   :     -8.85955      44.42129     -27.51396
                        -----------------------------------------
Total Dipole Moment    :     -0.72636       4.28175      -2.67494
                        -----------------------------------------
Magnitude (a.u.)       :      5.10062
Magnitude (Debye)      :     12.96474

Rotational constants in cm-1:     0.003780     0.000261     0.000244
Rotational constants in MHz :   113.312478     7.820069     7.324528

                             ****ORCA TERMINATED NORMALLY****
TOTAL RUN TIME: 0 days 0 hours 4 minutes 3 seconds 572 msec
