                         Program Version 4.2.0 -  RELEASE  -
|  1> # ORCA input file
|  2> # SCF done       -134.545850903951          0.000629437293
|  3> ! CAM-B3LYP def2-SVP def2/J RIJCOSX Grid4 TightSCF
|  4> %maxcore 5000
|  5> %tddft
|  6>     Mode sTDDFT
|  7>     Ethresh 5.0
|  8>     maxcore 5000
|  9> end
| 10>
| 11> %pal
| 12>   nprocs 6
| 13>   end
| 14> * xyz 0 1
| 15>    O        0.52490         2.06234        -2.09653
| 16>    C       -0.34558         1.38742        -1.30100
| 17>    N        0.09711         1.23310        -0.08397
| 18>    C        1.32700         1.83741        -0.06448
| 19>    C        1.57131         2.34454        -1.31797
| 20>    C        2.15443         1.87687         1.13136
| 21>    O        3.24360         2.38597         1.20164
| 22>    C       -1.58070         0.94486        -1.88040
| 23>    C       -2.56963         0.27491        -1.21344
| 24>    O       -3.72552        -0.12882        -1.83858
| 25>    C       -3.82764         0.19598        -3.16115
| 26>    C       -2.79660         0.89852        -3.84921
| 27>    C       -3.09273         1.12271        -5.15278
| 28>    S       -4.63889         0.47653        -5.56241
| 29>    C       -4.88512        -0.09895        -3.95605
| 30>    O       -1.64880         1.28452        -3.22536
| 31>    C       -2.50119        -0.05883         0.17612
| 32>    C       -3.47548        -0.73577         0.82281
| 33>    C       -3.39911        -1.03993         2.21688
| 34>    C       -4.31321        -1.71160         2.94016
| 35>    C       -5.58149        -2.29004         2.41800
| 36>    C       -4.07013        -1.94747         4.41374
| 37>    N       -3.30740        -3.16041         4.60534
| 38>    C       -3.80118        -4.29851         5.10353
| 39>    C       -3.07974        -5.45855         5.19733
| 40>    C       -3.50255        -6.67277         5.76098
| 41>    C       -4.72834        -7.02655         6.27931
| 42>    C       -5.04111        -8.27283         6.87207
| 43>    C       -6.32705        -8.38951         7.31593
| 44>    C       -7.10928        -7.24045         7.08802
| 45>    S       -6.15953        -6.00681         6.29962
| 46>    C       -8.43833        -6.98727         7.38409
| 47>    C       -9.39710        -7.78288         8.03751
| 48>    C      -10.61932        -7.18496         8.14976
| 49>    C      -10.69202        -5.88705         7.58296
| 50>    S       -9.13641        -5.45367         6.91117
| 51>    C      -11.81140        -5.09074         7.54150
| 52>    C      -11.93836        -3.81522         6.95972
| 53>    S      -13.51712        -3.03417         6.92713
| 54>    C      -12.96451        -1.63838         6.07800
| 55>    C      -11.61979        -1.74520         5.82365
| 56>    C      -11.04958        -2.95967         6.32841
| 57>    O       -9.72614        -3.00303         6.06494
| 58>    C       -9.44574        -1.86088         5.38670
| 59>    N       -8.12883        -1.66356         4.96723
| 60>    O       -7.90680        -0.68727         4.25819
| 61>    O       -7.26886        -2.46056         5.31305
| 62>    C      -10.54437        -1.05401         5.20579
| 63>    H        2.39828         2.88338        -1.73217
| 64>    H        1.67871         1.38126         1.99659
| 65>    H       -2.49834         1.62420        -5.88708
| 66>    H       -5.78441        -0.61515        -3.69307
| 67>    H       -1.61189         0.27083         0.68781
| 68>    H       -4.35202        -1.04653         0.27495
| 69>    H       -2.51582        -0.66397         2.72006
| 70>    H       -5.57147        -2.42012         1.34076
| 71>    H       -6.40211        -1.61882         2.67866
| 72>    H       -5.77884        -3.24955         2.89374
| 73>    H       -5.02201        -2.05477         4.93716
| 74>    H       -3.51074        -1.11019         4.84453
| 75>    H       -2.38482        -3.17857         4.19192
| 76>    H       -4.81272        -4.22722         5.47338
| 77>    H       -2.06369        -5.44137         4.82185
| 78>    H       -2.75429        -7.45554         5.79956
| 79>    H       -4.30125        -9.04992         6.95879
| 80>    H       -6.72952        -9.26622         7.79115
| 81>    H       -9.16658        -8.76522         8.41064
| 82>    H      -11.47583        -7.63609         8.61929
| 83>    H      -12.71287        -5.49250         7.98403
| 84>    H      -13.64812        -0.85496         5.82981
| 85>    H      -10.55519        -0.10841         4.70530
| 86> *
| 87>
| 88>                          ****END OF INPUT****

CARTESIAN COORDINATES (ANGSTROEM)
---------------------------------
  O      0.524900    2.062340   -2.096530
  C     -0.345580    1.387420   -1.301000
  N      0.097110    1.233100   -0.083970
  C      1.327000    1.837410   -0.064480
  C      1.571310    2.344540   -1.317970
  C      2.154430    1.876870    1.131360
  O      3.243600    2.385970    1.201640
  C     -1.580700    0.944860   -1.880400
  C     -2.569630    0.274910   -1.213440
  O     -3.725520   -0.128820   -1.838580
  C     -3.827640    0.195980   -3.161150
  C     -2.796600    0.898520   -3.849210
  C     -3.092730    1.122710   -5.152780
  S     -4.638890    0.476530   -5.562410
  C     -4.885120   -0.098950   -3.956050
  O     -1.648800    1.284520   -3.225360
  C     -2.501190   -0.058830    0.176120
  C     -3.475480   -0.735770    0.822810
  C     -3.399110   -1.039930    2.216880
  C     -4.313210   -1.711600    2.940160
  C     -5.581490   -2.290040    2.418000
  C     -4.070130   -1.947470    4.413740
  N     -3.307400   -3.160410    4.605340
  C     -3.801180   -4.298510    5.103530
  C     -3.079740   -5.458550    5.197330
  C     -3.502550   -6.672770    5.760980
  C     -4.728340   -7.026550    6.279310
  C     -5.041110   -8.272830    6.872070
  C     -6.327050   -8.389510    7.315930
  C     -7.109280   -7.240450    7.088020
  S     -6.159530   -6.006810    6.299620
  C     -8.438330   -6.987270    7.384090
  C     -9.397100   -7.782880    8.037510
  C    -10.619320   -7.184960    8.149760
  C    -10.692020   -5.887050    7.582960
  S     -9.136410   -5.453670    6.911170
  C    -11.811400   -5.090740    7.541500
  C    -11.938360   -3.815220    6.959720
  S    -13.517120   -3.034170    6.927130
  C    -12.964510   -1.638380    6.078000
  C    -11.619790   -1.745200    5.823650
  C    -11.049580   -2.959670    6.328410
  O     -9.726140   -3.003030    6.064940
  C     -9.445740   -1.860880    5.386700
  N     -8.128830   -1.663560    4.967230
  O     -7.906800   -0.687270    4.258190
  O     -7.268860   -2.460560    5.313050
  C    -10.544370   -1.054010    5.205790
  H      2.398280    2.883380   -1.732170
  H      1.678710    1.381260    1.996590
  H     -2.498340    1.624200   -5.887080
  H     -5.784410   -0.615150   -3.693070
  H     -1.611890    0.270830    0.687810
  H     -4.352020   -1.046530    0.274950
  H     -2.515820   -0.663970    2.720060
  H     -5.571470   -2.420120    1.340760
  H     -6.402110   -1.618820    2.678660
  H     -5.778840   -3.249550    2.893740
  H     -5.022010   -2.054770    4.937160
  H     -3.510740   -1.110190    4.844530
  H     -2.384820   -3.178570    4.191920
  H     -4.812720   -4.227220    5.473380
  H     -2.063690   -5.441370    4.821850
  H     -2.754290   -7.455540    5.799560
  H     -4.301250   -9.049920    6.958790
  H     -6.729520   -9.266220    7.791150
  H     -9.166580   -8.765220    8.410640
  H    -11.475830   -7.636090    8.619290
  H    -12.712870   -5.492500    7.984030
  H    -13.648120   -0.854960    5.829810
  H    -10.555190   -0.108410    4.705300

 Total Charge           Charge          ....    0
 Multiplicity           Mult            ....    1
 Number of Electrons    NEL             ....  368
 Basis Dimension        Dim             ....  803

ORBITAL ENERGIES
----------------

  NO   OCC          E(Eh)            E(eV)
   0   2.0000     -88.962190     -2420.7843
   1   2.0000     -88.957013     -2420.6434
   2   2.0000     -88.929317     -2419.8897
   3   2.0000     -88.921130     -2419.6670
   4   2.0000     -19.314783      -525.5820
   5   2.0000     -19.300214      -525.1855
   6   2.0000     -19.277204      -524.5594
   7   2.0000     -19.272883      -524.4418
   8   2.0000     -19.254450      -523.9402
   9   2.0000     -19.251304      -523.8546
  10   2.0000     -19.211138      -522.7616
  11   2.0000     -14.662633      -398.9905
  12   2.0000     -14.440577      -392.9481
  13   2.0000     -14.417173      -392.3112
  14   2.0000     -10.386030      -282.6182
  15   2.0000     -10.377863      -282.3960
  16   2.0000     -10.356645      -281.8186
  17   2.0000     -10.352761      -281.7129
  18   2.0000     -10.347998      -281.5833
  19   2.0000     -10.346877      -281.5528
  20   2.0000     -10.340287      -281.3735
  21   2.0000     -10.339899      -281.3630
  22   2.0000     -10.335026      -281.2304
  23   2.0000     -10.315939      -280.7110
  24   2.0000     -10.311797      -280.5983
  25   2.0000     -10.308396      -280.5057
  26   2.0000     -10.305330      -280.4223
  27   2.0000     -10.300655      -280.2951
  28   2.0000     -10.297444      -280.2077
  29   2.0000     -10.297043      -280.1968
  30   2.0000     -10.294487      -280.1272
  31   2.0000     -10.294242      -280.1206
  32   2.0000     -10.292755      -280.0801
  33   2.0000     -10.290572      -280.0207
  34   2.0000     -10.279782      -279.7271
  35   2.0000     -10.279370      -279.7159
  36   2.0000     -10.277312      -279.6599
  37   2.0000     -10.276800      -279.6459
  38   2.0000     -10.273056      -279.5441
  39   2.0000     -10.272642      -279.5328
  40   2.0000     -10.271189      -279.4933
  41   2.0000     -10.265119      -279.3281
  42   2.0000     -10.265025      -279.3255
  43   2.0000     -10.263066      -279.2722
  44   2.0000     -10.261775      -279.2371
  45   2.0000     -10.261545      -279.2308
  46   2.0000     -10.253454      -279.0107
  47   2.0000     -10.250205      -278.9223
  48   2.0000      -8.057152      -219.2463
  49   2.0000      -8.052746      -219.1263
  50   2.0000      -8.025166      -218.3759
  51   2.0000      -8.017469      -218.1664
  52   2.0000      -6.026532      -163.9903
  53   2.0000      -6.022255      -163.8739
  54   2.0000      -6.022238      -163.8734
  55   2.0000      -6.019372      -163.7954
  56   2.0000      -6.018090      -163.7605
  57   2.0000      -6.014442      -163.6613
  58   2.0000      -5.994852      -163.1282
  59   2.0000      -5.990779      -163.0174
  60   2.0000      -5.987187      -162.9196
  61   2.0000      -5.986305      -162.8956
  62   2.0000      -5.983089      -162.8081
  63   2.0000      -5.978285      -162.6774
  64   2.0000      -1.329987       -36.1908
  65   2.0000      -1.246230       -33.9116
  66   2.0000      -1.223416       -33.2908
  67   2.0000      -1.200749       -32.6741
  68   2.0000      -1.163676       -31.6652
  69   2.0000      -1.143742       -31.1228
  70   2.0000      -1.124513       -30.5996
  71   2.0000      -1.038839       -28.2682
  72   2.0000      -1.025780       -27.9129
  73   2.0000      -0.985913       -26.8280
  74   2.0000      -0.984034       -26.7769
  75   2.0000      -0.975821       -26.5534
  76   2.0000      -0.953979       -25.9591
  77   2.0000      -0.937098       -25.4997
  78   2.0000      -0.923661       -25.1341
  79   2.0000      -0.910220       -24.7683
  80   2.0000      -0.894002       -24.3270
  81   2.0000      -0.886833       -24.1320
  82   2.0000      -0.877149       -23.8684
  83   2.0000      -0.861965       -23.4553
  84   2.0000      -0.843302       -22.9474
  85   2.0000      -0.835708       -22.7408
  86   2.0000      -0.829871       -22.5819
  87   2.0000      -0.817330       -22.2407
  88   2.0000      -0.811926       -22.0936
  89   2.0000      -0.805564       -21.9205
  90   2.0000      -0.802025       -21.8242
  91   2.0000      -0.787314       -21.4239
  92   2.0000      -0.778751       -21.1909
  93   2.0000      -0.771845       -21.0030
  94   2.0000      -0.766992       -20.8709
  95   2.0000      -0.745236       -20.2789
  96   2.0000      -0.732575       -19.9344
  97   2.0000      -0.718765       -19.5586
  98   2.0000      -0.702258       -19.1094
  99   2.0000      -0.701115       -19.0783
 100   2.0000      -0.697027       -18.9671
 101   2.0000      -0.688283       -18.7291
 102   2.0000      -0.673631       -18.3304
 103   2.0000      -0.669920       -18.2294
 104   2.0000      -0.662167       -18.0185
 105   2.0000      -0.657003       -17.8780
 106   2.0000      -0.651604       -17.7310
 107   2.0000      -0.646735       -17.5986
 108   2.0000      -0.644644       -17.5417
 109   2.0000      -0.625420       -17.0185
 110   2.0000      -0.621763       -16.9190
 111   2.0000      -0.610585       -16.6149
 112   2.0000      -0.608185       -16.5496
 113   2.0000      -0.606597       -16.5064
 114   2.0000      -0.604686       -16.4543
 115   2.0000      -0.596818       -16.2402
 116   2.0000      -0.594841       -16.1864
 117   2.0000      -0.591196       -16.0873
 118   2.0000      -0.586482       -15.9590
 119   2.0000      -0.578637       -15.7455
 120   2.0000      -0.570765       -15.5313
 121   2.0000      -0.565733       -15.3944
 122   2.0000      -0.563828       -15.3426
 123   2.0000      -0.560977       -15.2650
 124   2.0000      -0.559814       -15.2333
 125   2.0000      -0.553547       -15.0628
 126   2.0000      -0.549994       -14.9661
 127   2.0000      -0.541718       -14.7409
 128   2.0000      -0.536470       -14.5981
 129   2.0000      -0.526775       -14.3343
 130   2.0000      -0.517745       -14.0886
 131   2.0000      -0.515537       -14.0285
 132   2.0000      -0.511333       -13.9141
 133   2.0000      -0.508018       -13.8239
 134   2.0000      -0.506988       -13.7959
 135   2.0000      -0.502011       -13.6604
 136   2.0000      -0.501305       -13.6412
 137   2.0000      -0.498473       -13.5641
 138   2.0000      -0.490940       -13.3592
 139   2.0000      -0.484627       -13.1874
 140   2.0000      -0.480993       -13.0885
 141   2.0000      -0.479643       -13.0517
 142   2.0000      -0.479411       -13.0454
 143   2.0000      -0.477902       -13.0044
 144   2.0000      -0.472401       -12.8547
 145   2.0000      -0.469290       -12.7700
 146   2.0000      -0.463162       -12.6033
 147   2.0000      -0.462753       -12.5921
 148   2.0000      -0.461266       -12.5517
 149   2.0000      -0.456432       -12.4202
 150   2.0000      -0.452516       -12.3136
 151   2.0000      -0.446184       -12.1413
 152   2.0000      -0.445995       -12.1361
 153   2.0000      -0.442119       -12.0307
 154   2.0000      -0.434375       -11.8200
 155   2.0000      -0.431709       -11.7474
 156   2.0000      -0.429567       -11.6891
 157   2.0000      -0.422940       -11.5088
 158   2.0000      -0.419038       -11.4026
 159   2.0000      -0.413499       -11.2519
 160   2.0000      -0.411321       -11.1926
 161   2.0000      -0.408247       -11.1090
 162   2.0000      -0.405020       -11.0211
 163   2.0000      -0.401672       -10.9300
 164   2.0000      -0.397648       -10.8206
 165   2.0000      -0.395384       -10.7590
 166   2.0000      -0.388665       -10.5761
 167   2.0000      -0.377925       -10.2839
 168   2.0000      -0.373889       -10.1740
 169   2.0000      -0.371017       -10.0959
 170   2.0000      -0.370130       -10.0718
 171   2.0000      -0.364766        -9.9258
 172   2.0000      -0.338830        -9.2200
 173   2.0000      -0.332660        -9.0521
 174   2.0000      -0.324914        -8.8414
 175   2.0000      -0.320786        -8.7290
 176   2.0000      -0.313016        -8.5176
 177   2.0000      -0.304359        -8.2820
 178   2.0000      -0.303072        -8.2470
 179   2.0000      -0.294958        -8.0262
 180   2.0000      -0.287328        -7.8186
 181   2.0000      -0.250378        -6.8131
 182   2.0000      -0.243766        -6.6332
 183   2.0000      -0.185387        -5.0446
 184   0.0000      -0.074553        -2.0287
 185   0.0000      -0.054682        -1.4880
 186   0.0000      -0.039073        -1.0632
 187   0.0000      -0.015726        -0.4279
 188   0.0000       0.007258         0.1975

MULLIKEN ATOMIC CHARGES
-----------------------
   0 O :   -0.152031
   1 C :    0.054733
   2 N :   -0.090635
   3 C :   -0.031939
   4 C :    0.127479
   5 C :    0.165306
   6 O :   -0.177664
   7 C :    0.176396
   8 C :    0.123192
   9 O :   -0.251337
  10 C :    0.213122
  11 C :    0.229833
  12 C :   -0.175070
  13 S :    0.109694
  14 C :   -0.170522
  15 O :   -0.257067
  16 C :   -0.062069
  17 C :    0.046350
  18 C :   -0.004283
  19 C :   -0.177405
  20 C :    0.094164
  21 C :    0.198106
  22 N :   -0.134862
  23 C :    0.059249
  24 C :   -0.050063
  25 C :    0.027611
  26 C :   -0.056688
  27 C :    0.047134
  28 C :    0.002758
  29 C :   -0.014569
  30 S :    0.030743
  31 C :   -0.051773
  32 C :    0.040993
  33 C :    0.013518
  34 C :   -0.019092
  35 S :    0.064165
  36 C :    0.020805
  37 C :   -0.212734
  38 S :    0.135855
  39 C :   -0.154712
  40 C :    0.133689
  41 C :    0.179814
  42 O :   -0.193607
  43 C :    0.242631
  44 N :    0.297237
  45 O :   -0.251936
  46 O :   -0.234612
  47 C :   -0.079357
  48 H :    0.033942
  49 H :   -0.016902
  50 H :    0.026105
  51 H :    0.025095
  52 H :    0.003732
  53 H :   -0.000834
  54 H :   -0.030626
  55 H :    0.011132
  56 H :    0.039424
  57 H :    0.019329
  58 H :    0.022373
  59 H :    0.014426
  60 H :    0.117587
  61 H :    0.043995
  62 H :   -0.033358
  63 H :   -0.014817
  64 H :   -0.018680
  65 H :   -0.024475
  66 H :   -0.021048
  67 H :   -0.025395
  68 H :   -0.034853
  69 H :    0.023866
  70 H :    0.009430
Sum of atomic charges:   -0.0000000

LOEWDIN ATOMIC CHARGES
----------------------
   0 O :    0.040732
   1 C :    0.052254
   2 N :   -0.102400
   3 C :   -0.106945
   4 C :    0.071404
   5 C :    0.102871
   6 O :   -0.133937
   7 C :   -0.021997
   8 C :    0.056027
   9 O :   -0.047305
  10 C :   -0.007822
  11 C :   -0.006109
  12 C :   -0.209762
  13 S :    0.436137
  14 C :   -0.207847
  15 O :   -0.060271
  16 C :   -0.052657
  17 C :    0.005519
  18 C :   -0.060459
  19 C :   -0.013715
  20 C :   -0.054167
  21 C :    0.046468
  22 N :    0.032177
  23 C :    0.062683
  24 C :   -0.146236
  25 C :   -0.016128
  26 C :   -0.193917
  27 C :   -0.014995
  28 C :   -0.071643
  29 C :   -0.155471
  30 S :    0.379808
  31 C :   -0.214392
  32 C :   -0.023795
  33 C :   -0.061669
  34 C :   -0.131965
  35 S :    0.387203
  36 C :   -0.125523
  37 C :   -0.185631
  38 S :    0.462347
  39 C :   -0.209098
  40 C :   -0.081853
  41 C :   -0.001744
  42 O :   -0.002244
  43 C :    0.017041
  44 N :    0.286253
  45 O :   -0.214010
  46 O :   -0.199451
  47 C :   -0.000235
  48 H :    0.036202
  49 H :   -0.000729
  50 H :    0.029810
  51 H :    0.029492
  52 H :    0.030951
  53 H :    0.026891
  54 H :    0.022277
  55 H :    0.026276
  56 H :    0.038447
  57 H :    0.033098
  58 H :    0.029126
  59 H :    0.025761
  60 H :    0.080127
  61 H :    0.018317
  62 H :    0.021611
  63 H :    0.035831
  64 H :    0.030677
  65 H :    0.027486
  66 H :    0.029472
  67 H :    0.027252
  68 H :    0.028160
  69 H :    0.024581
  70 H :    0.045352

  Mayer bond orders larger than 0.100000
B(  0-O ,  1-C ) :   1.2052 B(  0-O ,  4-C ) :   1.1702 B(  1-C ,  2-N ) :   1.7205
B(  1-C ,  7-C ) :   1.0368 B(  2-N ,  3-C ) :   1.2856 B(  2-N , 52-H ) :   0.1005
B(  3-C ,  4-C ) :   1.5099 B(  3-C ,  5-C ) :   0.9710 B(  4-C , 48-H ) :   0.9913
B(  5-C ,  6-O ) :   2.2037 B(  5-C , 49-H ) :   0.9512 B(  7-C ,  8-C ) :   1.5058
B(  7-C , 15-O ) :   1.0647 B(  8-C ,  9-O ) :   1.0819 B(  8-C , 16-C ) :   1.1467
B(  9-O , 10-C ) :   1.0426 B( 10-C , 11-C ) :   1.2005 B( 10-C , 14-C ) :   1.5742
B( 11-C , 12-C ) :   1.5772 B( 11-C , 15-O ) :   1.0575 B( 12-C , 13-S ) :   1.1396
B( 12-C , 50-H ) :   0.9699 B( 13-S , 14-C ) :   1.1441 B( 14-C , 51-H ) :   0.9719
B( 16-C , 17-C ) :   1.6754 B( 16-C , 52-H ) :   0.9317 B( 17-C , 18-C ) :   1.0869
B( 17-C , 53-H ) :   0.9769 B( 18-C , 19-C ) :   1.7467 B( 18-C , 54-H ) :   0.9786
B( 19-C , 20-C ) :   1.0925 B( 19-C , 21-C ) :   1.0296 B( 20-C , 55-H ) :   0.9477
B( 20-C , 56-H ) :   0.9260 B( 20-C , 57-H ) :   0.9422 B( 21-C , 22-N ) :   0.9915
B( 21-C , 58-H ) :   0.9137 B( 21-C , 59-H ) :   0.9390 B( 22-N , 23-C ) :   1.3014
B( 22-N , 60-H ) :   0.9377 B( 23-C , 24-C ) :   1.4923 B( 23-C , 61-H ) :   0.9489
B( 24-C , 25-C ) :   1.2742 B( 24-C , 62-H ) :   0.9591 B( 25-C , 26-C ) :   1.5333
B( 25-C , 63-H ) :   0.9606 B( 26-C , 27-C ) :   1.1841 B( 26-C , 30-S ) :   1.0079
B( 27-C , 28-C ) :   1.5529 B( 27-C , 64-H ) :   0.9964 B( 28-C , 29-C ) :   1.2114
B( 28-C , 65-H ) :   0.9936 B( 29-C , 30-S ) :   1.0691 B( 29-C , 31-C ) :   1.4644
B( 31-C , 32-C ) :   1.2173 B( 31-C , 35-S ) :   1.0170 B( 32-C , 33-C ) :   1.5607
B( 32-C , 66-H ) :   0.9928 B( 33-C , 34-C ) :   1.1628 B( 33-C , 67-H ) :   0.9989
B( 34-C , 35-S ) :   1.0657 B( 34-C , 36-C ) :   1.5609 B( 36-C , 37-C ) :   1.1668
B( 36-C , 68-H ) :   0.9438 B( 37-C , 38-S ) :   1.1363 B( 37-C , 39-C ) :   0.1055
B( 37-C , 41-C ) :   1.4196 B( 38-S , 39-C ) :   1.1611 B( 39-C , 40-C ) :   1.4282
B( 39-C , 69-H ) :   0.9777 B( 40-C , 41-C ) :   1.2250 B( 40-C , 47-C ) :   1.0777
B( 41-C , 42-O ) :   1.0759 B( 42-O , 43-C ) :   1.1265 B( 43-C , 44-N ) :   0.9422
B( 43-C , 47-C ) :   1.5363 B( 44-N , 45-O ) :   1.4936 B( 44-N , 46-O ) :   1.4638
B( 45-O , 46-O ) :   0.2576 B( 47-C , 70-H ) :   1.0246

-----------------------------------------------------------------------------
         ABSORPTION SPECTRUM VIA TRANSITION ELECTRIC DIPOLE MOMENTS
-----------------------------------------------------------------------------
State   Energy  Wavelength   fosc         T2         TX        TY        TZ
        (cm-1)    (nm)                  (au**2)     (au)      (au)      (au)
-----------------------------------------------------------------------------
   0    7334.0   1363.5   0.046509972   2.08775  -1.17690   0.83588  -0.06300
   1   14346.9    697.0   0.785986683  18.03566   4.09554  -0.43312  -1.03663
   2   20554.8    486.5   0.083622758   1.33933   0.16323  -0.95464   0.63352
   3   20943.5    477.5   0.020311570   0.31928   0.19595  -0.48171   0.22100
   4   24638.5    405.9   0.014699085   0.19640   0.41741  -0.12174  -0.08577
   5   24763.6    403.8   0.044260858   0.58841   0.31023   0.54294  -0.44429
   6   27201.9    367.6   1.084924625  13.13034  -1.93341  -2.46867   1.81602
   7   28517.1    350.7   0.467912652   5.40176  -0.09914   2.13031  -0.92397
   8   28922.8    345.7   0.007243389   0.08245  -0.01391   0.25397  -0.13325
   9   30467.9    328.2   0.091357902   0.98714  -0.73078   0.65639  -0.14921
  10   30946.8    323.1   0.056416221   0.60016   0.33624   0.63764  -0.28375
  11   31759.2    314.9   0.007098710   0.07358  -0.07625  -0.22536   0.13032
  12   31893.3    313.5   0.008809310   0.09093  -0.26223  -0.08676   0.12100
  13   31971.8    312.8   0.012514383   0.12886  -0.34063   0.11204   0.01661
  14   32677.0    306.0   0.005559870   0.05601  -0.13740   0.01916  -0.19175
  15   33064.3    302.4   0.035622382   0.35468  -0.08039  -0.44516   0.38737
  16   33318.1    300.1   0.021243444   0.20990   0.12541  -0.06231   0.43623
  17   33755.8    296.2   0.577125745   5.62857   2.16928   0.26066  -0.92457
  18   34141.0    292.9   0.093591386   0.90248  -0.92405   0.02256   0.21931
  19   34432.7    290.4   0.094886799   0.90722   0.59089   0.60427  -0.43922
  20   34476.6    290.1   0.000019991   0.00019   0.00386   0.00842  -0.01025
  21   34662.5    288.5   0.016710530   0.15871   0.18265   0.31373  -0.16408
  22   35351.9    282.9   0.123682053   1.15178  -0.50084  -0.31466   0.89550
  23   35621.5    280.7   0.104163535   0.96267  -0.05503  -0.67816   0.70692
  24   37538.6    266.4   0.020124588   0.17649  -0.36858   0.10970   0.16913
  25   37616.2    265.8   0.005004174   0.04380  -0.00423  -0.06741   0.19807
  26   38094.8    262.5   0.003208316   0.02773  -0.08815   0.01139   0.14081
  27   38487.2    259.8   0.151275366   1.29398   1.02357   0.46985   0.15976
  28   39019.3    256.3   0.078696312   0.66397   0.54921  -0.58167   0.15492
  29   39944.8    250.3   0.022080001   0.18198  -0.40037   0.03696   0.14253
  30   40271.8    248.3   0.221533285   1.81098  -0.79742  -0.11705  -1.07768

FINAL SINGLE POINT ENERGY     -3589.841527679036

DIPOLE MOMENT
-------------
                                X             Y             Z
Electronic contribution:    -11.79066      13.06245     -11.52760
Nuclear contribution   :     10.84302     -13.24207      10.99395
                        -----------------------------------------
Total Dipole Moment    :     -0.94764      -0.17962      -0.53365
                        -----------------------------------------
Magnitude (a.u.)       :      1.10230
Magnitude (Debye)      :      2.80183

Rotational constants in cm-1:     0.002471     0.000612     0.000543
Rotational constants in MHz :    74.086722    18.360911    16.265532

                             ****ORCA TERMINATED NORMALLY****
TOTAL RUN TIME: 0 days 0 hours 4 minutes 36 seconds 848 msec
