                         Program Version 4.2.0 -  RELEASE  -
|  1> # ORCA input file
|  2> # SCF done       -175.997354504283          0.000649445594
|  3> ! CAM-B3LYP def2-SVP def2/J RIJCOSX Grid4 TightSCF
|  4> %maxcore 5000
|  5> %tddft
|  6>     Mode sTDDFT
|  7>     Ethresh 5.0
|  8>     maxcore 5000
|  9> end
| 10>
| 11> %pal
| 12>   nprocs 6
| 13>   end
| 14> * xyz 0 1
| 15>    C        0.25370        -4.09476        -0.91230
| 16>    C        0.58587        -3.43835        -2.16937
| 17>    O       -0.19112        -3.16737        -3.07038
| 18>    C        2.05056        -3.19474        -2.12030
| 19>    C        2.55729        -3.66251        -0.89711
| 20>    C        1.44065        -4.21352        -0.06888
| 21>    O        1.49915        -4.61405         1.07131
| 22>    C        3.90268        -3.53085        -0.61320
| 23>    C        4.75963        -2.94340        -1.54340
| 24>    C        4.26300        -2.48614        -2.74658
| 25>    C        2.90586        -2.60994        -3.03508
| 26>    F        2.46189        -2.15620        -4.21399
| 27>    F        4.41257        -3.95152         0.54509
| 28>    C       -1.01857        -4.45635        -0.55561
| 29>    N       -2.04877        -4.19547        -1.36544
| 30>    C       -3.36882        -4.39776        -1.13437
| 31>    S       -3.93430        -5.25262         0.26378
| 32>    C       -5.56832        -4.99412        -0.26623
| 33>    N       -6.59387        -5.49193         0.54834
| 34>    O       -7.74060        -5.33207         0.17705
| 35>    O       -6.25019        -6.04629         1.57854
| 36>    C       -5.66631        -4.29721        -1.43861
| 37>    C       -4.40766        -3.93562        -1.96426
| 38>    C       -4.15148        -3.15104        -3.12495
| 39>    C       -5.05388        -2.64509        -4.00823
| 40>    C       -4.69258        -1.80542        -5.08630
| 41>    C       -3.52298        -1.09274        -5.22117
| 42>    C       -3.09333        -0.40814        -6.38783
| 43>    C       -1.86517         0.17274        -6.28102
| 44>    C       -1.27362         0.02342        -5.00736
| 45>    S       -2.32919        -0.86913        -3.95137
| 46>    C       -0.01757         0.41022        -4.57302
| 47>    C        1.06047         0.87421        -5.35662
| 48>    C        2.21885         1.03064        -4.65946
| 49>    C        2.09688         0.73993        -3.27426
| 50>    S        0.45777         0.25004        -2.89852
| 51>    C        3.05346         0.76388        -2.29184
| 52>    N        4.36579         0.95294        -2.58609
| 53>    C        5.50733         0.97733        -1.86090
| 54>    S        6.88223         1.55543        -2.78815
| 55>    C        7.88861         1.46082        -1.37888
| 56>    N        9.22677         1.83419        -1.51381
| 57>    O        9.93830         1.77368        -0.52730
| 58>    O        9.57816         2.19757        -2.62646
| 59>    C        7.21266         1.01064        -0.28370
| 60>    C        5.85367         0.68799        -0.52037
| 61>    C        5.13299         0.10543         0.56926
| 62>    C        3.95935        -0.57187         0.60888
| 63>    C        3.43316        -1.05949         1.82886
| 64>    C        2.15710        -1.50595         2.00476
| 65>    C        1.67043        -2.01931         3.30011
| 66>    O        2.30102        -2.13411         4.32075
| 67>    C        0.22548        -2.32385         3.08361
| 68>    C       -0.13626        -1.96722         1.77710
| 69>    C        1.06381        -1.49271         1.03376
| 70>    O        1.10468        -1.17155        -0.14058
| 71>    C       -1.45129        -2.10069         1.37068
| 72>    C       -2.40500        -2.61705         2.24153
| 73>    C       -2.04189        -2.99816         3.51836
| 74>    C       -0.72459        -2.84396         3.94439
| 75>    F       -0.41068        -3.19669         5.18946
| 76>    F       -1.84029        -1.73959         0.13608
| 77>    H        5.80740        -2.85227        -1.30474
| 78>    H        4.91642        -2.03706        -3.47811
| 79>    H       -1.21066        -4.94416         0.39366
| 80>    H       -1.77030        -3.69812        -2.22594
| 81>    H       -6.61258        -4.05525        -1.88602
| 82>    H       -3.10993        -2.95557        -3.32289
| 83>    H       -6.09721        -2.91957        -3.93500
| 84>    H       -5.40613        -1.70730        -5.89406
| 85>    H       -3.69287        -0.39672        -7.28111
| 86>    H       -1.38104         0.71417        -7.07393
| 87>    H        0.96439         1.04301        -6.41394
| 88>    H        3.13881         1.35884        -5.11235
| 89>    H        2.76446         0.62271        -1.26769
| 90>    H        4.52740         1.15177        -3.56870
| 91>    H        7.69627         0.88885         0.66942
| 92>    H        5.65539         0.20720         1.51344
| 93>    H        3.37784        -0.77014        -0.27405
| 94>    H        4.07275        -1.06025         2.70475
| 95>    H       -3.42689        -2.71183         1.90973
| 96>    H       -2.77040        -3.40980         4.19890
| 97> *
| 98>
| 99>                          ****END OF INPUT****

CARTESIAN COORDINATES (ANGSTROEM)
---------------------------------
  C      0.253700   -4.094760   -0.912300
  C      0.585870   -3.438350   -2.169370
  O     -0.191120   -3.167370   -3.070380
  C      2.050560   -3.194740   -2.120300
  C      2.557290   -3.662510   -0.897110
  C      1.440650   -4.213520   -0.068880
  O      1.499150   -4.614050    1.071310
  C      3.902680   -3.530850   -0.613200
  C      4.759630   -2.943400   -1.543400
  C      4.263000   -2.486140   -2.746580
  C      2.905860   -2.609940   -3.035080
  F      2.461890   -2.156200   -4.213990
  F      4.412570   -3.951520    0.545090
  C     -1.018570   -4.456350   -0.555610
  N     -2.048770   -4.195470   -1.365440
  C     -3.368820   -4.397760   -1.134370
  S     -3.934300   -5.252620    0.263780
  C     -5.568320   -4.994120   -0.266230
  N     -6.593870   -5.491930    0.548340
  O     -7.740600   -5.332070    0.177050
  O     -6.250190   -6.046290    1.578540
  C     -5.666310   -4.297210   -1.438610
  C     -4.407660   -3.935620   -1.964260
  C     -4.151480   -3.151040   -3.124950
  C     -5.053880   -2.645090   -4.008230
  C     -4.692580   -1.805420   -5.086300
  C     -3.522980   -1.092740   -5.221170
  C     -3.093330   -0.408140   -6.387830
  C     -1.865170    0.172740   -6.281020
  C     -1.273620    0.023420   -5.007360
  S     -2.329190   -0.869130   -3.951370
  C     -0.017570    0.410220   -4.573020
  C      1.060470    0.874210   -5.356620
  C      2.218850    1.030640   -4.659460
  C      2.096880    0.739930   -3.274260
  S      0.457770    0.250040   -2.898520
  C      3.053460    0.763880   -2.291840
  N      4.365790    0.952940   -2.586090
  C      5.507330    0.977330   -1.860900
  S      6.882230    1.555430   -2.788150
  C      7.888610    1.460820   -1.378880
  N      9.226770    1.834190   -1.513810
  O      9.938300    1.773680   -0.527300
  O      9.578160    2.197570   -2.626460
  C      7.212660    1.010640   -0.283700
  C      5.853670    0.687990   -0.520370
  C      5.132990    0.105430    0.569260
  C      3.959350   -0.571870    0.608880
  C      3.433160   -1.059490    1.828860
  C      2.157100   -1.505950    2.004760
  C      1.670430   -2.019310    3.300110
  O      2.301020   -2.134110    4.320750
  C      0.225480   -2.323850    3.083610
  C     -0.136260   -1.967220    1.777100
  C      1.063810   -1.492710    1.033760
  O      1.104680   -1.171550   -0.140580
  C     -1.451290   -2.100690    1.370680
  C     -2.405000   -2.617050    2.241530
  C     -2.041890   -2.998160    3.518360
  C     -0.724590   -2.843960    3.944390
  F     -0.410680   -3.196690    5.189460
  F     -1.840290   -1.739590    0.136080
  H      5.807400   -2.852270   -1.304740
  H      4.916420   -2.037060   -3.478110
  H     -1.210660   -4.944160    0.393660
  H     -1.770300   -3.698120   -2.225940
  H     -6.612580   -4.055250   -1.886020
  H     -3.109930   -2.955570   -3.322890
  H     -6.097210   -2.919570   -3.935000
  H     -5.406130   -1.707300   -5.894060
  H     -3.692870   -0.396720   -7.281110
  H     -1.381040    0.714170   -7.073930
  H      0.964390    1.043010   -6.413940
  H      3.138810    1.358840   -5.112350
  H      2.764460    0.622710   -1.267690
  H      4.527400    1.151770   -3.568700
  H      7.696270    0.888850    0.669420
  H      5.655390    0.207200    1.513440
  H      3.377840   -0.770140   -0.274050
  H      4.072750   -1.060250    2.704750
  H     -3.426890   -2.711830    1.909730
  H     -2.770400   -3.409800    4.198900

 Total Charge           Charge          ....    0
 Multiplicity           Mult            ....    1
 Number of Electrons    NEL             ....  464
 Basis Dimension        Dim             ....  984

ORBITAL ENERGIES
----------------

  NO   OCC          E(Eh)            E(eV)
   0   2.0000     -88.992496     -2421.6089
   1   2.0000     -88.991507     -2421.5820
   2   2.0000     -88.949486     -2420.4386
   3   2.0000     -88.947569     -2420.3864
   4   2.0000     -24.799585      -674.8310
   5   2.0000     -24.797776      -674.7818
   6   2.0000     -24.794942      -674.7047
   7   2.0000     -24.789556      -674.5581
   8   2.0000     -19.241807      -523.5962
   9   2.0000     -19.241764      -523.5950
  10   2.0000     -19.241462      -523.5868
  11   2.0000     -19.241074      -523.5762
  12   2.0000     -19.224460      -523.1242
  13   2.0000     -19.223475      -523.0973
  14   2.0000     -19.214952      -522.8654
  15   2.0000     -19.209236      -522.7099
  16   2.0000     -14.653391      -398.7390
  17   2.0000     -14.653288      -398.7362
  18   2.0000     -14.506610      -394.7449
  19   2.0000     -14.492232      -394.3537
  20   2.0000     -10.390969      -282.7526
  21   2.0000     -10.381763      -282.5021
  22   2.0000     -10.380658      -282.4721
  23   2.0000     -10.379716      -282.4464
  24   2.0000     -10.377754      -282.3930
  25   2.0000     -10.376797      -282.3670
  26   2.0000     -10.375817      -282.3403
  27   2.0000     -10.371798      -282.2310
  28   2.0000     -10.371715      -282.2287
  29   2.0000     -10.364043      -282.0200
  30   2.0000     -10.364034      -282.0197
  31   2.0000     -10.349273      -281.6180
  32   2.0000     -10.348660      -281.6014
  33   2.0000     -10.336648      -281.2745
  34   2.0000     -10.320055      -280.8230
  35   2.0000     -10.318521      -280.7812
  36   2.0000     -10.316191      -280.7178
  37   2.0000     -10.315355      -280.6951
  38   2.0000     -10.314990      -280.6851
  39   2.0000     -10.313976      -280.6576
  40   2.0000     -10.312788      -280.6252
  41   2.0000     -10.312060      -280.6054
  42   2.0000     -10.311619      -280.5934
  43   2.0000     -10.309590      -280.5382
  44   2.0000     -10.308372      -280.5051
  45   2.0000     -10.306362      -280.4504
  46   2.0000     -10.305911      -280.4381
  47   2.0000     -10.305391      -280.4239
  48   2.0000     -10.305312      -280.4218
  49   2.0000     -10.304727      -280.4059
  50   2.0000     -10.303428      -280.3705
  51   2.0000     -10.301010      -280.3047
  52   2.0000     -10.299996      -280.2771
  53   2.0000     -10.299406      -280.2611
  54   2.0000     -10.291932      -280.0577
  55   2.0000     -10.288633      -279.9679
  56   2.0000     -10.288070      -279.9526
  57   2.0000     -10.286683      -279.9149
  58   2.0000     -10.285474      -279.8820
  59   2.0000     -10.282127      -279.7909
  60   2.0000     -10.279442      -279.7178
  61   2.0000     -10.278145      -279.6825
  62   2.0000      -8.087566      -220.0739
  63   2.0000      -8.087489      -220.0718
  64   2.0000      -8.045287      -218.9234
  65   2.0000      -8.043593      -218.8773
  66   2.0000      -6.057470      -164.8321
  67   2.0000      -6.057140      -164.8232
  68   2.0000      -6.052941      -164.7089
  69   2.0000      -6.052826      -164.7058
  70   2.0000      -6.048974      -164.6009
  71   2.0000      -6.048572      -164.5900
  72   2.0000      -6.015218      -163.6824
  73   2.0000      -6.013283      -163.6297
  74   2.0000      -6.011051      -163.5690
  75   2.0000      -6.009199      -163.5186
  76   2.0000      -6.005869      -163.4280
  77   2.0000      -6.004584      -163.3930
  78   2.0000      -1.323096       -36.0033
  79   2.0000      -1.321436       -35.9581
  80   2.0000      -1.313414       -35.7398
  81   2.0000      -1.312890       -35.7256
  82   2.0000      -1.312182       -35.7063
  83   2.0000      -1.308232       -35.5988
  84   2.0000      -1.142469       -31.0882
  85   2.0000      -1.141547       -31.0631
  86   2.0000      -1.141060       -31.0498
  87   2.0000      -1.137709       -30.9586
  88   2.0000      -1.129732       -30.7416
  89   2.0000      -1.125440       -30.6248
  90   2.0000      -1.107562       -30.1383
  91   2.0000      -1.100824       -29.9549
  92   2.0000      -1.015161       -27.6239
  93   2.0000      -1.011113       -27.5138
  94   2.0000      -0.999991       -27.2111
  95   2.0000      -0.995032       -27.0762
  96   2.0000      -0.993097       -27.0235
  97   2.0000      -0.978469       -26.6255
  98   2.0000      -0.942845       -25.6561
  99   2.0000      -0.936221       -25.4759
 100   2.0000      -0.926073       -25.1997
 101   2.0000      -0.924657       -25.1612
 102   2.0000      -0.910951       -24.7882
 103   2.0000      -0.901614       -24.5342
 104   2.0000      -0.890991       -24.2451
 105   2.0000      -0.880148       -23.9500
 106   2.0000      -0.866313       -23.5736
 107   2.0000      -0.862847       -23.4793
 108   2.0000      -0.857552       -23.3352
 109   2.0000      -0.855601       -23.2821
 110   2.0000      -0.854887       -23.2627
 111   2.0000      -0.844505       -22.9802
 112   2.0000      -0.830175       -22.5902
 113   2.0000      -0.827351       -22.5134
 114   2.0000      -0.813376       -22.1331
 115   2.0000      -0.800071       -21.7710
 116   2.0000      -0.790559       -21.5122
 117   2.0000      -0.770495       -20.9662
 118   2.0000      -0.764752       -20.8100
 119   2.0000      -0.763422       -20.7738
 120   2.0000      -0.760412       -20.6919
 121   2.0000      -0.744251       -20.2521
 122   2.0000      -0.731684       -19.9101
 123   2.0000      -0.728025       -19.8106
 124   2.0000      -0.712088       -19.3769
 125   2.0000      -0.698235       -18.9999
 126   2.0000      -0.693446       -18.8696
 127   2.0000      -0.691760       -18.8238
 128   2.0000      -0.684789       -18.6341
 129   2.0000      -0.678826       -18.4718
 130   2.0000      -0.673500       -18.3269
 131   2.0000      -0.670392       -18.2423
 132   2.0000      -0.664698       -18.0874
 133   2.0000      -0.655081       -17.8256
 134   2.0000      -0.647293       -17.6137
 135   2.0000      -0.645071       -17.5533
 136   2.0000      -0.638437       -17.3727
 137   2.0000      -0.636376       -17.3167
 138   2.0000      -0.635011       -17.2795
 139   2.0000      -0.634572       -17.2676
 140   2.0000      -0.634388       -17.2626
 141   2.0000      -0.632393       -17.2083
 142   2.0000      -0.629545       -17.1308
 143   2.0000      -0.625897       -17.0315
 144   2.0000      -0.623384       -16.9631
 145   2.0000      -0.621701       -16.9174
 146   2.0000      -0.608875       -16.5683
 147   2.0000      -0.599846       -16.3226
 148   2.0000      -0.599131       -16.3032
 149   2.0000      -0.597197       -16.2506
 150   2.0000      -0.592111       -16.1122
 151   2.0000      -0.588446       -16.0124
 152   2.0000      -0.583569       -15.8797
 153   2.0000      -0.580768       -15.8035
 154   2.0000      -0.579009       -15.7556
 155   2.0000      -0.573425       -15.6037
 156   2.0000      -0.569708       -15.5025
 157   2.0000      -0.567541       -15.4436
 158   2.0000      -0.565683       -15.3930
 159   2.0000      -0.564499       -15.3608
 160   2.0000      -0.562693       -15.3117
 161   2.0000      -0.559558       -15.2264
 162   2.0000      -0.554773       -15.0961
 163   2.0000      -0.550812       -14.9884
 164   2.0000      -0.548671       -14.9301
 165   2.0000      -0.545427       -14.8418
 166   2.0000      -0.541784       -14.7427
 167   2.0000      -0.540070       -14.6961
 168   2.0000      -0.536279       -14.5929
 169   2.0000      -0.532373       -14.4866
 170   2.0000      -0.532191       -14.4817
 171   2.0000      -0.526169       -14.3178
 172   2.0000      -0.525343       -14.2953
 173   2.0000      -0.521781       -14.1984
 174   2.0000      -0.518566       -14.1109
 175   2.0000      -0.516993       -14.0681
 176   2.0000      -0.514232       -13.9930
 177   2.0000      -0.512587       -13.9482
 178   2.0000      -0.509420       -13.8620
 179   2.0000      -0.507782       -13.8175
 180   2.0000      -0.500716       -13.6252
 181   2.0000      -0.499990       -13.6054
 182   2.0000      -0.497666       -13.5422
 183   2.0000      -0.495954       -13.4956
 184   2.0000      -0.493714       -13.4346
 185   2.0000      -0.488646       -13.2967
 186   2.0000      -0.482183       -13.1209
 187   2.0000      -0.478029       -13.0078
 188   2.0000      -0.475076       -12.9275
 189   2.0000      -0.473042       -12.8721
 190   2.0000      -0.471628       -12.8337
 191   2.0000      -0.471338       -12.8258
 192   2.0000      -0.468902       -12.7595
 193   2.0000      -0.465126       -12.6567
 194   2.0000      -0.462465       -12.5843
 195   2.0000      -0.459898       -12.5145
 196   2.0000      -0.459326       -12.4989
 197   2.0000      -0.458042       -12.4639
 198   2.0000      -0.453249       -12.3335
 199   2.0000      -0.451413       -12.2836
 200   2.0000      -0.446684       -12.1549
 201   2.0000      -0.441121       -12.0035
 202   2.0000      -0.436609       -11.8807
 203   2.0000      -0.428358       -11.6562
 204   2.0000      -0.426033       -11.5930
 205   2.0000      -0.415817       -11.3150
 206   2.0000      -0.401551       -10.9268
 207   2.0000      -0.389553       -10.6003
 208   2.0000      -0.388820       -10.5803
 209   2.0000      -0.385234       -10.4828
 210   2.0000      -0.382817       -10.4170
 211   2.0000      -0.379823       -10.3355
 212   2.0000      -0.370850       -10.0913
 213   2.0000      -0.370531       -10.0827
 214   2.0000      -0.370192       -10.0734
 215   2.0000      -0.364109        -9.9079
 216   2.0000      -0.360817        -9.8183
 217   2.0000      -0.359680        -9.7874
 218   2.0000      -0.356236        -9.6937
 219   2.0000      -0.353798        -9.6273
 220   2.0000      -0.347362        -9.4522
 221   2.0000      -0.342397        -9.3171
 222   2.0000      -0.332056        -9.0357
 223   2.0000      -0.328788        -8.9468
 224   2.0000      -0.328355        -8.9350
 225   2.0000      -0.326816        -8.8931
 226   2.0000      -0.324866        -8.8401
 227   2.0000      -0.323111        -8.7923
 228   2.0000      -0.304090        -8.2747
 229   2.0000      -0.290505        -7.9050
 230   2.0000      -0.265884        -7.2351
 231   2.0000      -0.211730        -5.7615
 232   0.0000      -0.092917        -2.5284
 233   0.0000      -0.076678        -2.0865
 234   0.0000      -0.072227        -1.9654
 235   0.0000      -0.057691        -1.5698
 236   0.0000      -0.054571        -1.4849

MULLIKEN ATOMIC CHARGES
-----------------------
   0 C :   -0.189719
   1 C :    0.198925
   2 O :   -0.189954
   3 C :   -0.003556
   4 C :   -0.059536
   5 C :    0.155743
   6 O :   -0.139816
   7 C :    0.192015
   8 C :   -0.035489
   9 C :   -0.033901
  10 C :    0.201653
  11 F :   -0.166596
  12 F :   -0.159618
  13 C :    0.049620
  14 N :    0.004265
  15 C :   -0.119459
  16 S :    0.149710
  17 C :   -0.002618
  18 N :    0.274615
  19 O :   -0.246304
  20 O :   -0.264922
  21 C :    0.005105
  22 C :    0.150197
  23 C :   -0.072125
  24 C :    0.021777
  25 C :   -0.012579
  26 C :   -0.032887
  27 C :    0.039070
  28 C :    0.032541
  29 C :   -0.051363
  30 S :    0.089674
  31 C :   -0.042887
  32 C :    0.023908
  33 C :    0.006263
  34 C :   -0.078080
  35 S :    0.140134
  36 C :    0.046841
  37 N :    0.026171
  38 C :   -0.127452
  39 S :    0.137714
  40 C :    0.006536
  41 N :    0.279135
  42 O :   -0.250012
  43 O :   -0.268753
  44 C :   -0.009388
  45 C :    0.117979
  46 C :   -0.017681
  47 C :    0.007736
  48 C :   -0.024272
  49 C :   -0.127456
  50 C :    0.163197
  51 O :   -0.116732
  52 C :   -0.020213
  53 C :   -0.044465
  54 C :    0.176400
  55 O :   -0.177100
  56 C :    0.181216
  57 C :   -0.035831
  58 C :   -0.030211
  59 C :    0.199047
  60 F :   -0.154485
  61 F :   -0.176982
  62 H :    0.008921
  63 H :   -0.003683
  64 H :    0.037253
  65 H :    0.183774
  66 H :    0.011436
  67 H :    0.005324
  68 H :   -0.015128
  69 H :   -0.010510
  70 H :   -0.011743
  71 H :   -0.014002
  72 H :   -0.010136
  73 H :   -0.022141
  74 H :    0.025488
  75 H :    0.141113
  76 H :    0.017758
  77 H :    0.001847
  78 H :    0.020161
  79 H :    0.013180
  80 H :    0.011282
  81 H :    0.015062
Sum of atomic charges:    0.0000000

LOEWDIN ATOMIC CHARGES
----------------------
   0 C :   -0.181030
   1 C :    0.093582
   2 O :   -0.162180
   3 C :   -0.055174
   4 C :   -0.064152
   5 C :    0.074111
   6 O :   -0.148765
   7 C :    0.089791
   8 C :   -0.023203
   9 C :   -0.032333
  10 C :    0.092776
  11 F :   -0.044900
  12 F :   -0.040192
  13 C :    0.116446
  14 N :    0.083055
  15 C :   -0.111527
  16 S :    0.459272
  17 C :   -0.205011
  18 N :    0.272665
  19 O :   -0.212835
  20 O :   -0.231563
  21 C :    0.006944
  22 C :   -0.082847
  23 C :   -0.048613
  24 C :   -0.024154
  25 C :   -0.067005
  26 C :   -0.135406
  27 C :   -0.033134
  28 C :   -0.032951
  29 C :   -0.181756
  30 S :    0.413585
  31 C :   -0.174700
  32 C :   -0.014816
  33 C :   -0.058579
  34 C :   -0.181501
  35 S :    0.416980
  36 C :   -0.016167
  37 N :    0.062944
  38 C :   -0.080941
  39 S :    0.432779
  40 C :   -0.216255
  41 N :    0.273618
  42 O :   -0.216245
  43 O :   -0.234632
  44 C :    0.011742
  45 C :   -0.122425
  46 C :    0.024996
  47 C :   -0.056738
  48 C :    0.085401
  49 C :   -0.132993
  50 C :    0.083910
  51 O :   -0.126507
  52 C :   -0.054818
  53 C :   -0.063920
  54 C :    0.085488
  55 O :   -0.165024
  56 C :    0.083626
  57 C :   -0.032489
  58 C :   -0.019293
  59 C :    0.096919
  60 F :   -0.037908
  61 F :   -0.052568
  62 H :    0.044406
  63 H :    0.038716
  64 H :    0.037319
  65 H :    0.090514
  66 H :    0.045986
  67 H :    0.010376
  68 H :    0.027966
  69 H :    0.033436
  70 H :    0.033404
  71 H :    0.031285
  72 H :    0.034006
  73 H :    0.023948
  74 H :    0.034727
  75 H :    0.089255
  76 H :    0.047942
  77 H :    0.038891
  78 H :    0.025124
  79 H :    0.043075
  80 H :    0.038708
  81 H :    0.047534

  Mayer bond orders larger than 0.100000
B(  0-C ,  1-C ) :   1.0258 B(  0-C ,  5-C ) :   1.0223 B(  0-C , 13-C ) :   1.5067
B(  1-C ,  2-O ) :   2.0928 B(  1-C ,  3-C ) :   0.9334 B(  2-O , 65-H ) :   0.1258
B(  3-C ,  4-C ) :   1.3793 B(  3-C , 10-C ) :   1.3237 B(  4-C ,  5-C ) :   0.8790
B(  4-C ,  7-C ) :   1.3341 B(  5-C ,  6-O ) :   2.2680 B(  7-C ,  8-C ) :   1.3274
B(  7-C , 12-F ) :   1.1890 B(  8-C ,  9-C ) :   1.3533 B(  8-C , 62-H ) :   0.9941
B(  9-C , 10-C ) :   1.3267 B(  9-C , 63-H ) :   0.9886 B( 10-C , 11-F ) :   1.1716
B( 13-C , 14-N ) :   1.3213 B( 13-C , 64-H ) :   0.9387 B( 14-N , 15-C ) :   1.2077
B( 14-N , 65-H ) :   0.8311 B( 15-C , 16-S ) :   1.1194 B( 15-C , 22-C ) :   1.3551
B( 16-S , 17-C ) :   1.0746 B( 17-C , 18-N ) :   0.9667 B( 17-C , 21-C ) :   1.5044
B( 18-N , 19-O ) :   1.5379 B( 18-N , 20-O ) :   1.5103 B( 19-O , 20-O ) :   0.2587
B( 21-C , 22-C ) :   1.2055 B( 21-C , 66-H ) :   1.0023 B( 22-C , 23-C ) :   1.1280
B( 23-C , 24-C ) :   1.6548 B( 23-C , 67-H ) :   0.9373 B( 24-C , 25-C ) :   1.1789
B( 24-C , 68-H ) :   0.9695 B( 25-C , 26-C ) :   1.5706 B( 25-C , 69-H ) :   0.9612
B( 26-C , 27-C ) :   1.1548 B( 26-C , 30-S ) :   1.0466 B( 27-C , 28-C ) :   1.5821
B( 27-C , 70-H ) :   0.9970 B( 28-C , 29-C ) :   1.1932 B( 28-C , 71-H ) :   0.9932
B( 29-C , 30-S ) :   1.0587 B( 29-C , 31-C ) :   1.4793 B( 31-C , 32-C ) :   1.2053
B( 31-C , 35-S ) :   1.0493 B( 32-C , 33-C ) :   1.6270 B( 32-C , 72-H ) :   0.9917
B( 33-C , 34-C ) :   1.1213 B( 33-C , 73-H ) :   0.9803 B( 34-C , 35-S ) :   1.0548
B( 34-C , 36-C ) :   1.5949 B( 36-C , 37-N ) :   1.1485 B( 36-C , 74-H ) :   0.9315
B( 37-N , 38-C ) :   1.2615 B( 37-N , 75-H ) :   0.8899 B( 38-C , 39-S ) :   1.1320
B( 38-C , 45-C ) :   1.3003 B( 39-S , 40-C ) :   1.0537 B( 40-C , 41-N ) :   0.9779
B( 40-C , 44-C ) :   1.5022 B( 41-N , 42-O ) :   1.5311 B( 41-N , 43-O ) :   1.5007
B( 42-O , 43-O ) :   0.2572 B( 44-C , 45-C ) :   1.1942 B( 44-C , 76-H ) :   1.0073
B( 45-C , 46-C ) :   1.1052 B( 46-C , 47-C ) :   1.6135 B( 46-C , 77-H ) :   0.9690
B( 47-C , 48-C ) :   1.1459 B( 47-C , 78-H ) :   0.9491 B( 48-C , 49-C ) :   1.5892
B( 48-C , 79-H ) :   0.9780 B( 49-C , 50-C ) :   0.9594 B( 49-C , 54-C ) :   1.0131
B( 50-C , 51-O ) :   2.3158 B( 50-C , 52-C ) :   0.8789 B( 52-C , 53-C ) :   1.3885
B( 52-C , 59-C ) :   1.3008 B( 53-C , 54-C ) :   0.9088 B( 53-C , 56-C ) :   1.3248
B( 54-C , 55-O ) :   2.1201 B( 56-C , 57-C ) :   1.3507 B( 56-C , 61-F ) :   1.1386
B( 57-C , 58-C ) :   1.3392 B( 57-C , 80-H ) :   0.9885 B( 58-C , 59-C ) :   1.3433
B( 58-C , 81-H ) :   0.9918 B( 59-C , 60-F ) :   1.2074

-----------------------------------------------------------------------------
         ABSORPTION SPECTRUM VIA TRANSITION ELECTRIC DIPOLE MOMENTS
-----------------------------------------------------------------------------
State   Energy  Wavelength   fosc         T2         TX        TY        TZ
        (cm-1)    (nm)                  (au**2)     (au)      (au)      (au)
-----------------------------------------------------------------------------
   0   10831.3    923.3   0.315605644   9.59270  -2.57175  -1.21639  -1.22441
   1   14037.4    712.4   0.080043458   1.87721  -0.72826   0.68966  -0.93339
   2   16250.4    615.4   0.537930278  10.89774   2.98516   1.38588  -0.25673
   3   17195.0    581.6   0.062308116   1.19294  -0.97355  -0.28430  -0.40536
   4   20695.6    483.2   0.036730039   0.58428  -0.53001   0.34745  -0.42736
   5   20871.7    479.1   0.059664108   0.94109   0.76308   0.40579  -0.44060
   6   22032.5    453.9   0.393072268   5.87331  -0.91544   1.15434  -1.92426
   7   23623.5    423.3   0.161279291   2.24755  -0.88265  -0.59404   1.05622
   8   25548.3    391.4   0.805518802  10.37980   3.14242   0.71059  -0.00904
   9   26177.3    382.0   0.097980506   1.23223   1.04553   0.33532   0.16325
  10   27022.0    370.1   0.317515592   3.86832  -1.70608  -0.72098   0.66167
  11   27879.1    358.7   0.137540677   1.62416  -0.74367  -0.59221   0.84876
  12   28045.5    356.6   0.087734285   1.02987  -0.99176  -0.17325   0.12754
  13   28448.3    351.5   0.188993408   2.18709   1.37456  -0.02644   0.54495
  14   29844.2    335.1   0.010857285   0.11977  -0.31516   0.07935  -0.11892
  15   30095.1    332.3   0.025752134   0.28170  -0.48688   0.04935  -0.20547
  16   30129.7    331.9   0.051697469   0.56487   0.67551   0.02361   0.32864
  17   30350.0    329.5   0.010874691   0.11796   0.06967   0.22070  -0.25377
  18   30819.8    324.5   0.009212459   0.09841  -0.22484  -0.12144   0.18195
  19   31048.8    322.1   0.207594017   2.20113   1.13927   0.56177  -0.76656
  20   31184.4    320.7   0.075024129   0.79203   0.75238   0.28463  -0.38071
  21   31466.4    317.8   0.002214879   0.02317   0.08674  -0.00230  -0.12508
  22   31980.0    312.7   0.031361405   0.32284   0.54142   0.12821  -0.11518
  23   32371.8    308.9   0.016257256   0.16533  -0.26350   0.19856  -0.23764
  24   32502.6    307.7   0.052402412   0.53077   0.04616  -0.18625   0.70282
  25   32632.5    306.4   0.032783725   0.33074  -0.31340  -0.31259   0.36715
  26   32976.3    303.2   0.088253300   0.88106  -0.91045  -0.22819  -0.00769
  27   33435.2    299.1   0.029259790   0.28810  -0.46397  -0.19716   0.18427
  28   33758.0    296.2   0.144271334   1.40695   0.71590   0.58983  -0.73929
  29   34027.1    293.9   0.033508858   0.32420   0.11536   0.34399  -0.43882
  30   34124.6    293.0   0.036011207   0.34741  -0.51725  -0.28243  -0.00999
  31   34528.8    289.6   0.082747457   0.78895  -0.81168  -0.35807  -0.04375
  32   34863.1    286.8   0.254295695   2.40131  -1.38675  -0.55365   0.41435
  33   35083.8    285.0   0.005593139   0.05248  -0.21143  -0.08514  -0.02302
  34   35202.4    284.1   0.016541736   0.15470  -0.36793  -0.12824   0.05365
  35   35347.0    282.9   0.022718165   0.21159  -0.44553  -0.03557   0.10875
  36   35627.4    280.7   0.044285721   0.40922   0.62140   0.12225  -0.09023
  37   35769.6    279.6   0.014379771   0.13235   0.20165  -0.00965   0.30264
  38   36234.5    276.0   0.062153031   0.56470   0.65381   0.30719  -0.20705
  39   36336.4    275.2   0.004958617   0.04493   0.00889  -0.21147  -0.01122
  40   36786.1    271.8   0.034238765   0.30642   0.47113   0.23505  -0.17089
  41   36917.0    270.9   0.009313745   0.08306   0.17762   0.20607  -0.09509
  42   37116.5    269.4   0.012268788   0.10882  -0.08431   0.03289  -0.31722
  43   37424.8    267.2   0.114753415   1.00944   0.88831   0.33228  -0.33158
  44   37555.8    266.3   0.097677959   0.85624  -0.75908  -0.23515   0.47407
  45   37838.9    264.3   0.036289234   0.31573   0.19999   0.15107  -0.50290
  46   38059.9    262.7   0.012055637   0.10428  -0.12457   0.21048  -0.21085
  47   38240.1    261.5   0.012199059   0.10502  -0.13471   0.00077  -0.29475
  48   38517.5    259.6   0.013955032   0.11927   0.26970   0.15926  -0.14551
  49   38708.4    258.3   0.125962988   1.07131  -0.12355  -0.56409   0.85898
  50   38824.2    257.6   0.016986648   0.14404   0.03518   0.16707  -0.33895
  51   38914.2    257.0   0.001089335   0.00922  -0.07962  -0.05102  -0.01655
  52   39014.9    256.3   0.038355687   0.32365  -0.14945   0.24398  -0.49172
  53   39129.2    255.6   0.011279410   0.09490   0.25487  -0.04667  -0.16662
  54   39331.0    254.3   0.023161605   0.19387  -0.37911  -0.07881   0.20961
  55   39409.5    253.7   0.012414608   0.10371   0.28529   0.00988  -0.14907
  56   39544.9    252.9   0.007577093   0.06308   0.05310  -0.13440   0.20542
  57   39671.5    252.1   0.071114910   0.59014   0.01169   0.25660  -0.72399
  58   40116.9    249.3   0.003456289   0.02836   0.15336   0.05406   0.04384
  59   40281.4    248.3   0.004566733   0.03732   0.15511  -0.03689   0.10910

FINAL SINGLE POINT ENERGY     -4421.288444830732

DIPOLE MOMENT
-------------
                                X             Y             Z
Electronic contribution:      7.47742     -10.56590      20.67909
Nuclear contribution   :     -8.07081      11.71677     -23.66653
                        -----------------------------------------
Total Dipole Moment    :     -0.59339       1.15087      -2.98744
                        -----------------------------------------
Magnitude (a.u.)       :      3.25598
Magnitude (Debye)      :      8.27604

Rotational constants in cm-1:     0.001981     0.000849     0.000658
Rotational constants in MHz :    59.390643    25.442705    19.721644

                             ****ORCA TERMINATED NORMALLY****
TOTAL RUN TIME: 0 days 0 hours 9 minutes 21 seconds 237 msec
