                         Program Version 4.2.0 -  RELEASE  -
|  1> # ORCA input file
|  2> # SCF done       -172.050483116362          0.000505017671
|  3> ! CAM-B3LYP def2-SVP def2/J RIJCOSX Grid4 TightSCF
|  4> %maxcore 5000
|  5> %tddft
|  6>     Mode sTDDFT
|  7>     Ethresh 5.0
|  8>     maxcore 5000
|  9> end
| 10>
| 11> %pal
| 12>   nprocs 6
| 13>   end
| 14> * xyz 0 1
| 15>    C       -3.64141        -0.97664         7.37360
| 16>    C       -3.44148         0.37572         7.07072
| 17>    C       -2.55999         1.12606         7.85932
| 18>    C       -1.87948         0.52198         8.91872
| 19>    C       -2.08882        -0.80986         9.19129
| 20>    C       -2.97430        -1.56283         8.42108
| 21>    O       -2.33271         2.43983         7.63794
| 22>    C       -3.02021         3.08970         6.67354
| 23>    C       -2.67554         4.54190         6.59703
| 24>    C       -3.93585         2.46688         5.88305
| 25>    C       -4.16920         1.02216         5.98369
| 26>    O       -4.95313         0.45480         5.22891
| 27>    N       -4.67085         3.13253         4.89867
| 28>    C       -5.38301         4.29940         5.20030
| 29>    C       -5.56320         5.32992         4.33021
| 30>    S       -6.39918         6.65096         5.04306
| 31>    C       -6.52108         5.82105         6.54501
| 32>    C       -5.96339         4.57766         6.48961
| 33>    N       -5.96408         3.62515         7.48971
| 34>    C       -5.83969         3.82301         8.83001
| 35>    C       -5.55643         2.80134         9.67373
| 36>    C       -5.38605         2.92725        11.06679
| 37>    C       -4.98837         1.89995        11.87621
| 38>    C       -4.77612         1.93370        13.27770
| 39>    C       -4.35061         0.75879        13.81188
| 40>    C       -4.19131        -0.28326        12.86580
| 41>    S       -4.62775         0.28299        11.26475
| 42>    C       -3.74948        -1.56611        13.09242
| 43>    C       -3.34700        -2.14045        14.32304
| 44>    C       -2.94076        -3.43259        14.23782
| 45>    C       -2.98662        -3.98051        12.92328
| 46>    S       -3.57293        -2.74222        11.80284
| 47>    C       -2.60314        -5.20074        12.46052
| 48>    C       -2.20146        -6.33676        13.24846
| 49>    C       -2.72715        -6.58993        14.52612
| 50>    C       -2.29534        -7.68444        15.23198
| 51>    C       -1.33315        -8.55672        14.69391
| 52>    C       -0.83418        -8.33941        13.41692
| 53>    C       -1.28026        -7.24582        12.70493
| 54>    C       -1.06481        -9.59836        15.66122
| 55>    C       -1.86787        -9.37728        16.79307
| 56>    C       -2.72390        -8.14614        16.60564
| 57>    C       -4.22313        -8.49698        16.63582
| 58>    C       -4.60428        -9.55107        15.60349
| 59>    C       -2.42274        -7.08118        17.67565
| 60>    C       -0.95610        -6.66736        17.69872
| 61>    C       -1.80993       -10.22972        17.86733
| 62>    C       -0.93871       -11.33052        17.84450
| 63>    C       -0.14387       -11.53322        16.70929
| 64>    C       -0.20027       -10.68273        15.62336
| 65>    C       -0.91992       -12.20189        19.00103
| 66>    C       -0.10529       -13.25314        19.18697
| 67>    C       -0.10059       -14.13409        20.34038
| 68>    C        0.92092       -15.03016        20.49244
| 69>    O        1.01701       -15.91275        21.50608
| 70>    C        0.05164       -15.95660        22.45198
| 71>    C        0.18205       -16.89774        23.47453
| 72>    C       -0.78317       -16.97176        24.45355
| 73>    C       -1.88281       -16.11635        24.42916
| 74>    C       -2.00908       -15.18783        23.42258
| 75>    C       -1.04318       -15.09255        22.41656
| 76>    C       -1.18179       -14.09778        21.33883
| 77>    O       -2.13247       -13.33179        21.31163
| 78>    C        2.09431       -15.16065        19.56828
| 79>    H       -4.33542        -1.52965         6.75894
| 80>    H       -1.20767         1.12296         9.51086
| 81>    H       -1.57136        -1.27506        10.01569
| 82>    H       -3.13686        -2.60193         8.65911
| 83>    H       -3.34139         5.13464         7.22511
| 84>    H       -2.76208         4.89364         5.57299
| 85>    H       -1.65839         4.68352         6.95354
| 86>    H       -5.13748         2.46679         4.28803
| 87>    H       -5.24542         5.38634         3.30924
| 88>    H       -7.02658         6.28557         7.36647
| 89>    H       -5.82287         2.67259         7.17909
| 90>    H       -5.95752         4.83953         9.17409
| 91>    H       -5.42429         1.80915         9.25728
| 92>    H       -5.55930         3.89296        11.52242
| 93>    H       -4.94554         2.83348        13.84337
| 94>    H       -4.14102         0.61008        14.85619
| 95>    H       -3.35978        -1.57348        15.23734
| 96>    H       -2.55484        -3.99491        15.06839
| 97>    H       -2.56651        -5.33203        11.38671
| 98>    H       -3.50063        -5.94991        14.92212
| 99>    H       -0.11135        -9.01585        12.98490
|100>    H       -0.89726        -7.06137        11.71116
|101>    H       -4.79931        -7.58690        16.45383
|102>    H       -4.47666        -8.85983        17.63416
|103>    H       -4.37456        -9.20457        14.59812
|104>    H       -5.66972        -9.76253        15.66026
|105>    H       -4.05955       -10.47569        15.78083
|106>    H       -2.70195        -7.47867        18.65367
|107>    H       -3.04549        -6.20452        17.48217
|108>    H       -0.32075        -7.52459        17.90998
|109>    H       -0.78912        -5.91657        18.46809
|110>    H       -0.65869        -6.25053        16.73865
|111>    H       -2.42913       -10.06751        18.73817
|112>    H        0.52732       -12.37789        16.67258
|113>    H        0.42027       -10.86115        14.75715
|114>    H       -1.63873       -11.95789        19.76864
|115>    H        0.62557       -13.49447        18.42852
|116>    H        1.04052       -17.55097        23.47489
|117>    H       -0.68565       -17.69954        25.24495
|118>    H       -2.63303       -16.18564        25.20190
|119>    H       -2.84817       -14.51036        23.37513
|120>    H        1.77408       -15.48084        18.57797
|121>    H        2.77415       -15.90634        19.97268
|122>    H        2.62133       -14.21364        19.47292
|123> *
|124>
|125>                          ****END OF INPUT****

CARTESIAN COORDINATES (ANGSTROEM)
---------------------------------
  C     -3.641410   -0.976640    7.373600
  C     -3.441480    0.375720    7.070720
  C     -2.559990    1.126060    7.859320
  C     -1.879480    0.521980    8.918720
  C     -2.088820   -0.809860    9.191290
  C     -2.974300   -1.562830    8.421080
  O     -2.332710    2.439830    7.637940
  C     -3.020210    3.089700    6.673540
  C     -2.675540    4.541900    6.597030
  C     -3.935850    2.466880    5.883050
  C     -4.169200    1.022160    5.983690
  O     -4.953130    0.454800    5.228910
  N     -4.670850    3.132530    4.898670
  C     -5.383010    4.299400    5.200300
  C     -5.563200    5.329920    4.330210
  S     -6.399180    6.650960    5.043060
  C     -6.521080    5.821050    6.545010
  C     -5.963390    4.577660    6.489610
  N     -5.964080    3.625150    7.489710
  C     -5.839690    3.823010    8.830010
  C     -5.556430    2.801340    9.673730
  C     -5.386050    2.927250   11.066790
  C     -4.988370    1.899950   11.876210
  C     -4.776120    1.933700   13.277700
  C     -4.350610    0.758790   13.811880
  C     -4.191310   -0.283260   12.865800
  S     -4.627750    0.282990   11.264750
  C     -3.749480   -1.566110   13.092420
  C     -3.347000   -2.140450   14.323040
  C     -2.940760   -3.432590   14.237820
  C     -2.986620   -3.980510   12.923280
  S     -3.572930   -2.742220   11.802840
  C     -2.603140   -5.200740   12.460520
  C     -2.201460   -6.336760   13.248460
  C     -2.727150   -6.589930   14.526120
  C     -2.295340   -7.684440   15.231980
  C     -1.333150   -8.556720   14.693910
  C     -0.834180   -8.339410   13.416920
  C     -1.280260   -7.245820   12.704930
  C     -1.064810   -9.598360   15.661220
  C     -1.867870   -9.377280   16.793070
  C     -2.723900   -8.146140   16.605640
  C     -4.223130   -8.496980   16.635820
  C     -4.604280   -9.551070   15.603490
  C     -2.422740   -7.081180   17.675650
  C     -0.956100   -6.667360   17.698720
  C     -1.809930  -10.229720   17.867330
  C     -0.938710  -11.330520   17.844500
  C     -0.143870  -11.533220   16.709290
  C     -0.200270  -10.682730   15.623360
  C     -0.919920  -12.201890   19.001030
  C     -0.105290  -13.253140   19.186970
  C     -0.100590  -14.134090   20.340380
  C      0.920920  -15.030160   20.492440
  O      1.017010  -15.912750   21.506080
  C      0.051640  -15.956600   22.451980
  C      0.182050  -16.897740   23.474530
  C     -0.783170  -16.971760   24.453550
  C     -1.882810  -16.116350   24.429160
  C     -2.009080  -15.187830   23.422580
  C     -1.043180  -15.092550   22.416560
  C     -1.181790  -14.097780   21.338830
  O     -2.132470  -13.331790   21.311630
  C      2.094310  -15.160650   19.568280
  H     -4.335420   -1.529650    6.758940
  H     -1.207670    1.122960    9.510860
  H     -1.571360   -1.275060   10.015690
  H     -3.136860   -2.601930    8.659110
  H     -3.341390    5.134640    7.225110
  H     -2.762080    4.893640    5.572990
  H     -1.658390    4.683520    6.953540
  H     -5.137480    2.466790    4.288030
  H     -5.245420    5.386340    3.309240
  H     -7.026580    6.285570    7.366470
  H     -5.822870    2.672590    7.179090
  H     -5.957520    4.839530    9.174090
  H     -5.424290    1.809150    9.257280
  H     -5.559300    3.892960   11.522420
  H     -4.945540    2.833480   13.843370
  H     -4.141020    0.610080   14.856190
  H     -3.359780   -1.573480   15.237340
  H     -2.554840   -3.994910   15.068390
  H     -2.566510   -5.332030   11.386710
  H     -3.500630   -5.949910   14.922120
  H     -0.111350   -9.015850   12.984900
  H     -0.897260   -7.061370   11.711160
  H     -4.799310   -7.586900   16.453830
  H     -4.476660   -8.859830   17.634160
  H     -4.374560   -9.204570   14.598120
  H     -5.669720   -9.762530   15.660260
  H     -4.059550  -10.475690   15.780830
  H     -2.701950   -7.478670   18.653670
  H     -3.045490   -6.204520   17.482170
  H     -0.320750   -7.524590   17.909980
  H     -0.789120   -5.916570   18.468090
  H     -0.658690   -6.250530   16.738650
  H     -2.429130  -10.067510   18.738170
  H      0.527320  -12.377890   16.672580
  H      0.420270  -10.861150   14.757150
  H     -1.638730  -11.957890   19.768640
  H      0.625570  -13.494470   18.428520
  H      1.040520  -17.550970   23.474890
  H     -0.685650  -17.699540   25.244950
  H     -2.633030  -16.185640   25.201900
  H     -2.848170  -14.510360   23.375130
  H      1.774080  -15.480840   18.577970
  H      2.774150  -15.906340   19.972680
  H      2.621330  -14.213640   19.472920

 Total Charge           Charge          ....    0
 Multiplicity           Mult            ....    1
 Number of Electrons    NEL             ....  468
 Basis Dimension        Dim             .... 1128

ORBITAL ENERGIES
----------------

  NO   OCC          E(Eh)            E(eV)
   0   2.0000     -88.949506     -2420.4391
   1   2.0000     -88.928502     -2419.8676
   2   2.0000     -88.927450     -2419.8389
   3   2.0000     -19.292356      -524.9717
   4   2.0000     -19.288266      -524.8604
   5   2.0000     -19.187201      -522.1103
   6   2.0000     -19.179534      -521.9016
   7   2.0000     -14.444753      -393.0617
   8   2.0000     -14.420369      -392.3982
   9   2.0000     -10.355981      -281.8006
  10   2.0000     -10.347719      -281.5757
  11   2.0000     -10.346993      -281.5560
  12   2.0000     -10.344514      -281.4885
  13   2.0000     -10.343537      -281.4620
  14   2.0000     -10.343083      -281.4496
  15   2.0000     -10.317353      -280.7494
  16   2.0000     -10.313059      -280.6326
  17   2.0000     -10.306643      -280.4580
  18   2.0000     -10.301743      -280.3247
  19   2.0000     -10.296864      -280.1919
  20   2.0000     -10.292515      -280.0736
  21   2.0000     -10.290806      -280.0271
  22   2.0000     -10.286545      -279.9111
  23   2.0000     -10.284473      -279.8547
  24   2.0000     -10.284142      -279.8457
  25   2.0000     -10.280710      -279.7523
  26   2.0000     -10.279022      -279.7064
  27   2.0000     -10.277216      -279.6573
  28   2.0000     -10.275602      -279.6134
  29   2.0000     -10.275248      -279.6037
  30   2.0000     -10.273889      -279.5667
  31   2.0000     -10.273300      -279.5507
  32   2.0000     -10.273256      -279.5495
  33   2.0000     -10.272969      -279.5417
  34   2.0000     -10.272828      -279.5379
  35   2.0000     -10.272337      -279.5245
  36   2.0000     -10.272275      -279.5228
  37   2.0000     -10.271595      -279.5043
  38   2.0000     -10.271046      -279.4894
  39   2.0000     -10.270385      -279.4714
  40   2.0000     -10.269989      -279.4606
  41   2.0000     -10.267304      -279.3875
  42   2.0000     -10.266973      -279.3785
  43   2.0000     -10.264897      -279.3221
  44   2.0000     -10.264183      -279.3026
  45   2.0000     -10.261315      -279.2246
  46   2.0000     -10.260579      -279.2045
  47   2.0000     -10.259750      -279.1820
  48   2.0000     -10.259030      -279.1624
  49   2.0000     -10.258967      -279.1607
  50   2.0000     -10.258473      -279.1473
  51   2.0000     -10.256484      -279.0931
  52   2.0000     -10.256467      -279.0927
  53   2.0000     -10.256267      -279.0872
  54   2.0000     -10.256116      -279.0831
  55   2.0000     -10.255402      -279.0637
  56   2.0000     -10.254708      -279.0448
  57   2.0000     -10.253873      -279.0221
  58   2.0000     -10.253082      -279.0005
  59   2.0000     -10.252639      -278.9885
  60   2.0000     -10.250969      -278.9431
  61   2.0000     -10.250469      -278.9295
  62   2.0000     -10.237048      -278.5643
  63   2.0000     -10.233947      -278.4799
  64   2.0000      -8.045432      -218.9273
  65   2.0000      -8.024143      -218.3480
  66   2.0000      -8.023514      -218.3309
  67   2.0000      -6.014836      -163.6720
  68   2.0000      -6.010575      -163.5561
  69   2.0000      -6.007456      -163.4712
  70   2.0000      -5.993924      -163.1030
  71   2.0000      -5.993367      -163.0878
  72   2.0000      -5.989990      -162.9959
  73   2.0000      -5.989406      -162.9800
  74   2.0000      -5.984991      -162.8599
  75   2.0000      -5.984198      -162.8383
  76   2.0000      -1.205526       -32.8040
  77   2.0000      -1.200350       -32.6632
  78   2.0000      -1.105532       -30.0831
  79   2.0000      -1.098325       -29.8869
  80   2.0000      -1.057927       -28.7877
  81   2.0000      -1.018839       -27.7240
  82   2.0000      -0.978081       -26.6149
  83   2.0000      -0.973810       -26.4987
  84   2.0000      -0.962788       -26.1988
  85   2.0000      -0.956801       -26.0359
  86   2.0000      -0.955997       -26.0140
  87   2.0000      -0.951903       -25.9026
  88   2.0000      -0.931712       -25.3532
  89   2.0000      -0.917088       -24.9552
  90   2.0000      -0.904395       -24.6098
  91   2.0000      -0.891134       -24.2490
  92   2.0000      -0.890692       -24.2370
  93   2.0000      -0.875674       -23.8283
  94   2.0000      -0.867120       -23.5955
  95   2.0000      -0.862454       -23.4686
  96   2.0000      -0.860175       -23.4065
  97   2.0000      -0.848352       -23.0848
  98   2.0000      -0.837569       -22.7914
  99   2.0000      -0.833420       -22.6785
 100   2.0000      -0.829931       -22.5836
 101   2.0000      -0.826036       -22.4776
 102   2.0000      -0.824220       -22.4282
 103   2.0000      -0.818875       -22.2827
 104   2.0000      -0.817198       -22.2371
 105   2.0000      -0.812702       -22.1147
 106   2.0000      -0.807769       -21.9805
 107   2.0000      -0.803841       -21.8736
 108   2.0000      -0.794101       -21.6086
 109   2.0000      -0.785425       -21.3725
 110   2.0000      -0.777403       -21.1542
 111   2.0000      -0.756202       -20.5773
 112   2.0000      -0.748653       -20.3719
 113   2.0000      -0.739013       -20.1096
 114   2.0000      -0.729920       -19.8621
 115   2.0000      -0.722292       -19.6546
 116   2.0000      -0.711861       -19.3707
 117   2.0000      -0.709268       -19.3002
 118   2.0000      -0.708117       -19.2689
 119   2.0000      -0.694680       -18.9032
 120   2.0000      -0.683946       -18.6111
 121   2.0000      -0.679444       -18.4886
 122   2.0000      -0.675921       -18.3927
 123   2.0000      -0.670583       -18.2475
 124   2.0000      -0.666270       -18.1301
 125   2.0000      -0.663055       -18.0426
 126   2.0000      -0.659088       -17.9347
 127   2.0000      -0.656009       -17.8509
 128   2.0000      -0.648408       -17.6441
 129   2.0000      -0.646807       -17.6005
 130   2.0000      -0.640390       -17.4259
 131   2.0000      -0.634227       -17.2582
 132   2.0000      -0.626751       -17.0548
 133   2.0000      -0.620294       -16.8791
 134   2.0000      -0.611589       -16.6422
 135   2.0000      -0.605664       -16.4809
 136   2.0000      -0.599006       -16.2998
 137   2.0000      -0.597845       -16.2682
 138   2.0000      -0.592938       -16.1347
 139   2.0000      -0.585595       -15.9349
 140   2.0000      -0.581796       -15.8315
 141   2.0000      -0.579455       -15.7678
 142   2.0000      -0.573589       -15.6082
 143   2.0000      -0.567917       -15.4538
 144   2.0000      -0.566311       -15.4101
 145   2.0000      -0.565552       -15.3895
 146   2.0000      -0.561886       -15.2897
 147   2.0000      -0.558257       -15.1909
 148   2.0000      -0.550223       -14.9723
 149   2.0000      -0.544830       -14.8256
 150   2.0000      -0.537988       -14.6394
 151   2.0000      -0.533645       -14.5212
 152   2.0000      -0.530727       -14.4418
 153   2.0000      -0.523431       -14.2433
 154   2.0000      -0.521895       -14.2015
 155   2.0000      -0.518463       -14.1081
 156   2.0000      -0.514585       -14.0026
 157   2.0000      -0.512235       -13.9386
 158   2.0000      -0.511799       -13.9268
 159   2.0000      -0.509701       -13.8697
 160   2.0000      -0.508146       -13.8273
 161   2.0000      -0.507576       -13.8119
 162   2.0000      -0.506181       -13.7739
 163   2.0000      -0.504721       -13.7341
 164   2.0000      -0.503959       -13.7134
 165   2.0000      -0.500587       -13.6217
 166   2.0000      -0.498634       -13.5685
 167   2.0000      -0.498223       -13.5573
 168   2.0000      -0.494567       -13.4578
 169   2.0000      -0.492935       -13.4134
 170   2.0000      -0.487812       -13.2741
 171   2.0000      -0.486323       -13.2335
 172   2.0000      -0.481718       -13.1082
 173   2.0000      -0.481559       -13.1039
 174   2.0000      -0.480521       -13.0757
 175   2.0000      -0.477146       -12.9838
 176   2.0000      -0.476019       -12.9531
 177   2.0000      -0.473713       -12.8904
 178   2.0000      -0.471902       -12.8411
 179   2.0000      -0.470857       -12.8127
 180   2.0000      -0.467239       -12.7142
 181   2.0000      -0.466890       -12.7047
 182   2.0000      -0.463030       -12.5997
 183   2.0000      -0.459594       -12.5062
 184   2.0000      -0.457934       -12.4610
 185   2.0000      -0.456716       -12.4279
 186   2.0000      -0.455795       -12.4028
 187   2.0000      -0.452315       -12.3081
 188   2.0000      -0.449611       -12.2345
 189   2.0000      -0.447828       -12.1860
 190   2.0000      -0.442660       -12.0454
 191   2.0000      -0.441220       -12.0062
 192   2.0000      -0.439821       -11.9681
 193   2.0000      -0.439081       -11.9480
 194   2.0000      -0.436738       -11.8842
 195   2.0000      -0.432119       -11.7586
 196   2.0000      -0.430739       -11.7210
 197   2.0000      -0.428658       -11.6644
 198   2.0000      -0.423078       -11.5125
 199   2.0000      -0.422982       -11.5099
 200   2.0000      -0.418039       -11.3754
 201   2.0000      -0.415042       -11.2939
 202   2.0000      -0.414533       -11.2800
 203   2.0000      -0.413570       -11.2538
 204   2.0000      -0.407820       -11.0973
 205   2.0000      -0.404469       -11.0062
 206   2.0000      -0.399609       -10.8739
 207   2.0000      -0.395830       -10.7711
 208   2.0000      -0.392682       -10.6854
 209   2.0000      -0.385666       -10.4945
 210   2.0000      -0.383073       -10.4240
 211   2.0000      -0.381881       -10.3915
 212   2.0000      -0.377605       -10.2752
 213   2.0000      -0.374079       -10.1792
 214   2.0000      -0.370018       -10.0687
 215   2.0000      -0.356575        -9.7029
 216   2.0000      -0.339820        -9.2470
 217   2.0000      -0.331177        -9.0118
 218   2.0000      -0.329134        -8.9562
 219   2.0000      -0.326326        -8.8798
 220   2.0000      -0.320739        -8.7278
 221   2.0000      -0.318655        -8.6710
 222   2.0000      -0.314380        -8.5547
 223   2.0000      -0.310876        -8.4594
 224   2.0000      -0.309064        -8.4101
 225   2.0000      -0.308099        -8.3838
 226   2.0000      -0.303312        -8.2535
 227   2.0000      -0.302019        -8.2184
 228   2.0000      -0.300904        -8.1880
 229   2.0000      -0.285546        -7.7701
 230   2.0000      -0.259044        -7.0489
 231   2.0000      -0.257271        -7.0007
 232   2.0000      -0.238230        -6.4826
 233   2.0000      -0.191766        -5.2182
 234   0.0000      -0.055433        -1.5084
 235   0.0000      -0.019618        -0.5338
 236   0.0000      -0.017137        -0.4663
 237   0.0000      -0.011955        -0.3253
 238   0.0000       0.007539         0.2052

MULLIKEN ATOMIC CHARGES
-----------------------
   0 C :   -0.005137
   1 C :   -0.086951
   2 C :    0.178322
   3 C :   -0.021363
   4 C :    0.051047
   5 C :    0.040119
   6 O :   -0.201616
   7 C :   -0.057401
   8 C :    0.141885
   9 C :   -0.161526
  10 C :    0.178624
  11 O :   -0.214203
  12 N :   -0.050439
  13 C :    0.094219
  14 C :   -0.159718
  15 S :    0.109382
  16 C :   -0.203308
  17 C :    0.092057
  18 N :   -0.034310
  19 C :    0.065056
  20 C :   -0.028575
  21 C :   -0.008172
  22 C :   -0.037857
  23 C :    0.042761
  24 C :    0.011105
  25 C :   -0.037433
  26 S :    0.061089
  27 C :   -0.058434
  28 C :    0.017809
  29 C :    0.023703
  30 C :   -0.047401
  31 S :    0.054569
  32 C :   -0.007877
  33 C :    0.097851
  34 C :   -0.102385
  35 C :    0.008929
  36 C :    0.109660
  37 C :   -0.054201
  38 C :   -0.010863
  39 C :    0.108024
  40 C :    0.017362
  41 C :   -0.137969
  42 C :    0.070170
  43 C :    0.026575
  44 C :    0.069012
  45 C :    0.024557
  46 C :   -0.113281
  47 C :    0.129043
  48 C :   -0.016689
  49 C :   -0.046898
  50 C :    0.003115
  51 C :   -0.053147
  52 C :    0.022049
  53 C :   -0.065664
  54 O :   -0.199813
  55 C :    0.172835
  56 C :   -0.031095
  57 C :    0.034818
  58 C :    0.036314
  59 C :   -0.007126
  60 C :   -0.053953
  61 C :    0.164258
  62 O :   -0.198295
  63 C :    0.094129
  64 H :   -0.003937
  65 H :   -0.018241
  66 H :   -0.002010
  67 H :   -0.011124
  68 H :    0.041829
  69 H :    0.043610
  70 H :    0.026079
  71 H :    0.135848
  72 H :    0.006915
  73 H :    0.008853
  74 H :    0.142049
  75 H :    0.002371
  76 H :    0.000973
  77 H :   -0.024484
  78 H :   -0.020396
  79 H :   -0.020414
  80 H :   -0.019864
  81 H :   -0.013595
  82 H :   -0.019150
  83 H :   -0.035354
  84 H :   -0.039412
  85 H :   -0.034777
  86 H :   -0.003636
  87 H :   -0.002676
  88 H :    0.021123
  89 H :    0.006589
  90 H :    0.021811
  91 H :   -0.002254
  92 H :   -0.007857
  93 H :    0.022456
  94 H :    0.005041
  95 H :    0.019850
  96 H :   -0.037442
  97 H :   -0.041739
  98 H :   -0.043385
  99 H :    0.002892
 100 H :   -0.042932
 101 H :   -0.018173
 102 H :   -0.004554
 103 H :   -0.009777
 104 H :   -0.000996
 105 H :    0.051427
 106 H :    0.030469
 107 H :    0.050640
Sum of atomic charges:    0.0000000

LOEWDIN ATOMIC CHARGES
----------------------
   0 C :    0.016642
   1 C :   -0.098283
   2 C :    0.063844
   3 C :   -0.038460
   4 C :    0.003428
   5 C :   -0.030909
   6 O :    0.001011
   7 C :    0.050606
   8 C :   -0.049792
   9 C :   -0.090620
  10 C :    0.047918
  11 O :   -0.205436
  12 N :   -0.020143
  13 C :   -0.044278
  14 C :   -0.205495
  15 S :    0.432514
  16 C :   -0.233685
  17 C :   -0.035817
  18 N :    0.036553
  19 C :    0.046657
  20 C :   -0.109216
  21 C :   -0.040894
  22 C :   -0.169008
  23 C :   -0.030139
  24 C :   -0.049279
  25 C :   -0.172131
  26 S :    0.369354
  27 C :   -0.197101
  28 C :   -0.025581
  29 C :   -0.053161
  30 C :   -0.139239
  31 S :    0.358531
  32 C :   -0.066441
  33 C :   -0.022364
  34 C :   -0.027966
  35 C :    0.003624
  36 C :   -0.022248
  37 C :   -0.020917
  38 C :   -0.021766
  39 C :   -0.019208
  40 C :    0.000578
  41 C :   -0.035193
  42 C :   -0.011188
  43 C :   -0.057389
  44 C :   -0.012288
  45 C :   -0.058494
  46 C :   -0.018921
  47 C :   -0.024808
  48 C :   -0.018298
  49 C :   -0.021888
  50 C :   -0.004792
  51 C :   -0.036768
  52 C :   -0.109792
  53 C :    0.080889
  54 O :   -0.000654
  55 C :    0.059528
  56 C :   -0.041316
  57 C :   -0.002859
  58 C :   -0.032405
  59 C :    0.020855
  60 C :   -0.085623
  61 C :    0.078222
  62 O :   -0.180645
  63 C :   -0.055003
  64 H :    0.037523
  65 H :    0.035256
  66 H :    0.027731
  67 H :    0.026581
  68 H :    0.043705
  69 H :    0.046855
  70 H :    0.040231
  71 H :    0.080412
  72 H :    0.023534
  73 H :    0.019564
  74 H :    0.088500
  75 H :    0.027527
  76 H :    0.020151
  77 H :    0.029627
  78 H :    0.030508
  79 H :    0.028402
  80 H :    0.030083
  81 H :    0.031125
  82 H :    0.025527
  83 H :    0.024230
  84 H :    0.025054
  85 H :    0.024408
  86 H :    0.019078
  87 H :    0.019983
  88 H :    0.025451
  89 H :    0.023044
  90 H :    0.025866
  91 H :    0.020263
  92 H :    0.017369
  93 H :    0.026412
  94 H :    0.021976
  95 H :    0.023895
  96 H :    0.025672
  97 H :    0.021408
  98 H :    0.024119
  99 H :    0.030080
 100 H :    0.018659
 101 H :    0.034570
 102 H :    0.032522
 103 H :    0.030346
 104 H :    0.037637
 105 H :    0.045868
 106 H :    0.040047
 107 H :    0.046344

  Mayer bond orders larger than 0.100000
B(  0-C ,  1-C ) :   1.3137 B(  0-C ,  5-C ) :   1.4157 B(  0-C , 64-H ) :   0.9999
B(  1-C ,  2-C ) :   1.3160 B(  1-C , 10-C ) :   1.0026 B(  2-C ,  3-C ) :   1.3472
B(  2-C ,  6-O ) :   1.1047 B(  3-C ,  4-C ) :   1.4181 B(  3-C , 65-H ) :   0.9953
B(  4-C ,  5-C ) :   1.3099 B(  4-C , 66-H ) :   0.9884 B(  5-C , 67-H ) :   0.9927
B(  6-O ,  7-C ) :   1.1213 B(  7-C ,  8-C ) :   1.1223 B(  7-C ,  9-C ) :   1.5691
B(  8-C , 68-H ) :   0.9332 B(  8-C , 69-H ) :   0.9387 B(  8-C , 70-H ) :   0.9301
B(  9-C , 10-C ) :   1.0304 B(  9-C , 12-N ) :   1.1716 B( 10-C , 11-O ) :   2.1367
B( 12-N , 13-C ) :   1.0828 B( 12-N , 71-H ) :   0.8903 B( 13-C , 14-C ) :   1.5616
B( 13-C , 17-C ) :   1.2321 B( 14-C , 15-S ) :   1.1642 B( 14-C , 72-H ) :   0.9737
B( 15-S , 16-C ) :   1.1457 B( 16-C , 17-C ) :   1.5168 B( 16-C , 73-H ) :   0.9737
B( 17-C , 18-N ) :   1.1107 B( 18-N , 19-C ) :   1.1731 B( 18-N , 74-H ) :   0.9157
B( 19-C , 20-C ) :   1.6201 B( 19-C , 75-H ) :   0.9762 B( 20-C , 21-C ) :   1.1636
B( 20-C , 76-H ) :   0.9576 B( 21-C , 22-C ) :   1.6010 B( 21-C , 77-H ) :   0.9791
B( 22-C , 23-C ) :   1.1346 B( 22-C , 26-S ) :   1.0149 B( 23-C , 24-C ) :   1.6014
B( 23-C , 78-H ) :   0.9974 B( 24-C , 25-C ) :   1.1772 B( 24-C , 79-H ) :   0.9929
B( 25-C , 26-S ) :   1.0513 B( 25-C , 27-C ) :   1.5266 B( 27-C , 28-C ) :   1.1825
B( 27-C , 31-S ) :   1.0282 B( 28-C , 29-C ) :   1.6176 B( 28-C , 80-H ) :   0.9921
B( 29-C , 30-C ) :   1.1295 B( 29-C , 81-H ) :   0.9862 B( 30-C , 31-S ) :   1.0219
B( 30-C , 32-C ) :   1.6427 B( 32-C , 33-C ) :   1.0758 B( 32-C , 82-H ) :   0.9552
B( 33-C , 34-C ) :   1.2966 B( 33-C , 38-C ) :   1.3374 B( 34-C , 35-C ) :   1.3966
B( 34-C , 83-H ) :   1.0010 B( 35-C , 36-C ) :   1.3644 B( 35-C , 41-C ) :   0.9139
B( 36-C , 37-C ) :   1.3340 B( 36-C , 39-C ) :   0.9960 B( 37-C , 38-C ) :   1.3822
B( 37-C , 84-H ) :   0.9921 B( 38-C , 85-H ) :   0.9913 B( 39-C , 40-C ) :   1.3713
B( 39-C , 49-C ) :   1.3314 B( 40-C , 41-C ) :   0.9156 B( 40-C , 46-C ) :   1.3665
B( 41-C , 42-C ) :   1.0369 B( 41-C , 44-C ) :   1.0394 B( 42-C , 43-C ) :   1.1026
B( 42-C , 86-H ) :   0.9393 B( 42-C , 87-H ) :   0.9391 B( 43-C , 88-H ) :   0.9646
B( 43-C , 89-H ) :   0.9635 B( 43-C , 90-H ) :   0.9641 B( 44-C , 45-C ) :   1.1018
B( 44-C , 91-H ) :   0.9385 B( 44-C , 92-H ) :   0.9389 B( 45-C , 93-H ) :   0.9640
B( 45-C , 94-H ) :   0.9640 B( 45-C , 95-H ) :   0.9634 B( 46-C , 47-C ) :   1.2908
B( 46-C , 96-H ) :   1.0171 B( 47-C , 48-C ) :   1.3483 B( 47-C , 50-C ) :   1.0309
B( 48-C , 49-C ) :   1.3996 B( 48-C , 97-H ) :   0.9836 B( 49-C , 98-H ) :   0.9880
B( 50-C , 51-C ) :   1.7227 B( 50-C , 99-H ) :   0.9785 B( 51-C , 52-C ) :   1.0843
B( 51-C ,100-H ) :   0.9551 B( 52-C , 53-C ) :   1.5339 B( 52-C , 61-C ) :   0.9921
B( 53-C , 54-O ) :   1.1440 B( 53-C , 63-C ) :   1.1002 B( 54-O , 55-C ) :   1.0887
B( 55-C , 56-C ) :   1.3466 B( 55-C , 60-C ) :   1.3313 B( 56-C , 57-C ) :   1.4191
B( 56-C ,101-H ) :   0.9941 B( 57-C , 58-C ) :   1.3231 B( 57-C ,102-H ) :   0.9901
B( 58-C , 59-C ) :   1.4042 B( 58-C ,103-H ) :   0.9940 B( 59-C , 60-C ) :   1.3416
B( 59-C ,104-H ) :   0.9949 B( 60-C , 61-C ) :   0.9938 B( 61-C , 62-O ) :   2.1204
B( 63-C ,105-H ) :   0.9388 B( 63-C ,106-H ) :   0.9427 B( 63-C ,107-H ) :   0.9449

-----------------------------------------------------------------------------
         ABSORPTION SPECTRUM VIA TRANSITION ELECTRIC DIPOLE MOMENTS
-----------------------------------------------------------------------------
State   Energy  Wavelength   fosc         T2         TX        TY        TZ
        (cm-1)    (nm)                  (au**2)     (au)      (au)      (au)
-----------------------------------------------------------------------------
   0   16220.6    616.5   2.087437556  42.36638   1.92902  -5.56341   2.77376
   1   21601.5    462.9   0.002340243   0.03567   0.07434  -0.01822  -0.17265
   2   25297.0    395.3   0.010284116   0.13384   0.01288   0.01934  -0.36510
   3   26952.6    371.0   0.239113212   2.92064   0.33325  -1.65910   0.23869
   4   29549.2    338.4   0.002769713   0.03086   0.02361  -0.16153  -0.06488
   5   29908.5    334.4   0.010383619   0.11430  -0.01989  -0.02817  -0.33631
   6   30396.2    329.0   0.003829090   0.04147   0.04929   0.11301  -0.16208
   7   31104.7    321.5   0.099637593   1.05456  -0.44997   0.50871  -0.77026
   8   31398.1    318.5   0.146689803   1.53805   0.12848   0.51212  -1.12218
   9   31940.4    313.1   0.577687204   5.95427   0.07681  -0.74009   2.32393
  10   33234.9    300.9   0.135033771   1.33759  -0.44184  -1.05390  -0.17793
  11   33461.9    298.8   0.029074096   0.28604  -0.08365   0.44144  -0.29013
  12   33772.7    296.1   0.028889908   0.28162  -0.05145   0.20048  -0.48865
  13   34377.5    290.9   0.501908971   4.80647   0.66096  -1.60964   1.33367
  14   34590.9    289.1   0.018118834   0.17244  -0.17050   0.13611   0.35333
  15   34820.0    287.2   0.069577225   0.65783   0.27642   0.39980  -0.64929
  16   35169.6    284.3   0.013145367   0.12305  -0.22624   0.23893   0.12157
  17   35213.0    284.0   0.050437508   0.47155   0.23015   0.38714  -0.51836
  18   36502.0    274.0   0.000498514   0.00450   0.05321  -0.01613   0.03749
  19   37045.5    269.9   0.069161026   0.61461  -0.00744   0.48128  -0.61881
  20   37997.6    263.2   0.033511374   0.29034   0.26544  -0.46821   0.02581
  21   38361.9    260.7   0.054299614   0.46599  -0.25398   0.63024   0.06540
  22   39162.2    255.3   0.003655211   0.03073  -0.10817  -0.12015  -0.06776
  23   39246.0    254.8   0.030298540   0.25416   0.00513   0.47632  -0.16507
  24   39528.9    253.0   0.038967754   0.32454  -0.24047   0.26282   0.44456
  25   39639.6    252.3   0.023223117   0.19287  -0.16628   0.37940  -0.14588

FINAL SINGLE POINT ENERGY     -3723.732623882968

DIPOLE MOMENT
-------------
                                X             Y             Z
Electronic contribution:    -12.19827      40.60417     -40.29045
Nuclear contribution   :     13.64973     -40.12653      41.31336
                        -----------------------------------------
Total Dipole Moment    :      1.45147       0.47765       1.02291
                        -----------------------------------------
Magnitude (a.u.)       :      1.83882
Magnitude (Debye)      :      4.67390

Rotational constants in cm-1:     0.004955     0.000221     0.000216
Rotational constants in MHz :   148.558683     6.633319     6.479885

                             ****ORCA TERMINATED NORMALLY****
TOTAL RUN TIME: 0 days 0 hours 9 minutes 39 seconds 715 msec
