                         Program Version 4.2.0 -  RELEASE  -
|  1> # ORCA input file
|  2> # SCF done       -172.146513537552          0.000646742782
|  3> ! CAM-B3LYP def2-SVP def2/J RIJCOSX Grid4 TightSCF
|  4> %maxcore 5000
|  5> %tddft
|  6>     Mode sTDDFT
|  7>     Ethresh 5.0
|  8>     maxcore 5000
|  9> end
| 10>
| 11> %pal
| 12>   nprocs 6
| 13>   end
| 14> * xyz 0 1
| 15>    C        8.14506         7.39268        -1.04090
| 16>    C        8.81837         8.35210        -0.37145
| 17>    C        9.96387         8.06458         0.54760
| 18>    O        9.94466         7.23045         1.41492
| 19>    O       10.99252         8.88574         0.31664
| 20>    C       12.11296         8.73386         1.17629
| 21>    C        8.41616         9.70106        -0.41355
| 22>    N        8.09433        10.80179        -0.44413
| 23>    C        8.55896         6.00890        -1.10687
| 24>    C        9.91867         5.67062        -1.14421
| 25>    C       10.28697         4.34864        -1.13360
| 26>    C        9.30726         3.34167        -1.04869
| 27>    C        7.95769         3.66670        -1.06742
| 28>    C        7.59310         4.99692        -1.11967
| 29>    C        9.97103         2.06429        -0.91783
| 30>    C       11.35995         2.28093        -0.92040
| 31>    C       11.67156         3.74512        -1.15087
| 32>    C       12.58198         4.33148        -0.06273
| 33>    C       11.95376         4.26640         1.32508
| 34>    C       12.32286         3.84642        -2.55192
| 35>    C       12.49262         5.25451        -3.10728
| 36>    C       12.22815         1.22883        -0.77854
| 37>    C       11.73168        -0.07913        -0.62915
| 38>    C       10.34079        -0.27425        -0.62629
| 39>    C        9.46417         0.77991        -0.76773
| 40>    C       12.67306        -1.15700        -0.50583
| 41>    C       12.39374        -2.48248        -0.42338
| 42>    C       13.38946        -3.47825        -0.35788
| 43>    C       13.14129        -4.82269        -0.32607
| 44>    C       14.10369        -5.86718        -0.32273
| 45>    C       13.57702        -7.11820        -0.34037
| 46>    C       12.15935        -7.14809        -0.34530
| 47>    S       11.52208        -5.51430        -0.32013
| 48>    C       11.34263        -8.25201        -0.38451
| 49>    C       11.73564        -9.61403        -0.48465
| 50>    C       10.70675       -10.48978        -0.55069
| 51>    C        9.41227        -9.88383        -0.49264
| 52>    S        9.59145        -8.12425        -0.35270
| 53>    C        8.21357       -10.49925        -0.56119
| 54>    C        6.92963        -9.79129        -0.53083
| 55>    C        6.37491        -9.13691         0.57735
| 56>    N        6.75150        -9.10566         1.90734
| 57>    C        7.97291        -9.64865         2.45053
| 58>    C        7.95831       -11.17072         2.56008
| 59>    C        5.85185        -8.32847         2.60154
| 60>    C        4.88890        -7.81327         1.69972
| 61>    C        5.18754        -8.38103         0.41893
| 62>    C        4.53117        -8.29835        -0.80030
| 63>    C        5.04678        -9.00075        -1.86926
| 64>    C        6.21830        -9.73149        -1.72681
| 65>    C        3.92589        -6.90342         2.10939
| 66>    C        3.94682        -6.47012         3.42066
| 67>    C        4.87137        -6.98703         4.31601
| 68>    C        5.80062        -7.96414         3.95524
| 69>    C        6.54241        -8.58896         5.04428
| 70>    C        6.45904        -9.90497         5.32695
| 71>    C        7.11378       -10.48590         6.44697
| 72>    C        7.07845       -11.78320         6.85665
| 73>    C        6.35620       -12.92597         6.25128
| 74>    O        6.12822       -13.95610         6.83388
| 75>    O        5.98372       -12.71784         4.97330
| 76>    C        5.29618       -13.79644         4.35563
| 77>    C        7.78528       -12.11651         8.03599
| 78>    N        8.38344       -12.35318         8.98494
| 79>    H        7.23356         7.66460        -1.56024
| 80>    H       12.84780         9.46406         0.84822
| 81>    H       12.51321         7.71996         1.10121
| 82>    H       11.82228         8.91859         2.21221
| 83>    H       10.65886         6.45494        -1.19334
| 84>    H        7.20481         2.89397        -1.02912
| 85>    H        6.54803         5.27086        -1.11558
| 86>    H       12.80793         5.37143        -0.30454
| 87>    H       13.52416         3.77828        -0.06461
| 88>    H       11.07627         4.90638         1.38557
| 89>    H       12.66911         4.59705         2.07532
| 90>    H       11.65473         3.24756         1.56200
| 91>    H       11.70920         3.26945        -3.24899
| 92>    H       13.30082         3.36264        -2.49699
| 93>    H       11.52768         5.72842        -3.26653
| 94>    H       13.00513         5.20323        -4.06571
| 95>    H       13.08684         5.87735        -2.44362
| 96>    H       13.29728         1.38866        -0.78122
| 97>    H        9.94600        -1.27113        -0.50830
| 98>    H        8.39815         0.60751        -0.76105
| 99>    H       13.71643        -0.86313        -0.50164
|100>    H       11.37006        -2.83140        -0.42662
|101>    H       14.42574        -3.16507        -0.35676
|102>    H       15.15753        -5.64994        -0.31749
|103>    H       14.16150        -8.02078        -0.34736
|104>    H       12.77286        -9.89635        -0.51802
|105>    H       10.81235       -11.55676        -0.63726
|106>    H        8.19517       -11.55871        -0.78539
|107>    H        8.12296        -9.20583         3.43717
|108>    H        8.80766        -9.33803         1.81783
|109>    H        7.18957       -11.50868         3.24709
|110>    H        8.92267       -11.51500         2.92474
|111>    H        7.77691       -11.61760         1.58665
|112>    H        3.63134        -7.71102        -0.89752
|113>    H        4.55023        -8.97800        -2.82739
|114>    H        6.62290       -10.25154        -2.58340
|115>    H        3.19593        -6.52765         1.40945
|116>    H        3.23221        -5.73733         3.76285
|117>    H        4.84182        -6.66933         5.34833
|118>    H        7.06973        -7.92604         5.72190
|119>    H        5.85948       -10.54054         4.69512
|120>    H        7.69585        -9.80457         7.06001
|121>    H        5.01746       -13.45062         3.36313
|122>    H        4.40988       -14.06243         4.93473
|123>    H        5.94663       -14.67079         4.28924
|124> *
|125>
|126>                          ****END OF INPUT****

CARTESIAN COORDINATES (ANGSTROEM)
---------------------------------
  C      8.145060    7.392680   -1.040900
  C      8.818370    8.352100   -0.371450
  C      9.963870    8.064580    0.547600
  O      9.944660    7.230450    1.414920
  O     10.992520    8.885740    0.316640
  C     12.112960    8.733860    1.176290
  C      8.416160    9.701060   -0.413550
  N      8.094330   10.801790   -0.444130
  C      8.558960    6.008900   -1.106870
  C      9.918670    5.670620   -1.144210
  C     10.286970    4.348640   -1.133600
  C      9.307260    3.341670   -1.048690
  C      7.957690    3.666700   -1.067420
  C      7.593100    4.996920   -1.119670
  C      9.971030    2.064290   -0.917830
  C     11.359950    2.280930   -0.920400
  C     11.671560    3.745120   -1.150870
  C     12.581980    4.331480   -0.062730
  C     11.953760    4.266400    1.325080
  C     12.322860    3.846420   -2.551920
  C     12.492620    5.254510   -3.107280
  C     12.228150    1.228830   -0.778540
  C     11.731680   -0.079130   -0.629150
  C     10.340790   -0.274250   -0.626290
  C      9.464170    0.779910   -0.767730
  C     12.673060   -1.157000   -0.505830
  C     12.393740   -2.482480   -0.423380
  C     13.389460   -3.478250   -0.357880
  C     13.141290   -4.822690   -0.326070
  C     14.103690   -5.867180   -0.322730
  C     13.577020   -7.118200   -0.340370
  C     12.159350   -7.148090   -0.345300
  S     11.522080   -5.514300   -0.320130
  C     11.342630   -8.252010   -0.384510
  C     11.735640   -9.614030   -0.484650
  C     10.706750  -10.489780   -0.550690
  C      9.412270   -9.883830   -0.492640
  S      9.591450   -8.124250   -0.352700
  C      8.213570  -10.499250   -0.561190
  C      6.929630   -9.791290   -0.530830
  C      6.374910   -9.136910    0.577350
  N      6.751500   -9.105660    1.907340
  C      7.972910   -9.648650    2.450530
  C      7.958310  -11.170720    2.560080
  C      5.851850   -8.328470    2.601540
  C      4.888900   -7.813270    1.699720
  C      5.187540   -8.381030    0.418930
  C      4.531170   -8.298350   -0.800300
  C      5.046780   -9.000750   -1.869260
  C      6.218300   -9.731490   -1.726810
  C      3.925890   -6.903420    2.109390
  C      3.946820   -6.470120    3.420660
  C      4.871370   -6.987030    4.316010
  C      5.800620   -7.964140    3.955240
  C      6.542410   -8.588960    5.044280
  C      6.459040   -9.904970    5.326950
  C      7.113780  -10.485900    6.446970
  C      7.078450  -11.783200    6.856650
  C      6.356200  -12.925970    6.251280
  O      6.128220  -13.956100    6.833880
  O      5.983720  -12.717840    4.973300
  C      5.296180  -13.796440    4.355630
  C      7.785280  -12.116510    8.035990
  N      8.383440  -12.353180    8.984940
  H      7.233560    7.664600   -1.560240
  H     12.847800    9.464060    0.848220
  H     12.513210    7.719960    1.101210
  H     11.822280    8.918590    2.212210
  H     10.658860    6.454940   -1.193340
  H      7.204810    2.893970   -1.029120
  H      6.548030    5.270860   -1.115580
  H     12.807930    5.371430   -0.304540
  H     13.524160    3.778280   -0.064610
  H     11.076270    4.906380    1.385570
  H     12.669110    4.597050    2.075320
  H     11.654730    3.247560    1.562000
  H     11.709200    3.269450   -3.248990
  H     13.300820    3.362640   -2.496990
  H     11.527680    5.728420   -3.266530
  H     13.005130    5.203230   -4.065710
  H     13.086840    5.877350   -2.443620
  H     13.297280    1.388660   -0.781220
  H      9.946000   -1.271130   -0.508300
  H      8.398150    0.607510   -0.761050
  H     13.716430   -0.863130   -0.501640
  H     11.370060   -2.831400   -0.426620
  H     14.425740   -3.165070   -0.356760
  H     15.157530   -5.649940   -0.317490
  H     14.161500   -8.020780   -0.347360
  H     12.772860   -9.896350   -0.518020
  H     10.812350  -11.556760   -0.637260
  H      8.195170  -11.558710   -0.785390
  H      8.122960   -9.205830    3.437170
  H      8.807660   -9.338030    1.817830
  H      7.189570  -11.508680    3.247090
  H      8.922670  -11.515000    2.924740
  H      7.776910  -11.617600    1.586650
  H      3.631340   -7.711020   -0.897520
  H      4.550230   -8.978000   -2.827390
  H      6.622900  -10.251540   -2.583400
  H      3.195930   -6.527650    1.409450
  H      3.232210   -5.737330    3.762850
  H      4.841820   -6.669330    5.348330
  H      7.069730   -7.926040    5.721900
  H      5.859480  -10.540540    4.695120
  H      7.695850   -9.804570    7.060010
  H      5.017460  -13.450620    3.363130
  H      4.409880  -14.062430    4.934730
  H      5.946630  -14.670790    4.289240

 Total Charge           Charge          ....    0
 Multiplicity           Mult            ....    1
 Number of Electrons    NEL             ....  460
 Basis Dimension        Dim             .... 1129

ORBITAL ENERGIES
----------------

  NO   OCC          E(Eh)            E(eV)
   0   2.0000     -88.943161     -2420.2665
   1   2.0000     -88.942081     -2420.2371
   2   2.0000     -19.270518      -524.3775
   3   2.0000     -19.269430      -524.3478
   4   2.0000     -19.213391      -522.8230
   5   2.0000     -19.209166      -522.7080
   6   2.0000     -14.451875      -393.2555
   7   2.0000     -14.398923      -391.8146
   8   2.0000     -14.392188      -391.6313
   9   2.0000     -10.412471      -283.3377
  10   2.0000     -10.409649      -283.2609
  11   2.0000     -10.328151      -281.0433
  12   2.0000     -10.327278      -281.0195
  13   2.0000     -10.318115      -280.7702
  14   2.0000     -10.316121      -280.7159
  15   2.0000     -10.315525      -280.6997
  16   2.0000     -10.313087      -280.6334
  17   2.0000     -10.310172      -280.5540
  18   2.0000     -10.310150      -280.5534
  19   2.0000     -10.308900      -280.5194
  20   2.0000     -10.307986      -280.4946
  21   2.0000     -10.306766      -280.4614
  22   2.0000     -10.305123      -280.4167
  23   2.0000     -10.303823      -280.3813
  24   2.0000     -10.300277      -280.2848
  25   2.0000     -10.299252      -280.2569
  26   2.0000     -10.293522      -280.1010
  27   2.0000     -10.290322      -280.0139
  28   2.0000     -10.288010      -279.9510
  29   2.0000     -10.286103      -279.8991
  30   2.0000     -10.285890      -279.8933
  31   2.0000     -10.285203      -279.8746
  32   2.0000     -10.284202      -279.8474
  33   2.0000     -10.283429      -279.8263
  34   2.0000     -10.281312      -279.7687
  35   2.0000     -10.280540      -279.7477
  36   2.0000     -10.280054      -279.7345
  37   2.0000     -10.279499      -279.7194
  38   2.0000     -10.279274      -279.7133
  39   2.0000     -10.278566      -279.6940
  40   2.0000     -10.278542      -279.6934
  41   2.0000     -10.277887      -279.6755
  42   2.0000     -10.276289      -279.6320
  43   2.0000     -10.275046      -279.5982
  44   2.0000     -10.274452      -279.5821
  45   2.0000     -10.273271      -279.5499
  46   2.0000     -10.273225      -279.5487
  47   2.0000     -10.272694      -279.5342
  48   2.0000     -10.271857      -279.5115
  49   2.0000     -10.271545      -279.5030
  50   2.0000     -10.270104      -279.4637
  51   2.0000     -10.269814      -279.4558
  52   2.0000     -10.269548      -279.4486
  53   2.0000     -10.268187      -279.4116
  54   2.0000     -10.266504      -279.3658
  55   2.0000     -10.266448      -279.3642
  56   2.0000     -10.266155      -279.3563
  57   2.0000     -10.264833      -279.3203
  58   2.0000     -10.264233      -279.3040
  59   2.0000     -10.263215      -279.2763
  60   2.0000     -10.260103      -279.1916
  61   2.0000     -10.254923      -279.0507
  62   2.0000     -10.254512      -279.0394
  63   2.0000     -10.242016      -278.6994
  64   2.0000      -8.038638      -218.7425
  65   2.0000      -8.038360      -218.7349
  66   2.0000      -6.008520      -163.5001
  67   2.0000      -6.008130      -163.4895
  68   2.0000      -6.004544      -163.3920
  69   2.0000      -6.004214      -163.3830
  70   2.0000      -5.999301      -163.2493
  71   2.0000      -5.999091      -163.2436
  72   2.0000      -1.202249       -32.7149
  73   2.0000      -1.198660       -32.6172
  74   2.0000      -1.107021       -30.1236
  75   2.0000      -1.102961       -30.0131
  76   2.0000      -1.080618       -29.4051
  77   2.0000      -0.993020       -27.0215
  78   2.0000      -0.991512       -26.9804
  79   2.0000      -0.985703       -26.8224
  80   2.0000      -0.980136       -26.6708
  81   2.0000      -0.971626       -26.4393
  82   2.0000      -0.953792       -25.9540
  83   2.0000      -0.952155       -25.9095
  84   2.0000      -0.944937       -25.7130
  85   2.0000      -0.932356       -25.3707
  86   2.0000      -0.930314       -25.3151
  87   2.0000      -0.909514       -24.7491
  88   2.0000      -0.905842       -24.6492
  89   2.0000      -0.899993       -24.4900
  90   2.0000      -0.885405       -24.0931
  91   2.0000      -0.876770       -23.8581
  92   2.0000      -0.867792       -23.6138
  93   2.0000      -0.855127       -23.2692
  94   2.0000      -0.844663       -22.9845
  95   2.0000      -0.843756       -22.9598
  96   2.0000      -0.839128       -22.8338
  97   2.0000      -0.837123       -22.7793
  98   2.0000      -0.833714       -22.6865
  99   2.0000      -0.833148       -22.6711
 100   2.0000      -0.825457       -22.4618
 101   2.0000      -0.819056       -22.2876
 102   2.0000      -0.817573       -22.2473
 103   2.0000      -0.809507       -22.0278
 104   2.0000      -0.804722       -21.8976
 105   2.0000      -0.797490       -21.7008
 106   2.0000      -0.773399       -21.0453
 107   2.0000      -0.765956       -20.8427
 108   2.0000      -0.757559       -20.6142
 109   2.0000      -0.750008       -20.4088
 110   2.0000      -0.733345       -19.9553
 111   2.0000      -0.721665       -19.6375
 112   2.0000      -0.716903       -19.5079
 113   2.0000      -0.705832       -19.2067
 114   2.0000      -0.701825       -19.0976
 115   2.0000      -0.695815       -18.9341
 116   2.0000      -0.692322       -18.8390
 117   2.0000      -0.687355       -18.7039
 118   2.0000      -0.686300       -18.6752
 119   2.0000      -0.679581       -18.4923
 120   2.0000      -0.666884       -18.1468
 121   2.0000      -0.665425       -18.1071
 122   2.0000      -0.664137       -18.0721
 123   2.0000      -0.658472       -17.9179
 124   2.0000      -0.647213       -17.6116
 125   2.0000      -0.644978       -17.5507
 126   2.0000      -0.636118       -17.3097
 127   2.0000      -0.629496       -17.1295
 128   2.0000      -0.626360       -17.0441
 129   2.0000      -0.616335       -16.7713
 130   2.0000      -0.614777       -16.7289
 131   2.0000      -0.609657       -16.5896
 132   2.0000      -0.608336       -16.5537
 133   2.0000      -0.604907       -16.4604
 134   2.0000      -0.596866       -16.2415
 135   2.0000      -0.593317       -16.1450
 136   2.0000      -0.589244       -16.0341
 137   2.0000      -0.583318       -15.8729
 138   2.0000      -0.578073       -15.7302
 139   2.0000      -0.573977       -15.6187
 140   2.0000      -0.573548       -15.6070
 141   2.0000      -0.571301       -15.5459
 142   2.0000      -0.559376       -15.2214
 143   2.0000      -0.552050       -15.0220
 144   2.0000      -0.550293       -14.9742
 145   2.0000      -0.548041       -14.9130
 146   2.0000      -0.546560       -14.8726
 147   2.0000      -0.542755       -14.7691
 148   2.0000      -0.541955       -14.7474
 149   2.0000      -0.540726       -14.7139
 150   2.0000      -0.537041       -14.6136
 151   2.0000      -0.532924       -14.5016
 152   2.0000      -0.530831       -14.4446
 153   2.0000      -0.525803       -14.3078
 154   2.0000      -0.523401       -14.2425
 155   2.0000      -0.521407       -14.1882
 156   2.0000      -0.519615       -14.1395
 157   2.0000      -0.518032       -14.0964
 158   2.0000      -0.515669       -14.0321
 159   2.0000      -0.513344       -13.9688
 160   2.0000      -0.508122       -13.8267
 161   2.0000      -0.504003       -13.7146
 162   2.0000      -0.502297       -13.6682
 163   2.0000      -0.498547       -13.5661
 164   2.0000      -0.497430       -13.5358
 165   2.0000      -0.495312       -13.4781
 166   2.0000      -0.494101       -13.4452
 167   2.0000      -0.493155       -13.4194
 168   2.0000      -0.492826       -13.4105
 169   2.0000      -0.488388       -13.2897
 170   2.0000      -0.483379       -13.1534
 171   2.0000      -0.479957       -13.0603
 172   2.0000      -0.476819       -12.9749
 173   2.0000      -0.472925       -12.8690
 174   2.0000      -0.472092       -12.8463
 175   2.0000      -0.466561       -12.6958
 176   2.0000      -0.464042       -12.6272
 177   2.0000      -0.463232       -12.6052
 178   2.0000      -0.459905       -12.5147
 179   2.0000      -0.457288       -12.4434
 180   2.0000      -0.452669       -12.3178
 181   2.0000      -0.451933       -12.2977
 182   2.0000      -0.447172       -12.1682
 183   2.0000      -0.446634       -12.1535
 184   2.0000      -0.444739       -12.1020
 185   2.0000      -0.443540       -12.0693
 186   2.0000      -0.441105       -12.0031
 187   2.0000      -0.440140       -11.9768
 188   2.0000      -0.438902       -11.9431
 189   2.0000      -0.438636       -11.9359
 190   2.0000      -0.432938       -11.7808
 191   2.0000      -0.432290       -11.7632
 192   2.0000      -0.431935       -11.7535
 193   2.0000      -0.428423       -11.6580
 194   2.0000      -0.426028       -11.5928
 195   2.0000      -0.425214       -11.5707
 196   2.0000      -0.423895       -11.5348
 197   2.0000      -0.422443       -11.4953
 198   2.0000      -0.421018       -11.4565
 199   2.0000      -0.415598       -11.3090
 200   2.0000      -0.412847       -11.2342
 201   2.0000      -0.411495       -11.1973
 202   2.0000      -0.409592       -11.1456
 203   2.0000      -0.407625       -11.0920
 204   2.0000      -0.400203       -10.8901
 205   2.0000      -0.398729       -10.8500
 206   2.0000      -0.396078       -10.7778
 207   2.0000      -0.395373       -10.7587
 208   2.0000      -0.392926       -10.6921
 209   2.0000      -0.389909       -10.6100
 210   2.0000      -0.388159       -10.5623
 211   2.0000      -0.383185       -10.4270
 212   2.0000      -0.382923       -10.4199
 213   2.0000      -0.379724       -10.3328
 214   2.0000      -0.367614       -10.0033
 215   2.0000      -0.362443        -9.8626
 216   2.0000      -0.356493        -9.7007
 217   2.0000      -0.352194        -9.5837
 218   2.0000      -0.338570        -9.2130
 219   2.0000      -0.337105        -9.1731
 220   2.0000      -0.325388        -8.8543
 221   2.0000      -0.324092        -8.8190
 222   2.0000      -0.323138        -8.7930
 223   2.0000      -0.316404        -8.6098
 224   2.0000      -0.305641        -8.3169
 225   2.0000      -0.300309        -8.1718
 226   2.0000      -0.276313        -7.5189
 227   2.0000      -0.268238        -7.2991
 228   2.0000      -0.258089        -7.0230
 229   2.0000      -0.214033        -5.8241
 230   0.0000      -0.073196        -1.9918
 231   0.0000      -0.058992        -1.6052
 232   0.0000      -0.045128        -1.2280
 233   0.0000      -0.011948        -0.3251
 234   0.0000      -0.000658        -0.0179

MULLIKEN ATOMIC CHARGES
-----------------------
   0 C :    0.075500
   1 C :   -0.166297
   2 C :    0.180117
   3 O :   -0.190034
   4 O :   -0.284702
   5 C :    0.183905
   6 C :   -0.134598
   7 N :    0.101468
   8 C :    0.079964
   9 C :   -0.068861
  10 C :    0.007869
  11 C :    0.115281
  12 C :   -0.058469
  13 C :    0.006610
  14 C :    0.093411
  15 C :    0.027214
  16 C :   -0.133891
  17 C :    0.054411
  18 C :    0.020630
  19 C :    0.080237
  20 C :    0.029100
  21 C :   -0.111858
  22 C :    0.131906
  23 C :   -0.010587
  24 C :   -0.039493
  25 C :   -0.014064
  26 C :    0.020672
  27 C :   -0.017522
  28 C :   -0.018470
  29 C :    0.039068
  30 C :    0.024754
  31 C :   -0.046547
  32 S :    0.064696
  33 C :   -0.057716
  34 C :    0.029040
  35 C :    0.050204
  36 C :   -0.037863
  37 S :    0.082505
  38 C :   -0.089852
  39 C :   -0.051355
  40 C :    0.131484
  41 N :   -0.183602
  42 C :    0.119909
  43 C :    0.025796
  44 C :    0.115599
  45 C :    0.055963
  46 C :    0.062433
  47 C :   -0.049396
  48 C :    0.032235
  49 C :   -0.014347
  50 C :   -0.043363
  51 C :    0.027105
  52 C :   -0.016227
  53 C :   -0.007342
  54 C :   -0.055293
  55 C :    0.021387
  56 C :    0.064373
  57 C :   -0.161342
  58 C :    0.201331
  59 O :   -0.178403
  60 O :   -0.313598
  61 C :    0.190278
  62 C :   -0.142025
  63 N :    0.095009
  64 H :    0.018109
  65 H :    0.042224
  66 H :    0.031378
  67 H :    0.039452
  68 H :   -0.019122
  69 H :   -0.028904
  70 H :   -0.023215
  71 H :   -0.006991
  72 H :   -0.005257
  73 H :    0.039269
  74 H :    0.004524
  75 H :    0.015840
  76 H :    0.006330
  77 H :   -0.004929
  78 H :    0.022936
  79 H :    0.013158
  80 H :    0.003956
  81 H :   -0.040116
  82 H :   -0.030148
  83 H :   -0.034549
  84 H :   -0.027389
  85 H :    0.001532
  86 H :   -0.018390
  87 H :   -0.012805
  88 H :   -0.014190
  89 H :   -0.013849
  90 H :   -0.013127
  91 H :    0.013316
  92 H :    0.023091
  93 H :    0.028918
  94 H :    0.004989
  95 H :    0.014427
  96 H :    0.005299
  97 H :   -0.034135
  98 H :   -0.023494
  99 H :   -0.029049
 100 H :   -0.031133
 101 H :   -0.020858
 102 H :   -0.027110
 103 H :    0.018822
 104 H :    0.033194
 105 H :    0.018472
 106 H :    0.036734
 107 H :    0.041009
 108 H :    0.037436
Sum of atomic charges:   -0.0000000

LOEWDIN ATOMIC CHARGES
----------------------
   0 C :    0.071588
   1 C :   -0.112042
   2 C :    0.089235
   3 O :   -0.156081
   4 O :   -0.078541
   5 C :    0.083049
   6 C :   -0.033378
   7 N :   -0.057055
   8 C :   -0.040423
   9 C :   -0.003358
  10 C :    0.004754
  11 C :   -0.000594
  12 C :   -0.020331
  13 C :   -0.004128
  14 C :   -0.022490
  15 C :    0.007357
  16 C :   -0.034119
  17 C :   -0.016460
  18 C :   -0.059842
  19 C :   -0.008701
  20 C :   -0.059455
  21 C :   -0.021212
  22 C :   -0.021598
  23 C :   -0.013261
  24 C :   -0.013913
  25 C :   -0.015880
  26 C :   -0.028850
  27 C :   -0.053271
  28 C :   -0.145956
  29 C :   -0.031476
  30 C :   -0.033562
  31 C :   -0.176511
  32 S :    0.359782
  33 C :   -0.183554
  34 C :   -0.027762
  35 C :   -0.036793
  36 C :   -0.141711
  37 S :    0.365570
  38 C :   -0.056535
  39 C :   -0.068020
  40 C :    0.032351
  41 N :    0.024430
  42 C :    0.036498
  43 C :   -0.064116
  44 C :    0.038016
  45 C :   -0.041488
  46 C :   -0.040201
  47 C :   -0.011987
  48 C :   -0.043543
  49 C :   -0.011902
  50 C :   -0.006436
  51 C :   -0.045886
  52 C :   -0.010258
  53 C :   -0.066638
  54 C :    0.031501
  55 C :   -0.040731
  56 C :    0.065326
  57 C :   -0.124840
  58 C :    0.094132
  59 O :   -0.154031
  60 O :   -0.090051
  61 C :    0.083010
  62 C :   -0.028618
  63 N :   -0.058333
  64 H :    0.046436
  65 H :    0.029589
  66 H :    0.022264
  67 H :    0.027473
  68 H :    0.025975
  69 H :    0.028750
  70 H :    0.029370
  71 H :    0.015088
  72 H :    0.019596
  73 H :    0.028113
  74 H :    0.022370
  75 H :    0.024856
  76 H :    0.027061
  77 H :    0.020164
  78 H :    0.024580
  79 H :    0.028478
  80 H :    0.018890
  81 H :    0.023123
  82 H :    0.026634
  83 H :    0.027540
  84 H :    0.026081
  85 H :    0.020922
  86 H :    0.031975
  87 H :    0.033466
  88 H :    0.031176
  89 H :    0.031884
  90 H :    0.033108
  91 H :    0.032999
  92 H :    0.028550
  93 H :    0.016625
  94 H :    0.019039
  95 H :    0.029888
  96 H :    0.022197
  97 H :    0.027017
  98 H :    0.026289
  99 H :    0.027710
 100 H :    0.028259
 101 H :    0.027213
 102 H :    0.027744
 103 H :    0.033832
 104 H :    0.031401
 105 H :    0.047994
 106 H :    0.025788
 107 H :    0.025988
 108 H :    0.025831

  Mayer bond orders larger than 0.100000
B(  0-C ,  1-C ) :   1.8262 B(  0-C ,  8-C ) :   1.0287 B(  0-C , 64-H ) :   0.9654
B(  1-C ,  2-C ) :   0.8889 B(  1-C ,  6-C ) :   1.1118 B(  2-C ,  3-O ) :   2.0784
B(  2-C ,  4-O ) :   1.2183 B(  4-O ,  5-C ) :   0.9183 B(  5-C , 65-H ) :   0.9791
B(  5-C , 66-H ) :   0.9764 B(  5-C , 67-H ) :   0.9743 B(  6-C ,  7-N ) :   3.0344
B(  8-C ,  9-C ) :   1.2974 B(  8-C , 13-C ) :   1.3476 B(  9-C , 10-C ) :   1.4319
B(  9-C , 68-H ) :   0.9711 B( 10-C , 11-C ) :   1.3740 B( 10-C , 16-C ) :   0.9167
B( 11-C , 12-C ) :   1.3418 B( 11-C , 14-C ) :   1.0025 B( 12-C , 13-C ) :   1.3777
B( 12-C , 69-H ) :   0.9914 B( 13-C , 70-H ) :   0.9933 B( 14-C , 15-C ) :   1.3755
B( 14-C , 24-C ) :   1.3238 B( 15-C , 16-C ) :   0.9243 B( 15-C , 21-C ) :   1.3811
B( 16-C , 17-C ) :   1.0372 B( 16-C , 19-C ) :   1.0135 B( 17-C , 18-C ) :   1.1092
B( 17-C , 71-H ) :   0.9341 B( 17-C , 72-H ) :   0.9360 B( 18-C , 73-H ) :   0.9547
B( 18-C , 74-H ) :   0.9621 B( 18-C , 75-H ) :   0.9633 B( 19-C , 20-C ) :   1.1156
B( 19-C , 76-H ) :   0.9386 B( 19-C , 77-H ) :   0.9370 B( 20-C , 78-H ) :   0.9602
B( 20-C , 79-H ) :   0.9580 B( 20-C , 80-H ) :   0.9624 B( 21-C , 22-C ) :   1.2837
B( 21-C , 81-H ) :   1.0099 B( 22-C , 23-C ) :   1.3350 B( 22-C , 25-C ) :   1.0692
B( 23-C , 24-C ) :   1.4088 B( 23-C , 82-H ) :   0.9852 B( 24-C , 83-H ) :   0.9901
B( 25-C , 26-C ) :   1.6548 B( 25-C , 84-H ) :   0.9895 B( 26-C , 27-C ) :   1.1389
B( 26-C , 85-H ) :   0.9645 B( 27-C , 28-C ) :   1.5832 B( 27-C , 86-H ) :   0.9853
B( 28-C , 29-C ) :   1.1260 B( 28-C , 32-S ) :   1.0231 B( 29-C , 30-C ) :   1.6109
B( 29-C , 87-H ) :   0.9994 B( 30-C , 31-C ) :   1.1689 B( 30-C , 88-H ) :   0.9934
B( 31-C , 32-S ) :   1.0387 B( 31-C , 33-C ) :   1.5537 B( 33-C , 34-C ) :   1.1609
B( 33-C , 37-S ) :   1.0229 B( 34-C , 35-C ) :   1.6380 B( 34-C , 89-H ) :   0.9931
B( 35-C , 36-C ) :   1.0878 B( 35-C , 90-H ) :   0.9997 B( 36-C , 37-S ) :   1.0222
B( 36-C , 38-C ) :   1.7632 B( 38-C , 39-C ) :   0.9714 B( 38-C , 91-H ) :   0.9480
B( 39-C , 40-C ) :   1.3215 B( 39-C , 49-C ) :   1.4150 B( 40-C , 41-N ) :   1.1324
B( 40-C , 46-C ) :   1.2817 B( 41-N , 42-C ) :   0.9481 B( 41-N , 44-C ) :   1.1513
B( 42-C , 43-C ) :   1.1031 B( 42-C , 92-H ) :   0.9343 B( 42-C , 93-H ) :   0.9360
B( 43-C , 94-H ) :   0.9531 B( 43-C , 95-H ) :   0.9606 B( 43-C , 96-H ) :   0.9575
B( 44-C , 45-C ) :   1.2770 B( 44-C , 53-C ) :   1.3120 B( 45-C , 46-C ) :   1.0745
B( 45-C , 50-C ) :   1.3460 B( 46-C , 47-C ) :   1.3433 B( 47-C , 48-C ) :   1.3793
B( 47-C , 97-H ) :   0.9993 B( 48-C , 49-C ) :   1.3413 B( 48-C , 98-H ) :   0.9877
B( 49-C , 99-H ) :   0.9920 B( 50-C , 51-C ) :   1.3770 B( 50-C ,100-H ) :   0.9990
B( 51-C , 52-C ) :   1.3570 B( 51-C ,101-H ) :   0.9872 B( 52-C , 53-C ) :   1.4017
B( 52-C ,102-H ) :   0.9902 B( 53-C , 54-C ) :   0.9782 B( 54-C , 55-C ) :   1.7426
B( 54-C ,103-H ) :   0.9581 B( 55-C , 56-C ) :   1.1318 B( 55-C ,104-H ) :   0.9653
B( 56-C , 57-C ) :   1.6933 B( 56-C ,105-H ) :   0.9679 B( 57-C , 58-C ) :   0.9353
B( 57-C , 62-C ) :   1.0901 B( 58-C , 59-O ) :   2.1467 B( 58-C , 60-O ) :   1.1705
B( 60-O , 61-C ) :   0.9107 B( 61-C ,106-H ) :   0.9787 B( 61-C ,107-H ) :   0.9768
B( 61-C ,108-H ) :   0.9773 B( 62-C , 63-N ) :   3.0377

-----------------------------------------------------------------------------
         ABSORPTION SPECTRUM VIA TRANSITION ELECTRIC DIPOLE MOMENTS
-----------------------------------------------------------------------------
State   Energy  Wavelength   fosc         T2         TX        TY        TZ
        (cm-1)    (nm)                  (au**2)     (au)      (au)      (au)
-----------------------------------------------------------------------------
   0   17212.3    581.0   1.716279961  32.82654   1.33742   5.56297  -0.30202
   1   22002.7    454.5   0.021350364   0.31945   0.10651  -0.16049   0.53137
   2   25237.5    396.2   0.147635659   1.92584  -1.30726   0.38903   0.25605
   3   25747.6    388.4   0.193830136   2.47833  -0.22063   0.43903  -1.49563
   4   26110.8    383.0   0.376038680   4.74119  -1.26394   1.76503  -0.16820
   5   28148.3    355.3   0.275020854   3.21654   1.26379  -1.26954   0.08740
   6   30164.7    331.5   0.043466127   0.47438  -0.64806   0.08854   0.21578
   7   30309.9    329.9   0.444001324   4.82253   1.58378  -1.49688   0.27116
   8   30628.8    326.5   0.010757237   0.11562  -0.00877  -0.28342  -0.18766
   9   32081.9    311.7   0.069241743   0.71053   0.69236  -0.47604  -0.06753
  10   33846.4    295.5   0.131206016   1.27619  -0.78443  -0.80883  -0.08165
  11   34595.2    289.1   0.011854606   0.11281  -0.25279   0.22108  -0.00556
  12   34678.6    288.4   0.075647622   0.71814  -0.27544  -0.77125  -0.21782
  13   35134.3    284.6   0.016513997   0.15474   0.13997   0.36688   0.02334
  14   35861.7    278.8   0.014984076   0.13755  -0.12579  -0.03455   0.34718
  15   36089.0    277.1   0.080779671   0.73689  -0.55941   0.65099   0.01267
  16   36415.9    274.6   0.116647461   1.05453   0.61861  -0.79818   0.18647
  17   36923.4    270.8   0.048475055   0.43221   0.63392   0.17222  -0.02629
  18   37690.7    265.3   0.033640743   0.29384   0.19734   0.39244   0.31763
  19   38252.4    261.4   0.010194480   0.08774  -0.10763  -0.08278  -0.26325
  20   38585.7    259.2   0.174176504   1.48607  -0.19666   1.07796  -0.53421
  21   38835.4    257.5   0.433322094   3.67332  -0.05111   1.27149  -1.43318
  22   39158.4    255.4   0.147197569   1.23752   1.04695  -0.15895   0.34082
  23   39595.1    252.6   0.048584794   0.40396   0.10825   0.62048   0.08509

FINAL SINGLE POINT ENERGY     -3380.893232420924

DIPOLE MOMENT
-------------
                                X             Y             Z
Electronic contribution:    -18.71645     -28.46598       9.90983
Nuclear contribution   :     19.93075      27.76396     -12.58931
                        -----------------------------------------
Total Dipole Moment    :      1.21430      -0.70202      -2.67948
                        -----------------------------------------
Magnitude (a.u.)       :      3.02440
Magnitude (Debye)      :      7.68741

Rotational constants in cm-1:     0.001793     0.000315     0.000298
Rotational constants in MHz :    53.763595     9.430872     8.938797

                             ****ORCA TERMINATED NORMALLY****
TOTAL RUN TIME: 0 days 0 hours 20 minutes 48 seconds 267 msec
