                         Program Version 4.2.0 -  RELEASE  -
|  1> # ORCA input file
|  2> # SCF done       -151.806915052738          0.000374279212
|  3> ! CAM-B3LYP def2-SVP def2/J RIJCOSX Grid4 TightSCF
|  4> %maxcore 5000
|  5> %tddft
|  6>     Mode sTDDFT
|  7>     Ethresh 5.0
|  8>     maxcore 5000
|  9> end
| 10>
| 11> %pal
| 12>   nprocs 6
| 13>   end
| 14> * xyz 0 1
| 15>    C       -0.89356         5.97820         4.26032
| 16>    C       -1.40993         4.91254         5.02308
| 17>    C       -0.78819         4.59493         6.22057
| 18>    C        0.34766         5.29179         6.64392
| 19>    C        0.85916         6.34338         5.85698
| 20>    C        0.21572         6.67971         4.66251
| 21>    N        1.96816         7.01259         6.28987
| 22>    C        2.67429         6.76540         7.45392
| 23>    O        3.65053         7.43165         7.72733
| 24>    C        2.12216         5.66555         8.25335
| 25>    C        1.01582         4.97773         7.86027
| 26>    C        2.77943         5.32735         9.45618
| 27>    N        3.29288         5.02493        10.43578
| 28>    C       -2.58913         4.20901         4.55921
| 29>    S       -3.80969         5.10045         3.71772
| 30>    C       -4.78616         3.69649         3.57740
| 31>    C       -4.23223         2.59730         4.14708
| 32>    C       -4.89897         1.26244         4.08927
| 33>    C       -2.94849         2.87706         4.72572
| 34>    C       -2.06044         1.92616         5.32902
| 35>    C       -2.39338         0.75962         5.93466
| 36>    C       -1.43084        -0.09418         6.52347
| 37>    C       -1.72804        -1.26457         7.16163
| 38>    C       -0.75429        -2.07134         7.76816
| 39>    C       -0.97277        -3.26600         8.40657
| 40>    C        0.01347        -4.05940         9.03982
| 41>    C       -0.46138        -5.19850         9.61157
| 42>    C       -1.85675        -5.37751         9.47014
| 43>    S       -2.54404        -4.04482         8.56140
| 44>    C       -2.60917        -6.41137         9.98968
| 45>    C       -2.14880        -7.47958        10.79551
| 46>    C       -3.14058        -8.27870        11.26880
| 47>    C       -4.45324        -7.87847        10.89642
| 48>    S       -4.34984        -6.51173         9.80074
| 49>    C       -5.59029        -8.49629        11.35259
| 50>    C       -6.96199        -8.19518        11.21062
| 51>    S       -8.04183        -9.57266        11.36555
| 52>    C       -9.40379        -8.60810        10.95970
| 53>    C       -9.08562        -7.30788        10.73874
| 54>    C      -10.09240        -6.25967        10.39740
| 55>    C       -7.69170        -7.03823        10.91981
| 56>    C       -7.18312        -5.70119        10.88070
| 57>    C       -6.11305        -5.24906        11.57218
| 58>    C       -5.52273        -3.97389        11.33386
| 59>    C       -4.31294        -3.62076        11.81364
| 60>    C       -3.54626        -2.47477        11.38964
| 61>    C       -2.16564        -2.43509        11.67633
| 62>    C       -1.35539        -1.43611        11.19946
| 63>    C       -1.89610        -0.41380        10.41602
| 64>    C       -3.28144        -0.40651        10.14710
| 65>    C       -4.08289        -1.43898        10.63785
| 66>    C       -3.80222         0.66457         9.37187
| 67>    C       -2.99303         1.64189         8.88083
| 68>    C       -1.54828         1.62763         9.11905
| 69>    O       -0.75365         2.44516         8.69098
| 70>    N       -1.11829         0.58623         9.90554
| 71>    C       -3.52627         2.70520         8.12210
| 72>    N       -3.97874         3.56603         7.51420
| 73>    H       -1.38378         6.24012         3.33411
| 74>    H       -1.18500         3.83072         6.86858
| 75>    H        0.59807         7.49182         4.06145
| 76>    H        2.32726         7.77207         5.72221
| 77>    H        0.62336         4.16883         8.45921
| 78>    H       -5.72825         3.76486         3.06950
| 79>    H       -5.68593         1.27592         3.33821
| 80>    H       -5.35422         1.01894         5.04899
| 81>    H       -4.18161         0.48469         3.83470
| 82>    H       -1.01227         2.20014         5.31303
| 83>    H       -3.42579         0.45973         6.02762
| 84>    H       -0.39474         0.21649         6.46524
| 85>    H       -2.75683        -1.60004         7.21452
| 86>    H        0.27198        -1.72568         7.73157
| 87>    H        1.04663        -3.75869         9.05206
| 88>    H        0.15137        -5.91139        10.13313
| 89>    H       -1.10649        -7.61700        11.01972
| 90>    H       -2.98170        -9.12488        11.91413
| 91>    H       -5.40422        -9.42855        11.87684
| 92>    H      -10.37318        -9.06454        10.91353
| 93>    H      -11.08661        -6.69564        10.34386
| 94>    H       -9.85905        -5.80672         9.43421
| 95>    H      -10.09442        -5.47402        11.15197
| 96>    H       -7.71586        -5.01072        10.23935
| 97>    H       -5.62910        -5.89468        12.29221
| 98>    H       -6.03655        -3.33802        10.62650
| 99>    H       -3.80712        -4.29983        12.48897
|100>    H       -1.73539        -3.23006        12.26801
|101>    H       -0.29701        -1.43657        11.41530
|102>    H       -5.13807        -1.41405        10.41641
|103>    H       -4.86524         0.69494         9.17413
|104>    H       -0.12225         0.56600        10.09480
|105> *
|106>
|107>                          ****END OF INPUT****

CARTESIAN COORDINATES (ANGSTROEM)
---------------------------------
  C     -0.893560    5.978200    4.260320
  C     -1.409930    4.912540    5.023080
  C     -0.788190    4.594930    6.220570
  C      0.347660    5.291790    6.643920
  C      0.859160    6.343380    5.856980
  C      0.215720    6.679710    4.662510
  N      1.968160    7.012590    6.289870
  C      2.674290    6.765400    7.453920
  O      3.650530    7.431650    7.727330
  C      2.122160    5.665550    8.253350
  C      1.015820    4.977730    7.860270
  C      2.779430    5.327350    9.456180
  N      3.292880    5.024930   10.435780
  C     -2.589130    4.209010    4.559210
  S     -3.809690    5.100450    3.717720
  C     -4.786160    3.696490    3.577400
  C     -4.232230    2.597300    4.147080
  C     -4.898970    1.262440    4.089270
  C     -2.948490    2.877060    4.725720
  C     -2.060440    1.926160    5.329020
  C     -2.393380    0.759620    5.934660
  C     -1.430840   -0.094180    6.523470
  C     -1.728040   -1.264570    7.161630
  C     -0.754290   -2.071340    7.768160
  C     -0.972770   -3.266000    8.406570
  C      0.013470   -4.059400    9.039820
  C     -0.461380   -5.198500    9.611570
  C     -1.856750   -5.377510    9.470140
  S     -2.544040   -4.044820    8.561400
  C     -2.609170   -6.411370    9.989680
  C     -2.148800   -7.479580   10.795510
  C     -3.140580   -8.278700   11.268800
  C     -4.453240   -7.878470   10.896420
  S     -4.349840   -6.511730    9.800740
  C     -5.590290   -8.496290   11.352590
  C     -6.961990   -8.195180   11.210620
  S     -8.041830   -9.572660   11.365550
  C     -9.403790   -8.608100   10.959700
  C     -9.085620   -7.307880   10.738740
  C    -10.092400   -6.259670   10.397400
  C     -7.691700   -7.038230   10.919810
  C     -7.183120   -5.701190   10.880700
  C     -6.113050   -5.249060   11.572180
  C     -5.522730   -3.973890   11.333860
  C     -4.312940   -3.620760   11.813640
  C     -3.546260   -2.474770   11.389640
  C     -2.165640   -2.435090   11.676330
  C     -1.355390   -1.436110   11.199460
  C     -1.896100   -0.413800   10.416020
  C     -3.281440   -0.406510   10.147100
  C     -4.082890   -1.438980   10.637850
  C     -3.802220    0.664570    9.371870
  C     -2.993030    1.641890    8.880830
  C     -1.548280    1.627630    9.119050
  O     -0.753650    2.445160    8.690980
  N     -1.118290    0.586230    9.905540
  C     -3.526270    2.705200    8.122100
  N     -3.978740    3.566030    7.514200
  H     -1.383780    6.240120    3.334110
  H     -1.185000    3.830720    6.868580
  H      0.598070    7.491820    4.061450
  H      2.327260    7.772070    5.722210
  H      0.623360    4.168830    8.459210
  H     -5.728250    3.764860    3.069500
  H     -5.685930    1.275920    3.338210
  H     -5.354220    1.018940    5.048990
  H     -4.181610    0.484690    3.834700
  H     -1.012270    2.200140    5.313030
  H     -3.425790    0.459730    6.027620
  H     -0.394740    0.216490    6.465240
  H     -2.756830   -1.600040    7.214520
  H      0.271980   -1.725680    7.731570
  H      1.046630   -3.758690    9.052060
  H      0.151370   -5.911390   10.133130
  H     -1.106490   -7.617000   11.019720
  H     -2.981700   -9.124880   11.914130
  H     -5.404220   -9.428550   11.876840
  H    -10.373180   -9.064540   10.913530
  H    -11.086610   -6.695640   10.343860
  H     -9.859050   -5.806720    9.434210
  H    -10.094420   -5.474020   11.151970
  H     -7.715860   -5.010720   10.239350
  H     -5.629100   -5.894680   12.292210
  H     -6.036550   -3.338020   10.626500
  H     -3.807120   -4.299830   12.488970
  H     -1.735390   -3.230060   12.268010
  H     -0.297010   -1.436570   11.415300
  H     -5.138070   -1.414050   10.416410
  H     -4.865240    0.694940    9.174130
  H     -0.122250    0.566000   10.094800

 Total Charge           Charge          ....    0
 Multiplicity           Mult            ....    1
 Number of Electrons    NEL             ....  428
 Basis Dimension        Dim             ....  988

ORBITAL ENERGIES
----------------

  NO   OCC          E(Eh)            E(eV)
   0   2.0000     -88.947942     -2420.3966
   1   2.0000     -88.945576     -2420.3322
   2   2.0000     -88.944016     -2420.2897
   3   2.0000     -88.943400     -2420.2730
   4   2.0000     -19.202197      -522.5184
   5   2.0000     -19.173138      -521.7276
   6   2.0000     -14.479172      -393.9983
   7   2.0000     -14.457182      -393.3999
   8   2.0000     -14.406479      -392.0202
   9   2.0000     -14.383781      -391.4026
  10   2.0000     -10.400432      -283.0101
  11   2.0000     -10.374353      -282.3005
  12   2.0000     -10.345112      -281.5048
  13   2.0000     -10.330114      -281.0967
  14   2.0000     -10.326546      -280.9996
  15   2.0000     -10.323545      -280.9179
  16   2.0000     -10.314734      -280.6782
  17   2.0000     -10.308320      -280.5037
  18   2.0000     -10.307701      -280.4868
  19   2.0000     -10.307145      -280.4717
  20   2.0000     -10.305784      -280.4347
  21   2.0000     -10.302711      -280.3510
  22   2.0000     -10.299728      -280.2698
  23   2.0000     -10.299705      -280.2692
  24   2.0000     -10.298666      -280.2410
  25   2.0000     -10.294185      -280.1190
  26   2.0000     -10.293085      -280.0891
  27   2.0000     -10.292832      -280.0822
  28   2.0000     -10.291948      -280.0581
  29   2.0000     -10.289910      -280.0027
  30   2.0000     -10.289804      -279.9998
  31   2.0000     -10.288801      -279.9725
  32   2.0000     -10.285510      -279.8830
  33   2.0000     -10.285365      -279.8790
  34   2.0000     -10.284149      -279.8459
  35   2.0000     -10.283626      -279.8317
  36   2.0000     -10.283590      -279.8307
  37   2.0000     -10.283217      -279.8206
  38   2.0000     -10.282826      -279.8099
  39   2.0000     -10.282017      -279.7879
  40   2.0000     -10.281662      -279.7783
  41   2.0000     -10.279731      -279.7257
  42   2.0000     -10.278421      -279.6901
  43   2.0000     -10.276201      -279.6296
  44   2.0000     -10.275754      -279.6175
  45   2.0000     -10.275582      -279.6128
  46   2.0000     -10.275581      -279.6128
  47   2.0000     -10.275529      -279.6114
  48   2.0000     -10.274419      -279.5812
  49   2.0000     -10.273699      -279.5616
  50   2.0000     -10.273479      -279.5556
  51   2.0000     -10.272703      -279.5345
  52   2.0000     -10.271485      -279.5013
  53   2.0000     -10.269602      -279.4501
  54   2.0000     -10.269044      -279.4349
  55   2.0000     -10.268353      -279.4161
  56   2.0000     -10.267228      -279.3855
  57   2.0000     -10.262547      -279.2581
  58   2.0000      -8.043392      -218.8718
  59   2.0000      -8.040671      -218.7978
  60   2.0000      -8.040286      -218.7873
  61   2.0000      -8.039484      -218.7655
  62   2.0000      -6.013166      -163.6266
  63   2.0000      -6.010400      -163.5513
  64   2.0000      -6.009652      -163.5309
  65   2.0000      -6.009227      -163.5194
  66   2.0000      -6.008674      -163.5043
  67   2.0000      -6.006231      -163.4379
  68   2.0000      -6.005432      -163.4161
  69   2.0000      -6.004434      -163.3890
  70   2.0000      -6.004286      -163.3849
  71   2.0000      -6.002260      -163.3298
  72   2.0000      -6.001871      -163.3192
  73   2.0000      -6.001818      -163.3178
  74   2.0000      -1.147952       -31.2374
  75   2.0000      -1.121323       -30.5128
  76   2.0000      -1.065056       -28.9816
  77   2.0000      -1.042690       -28.3730
  78   2.0000      -0.995416       -27.0866
  79   2.0000      -0.993377       -27.0312
  80   2.0000      -0.980263       -26.6743
  81   2.0000      -0.978850       -26.6359
  82   2.0000      -0.970486       -26.4083
  83   2.0000      -0.969750       -26.3882
  84   2.0000      -0.968730       -26.3605
  85   2.0000      -0.947308       -25.7776
  86   2.0000      -0.936815       -25.4920
  87   2.0000      -0.917141       -24.9567
  88   2.0000      -0.913423       -24.8555
  89   2.0000      -0.910532       -24.7768
  90   2.0000      -0.893727       -24.3196
  91   2.0000      -0.880170       -23.9506
  92   2.0000      -0.878599       -23.9079
  93   2.0000      -0.867215       -23.5981
  94   2.0000      -0.862087       -23.4586
  95   2.0000      -0.858499       -23.3609
  96   2.0000      -0.846572       -23.0364
  97   2.0000      -0.844301       -22.9746
  98   2.0000      -0.842237       -22.9184
  99   2.0000      -0.832478       -22.6529
 100   2.0000      -0.825990       -22.4763
 101   2.0000      -0.821164       -22.3450
 102   2.0000      -0.806461       -21.9449
 103   2.0000      -0.789131       -21.4733
 104   2.0000      -0.775360       -21.0986
 105   2.0000      -0.769174       -20.9303
 106   2.0000      -0.758442       -20.6383
 107   2.0000      -0.754751       -20.5378
 108   2.0000      -0.751555       -20.4508
 109   2.0000      -0.748009       -20.3544
 110   2.0000      -0.738962       -20.1082
 111   2.0000      -0.732053       -19.9202
 112   2.0000      -0.722694       -19.6655
 113   2.0000      -0.708957       -19.2917
 114   2.0000      -0.698394       -19.0043
 115   2.0000      -0.684148       -18.6166
 116   2.0000      -0.673225       -18.3194
 117   2.0000      -0.667088       -18.1524
 118   2.0000      -0.666294       -18.1308
 119   2.0000      -0.655782       -17.8447
 120   2.0000      -0.655034       -17.8244
 121   2.0000      -0.647254       -17.6127
 122   2.0000      -0.643756       -17.5175
 123   2.0000      -0.636756       -17.3270
 124   2.0000      -0.629245       -17.1226
 125   2.0000      -0.624667       -16.9981
 126   2.0000      -0.624081       -16.9821
 127   2.0000      -0.614555       -16.7229
 128   2.0000      -0.610365       -16.6089
 129   2.0000      -0.608168       -16.5491
 130   2.0000      -0.600210       -16.3325
 131   2.0000      -0.595566       -16.2062
 132   2.0000      -0.588740       -16.0204
 133   2.0000      -0.588018       -16.0008
 134   2.0000      -0.575302       -15.6548
 135   2.0000      -0.572070       -15.5668
 136   2.0000      -0.567062       -15.4306
 137   2.0000      -0.562260       -15.2999
 138   2.0000      -0.560889       -15.2626
 139   2.0000      -0.548651       -14.9295
 140   2.0000      -0.544587       -14.8190
 141   2.0000      -0.542823       -14.7710
 142   2.0000      -0.536143       -14.5892
 143   2.0000      -0.535048       -14.5594
 144   2.0000      -0.530904       -14.4466
 145   2.0000      -0.530032       -14.4229
 146   2.0000      -0.524515       -14.2728
 147   2.0000      -0.519468       -14.1354
 148   2.0000      -0.516525       -14.0554
 149   2.0000      -0.514107       -13.9896
 150   2.0000      -0.510986       -13.9046
 151   2.0000      -0.507095       -13.7988
 152   2.0000      -0.505817       -13.7640
 153   2.0000      -0.502851       -13.6833
 154   2.0000      -0.501255       -13.6399
 155   2.0000      -0.498575       -13.5669
 156   2.0000      -0.496375       -13.5070
 157   2.0000      -0.495119       -13.4729
 158   2.0000      -0.491219       -13.3668
 159   2.0000      -0.490645       -13.3511
 160   2.0000      -0.484894       -13.1946
 161   2.0000      -0.483675       -13.1615
 162   2.0000      -0.477003       -12.9799
 163   2.0000      -0.473912       -12.8958
 164   2.0000      -0.473050       -12.8724
 165   2.0000      -0.468990       -12.7619
 166   2.0000      -0.467111       -12.7107
 167   2.0000      -0.463841       -12.6218
 168   2.0000      -0.462369       -12.5817
 169   2.0000      -0.460616       -12.5340
 170   2.0000      -0.456458       -12.4209
 171   2.0000      -0.454069       -12.3558
 172   2.0000      -0.448556       -12.2058
 173   2.0000      -0.447740       -12.1836
 174   2.0000      -0.445115       -12.1122
 175   2.0000      -0.443236       -12.0611
 176   2.0000      -0.442887       -12.0516
 177   2.0000      -0.437726       -11.9111
 178   2.0000      -0.436381       -11.8745
 179   2.0000      -0.435500       -11.8505
 180   2.0000      -0.431328       -11.7370
 181   2.0000      -0.429044       -11.6749
 182   2.0000      -0.427648       -11.6369
 183   2.0000      -0.425023       -11.5655
 184   2.0000      -0.421389       -11.4666
 185   2.0000      -0.416916       -11.3449
 186   2.0000      -0.414872       -11.2892
 187   2.0000      -0.414565       -11.2809
 188   2.0000      -0.410376       -11.1669
 189   2.0000      -0.408022       -11.1029
 190   2.0000      -0.406557       -11.0630
 191   2.0000      -0.404017       -10.9939
 192   2.0000      -0.397148       -10.8069
 193   2.0000      -0.390336       -10.6216
 194   2.0000      -0.387958       -10.5569
 195   2.0000      -0.386399       -10.5145
 196   2.0000      -0.384812       -10.4713
 197   2.0000      -0.374503       -10.1907
 198   2.0000      -0.359810        -9.7909
 199   2.0000      -0.356443        -9.6993
 200   2.0000      -0.348528        -9.4839
 201   2.0000      -0.334175        -9.0934
 202   2.0000      -0.330253        -8.9866
 203   2.0000      -0.329879        -8.9765
 204   2.0000      -0.321771        -8.7558
 205   2.0000      -0.318104        -8.6561
 206   2.0000      -0.315857        -8.5949
 207   2.0000      -0.297506        -8.0956
 208   2.0000      -0.296939        -8.0801
 209   2.0000      -0.292944        -7.9714
 210   2.0000      -0.273207        -7.4343
 211   2.0000      -0.255428        -6.9505
 212   2.0000      -0.246606        -6.7105
 213   2.0000      -0.207244        -5.6394
 214   0.0000      -0.081306        -2.2124
 215   0.0000      -0.056965        -1.5501
 216   0.0000      -0.036437        -0.9915
 217   0.0000      -0.033944        -0.9237
 218   0.0000      -0.019174        -0.5217

MULLIKEN ATOMIC CHARGES
-----------------------
   0 C :   -0.008770
   1 C :    0.105233
   2 C :   -0.074562
   3 C :    0.014127
   4 C :    0.090664
   5 C :   -0.020979
   6 N :   -0.030977
   7 C :    0.123918
   8 O :   -0.178723
   9 C :   -0.234555
  10 C :    0.099302
  11 C :   -0.133121
  12 N :    0.105886
  13 C :   -0.126267
  14 S :    0.118077
  15 C :   -0.122039
  16 C :   -0.085811
  17 C :    0.119197
  18 C :    0.163510
  19 C :   -0.063362
  20 C :   -0.000450
  21 C :    0.028917
  22 C :   -0.012287
  23 C :   -0.029848
  24 C :   -0.008738
  25 C :    0.031421
  26 C :    0.014469
  27 C :   -0.044231
  28 S :    0.082492
  29 C :   -0.070986
  30 C :    0.021450
  31 C :    0.038362
  32 C :   -0.052549
  33 S :    0.110586
  34 C :    0.001510
  35 C :   -0.176792
  36 S :    0.095359
  37 C :   -0.119304
  38 C :   -0.087805
  39 C :    0.117959
  40 C :    0.149607
  41 C :   -0.072328
  42 C :    0.022392
  43 C :    0.033266
  44 C :   -0.012073
  45 C :    0.150994
  46 C :   -0.013639
  47 C :    0.011718
  48 C :    0.084999
  49 C :    0.066994
  50 C :   -0.098769
  51 C :    0.060501
  52 C :   -0.197224
  53 C :    0.155070
  54 O :   -0.200233
  55 N :   -0.015230
  56 C :   -0.152274
  57 N :    0.132509
  58 H :   -0.010444
  59 H :   -0.013354
  60 H :   -0.035130
  61 H :    0.129651
  62 H :    0.002425
  63 H :    0.006756
  64 H :    0.004976
  65 H :    0.030106
  66 H :    0.027473
  67 H :    0.005263
  68 H :   -0.029512
  69 H :   -0.009858
  70 H :   -0.009417
  71 H :   -0.020009
  72 H :   -0.015972
  73 H :   -0.014992
  74 H :   -0.020391
  75 H :   -0.014993
  76 H :   -0.009389
  77 H :    0.013777
  78 H :    0.007377
  79 H :    0.026718
  80 H :    0.029237
  81 H :   -0.019819
  82 H :    0.010167
  83 H :   -0.018488
  84 H :   -0.022605
  85 H :   -0.012287
  86 H :   -0.034362
  87 H :   -0.029972
  88 H :    0.005454
  89 H :    0.135052
Sum of atomic charges:   -0.0000000

LOEWDIN ATOMIC CHARGES
----------------------
   0 C :    0.006070
   1 C :   -0.057811
   2 C :    0.024311
   3 C :   -0.062005
   4 C :    0.050341
   5 C :   -0.053059
   6 N :    0.045551
   7 C :    0.069797
   8 O :   -0.203845
   9 C :   -0.125007
  10 C :    0.079319
  11 C :   -0.020426
  12 N :   -0.061877
  13 C :   -0.147844
  14 S :    0.443494
  15 C :   -0.196072
  16 C :   -0.048290
  17 C :   -0.045728
  18 C :   -0.063589
  19 C :    0.004153
  20 C :   -0.048005
  21 C :   -0.009286
  22 C :   -0.054083
  23 C :   -0.055289
  24 C :   -0.152840
  25 C :   -0.033722
  26 C :   -0.039952
  27 C :   -0.174349
  28 S :    0.377528
  29 C :   -0.186944
  30 C :   -0.048892
  31 C :   -0.033069
  32 C :   -0.157626
  33 S :    0.433337
  34 C :   -0.083974
  35 C :   -0.166106
  36 S :    0.414527
  37 C :   -0.192284
  38 C :   -0.057845
  39 C :   -0.044839
  40 C :   -0.066438
  41 C :   -0.041272
  42 C :   -0.028879
  43 C :   -0.019270
  44 C :   -0.034219
  45 C :   -0.033481
  46 C :    0.016004
  47 C :   -0.040628
  48 C :    0.049620
  49 C :   -0.058043
  50 C :    0.007682
  51 C :    0.070440
  52 C :   -0.113909
  53 C :    0.084654
  54 O :   -0.216316
  55 N :    0.065277
  56 C :   -0.023311
  57 N :   -0.046546
  58 H :    0.026490
  59 H :    0.033962
  60 H :    0.029605
  61 H :    0.096851
  62 H :    0.044627
  63 H :    0.019131
  64 H :    0.031724
  65 H :    0.031418
  66 H :    0.034253
  67 H :    0.033180
  68 H :    0.023088
  69 H :    0.028658
  70 H :    0.020273
  71 H :    0.030447
  72 H :    0.032111
  73 H :    0.031072
  74 H :    0.028912
  75 H :    0.032110
  76 H :    0.032984
  77 H :    0.020644
  78 H :    0.032534
  79 H :    0.033607
  80 H :    0.035603
  81 H :    0.024267
  82 H :    0.029299
  83 H :    0.022014
  84 H :    0.026443
  85 H :    0.033882
  86 H :    0.030539
  87 H :    0.028764
  88 H :    0.045733
  89 H :    0.100643

  Mayer bond orders larger than 0.100000
B(  0-C ,  1-C ) :   1.2837 B(  0-C ,  5-C ) :   1.4289 B(  0-C , 58-H ) :   0.9850
B(  1-C ,  2-C ) :   1.3665 B(  1-C , 13-C ) :   1.0287 B(  2-C ,  3-C ) :   1.2903
B(  2-C , 59-H ) :   1.0020 B(  3-C ,  4-C ) :   1.2940 B(  3-C , 10-C ) :   1.1455
B(  4-C ,  5-C ) :   1.2876 B(  4-C ,  6-N ) :   1.1948 B(  5-C , 60-H ) :   0.9947
B(  6-N ,  7-C ) :   1.0890 B(  6-N , 61-H ) :   0.9031 B(  7-C ,  8-O ) :   2.2385
B(  7-C ,  9-C ) :   0.9541 B(  9-C , 10-C ) :   1.6113 B(  9-C , 11-C ) :   1.1138
B( 10-C , 62-H ) :   0.9700 B( 11-C , 12-N ) :   3.0436 B( 13-C , 14-S ) :   1.1675
B( 13-C , 18-C ) :   1.4706 B( 14-S , 15-C ) :   1.1284 B( 15-C , 16-C ) :   1.6184
B( 15-C , 63-H ) :   0.9662 B( 16-C , 17-C ) :   1.0977 B( 16-C , 18-C ) :   1.2131
B( 17-C , 64-H ) :   0.9448 B( 17-C , 65-H ) :   0.9378 B( 17-C , 66-H ) :   0.9438
B( 18-C , 19-C ) :   1.0883 B( 19-C , 20-C ) :   1.6473 B( 19-C , 67-H ) :   0.9621
B( 20-C , 21-C ) :   1.1434 B( 20-C , 68-H ) :   0.9735 B( 21-C , 22-C ) :   1.5983
B( 21-C , 69-H ) :   0.9866 B( 22-C , 23-C ) :   1.1473 B( 22-C , 70-H ) :   0.9739
B( 23-C , 24-C ) :   1.5600 B( 23-C , 71-H ) :   0.9835 B( 24-C , 25-C ) :   1.1403
B( 24-C , 28-S ) :   1.0287 B( 25-C , 26-C ) :   1.5798 B( 25-C , 72-H ) :   1.0017
B( 26-C , 27-C ) :   1.1879 B( 26-C , 73-H ) :   0.9949 B( 27-C , 28-S ) :   1.0498
B( 27-C , 29-C ) :   1.5034 B( 29-C , 30-C ) :   1.1782 B( 29-C , 33-S ) :   1.0412
B( 30-C , 31-C ) :   1.5923 B( 30-C , 74-H ) :   0.9925 B( 31-C , 32-C ) :   1.1317
B( 31-C , 75-H ) :   0.9982 B( 32-C , 33-S ) :   1.0586 B( 32-C , 34-C ) :   1.6005
B( 34-C , 35-C ) :   1.1636 B( 34-C , 76-H ) :   0.9371 B( 35-C , 36-S ) :   1.1234
B( 35-C , 40-C ) :   1.4082 B( 36-S , 37-C ) :   1.1277 B( 37-C , 38-C ) :   1.6076
B( 37-C , 77-H ) :   0.9662 B( 38-C , 39-C ) :   1.0968 B( 38-C , 40-C ) :   1.2211
B( 39-C , 78-H ) :   0.9513 B( 39-C , 79-H ) :   0.9427 B( 39-C , 80-H ) :   0.9429
B( 40-C , 41-C ) :   1.1102 B( 41-C , 42-C ) :   1.6615 B( 41-C , 81-H ) :   0.9579
B( 42-C , 43-C ) :   1.1152 B( 42-C , 82-H ) :   0.9882 B( 43-C , 44-C ) :   1.6847
B( 43-C , 83-H ) :   0.9755 B( 44-C , 45-C ) :   1.0597 B( 44-C , 84-H ) :   0.9822
B( 45-C , 46-C ) :   1.2711 B( 45-C , 50-C ) :   1.3650 B( 46-C , 47-C ) :   1.4240
B( 46-C , 85-H ) :   0.9922 B( 47-C , 48-C ) :   1.3032 B( 47-C , 86-H ) :   0.9908
B( 48-C , 49-C ) :   1.2914 B( 48-C , 55-N ) :   1.1760 B( 49-C , 50-C ) :   1.2700
B( 49-C , 51-C ) :   1.1315 B( 50-C , 87-H ) :   1.0010 B( 51-C , 52-C ) :   1.6045
B( 51-C , 88-H ) :   0.9892 B( 52-C , 53-C ) :   0.9764 B( 52-C , 56-C ) :   1.1224
B( 53-C , 54-O ) :   2.0528 B( 53-C , 55-N ) :   1.1430 B( 55-N , 89-H ) :   0.9008
B( 56-C , 57-N ) :   2.9946

-----------------------------------------------------------------------------
         ABSORPTION SPECTRUM VIA TRANSITION ELECTRIC DIPOLE MOMENTS
-----------------------------------------------------------------------------
State   Energy  Wavelength   fosc         T2         TX        TY        TZ
        (cm-1)    (nm)                  (au**2)     (au)      (au)      (au)
-----------------------------------------------------------------------------
   0   13810.2    724.1   1.031189838  24.58185   2.39319   3.58106  -2.45571
   1   16083.9    621.7   0.035604235   0.72876   0.18139   0.69011  -0.46862
   2   19041.9    525.2   0.028792817   0.49779  -0.03470   0.65239  -0.26642
   3   21559.5    463.8   0.739061873  11.28543   0.13622   3.31834  -0.50543
   4   23942.2    417.7   0.056394982   0.77545  -0.49081   0.70945  -0.17672
   5   25018.8    399.7   0.131253493   1.72711   0.05266  -1.25882   0.37378
   6   25725.9    388.7   0.026635001   0.34085  -0.26272   0.30880  -0.42008
   7   26219.9    381.4   0.229609025   2.88293   0.36004  -1.64904   0.18426
   8   26885.8    371.9   0.152229584   1.86403   0.86971   0.82007  -0.65964
   9   28484.0    351.1   0.107102387   1.23787  -0.53699   0.88845  -0.40021
  10   28702.3    348.4   0.274741512   3.15125  -0.21572   1.59403  -0.75086
  11   30566.3    327.2   0.441590916   4.75612   1.69150   1.32035  -0.38939
  12   30948.8    323.1   0.188385972   2.00392   1.01507  -0.06551   0.98451
  13   31327.7    319.2   0.249819738   2.62527   1.43084   0.72003   0.24398
  14   31898.4    313.5   0.081899076   0.84525   0.72183   0.55824  -0.11216
  15   32194.6    310.6   0.002952050   0.03019  -0.14373  -0.07218   0.06572
  16   32708.5    305.7   0.132916576   1.33781  -0.89559  -0.73128   0.03098
  17   34060.2    293.6   0.243040422   2.34913   1.18035   0.95024   0.23012
  18   34320.1    291.4   0.001832073   0.01757  -0.12322  -0.03631  -0.03276
  19   34477.3    290.0   0.381922008   3.64684   1.50834   1.16770  -0.09069
  20   34969.7    286.0   0.018843627   0.17740  -0.08992   0.33930   0.23278
  21   35119.5    284.7   0.010463479   0.09809   0.00329  -0.21013   0.23221
  22   35251.7    283.7   0.161908251   1.51204  -1.10721  -0.21813  -0.48841
  23   35453.6    282.1   0.229342216   2.12961   0.71145   1.21218  -0.39251
  24   36010.2    277.7   0.012346165   0.11287   0.20856  -0.25909  -0.04742
  25   36220.8    276.1   0.025481755   0.23160   0.30370  -0.06798   0.36708
  26   36522.4    273.8   0.107753879   0.97129  -0.75450  -0.61726   0.14493
  27   36788.1    271.8   0.019399166   0.17360   0.09777   0.06715   0.39941
  28   37244.3    268.5   0.085489668   0.75567   0.60763   0.20589   0.58657
  29   37683.5    265.4   0.006714778   0.05866  -0.07933  -0.15136   0.17163
  30   37842.8    264.3   0.062828461   0.54657   0.62495   0.11884   0.37668
  31   38128.0    262.3   0.011631219   0.10043  -0.28003  -0.09089  -0.11726
  32   38570.6    259.3   0.239014534   2.04006  -0.71816  -1.21444   0.22234
  33   39101.0    255.7   0.053242722   0.44828  -0.28830   0.51955  -0.30859
  34   39316.8    254.3   0.002518659   0.02109  -0.12504   0.07211   0.01596
  35   39355.6    254.1   0.012344039   0.10326   0.08000   0.14076  -0.27757
  36   39998.2    250.0   0.019536812   0.16080  -0.18646  -0.35474   0.01389

FINAL SINGLE POINT ENERGY     -3807.240621650795

DIPOLE MOMENT
-------------
                                X             Y             Z
Electronic contribution:     18.75835      19.06941       0.52858
Nuclear contribution   :    -21.03309     -22.30834      -1.03630
                        -----------------------------------------
Total Dipole Moment    :     -2.27474      -3.23893      -0.50771
                        -----------------------------------------
Magnitude (a.u.)       :      3.99035
Magnitude (Debye)      :     10.14266

Rotational constants in cm-1:     0.002794     0.000547     0.000496
Rotational constants in MHz :    83.768517    16.395314    14.883405

                             ****ORCA TERMINATED NORMALLY****
TOTAL RUN TIME: 0 days 0 hours 9 minutes 42 seconds 533 msec
