                         Program Version 4.2.0 -  RELEASE  -
|  1> # ORCA input file
|  2> # SCF done       -197.818587245017          0.000718278249
|  3> ! CAM-B3LYP def2-SVP def2/J RIJCOSX Grid4 TightSCF
|  4> %maxcore 5000
|  5> %tddft
|  6>     Mode sTDDFT
|  7>     Ethresh 5.0
|  8>     maxcore 5000
|  9> end
| 10>
| 11> %pal
| 12>   nprocs 6
| 13>   end
| 14> * xyz 0 1
| 15>    C       -9.02475       -11.98422         1.82008
| 16>    C       -8.32087       -11.22072         2.77198
| 17>    C       -8.47088       -11.50252         4.12158
| 18>    C       -9.31729       -12.52921         4.54481
| 19>    C      -10.02314       -13.28314         3.58121
| 20>    C       -9.85990       -12.99606         2.22033
| 21>    N      -10.85263       -14.27830         4.00249
| 22>    C      -11.09586       -14.65095         5.31480
| 23>    O      -11.86257       -15.55364         5.56231
| 24>    C      -10.34705       -13.85519         6.29716
| 25>    C       -9.50873       -12.85468         5.91761
| 26>    C      -10.52321       -14.15885         7.66563
| 27>    N      -10.64566       -14.37223         8.78480
| 28>    C       -7.46357       -10.14504         2.33992
| 29>    O       -6.81411        -9.39661         3.27182
| 30>    C       -7.14954        -9.65551         1.09412
| 31>    C       -7.36502        -9.81696        -0.34786
| 32>    O       -8.03210       -10.61212        -0.96171
| 33>    N       -6.60142        -8.80605        -0.91362
| 34>    C       -5.90872        -7.99646        -0.00767
| 35>    O       -5.19830        -7.07465        -0.31092
| 36>    C       -6.27172        -8.55372         1.29364
| 37>    C       -6.08961        -8.42349         2.65265
| 38>    C       -5.34769        -7.47401         3.41291
| 39>    C       -5.27231        -7.52299         4.75771
| 40>    C       -4.53511        -6.58310         5.56668
| 41>    C       -3.38273        -6.01706         5.09547
| 42>    S       -2.57370        -5.00089         6.20955
| 43>    C       -3.82195        -5.29461         7.38116
| 44>    C       -4.82821        -6.15563         6.91803
| 45>    C       -5.95454        -6.38773         7.74543
| 46>    C       -7.11779        -7.17075         7.19054
| 47>    C       -7.03309        -8.66228         7.52775
| 48>    C       -6.00120        -5.86763         9.03317
| 49>    C       -7.20213        -6.10645         9.91232
| 50>    C       -8.12553        -4.88625         9.92369
| 51>    C       -4.95505        -5.03957         9.51115
| 52>    C       -4.81013        -4.30456        10.75067
| 53>    C       -3.71253        -3.48786        10.72765
| 54>    S       -2.76866        -3.58657         9.30331
| 55>    C       -3.89371        -4.73315         8.64452
| 56>    C       -5.62497        -4.34509        11.94191
| 57>    C       -5.93069        -3.23929        12.66224
| 58>    C       -6.67536        -3.26055        13.86064
| 59>    C       -7.10826        -2.13306        14.50548
| 60>    C       -7.84409        -2.05608        15.71548
| 61>    C       -8.16516        -0.78876        16.09361
| 62>    C       -7.71237         0.20712        15.19660
| 63>    S       -6.83498        -0.51260        13.87455
| 64>    C       -7.92339         1.57396        15.25986
| 65>    C       -8.60222         2.31088        16.25205
| 66>    C       -8.66861         3.64890        15.99001
| 67>    C       -8.05275         4.03175        14.77731
| 68>    S       -7.36017         2.63496        13.98704
| 69>    C       -8.00107         5.30441        14.23861
| 70>    C       -7.40446         5.57617        13.01317
| 71>    C       -7.35883         6.81569        12.40455
| 72>    C       -6.76844         7.12264        11.12834
| 73>    C       -6.11627         6.25674        10.27940
| 74>    C       -5.56590         6.63157         9.03844
| 75>    N       -5.09303         6.87160         8.01899
| 76>    C       -5.89828         4.88396        10.50736
| 77>    N       -5.67290         3.76064        10.60400
| 78>    C       -6.98183         8.54629        10.87085
| 79>    C       -7.68101         9.10505        11.96781
| 80>    C       -7.94047         8.04708        12.96857
| 81>    O       -8.52023         8.18965        14.02844
| 82>    C       -8.03544        10.42977        12.02419
| 83>    C       -7.68405        11.24633        10.94313
| 84>    C       -6.98663        10.67982         9.85200
| 85>    C       -6.62683         9.33808         9.79608
| 86>    S       -6.65283        11.86287         8.62267
| 87>    C       -7.44538        13.08540         9.58045
| 88>    C       -7.93453        12.63424        10.75919
| 89>   Br       -7.55202        14.84330         8.93283
| 90>    H       -8.90252       -11.76431         0.77083
| 91>    H       -7.93074       -10.92480         4.85577
| 92>    H      -10.39997       -13.57800         1.48881
| 93>    H      -11.35692       -14.81435         3.30447
| 94>    H       -8.97115       -12.28813         6.66593
| 95>    H       -6.54934        -8.66380        -1.91239
| 96>    H       -4.88076        -6.69067         2.83604
| 97>    H       -5.76491        -8.34095         5.25861
| 98>    H       -2.93184        -6.19555         4.13884
| 99>    H       -7.14456        -7.03633         6.10875
|100>    H       -8.05552        -6.76900         7.57422
|101>    H       -6.07866        -9.08176         7.21655
|102>    H       -7.83646        -9.20333         7.03110
|103>    H       -7.12316        -8.82484         8.59925
|104>    H       -6.87414        -6.33050        10.92461
|105>    H       -7.76519        -6.97254         9.57466
|106>    H       -7.60378        -4.00781        10.29401
|107>    H       -8.98594        -5.07100        10.56280
|108>    H       -8.48083        -4.67176         8.91815
|109>    H       -3.37548        -2.85786        11.52777
|110>    H       -5.97771        -5.30421        12.29152
|111>    H       -5.63170        -2.26681        12.29219
|112>    H       -6.93151        -4.21919        14.29253
|113>    H       -8.11129        -2.94181        16.26450
|114>    H       -8.72132        -0.54291        16.98020
|115>    H       -9.02132         1.84369        17.12520
|116>    H       -9.14771         4.37216        16.62553
|117>    H       -8.45994         6.11087        14.79181
|118>    H       -6.95235         4.73771        12.49734
|119>    H       -8.56845        10.82543        12.87456
|120>    H       -6.09607         8.95610         8.94036
|121>    H       -8.45107        13.25212        11.47087
|122> *
|123>
|124>                          ****END OF INPUT****

CARTESIAN COORDINATES (ANGSTROEM)
---------------------------------
  C     -9.024750  -11.984220    1.820080
  C     -8.320870  -11.220720    2.771980
  C     -8.470880  -11.502520    4.121580
  C     -9.317290  -12.529210    4.544810
  C    -10.023140  -13.283140    3.581210
  C     -9.859900  -12.996060    2.220330
  N    -10.852630  -14.278300    4.002490
  C    -11.095860  -14.650950    5.314800
  O    -11.862570  -15.553640    5.562310
  C    -10.347050  -13.855190    6.297160
  C     -9.508730  -12.854680    5.917610
  C    -10.523210  -14.158850    7.665630
  N    -10.645660  -14.372230    8.784800
  C     -7.463570  -10.145040    2.339920
  O     -6.814110   -9.396610    3.271820
  C     -7.149540   -9.655510    1.094120
  C     -7.365020   -9.816960   -0.347860
  O     -8.032100  -10.612120   -0.961710
  N     -6.601420   -8.806050   -0.913620
  C     -5.908720   -7.996460   -0.007670
  O     -5.198300   -7.074650   -0.310920
  C     -6.271720   -8.553720    1.293640
  C     -6.089610   -8.423490    2.652650
  C     -5.347690   -7.474010    3.412910
  C     -5.272310   -7.522990    4.757710
  C     -4.535110   -6.583100    5.566680
  C     -3.382730   -6.017060    5.095470
  S     -2.573700   -5.000890    6.209550
  C     -3.821950   -5.294610    7.381160
  C     -4.828210   -6.155630    6.918030
  C     -5.954540   -6.387730    7.745430
  C     -7.117790   -7.170750    7.190540
  C     -7.033090   -8.662280    7.527750
  C     -6.001200   -5.867630    9.033170
  C     -7.202130   -6.106450    9.912320
  C     -8.125530   -4.886250    9.923690
  C     -4.955050   -5.039570    9.511150
  C     -4.810130   -4.304560   10.750670
  C     -3.712530   -3.487860   10.727650
  S     -2.768660   -3.586570    9.303310
  C     -3.893710   -4.733150    8.644520
  C     -5.624970   -4.345090   11.941910
  C     -5.930690   -3.239290   12.662240
  C     -6.675360   -3.260550   13.860640
  C     -7.108260   -2.133060   14.505480
  C     -7.844090   -2.056080   15.715480
  C     -8.165160   -0.788760   16.093610
  C     -7.712370    0.207120   15.196600
  S     -6.834980   -0.512600   13.874550
  C     -7.923390    1.573960   15.259860
  C     -8.602220    2.310880   16.252050
  C     -8.668610    3.648900   15.990010
  C     -8.052750    4.031750   14.777310
  S     -7.360170    2.634960   13.987040
  C     -8.001070    5.304410   14.238610
  C     -7.404460    5.576170   13.013170
  C     -7.358830    6.815690   12.404550
  C     -6.768440    7.122640   11.128340
  C     -6.116270    6.256740   10.279400
  C     -5.565900    6.631570    9.038440
  N     -5.093030    6.871600    8.018990
  C     -5.898280    4.883960   10.507360
  N     -5.672900    3.760640   10.604000
  C     -6.981830    8.546290   10.870850
  C     -7.681010    9.105050   11.967810
  C     -7.940470    8.047080   12.968570
  O     -8.520230    8.189650   14.028440
  C     -8.035440   10.429770   12.024190
  C     -7.684050   11.246330   10.943130
  C     -6.986630   10.679820    9.852000
  C     -6.626830    9.338080    9.796080
  S     -6.652830   11.862870    8.622670
  C     -7.445380   13.085400    9.580450
  C     -7.934530   12.634240   10.759190
  Br    -7.552020   14.843300    8.932830
  H     -8.902520  -11.764310    0.770830
  H     -7.930740  -10.924800    4.855770
  H    -10.399970  -13.578000    1.488810
  H    -11.356920  -14.814350    3.304470
  H     -8.971150  -12.288130    6.665930
  H     -6.549340   -8.663800   -1.912390
  H     -4.880760   -6.690670    2.836040
  H     -5.764910   -8.340950    5.258610
  H     -2.931840   -6.195550    4.138840
  H     -7.144560   -7.036330    6.108750
  H     -8.055520   -6.769000    7.574220
  H     -6.078660   -9.081760    7.216550
  H     -7.836460   -9.203330    7.031100
  H     -7.123160   -8.824840    8.599250
  H     -6.874140   -6.330500   10.924610
  H     -7.765190   -6.972540    9.574660
  H     -7.603780   -4.007810   10.294010
  H     -8.985940   -5.071000   10.562800
  H     -8.480830   -4.671760    8.918150
  H     -3.375480   -2.857860   11.527770
  H     -5.977710   -5.304210   12.291520
  H     -5.631700   -2.266810   12.292190
  H     -6.931510   -4.219190   14.292530
  H     -8.111290   -2.941810   16.264500
  H     -8.721320   -0.542910   16.980200
  H     -9.021320    1.843690   17.125200
  H     -9.147710    4.372160   16.625530
  H     -8.459940    6.110870   14.791810
  H     -6.952350    4.737710   12.497340
  H     -8.568450   10.825430   12.874560
  H     -6.096070    8.956100    8.940360
  H     -8.451070   13.252120   11.470870

 Total Charge           Charge          ....    0
 Multiplicity           Mult            ....    1
 Number of Electrons    NEL             ....  576
 Basis Dimension        Dim             .... 1248

ORBITAL ENERGIES
----------------

  NO   OCC          E(Eh)            E(eV)
   0   2.0000    -482.876289    -13139.7318
   1   2.0000     -88.963970     -2420.8327
   2   2.0000     -88.963344     -2420.8157
   3   2.0000     -88.963081     -2420.8085
   4   2.0000     -88.962198     -2420.7845
   5   2.0000     -88.957600     -2420.6593
   6   2.0000     -62.554034     -1702.1818
   7   2.0000     -56.387970     -1534.3947
   8   2.0000     -56.385278     -1534.3214
   9   2.0000     -56.385238     -1534.3203
  10   2.0000     -19.319626      -525.7138
  11   2.0000     -19.219218      -522.9815
  12   2.0000     -19.214086      -522.8419
  13   2.0000     -19.198663      -522.4222
  14   2.0000     -19.196712      -522.3691
  15   2.0000     -14.480500      -394.0345
  16   2.0000     -14.460385      -393.4871
  17   2.0000     -14.405728      -391.9998
  18   2.0000     -14.399873      -391.8405
  19   2.0000     -14.397180      -391.7672
  20   2.0000     -10.407881      -283.2128
  21   2.0000     -10.403658      -283.0979
  22   2.0000     -10.397800      -282.9385
  23   2.0000     -10.370499      -282.1956
  24   2.0000     -10.366827      -282.0957
  25   2.0000     -10.356595      -281.8173
  26   2.0000     -10.348918      -281.6084
  27   2.0000     -10.347510      -281.5701
  28   2.0000     -10.336629      -281.2740
  29   2.0000     -10.331203      -281.1263
  30   2.0000     -10.327182      -281.0169
  31   2.0000     -10.325827      -280.9800
  32   2.0000     -10.323177      -280.9079
  33   2.0000     -10.322650      -280.8936
  34   2.0000     -10.320750      -280.8419
  35   2.0000     -10.320534      -280.8360
  36   2.0000     -10.312045      -280.6050
  37   2.0000     -10.311435      -280.5884
  38   2.0000     -10.310462      -280.5619
  39   2.0000     -10.309758      -280.5428
  40   2.0000     -10.308174      -280.4997
  41   2.0000     -10.307821      -280.4901
  42   2.0000     -10.307732      -280.4877
  43   2.0000     -10.306932      -280.4659
  44   2.0000     -10.306144      -280.4444
  45   2.0000     -10.305964      -280.4395
  46   2.0000     -10.305561      -280.4286
  47   2.0000     -10.305068      -280.4152
  48   2.0000     -10.304755      -280.4066
  49   2.0000     -10.304082      -280.3883
  50   2.0000     -10.303825      -280.3813
  51   2.0000     -10.301643      -280.3219
  52   2.0000     -10.301585      -280.3204
  53   2.0000     -10.300838      -280.3000
  54   2.0000     -10.300807      -280.2992
  55   2.0000     -10.296469      -280.1812
  56   2.0000     -10.295783      -280.1625
  57   2.0000     -10.295477      -280.1542
  58   2.0000     -10.294090      -280.1164
  59   2.0000     -10.294088      -280.1164
  60   2.0000     -10.294043      -280.1152
  61   2.0000     -10.293033      -280.0877
  62   2.0000     -10.292696      -280.0785
  63   2.0000     -10.291798      -280.0541
  64   2.0000     -10.291068      -280.0342
  65   2.0000     -10.290673      -280.0234
  66   2.0000     -10.290072      -280.0071
  67   2.0000     -10.289589      -279.9939
  68   2.0000     -10.286811      -279.9184
  69   2.0000     -10.285868      -279.8927
  70   2.0000     -10.285408      -279.8802
  71   2.0000     -10.284828      -279.8644
  72   2.0000     -10.277174      -279.6561
  73   2.0000     -10.276554      -279.6392
  74   2.0000     -10.274802      -279.5916
  75   2.0000     -10.274536      -279.5843
  76   2.0000     -10.273270      -279.5499
  77   2.0000     -10.272026      -279.5160
  78   2.0000     -10.261606      -279.2325
  79   2.0000      -8.783478      -239.0106
  80   2.0000      -8.059912      -219.3213
  81   2.0000      -8.059468      -219.3093
  82   2.0000      -8.059409      -219.3077
  83   2.0000      -8.058472      -219.2822
  84   2.0000      -8.053673      -219.1516
  85   2.0000      -6.619737      -180.1322
  86   2.0000      -6.605218      -179.7371
  87   2.0000      -6.605063      -179.7329
  88   2.0000      -6.029609      -164.0740
  89   2.0000      -6.029066      -164.0592
  90   2.0000      -6.028919      -164.0552
  91   2.0000      -6.027906      -164.0277
  92   2.0000      -6.025350      -163.9581
  93   2.0000      -6.025058      -163.9502
  94   2.0000      -6.024667      -163.9395
  95   2.0000      -6.023690      -163.9129
  96   2.0000      -6.023269      -163.9015
  97   2.0000      -6.021268      -163.8470
  98   2.0000      -6.021132      -163.8433
  99   2.0000      -6.020374      -163.8227
 100   2.0000      -6.020224      -163.8186
 101   2.0000      -6.019234      -163.7917
 102   2.0000      -6.014825      -163.6717
 103   2.0000      -2.735581       -74.4389
 104   2.0000      -2.731558       -74.3295
 105   2.0000      -2.731424       -74.3258
 106   2.0000      -2.719891       -74.0120
 107   2.0000      -2.719870       -74.0114
 108   2.0000      -1.235212       -33.6118
 109   2.0000      -1.161404       -31.6034
 110   2.0000      -1.145557       -31.1722
 111   2.0000      -1.140476       -31.0339
 112   2.0000      -1.111881       -30.2558
 113   2.0000      -1.067617       -29.0513
 114   2.0000      -1.048200       -28.5230
 115   2.0000      -1.012990       -27.5648
 116   2.0000      -1.012361       -27.5477
 117   2.0000      -1.008452       -27.4414
 118   2.0000      -0.998077       -27.1591
 119   2.0000      -0.992084       -26.9960
 120   2.0000      -0.989263       -26.9192
 121   2.0000      -0.983697       -26.7678
 122   2.0000      -0.981039       -26.6954
 123   2.0000      -0.977690       -26.6043
 124   2.0000      -0.973399       -26.4875
 125   2.0000      -0.942434       -25.6449
 126   2.0000      -0.936539       -25.4845
 127   2.0000      -0.932184       -25.3660
 128   2.0000      -0.930154       -25.3108
 129   2.0000      -0.927739       -25.2451
 130   2.0000      -0.925446       -25.1827
 131   2.0000      -0.906290       -24.6614
 132   2.0000      -0.896435       -24.3932
 133   2.0000      -0.893967       -24.3261
 134   2.0000      -0.886495       -24.1228
 135   2.0000      -0.875583       -23.8258
 136   2.0000      -0.872306       -23.7367
 137   2.0000      -0.871141       -23.7050
 138   2.0000      -0.869529       -23.6611
 139   2.0000      -0.862742       -23.4764
 140   2.0000      -0.861186       -23.4341
 141   2.0000      -0.853530       -23.2257
 142   2.0000      -0.838847       -22.8262
 143   2.0000      -0.836935       -22.7742
 144   2.0000      -0.823777       -22.4161
 145   2.0000      -0.821436       -22.3524
 146   2.0000      -0.815637       -22.1946
 147   2.0000      -0.800402       -21.7801
 148   2.0000      -0.794672       -21.6241
 149   2.0000      -0.781977       -21.2787
 150   2.0000      -0.779562       -21.2130
 151   2.0000      -0.776261       -21.1231
 152   2.0000      -0.767057       -20.8727
 153   2.0000      -0.758603       -20.6426
 154   2.0000      -0.756383       -20.5822
 155   2.0000      -0.743913       -20.2429
 156   2.0000      -0.742529       -20.2053
 157   2.0000      -0.732585       -19.9347
 158   2.0000      -0.729626       -19.8541
 159   2.0000      -0.720894       -19.6165
 160   2.0000      -0.710496       -19.3336
 161   2.0000      -0.704823       -19.1792
 162   2.0000      -0.701530       -19.0896
 163   2.0000      -0.697668       -18.9845
 164   2.0000      -0.682460       -18.5707
 165   2.0000      -0.681309       -18.5394
 166   2.0000      -0.674948       -18.3663
 167   2.0000      -0.673505       -18.3270
 168   2.0000      -0.660435       -17.9713
 169   2.0000      -0.659019       -17.9328
 170   2.0000      -0.658145       -17.9090
 171   2.0000      -0.646080       -17.5807
 172   2.0000      -0.643086       -17.4993
 173   2.0000      -0.642355       -17.4794
 174   2.0000      -0.638241       -17.3674
 175   2.0000      -0.633623       -17.2418
 176   2.0000      -0.626650       -17.0520
 177   2.0000      -0.619393       -16.8545
 178   2.0000      -0.617950       -16.8153
 179   2.0000      -0.609957       -16.5978
 180   2.0000      -0.609022       -16.5723
 181   2.0000      -0.603714       -16.4279
 182   2.0000      -0.601273       -16.3615
 183   2.0000      -0.595056       -16.1923
 184   2.0000      -0.592442       -16.1212
 185   2.0000      -0.586425       -15.9574
 186   2.0000      -0.585890       -15.9429
 187   2.0000      -0.584919       -15.9164
 188   2.0000      -0.580664       -15.8007
 189   2.0000      -0.574861       -15.6428
 190   2.0000      -0.567186       -15.4339
 191   2.0000      -0.560914       -15.2633
 192   2.0000      -0.559621       -15.2281
 193   2.0000      -0.557590       -15.1728
 194   2.0000      -0.555906       -15.1270
 195   2.0000      -0.550132       -14.9698
 196   2.0000      -0.548696       -14.9308
 197   2.0000      -0.544157       -14.8073
 198   2.0000      -0.541681       -14.7399
 199   2.0000      -0.538601       -14.6561
 200   2.0000      -0.536624       -14.6023
 201   2.0000      -0.530979       -14.4487
 202   2.0000      -0.527700       -14.3594
 203   2.0000      -0.526978       -14.3398
 204   2.0000      -0.524111       -14.2618
 205   2.0000      -0.523884       -14.2556
 206   2.0000      -0.520350       -14.1594
 207   2.0000      -0.519080       -14.1249
 208   2.0000      -0.517318       -14.0769
 209   2.0000      -0.515114       -14.0170
 210   2.0000      -0.512994       -13.9593
 211   2.0000      -0.511514       -13.9190
 212   2.0000      -0.509556       -13.8657
 213   2.0000      -0.505240       -13.7483
 214   2.0000      -0.503476       -13.7003
 215   2.0000      -0.499960       -13.6046
 216   2.0000      -0.498530       -13.5657
 217   2.0000      -0.495642       -13.4871
 218   2.0000      -0.494835       -13.4652
 219   2.0000      -0.493745       -13.4355
 220   2.0000      -0.492991       -13.4150
 221   2.0000      -0.489877       -13.3302
 222   2.0000      -0.486071       -13.2267
 223   2.0000      -0.483619       -13.1599
 224   2.0000      -0.482400       -13.1268
 225   2.0000      -0.481255       -13.0956
 226   2.0000      -0.479081       -13.0364
 227   2.0000      -0.477562       -12.9951
 228   2.0000      -0.476582       -12.9684
 229   2.0000      -0.475512       -12.9393
 230   2.0000      -0.472146       -12.8478
 231   2.0000      -0.471101       -12.8193
 232   2.0000      -0.469082       -12.7644
 233   2.0000      -0.461488       -12.5577
 234   2.0000      -0.460966       -12.5435
 235   2.0000      -0.457897       -12.4600
 236   2.0000      -0.454967       -12.3803
 237   2.0000      -0.453651       -12.3445
 238   2.0000      -0.452753       -12.3200
 239   2.0000      -0.447661       -12.1815
 240   2.0000      -0.445641       -12.1265
 241   2.0000      -0.445073       -12.1110
 242   2.0000      -0.440441       -11.9850
 243   2.0000      -0.437622       -11.9083
 244   2.0000      -0.434951       -11.8356
 245   2.0000      -0.434905       -11.8344
 246   2.0000      -0.434569       -11.8252
 247   2.0000      -0.432178       -11.7602
 248   2.0000      -0.430832       -11.7235
 249   2.0000      -0.428351       -11.6560
 250   2.0000      -0.426990       -11.6190
 251   2.0000      -0.425850       -11.5880
 252   2.0000      -0.425357       -11.5746
 253   2.0000      -0.416827       -11.3424
 254   2.0000      -0.411930       -11.2092
 255   2.0000      -0.411256       -11.1908
 256   2.0000      -0.410153       -11.1608
 257   2.0000      -0.407705       -11.0942
 258   2.0000      -0.405569       -11.0361
 259   2.0000      -0.403091       -10.9687
 260   2.0000      -0.399762       -10.8781
 261   2.0000      -0.397805       -10.8248
 262   2.0000      -0.391554       -10.6547
 263   2.0000      -0.389458       -10.5977
 264   2.0000      -0.385352       -10.4860
 265   2.0000      -0.380878       -10.3642
 266   2.0000      -0.375081       -10.2065
 267   2.0000      -0.374958       -10.2031
 268   2.0000      -0.367802       -10.0084
 269   2.0000      -0.366009        -9.9596
 270   2.0000      -0.365974        -9.9586
 271   2.0000      -0.356929        -9.7125
 272   2.0000      -0.353359        -9.6154
 273   2.0000      -0.351708        -9.5705
 274   2.0000      -0.351351        -9.5607
 275   2.0000      -0.346219        -9.4211
 276   2.0000      -0.336371        -9.1531
 277   2.0000      -0.333167        -9.0659
 278   2.0000      -0.327270        -8.9055
 279   2.0000      -0.319095        -8.6830
 280   2.0000      -0.317736        -8.6460
 281   2.0000      -0.302521        -8.2320
 282   2.0000      -0.297332        -8.0908
 283   2.0000      -0.288849        -7.8600
 284   2.0000      -0.281181        -7.6513
 285   2.0000      -0.273017        -7.4292
 286   2.0000      -0.261493        -7.1156
 287   2.0000      -0.226255        -6.1567
 288   0.0000      -0.107443        -2.9237
 289   0.0000      -0.060678        -1.6511
 290   0.0000      -0.058172        -1.5829
 291   0.0000      -0.054270        -1.4768
 292   0.0000      -0.047587        -1.2949

MULLIKEN ATOMIC CHARGES
-----------------------
   0 C :   -0.007192
   1 C :    0.074656
   2 C :   -0.086215
   3 C :    0.044646
   4 C :    0.096408
   5 C :   -0.012004
   6 N :   -0.029451
   7 C :    0.130276
   8 O :   -0.162708
   9 C :   -0.229622
  10 C :    0.093062
  11 C :   -0.138625
  12 N :    0.124186
  13 C :    0.121609
  14 O :   -0.220311
  15 C :   -0.080222
  16 C :    0.188545
  17 O :   -0.158889
  18 N :   -0.159030
  19 C :    0.159487
  20 O :   -0.140162
  21 C :   -0.022590
  22 C :    0.080965
  23 C :   -0.031381
  24 C :   -0.007551
  25 C :    0.069728
  26 C :   -0.109275
  27 S :    0.146675
  28 C :   -0.149906
  29 C :    0.124537
  30 C :   -0.121436
  31 C :    0.006123
  32 C :    0.034171
  33 C :   -0.118659
  34 C :    0.039768
  35 C :    0.039249
  36 C :    0.121407
  37 C :    0.057953
  38 C :   -0.106048
  39 S :    0.146835
  40 C :   -0.146932
  41 C :   -0.029580
  42 C :   -0.006957
  43 C :    0.002317
  44 C :   -0.027715
  45 C :    0.052778
  46 C :    0.023175
  47 C :   -0.030386
  48 S :    0.105248
  49 C :   -0.053710
  50 C :    0.042004
  51 C :    0.028177
  52 C :    0.003139
  53 S :    0.106863
  54 C :   -0.022017
  55 C :   -0.043065
  56 C :   -0.088884
  57 C :    0.335172
  58 C :   -0.369384
  59 C :   -0.186984
  60 N :    0.135799
  61 C :   -0.189148
  62 N :    0.127668
  63 C :    0.011903
  64 C :   -0.006546
  65 C :    0.135823
  66 O :   -0.166344
  67 C :   -0.081495
  68 C :    0.118583
  69 C :   -0.092064
  70 C :   -0.026966
  71 S :    0.178989
  72 C :   -0.124363
  73 C :    0.037367
  74 Br:    0.013792
  75 H :    0.003362
  76 H :   -0.018920
  77 H :   -0.022994
  78 H :    0.137183
  79 H :    0.007971
  80 H :    0.139204
  81 H :    0.012005
  82 H :    0.003258
  83 H :    0.028540
  84 H :    0.013398
  85 H :    0.007470
  86 H :    0.018784
  87 H :    0.015835
  88 H :    0.013487
  89 H :   -0.008289
  90 H :   -0.003721
  91 H :    0.024042
  92 H :    0.013339
  93 H :    0.009223
  94 H :    0.029243
  95 H :    0.013293
  96 H :    0.017076
  97 H :   -0.006247
  98 H :   -0.003179
  99 H :   -0.006274
 100 H :   -0.006819
 101 H :   -0.001051
 102 H :    0.014454
 103 H :    0.013590
 104 H :   -0.016026
 105 H :   -0.010062
 106 H :   -0.006448
Sum of atomic charges:   -0.0000000

LOEWDIN ATOMIC CHARGES
----------------------
   0 C :    0.031374
   1 C :   -0.059550
   2 C :    0.017917
   3 C :   -0.063324
   4 C :    0.057932
   5 C :   -0.043458
   6 N :    0.050031
   7 C :    0.071477
   8 O :   -0.187522
   9 C :   -0.112288
  10 C :    0.068013
  11 C :   -0.024314
  12 N :   -0.043694
  13 C :    0.075750
  14 O :    0.012487
  15 C :   -0.106117
  16 C :    0.088441
  17 O :   -0.165650
  18 N :   -0.001902
  19 C :    0.085598
  20 O :   -0.157873
  21 C :   -0.104309
  22 C :    0.073957
  23 C :   -0.046212
  24 C :    0.009627
  25 C :   -0.068549
  26 C :   -0.156321
  27 S :    0.431601
  28 C :   -0.177604
  29 C :   -0.040357
  30 C :   -0.021977
  31 C :   -0.031945
  32 C :   -0.053022
  33 C :   -0.017178
  34 C :   -0.030880
  35 C :   -0.048331
  36 C :   -0.039968
  37 C :   -0.068777
  38 C :   -0.157098
  39 S :    0.431101
  40 C :   -0.176151
  41 C :    0.011978
  42 C :   -0.041003
  43 C :   -0.022526
  44 C :   -0.155009
  45 C :   -0.011159
  46 C :   -0.037453
  47 C :   -0.147014
  48 S :    0.397274
  49 C :   -0.196143
  50 C :   -0.007720
  51 C :   -0.043650
  52 C :   -0.102698
  53 S :    0.411628
  54 C :   -0.075038
  55 C :    0.049634
  56 C :   -0.110074
  57 C :    0.073374
  58 C :   -0.158031
  59 C :   -0.018683
  60 N :   -0.070195
  61 C :   -0.020802
  62 N :   -0.069331
  63 C :   -0.018027
  64 C :   -0.048420
  65 C :    0.081692
  66 O :   -0.159844
  67 C :    0.016618
  68 C :   -0.036127
  69 C :   -0.145936
  70 C :   -0.013834
  71 S :    0.426816
  72 C :   -0.275047
  73 C :   -0.071178
  74 Br:    0.129029
  75 H :    0.039200
  76 H :    0.033378
  77 H :    0.035357
  78 H :    0.101411
  79 H :    0.046990
  80 H :    0.095752
  81 H :    0.044210
  82 H :    0.031569
  83 H :    0.026679
  84 H :    0.029875
  85 H :    0.028798
  86 H :    0.022226
  87 H :    0.021443
  88 H :    0.025909
  89 H :    0.023166
  90 H :    0.025195
  91 H :    0.025805
  92 H :    0.024535
  93 H :    0.024519
  94 H :    0.026862
  95 H :    0.030071
  96 H :    0.026211
  97 H :    0.036457
  98 H :    0.037655
  99 H :    0.034657
 100 H :    0.034737
 101 H :    0.038400
 102 H :    0.038149
 103 H :    0.030923
 104 H :    0.038540
 105 H :    0.039894
 106 H :    0.037392

  Mayer bond orders larger than 0.100000
B(  0-C ,  1-C ) :   1.2884 B(  0-C ,  5-C ) :   1.4430 B(  0-C , 75-H ) :   0.9700
B(  1-C ,  2-C ) :   1.3500 B(  1-C , 13-C ) :   1.0668 B(  2-C ,  3-C ) :   1.2528
B(  2-C , 76-H ) :   1.0137 B(  3-C ,  4-C ) :   1.2929 B(  3-C , 10-C ) :   1.1280
B(  4-C ,  5-C ) :   1.2753 B(  4-C ,  6-N ) :   1.2091 B(  5-C , 77-H ) :   0.9966
B(  6-N ,  7-C ) :   1.0817 B(  6-N , 78-H ) :   0.9012 B(  7-C ,  8-O ) :   2.2475
B(  7-C ,  9-C ) :   0.9495 B(  9-C , 10-C ) :   1.6451 B(  9-C , 11-C ) :   1.1111
B( 10-C , 79-H ) :   0.9858 B( 11-C , 12-N ) :   3.0439 B( 13-C , 14-O ) :   1.1687
B( 13-C , 15-C ) :   1.4669 B( 14-O , 22-C ) :   1.1308 B( 15-C , 16-C ) :   0.8771
B( 15-C , 21-C ) :   1.2444 B( 16-C , 17-O ) :   2.1670 B( 16-C , 18-N ) :   1.1124
B( 18-N , 19-C ) :   1.0650 B( 18-N , 80-H ) :   0.9140 B( 19-C , 20-O ) :   2.2721
B( 19-C , 21-C ) :   0.8832 B( 21-C , 22-C ) :   1.4177 B( 22-C , 23-C ) :   1.1545
B( 23-C , 24-C ) :   1.6988 B( 23-C , 81-H ) :   0.9638 B( 24-C , 25-C ) :   1.0127
B( 24-C , 82-H ) :   0.9647 B( 25-C , 26-C ) :   1.5968 B( 25-C , 29-C ) :   1.1435
B( 26-C , 27-S ) :   1.1339 B( 26-C , 83-H ) :   0.9624 B( 27-S , 28-C ) :   1.0786
B( 28-C , 29-C ) :   1.3724 B( 28-C , 40-C ) :   1.3793 B( 29-C , 30-C ) :   1.2629
B( 30-C , 31-C ) :   1.0554 B( 30-C , 33-C ) :   1.5218 B( 31-C , 32-C ) :   1.1101
B( 31-C , 84-H ) :   0.9233 B( 31-C , 85-H ) :   0.9124 B( 32-C , 86-H ) :   0.9569
B( 32-C , 87-H ) :   0.9652 B( 32-C , 88-H ) :   0.9551 B( 33-C , 34-C ) :   1.0677
B( 33-C , 36-C ) :   1.2581 B( 34-C , 35-C ) :   1.1069 B( 34-C , 89-H ) :   0.9237
B( 34-C , 90-H ) :   0.9081 B( 35-C , 91-H ) :   0.9655 B( 35-C , 92-H ) :   0.9659
B( 35-C , 93-H ) :   0.9580 B( 36-C , 37-C ) :   1.1424 B( 36-C , 40-C ) :   1.3727
B( 37-C , 38-C ) :   1.5993 B( 37-C , 41-C ) :   1.0095 B( 38-C , 39-S ) :   1.1310
B( 38-C , 94-H ) :   0.9643 B( 39-S , 40-C ) :   1.0811 B( 41-C , 42-C ) :   1.7019
B( 41-C , 95-H ) :   0.9715 B( 42-C , 43-C ) :   1.1302 B( 42-C , 96-H ) :   0.9738
B( 43-C , 44-C ) :   1.5831 B( 43-C , 97-H ) :   0.9835 B( 44-C , 45-C ) :   1.1381
B( 44-C , 48-S ) :   1.0207 B( 45-C , 46-C ) :   1.5882 B( 45-C , 98-H ) :   0.9996
B( 46-C , 47-C ) :   1.1927 B( 46-C , 99-H ) :   0.9943 B( 47-C , 48-S ) :   1.0844
B( 47-C , 49-C ) :   1.4663 B( 49-C , 50-C ) :   1.2187 B( 49-C , 53-S ) :   1.0433
B( 50-C , 51-C ) :   1.5397 B( 50-C ,100-H ) :   0.9944 B( 51-C , 52-C ) :   1.1801
B( 51-C ,101-H ) :   1.0021 B( 52-C , 53-S ) :   1.0905 B( 52-C , 54-C ) :   1.4095
B( 54-C , 55-C ) :   1.2641 B( 54-C ,102-H ) :   0.9795 B( 55-C , 56-C ) :   1.4722
B( 55-C ,103-H ) :   0.9429 B( 56-C , 57-C ) :   1.1160 B( 56-C , 65-C ) :   0.9676
B( 57-C , 58-C ) :   1.5783 B( 57-C , 63-C ) :   0.9889 B( 58-C , 59-C ) :   1.1497
B( 58-C , 61-C ) :   1.1564 B( 59-C , 60-N ) :   2.9613 B( 61-C , 62-N ) :   2.9544
B( 63-C , 64-C ) :   1.2796 B( 63-C , 70-C ) :   1.4208 B( 64-C , 65-C ) :   0.9341
B( 64-C , 67-C ) :   1.4295 B( 65-C , 66-O ) :   2.1857 B( 67-C , 68-C ) :   1.2386
B( 67-C ,104-H ) :   1.0162 B( 68-C , 69-C ) :   1.3178 B( 68-C , 73-C ) :   1.1605
B( 69-C , 70-C ) :   1.3203 B( 69-C , 71-S ) :   1.0824 B( 70-C ,105-H ) :   0.9787
B( 71-S , 72-C ) :   1.0860 B( 72-C , 73-C ) :   1.6197 B( 72-C , 74-Br) :   1.0131
B( 73-C ,106-H ) :   1.0001

-----------------------------------------------------------------------------
         ABSORPTION SPECTRUM VIA TRANSITION ELECTRIC DIPOLE MOMENTS
-----------------------------------------------------------------------------
State   Energy  Wavelength   fosc         T2         TX        TY        TZ
        (cm-1)    (nm)                  (au**2)     (au)      (au)      (au)
-----------------------------------------------------------------------------
   0   12137.5    823.9   1.237916918  33.57671  -0.46369   5.74179  -0.62734
   1   21701.7    460.8   0.072128370   1.09418   0.36712  -0.75962  -0.61837
   2   22683.5    440.8   0.583275009   8.46523  -1.23054   0.68336   2.54637
   3   24203.1    413.2   0.009709389   0.13207   0.02275  -0.17433  -0.31805
   4   24712.9    404.6   0.246249893   3.28041   0.69617  -0.78165  -1.47810
   5   25260.1    395.9   0.209852776   2.73498   0.06887  -1.50425   0.68371
   6   26881.6    372.0   0.000122055   0.00149   0.01551   0.00648  -0.03482
   7   27448.5    364.3   0.581445537   6.97375  -1.65796  -2.04482  -0.20891
   8   28180.1    354.9   0.289547356   3.38262  -0.68881   0.03502   1.70497
   9   28621.3    349.4   0.210806717   2.42477  -0.63139  -0.74626  -1.21211
  10   28722.2    348.2   0.095083193   1.08984   0.27907   0.37451   0.93365
  11   28780.0    347.5   0.332549976   3.80401  -1.10730  -1.04475  -1.21917
  12   30081.4    332.4   0.001608706   0.01761  -0.03944   0.02173   0.12481
  13   30436.1    328.6   0.397693675   4.30165   0.63014   0.93450  -1.74106
  14   30530.2    327.5   0.003283497   0.03541  -0.13079  -0.02629   0.13270
  15   30991.6    322.7   0.122194279   1.29802   0.42925   0.26023  -1.02276
  16   31788.5    314.6   0.259812987   2.69071  -0.13037   1.61169  -0.27597
  17   31800.6    314.5   0.084979279   0.87974   0.04676  -0.92419   0.15306
  18   32460.6    308.1   0.012828762   0.13011  -0.03520   0.31807  -0.16643
  19   32601.3    306.7   0.280986894   2.83744  -0.41413   1.60797  -0.28352
  20   33457.4    298.9   0.026528229   0.26103   0.33836  -0.37808  -0.05996
  21   33603.3    297.6   0.012588434   0.12333   0.22534   0.17168  -0.20755
  22   34278.8    291.7   0.153954036   1.47857  -0.77189  -0.81397   0.46926
  23   34407.8    290.6   0.056391977   0.53956  -0.10499  -0.71240   0.14500
  24   34842.8    287.0   0.039366775   0.37196  -0.17757   0.49445   0.30974
  25   34971.2    285.9   0.093235750   0.87770   0.15863  -0.76509  -0.51689
  26   35652.8    280.5   0.064087055   0.59177   0.05028  -0.13206   0.75618
  27   35817.1    279.2   0.140611947   1.29243   0.39040  -0.40182  -0.98922
  28   35885.9    278.7   0.160765671   1.47484   0.71043  -0.47844  -0.86094
  29   36350.7    275.1   0.024061692   0.21792  -0.05836  -0.46205   0.03200
  30   37255.3    268.4   0.050961793   0.45033   0.55283  -0.21461  -0.31410
  31   37391.6    267.4   0.002020245   0.01779  -0.06690   0.04317  -0.10699
  32   37635.7    265.7   0.017151092   0.15003   0.17156  -0.01228  -0.34705
  33   37851.3    264.2   0.146851584   1.27724  -0.65455  -0.87468   0.28938
  34   38145.9    262.2   0.070488698   0.60834   0.09200   0.02481  -0.77412
  35   38302.3    261.1   0.233822683   2.00973   0.74965  -0.07078  -1.20114
  36   38935.0    256.8   0.054561500   0.46134  -0.36292   0.56636   0.09415
  37   39532.4    253.0   0.004332747   0.03608  -0.12507  -0.06609   0.12678
  38   39679.9    252.0   0.007307443   0.06063  -0.05839  -0.19825   0.13385
  39   40082.8    249.5   0.102358124   0.84070   0.07848  -0.70773  -0.57764

FINAL SINGLE POINT ENERGY     -7478.060686191582

DIPOLE MOMENT
-------------
                                X             Y             Z
Electronic contribution:      9.18954     231.70142     -12.03786
Nuclear contribution   :     -9.46198    -232.98139      13.48203
                        -----------------------------------------
Total Dipole Moment    :     -0.27244      -1.27997       1.44417
                        -----------------------------------------
Magnitude (a.u.)       :      1.94889
Magnitude (Debye)      :      4.95369

Rotational constants in cm-1:     0.000904     0.000164     0.000150
Rotational constants in MHz :    27.094196     4.929978     4.484866

                             ****ORCA TERMINATED NORMALLY****
TOTAL RUN TIME: 0 days 0 hours 11 minutes 51 seconds 352 msec
