                         Program Version 4.2.0 -  RELEASE  -
|  1> # ORCA input file
|  2> # SCF done       -187.101742321924          0.000354927220
|  3> ! CAM-B3LYP def2-SVP def2/J RIJCOSX Grid4 TightSCF
|  4> %maxcore 5000
|  5> %tddft
|  6>     Mode sTDDFT
|  7>     Ethresh 5.0
|  8>     maxcore 5000
|  9> end
| 10>
| 11> %pal
| 12>   nprocs 6
| 13>   end
| 14> * xyz 0 1
| 15>    C       -2.26036        -3.63690         2.63857
| 16>    S       -3.44178        -2.56404         3.37189
| 17>    C       -2.60523        -2.62834         4.95027
| 18>    O       -2.95823        -2.05031         5.93420
| 19>    N       -1.50990        -3.44233         4.83495
| 20>    C       -1.25982        -4.03259         3.61441
| 21>    O       -0.31566        -4.77736         3.42345
| 22>    C       -0.64903        -3.66482         5.97706
| 23>    C       -2.33165        -3.98666         1.32470
| 24>    C       -1.48698        -4.80857         0.55226
| 25>    C       -1.69635        -5.01753        -0.81270
| 26>    C       -0.73960        -5.84561        -1.37351
| 27>    C        0.21158        -6.28463        -0.42424
| 28>    S       -0.06978        -5.67018         1.14046
| 29>    C        1.15318        -7.10397        -1.09544
| 30>    C        0.80067        -7.18375        -2.45506
| 31>    C       -0.39305        -6.38652        -2.67842
| 32>    C       -1.01420        -6.16116        -3.87195
| 33>    C       -0.52026        -6.70916        -5.07460
| 34>    N       -0.10025        -7.15527        -6.04401
| 35>    C       -2.17260        -5.36282        -3.97523
| 36>    N       -3.11980        -4.72174        -4.05202
| 37>    C        1.68168        -7.96192        -3.20289
| 38>    C        2.72034        -8.45628        -2.43328
| 39>    S        2.56838        -7.99428        -0.74345
| 40>    C        3.80567        -9.27513        -2.85763
| 41>    C        4.45709       -10.21071        -2.10840
| 42>    C        5.36064       -10.93381        -2.96877
| 43>    C        6.21610       -11.95692        -2.53829
| 44>    N        6.91049       -12.79783        -2.18047
| 45>    C        5.24210       -10.46201        -4.25377
| 46>    C        4.32576        -9.36435        -4.24379
| 47>    C        4.13520        -8.44263        -5.24590
| 48>    C        4.40500        -8.61302        -6.69575
| 49>    C        4.18961        -7.39957        -7.29345
| 50>    C        3.81213        -6.44587        -6.28373
| 51>    C        3.75303        -7.07553        -5.06488
| 52>    C        3.54858        -5.08901        -6.51555
| 53>    N        3.32963        -3.97689        -6.69558
| 54>    C        4.69355        -9.84837        -7.33483
| 55>    C        5.13883        -9.95992        -8.61290
| 56>    C        5.45292       -11.17941        -9.25466
| 57>    C        5.94709       -11.31817       -10.54525
| 58>    C        6.17854       -12.64738       -10.87986
| 59>    C        5.85956       -13.54138        -9.83745
| 60>    S        5.27417       -12.73599        -8.45021
| 61>    C        6.13262       -14.86275       -10.26043
| 62>    C        6.63024       -14.80070       -11.58532
| 63>    C        6.67226       -13.41222       -12.01408
| 64>    C        7.08483       -12.92497       -13.21877
| 65>    C        7.54465       -13.76480       -14.25571
| 66>    N        7.91758       -14.43867       -15.10453
| 67>    C        7.07810       -11.54421       -13.50930
| 68>    N        7.07226       -10.42191       -13.74387
| 69>    C        6.93453       -16.05077       -12.08771
| 70>    C        6.67360       -17.07629       -11.17096
| 71>    S        6.03477       -16.45238        -9.65119
| 72>    C        6.92038       -18.42315       -11.48791
| 73>    C        6.71751       -19.55850       -10.75033
| 74>    C        7.00434       -20.91902       -11.17110
| 75>    C        7.58800       -21.32285       -12.34199
| 76>    C        8.03391       -20.47518       -13.37887
| 77>    N        8.42635       -19.85769       -14.26392
| 78>    C        7.84059       -22.67078       -12.67762
| 79>    N        8.07426       -23.74269       -13.01481
| 80>    C        6.56971       -21.80711       -10.09308
| 81>    C        6.06233       -21.02720        -9.03725
| 82>    C        6.13956       -19.60760        -9.39887
| 83>    O        5.78834       -18.65903        -8.71673
| 84>    C        5.58385       -21.60944        -7.87905
| 85>    C        5.61149       -22.99123        -7.77834
| 86>    C        6.10583       -23.78274        -8.81299
| 87>    C        6.58857       -23.18555        -9.97826
| 88>    C        6.10200       -25.27298        -8.69660
| 89>    H       -1.22629        -4.08600         6.79985
| 90>    H       -0.20904        -2.72129         6.30012
| 91>    H        0.13067        -4.35810         5.66654
| 92>    H       -3.16080        -3.56392         0.76893
| 93>    H       -2.51491        -4.56815        -1.34591
| 94>    H        1.57098        -8.18156        -4.24863
| 95>    H        4.30802       -10.42005        -1.06561
| 96>    H        5.84883       -10.76818        -5.08329
| 97>    H        4.24857        -7.16856        -8.33963
| 98>    H        3.57476        -6.59418        -4.12357
| 99>    H        4.54066       -10.75390        -6.76381
|100>    H        5.30833        -9.07111        -9.20438
|101>    H        6.12355       -10.47759       -11.19148
|102>    H        7.32976       -16.24703       -13.06885
|103>    H        7.33018       -18.54987       -12.48276
|104>    H        5.20185       -20.99257        -7.08030
|105>    H        5.24321       -23.46798        -6.88188
|106>    H        6.96743       -23.81092       -10.77031
|107>    H        6.12398       -25.58530        -7.65570
|108>    H        6.95243       -25.70439        -9.21888
|109>    H        5.19494       -25.67331        -9.15085
|110> *
|111>
|112>                          ****END OF INPUT****

CARTESIAN COORDINATES (ANGSTROEM)
---------------------------------
  C     -2.260360   -3.636900    2.638570
  S     -3.441780   -2.564040    3.371890
  C     -2.605230   -2.628340    4.950270
  O     -2.958230   -2.050310    5.934200
  N     -1.509900   -3.442330    4.834950
  C     -1.259820   -4.032590    3.614410
  O     -0.315660   -4.777360    3.423450
  C     -0.649030   -3.664820    5.977060
  C     -2.331650   -3.986660    1.324700
  C     -1.486980   -4.808570    0.552260
  C     -1.696350   -5.017530   -0.812700
  C     -0.739600   -5.845610   -1.373510
  C      0.211580   -6.284630   -0.424240
  S     -0.069780   -5.670180    1.140460
  C      1.153180   -7.103970   -1.095440
  C      0.800670   -7.183750   -2.455060
  C     -0.393050   -6.386520   -2.678420
  C     -1.014200   -6.161160   -3.871950
  C     -0.520260   -6.709160   -5.074600
  N     -0.100250   -7.155270   -6.044010
  C     -2.172600   -5.362820   -3.975230
  N     -3.119800   -4.721740   -4.052020
  C      1.681680   -7.961920   -3.202890
  C      2.720340   -8.456280   -2.433280
  S      2.568380   -7.994280   -0.743450
  C      3.805670   -9.275130   -2.857630
  C      4.457090  -10.210710   -2.108400
  C      5.360640  -10.933810   -2.968770
  C      6.216100  -11.956920   -2.538290
  N      6.910490  -12.797830   -2.180470
  C      5.242100  -10.462010   -4.253770
  C      4.325760   -9.364350   -4.243790
  C      4.135200   -8.442630   -5.245900
  C      4.405000   -8.613020   -6.695750
  C      4.189610   -7.399570   -7.293450
  C      3.812130   -6.445870   -6.283730
  C      3.753030   -7.075530   -5.064880
  C      3.548580   -5.089010   -6.515550
  N      3.329630   -3.976890   -6.695580
  C      4.693550   -9.848370   -7.334830
  C      5.138830   -9.959920   -8.612900
  C      5.452920  -11.179410   -9.254660
  C      5.947090  -11.318170  -10.545250
  C      6.178540  -12.647380  -10.879860
  C      5.859560  -13.541380   -9.837450
  S      5.274170  -12.735990   -8.450210
  C      6.132620  -14.862750  -10.260430
  C      6.630240  -14.800700  -11.585320
  C      6.672260  -13.412220  -12.014080
  C      7.084830  -12.924970  -13.218770
  C      7.544650  -13.764800  -14.255710
  N      7.917580  -14.438670  -15.104530
  C      7.078100  -11.544210  -13.509300
  N      7.072260  -10.421910  -13.743870
  C      6.934530  -16.050770  -12.087710
  C      6.673600  -17.076290  -11.170960
  S      6.034770  -16.452380   -9.651190
  C      6.920380  -18.423150  -11.487910
  C      6.717510  -19.558500  -10.750330
  C      7.004340  -20.919020  -11.171100
  C      7.588000  -21.322850  -12.341990
  C      8.033910  -20.475180  -13.378870
  N      8.426350  -19.857690  -14.263920
  C      7.840590  -22.670780  -12.677620
  N      8.074260  -23.742690  -13.014810
  C      6.569710  -21.807110  -10.093080
  C      6.062330  -21.027200   -9.037250
  C      6.139560  -19.607600   -9.398870
  O      5.788340  -18.659030   -8.716730
  C      5.583850  -21.609440   -7.879050
  C      5.611490  -22.991230   -7.778340
  C      6.105830  -23.782740   -8.812990
  C      6.588570  -23.185550   -9.978260
  C      6.102000  -25.272980   -8.696600
  H     -1.226290   -4.086000    6.799850
  H     -0.209040   -2.721290    6.300120
  H      0.130670   -4.358100    5.666540
  H     -3.160800   -3.563920    0.768930
  H     -2.514910   -4.568150   -1.345910
  H      1.570980   -8.181560   -4.248630
  H      4.308020  -10.420050   -1.065610
  H      5.848830  -10.768180   -5.083290
  H      4.248570   -7.168560   -8.339630
  H      3.574760   -6.594180   -4.123570
  H      4.540660  -10.753900   -6.763810
  H      5.308330   -9.071110   -9.204380
  H      6.123550  -10.477590  -11.191480
  H      7.329760  -16.247030  -13.068850
  H      7.330180  -18.549870  -12.482760
  H      5.201850  -20.992570   -7.080300
  H      5.243210  -23.467980   -6.881880
  H      6.967430  -23.810920  -10.770310
  H      6.123980  -25.585300   -7.655700
  H      6.952430  -25.704390   -9.218880
  H      5.194940  -25.673310   -9.150850

 Total Charge           Charge          ....    0
 Multiplicity           Mult            ....    1
 Number of Electrons    NEL             ....  530
 Basis Dimension        Dim             .... 1161

ORBITAL ENERGIES
----------------

  NO   OCC          E(Eh)            E(eV)
   0   2.0000     -89.002923     -2421.8927
   1   2.0000     -88.997391     -2421.7421
   2   2.0000     -88.995419     -2421.6885
   3   2.0000     -88.992855     -2421.6187
   4   2.0000     -88.962650     -2420.7968
   5   2.0000     -19.230332      -523.2839
   6   2.0000     -19.227877      -523.2171
   7   2.0000     -19.225212      -523.1446
   8   2.0000     -14.484027      -394.1304
   9   2.0000     -14.439019      -392.9057
  10   2.0000     -14.437641      -392.8682
  11   2.0000     -14.434987      -392.7960
  12   2.0000     -14.433202      -392.7474
  13   2.0000     -14.424428      -392.5086
  14   2.0000     -14.420589      -392.4042
  15   2.0000     -14.418539      -392.3484
  16   2.0000     -14.417071      -392.3084
  17   2.0000     -10.420563      -283.5579
  18   2.0000     -10.415003      -283.4066
  19   2.0000     -10.375291      -282.3260
  20   2.0000     -10.373049      -282.2650
  21   2.0000     -10.369972      -282.1813
  22   2.0000     -10.360891      -281.9342
  23   2.0000     -10.357549      -281.8432
  24   2.0000     -10.346706      -281.5482
  25   2.0000     -10.345236      -281.5082
  26   2.0000     -10.344867      -281.4981
  27   2.0000     -10.340859      -281.3891
  28   2.0000     -10.340727      -281.3855
  29   2.0000     -10.340159      -281.3700
  30   2.0000     -10.339961      -281.3646
  31   2.0000     -10.339390      -281.3491
  32   2.0000     -10.338250      -281.3181
  33   2.0000     -10.337757      -281.3047
  34   2.0000     -10.336910      -281.2816
  35   2.0000     -10.336041      -281.2580
  36   2.0000     -10.335183      -281.2346
  37   2.0000     -10.334772      -281.2234
  38   2.0000     -10.334139      -281.2062
  39   2.0000     -10.332818      -281.1703
  40   2.0000     -10.331865      -281.1443
  41   2.0000     -10.331631      -281.1380
  42   2.0000     -10.331326      -281.1297
  43   2.0000     -10.329734      -281.0864
  44   2.0000     -10.329107      -281.0693
  45   2.0000     -10.322786      -280.8973
  46   2.0000     -10.322318      -280.8845
  47   2.0000     -10.321980      -280.8754
  48   2.0000     -10.320043      -280.8227
  49   2.0000     -10.319401      -280.8052
  50   2.0000     -10.316540      -280.7273
  51   2.0000     -10.315458      -280.6979
  52   2.0000     -10.315381      -280.6958
  53   2.0000     -10.314760      -280.6789
  54   2.0000     -10.314698      -280.6772
  55   2.0000     -10.314314      -280.6667
  56   2.0000     -10.311656      -280.5944
  57   2.0000     -10.311086      -280.5789
  58   2.0000     -10.310272      -280.5568
  59   2.0000     -10.309927      -280.5474
  60   2.0000     -10.309678      -280.5406
  61   2.0000     -10.308818      -280.5172
  62   2.0000     -10.308714      -280.5144
  63   2.0000     -10.308704      -280.5141
  64   2.0000     -10.306414      -280.4518
  65   2.0000     -10.306225      -280.4466
  66   2.0000     -10.305451      -280.4256
  67   2.0000     -10.303815      -280.3811
  68   2.0000     -10.302178      -280.3365
  69   2.0000     -10.298405      -280.2338
  70   2.0000     -10.293618      -280.1036
  71   2.0000     -10.293194      -280.0921
  72   2.0000     -10.292528      -280.0739
  73   2.0000     -10.277376      -279.6616
  74   2.0000      -8.097437      -220.3425
  75   2.0000      -8.091955      -220.1933
  76   2.0000      -8.087946      -220.0842
  77   2.0000      -8.085053      -220.0055
  78   2.0000      -8.060354      -219.3334
  79   2.0000      -6.066684      -165.0829
  80   2.0000      -6.062471      -164.9682
  81   2.0000      -6.061089      -164.9306
  82   2.0000      -6.059832      -164.8964
  83   2.0000      -6.057319      -164.8280
  84   2.0000      -6.057082      -164.8216
  85   2.0000      -6.054508      -164.7515
  86   2.0000      -6.054376      -164.7479
  87   2.0000      -6.052636      -164.7006
  88   2.0000      -6.050528      -164.6432
  89   2.0000      -6.049702      -164.6207
  90   2.0000      -6.047602      -164.5636
  91   2.0000      -6.029999      -164.0846
  92   2.0000      -6.026447      -163.9880
  93   2.0000      -6.020515      -163.8266
  94   2.0000      -1.180963       -32.1356
  95   2.0000      -1.156587       -31.4723
  96   2.0000      -1.143069       -31.1045
  97   2.0000      -1.068774       -29.0828
  98   2.0000      -1.054385       -28.6913
  99   2.0000      -1.050842       -28.5949
 100   2.0000      -1.031648       -28.0726
 101   2.0000      -1.028180       -27.9782
 102   2.0000      -1.026164       -27.9234
 103   2.0000      -1.022111       -27.8130
 104   2.0000      -1.016007       -27.6470
 105   2.0000      -1.013504       -27.5788
 106   2.0000      -1.011657       -27.5286
 107   2.0000      -1.007595       -27.4181
 108   2.0000      -1.004449       -27.3325
 109   2.0000      -1.000857       -27.2347
 110   2.0000      -0.998543       -27.1717
 111   2.0000      -0.996725       -27.1223
 112   2.0000      -0.989408       -26.9232
 113   2.0000      -0.970329       -26.4040
 114   2.0000      -0.967471       -26.3262
 115   2.0000      -0.955367       -25.9969
 116   2.0000      -0.954765       -25.9805
 117   2.0000      -0.931772       -25.3548
 118   2.0000      -0.924110       -25.1463
 119   2.0000      -0.913196       -24.8493
 120   2.0000      -0.906899       -24.6780
 121   2.0000      -0.895406       -24.3652
 122   2.0000      -0.888684       -24.1823
 123   2.0000      -0.885516       -24.0961
 124   2.0000      -0.879856       -23.9421
 125   2.0000      -0.874514       -23.7967
 126   2.0000      -0.866924       -23.5902
 127   2.0000      -0.865437       -23.5497
 128   2.0000      -0.862147       -23.4602
 129   2.0000      -0.855067       -23.2676
 130   2.0000      -0.845709       -23.0129
 131   2.0000      -0.826550       -22.4916
 132   2.0000      -0.818917       -22.2839
 133   2.0000      -0.813082       -22.1251
 134   2.0000      -0.804800       -21.8997
 135   2.0000      -0.796417       -21.6716
 136   2.0000      -0.786673       -21.4065
 137   2.0000      -0.783450       -21.3187
 138   2.0000      -0.779819       -21.2199
 139   2.0000      -0.772454       -21.0195
 140   2.0000      -0.757752       -20.6195
 141   2.0000      -0.741241       -20.1702
 142   2.0000      -0.740035       -20.1374
 143   2.0000      -0.734377       -19.9834
 144   2.0000      -0.716628       -19.5004
 145   2.0000      -0.714036       -19.4299
 146   2.0000      -0.707682       -19.2570
 147   2.0000      -0.705826       -19.2065
 148   2.0000      -0.695965       -18.9382
 149   2.0000      -0.694540       -18.8994
 150   2.0000      -0.688332       -18.7305
 151   2.0000      -0.685804       -18.6617
 152   2.0000      -0.677145       -18.4261
 153   2.0000      -0.674287       -18.3483
 154   2.0000      -0.661329       -17.9957
 155   2.0000      -0.653169       -17.7736
 156   2.0000      -0.652086       -17.7442
 157   2.0000      -0.640458       -17.4278
 158   2.0000      -0.637893       -17.3579
 159   2.0000      -0.632712       -17.2170
 160   2.0000      -0.628610       -17.1053
 161   2.0000      -0.625455       -17.0195
 162   2.0000      -0.624001       -16.9799
 163   2.0000      -0.622502       -16.9391
 164   2.0000      -0.618842       -16.8395
 165   2.0000      -0.613778       -16.7017
 166   2.0000      -0.608381       -16.5549
 167   2.0000      -0.597621       -16.2621
 168   2.0000      -0.591521       -16.0961
 169   2.0000      -0.588389       -16.0109
 170   2.0000      -0.578693       -15.7470
 171   2.0000      -0.575007       -15.6467
 172   2.0000      -0.569836       -15.5060
 173   2.0000      -0.564986       -15.3741
 174   2.0000      -0.560696       -15.2573
 175   2.0000      -0.557351       -15.1663
 176   2.0000      -0.554236       -15.0815
 177   2.0000      -0.548235       -14.9182
 178   2.0000      -0.546470       -14.8702
 179   2.0000      -0.544203       -14.8085
 180   2.0000      -0.543034       -14.7767
 181   2.0000      -0.539608       -14.6835
 182   2.0000      -0.535952       -14.5840
 183   2.0000      -0.533065       -14.5054
 184   2.0000      -0.531972       -14.4757
 185   2.0000      -0.529405       -14.4058
 186   2.0000      -0.526488       -14.3265
 187   2.0000      -0.523991       -14.2585
 188   2.0000      -0.521110       -14.1801
 189   2.0000      -0.517863       -14.0918
 190   2.0000      -0.517720       -14.0879
 191   2.0000      -0.515155       -14.0181
 192   2.0000      -0.514543       -14.0014
 193   2.0000      -0.512689       -13.9510
 194   2.0000      -0.509981       -13.8773
 195   2.0000      -0.508086       -13.8257
 196   2.0000      -0.506981       -13.7957
 197   2.0000      -0.504122       -13.7179
 198   2.0000      -0.502685       -13.6788
 199   2.0000      -0.502003       -13.6602
 200   2.0000      -0.501174       -13.6376
 201   2.0000      -0.500241       -13.6123
 202   2.0000      -0.499951       -13.6044
 203   2.0000      -0.495346       -13.4790
 204   2.0000      -0.492605       -13.4045
 205   2.0000      -0.492279       -13.3956
 206   2.0000      -0.488964       -13.3054
 207   2.0000      -0.487952       -13.2779
 208   2.0000      -0.482911       -13.1407
 209   2.0000      -0.477773       -13.0009
 210   2.0000      -0.475793       -12.9470
 211   2.0000      -0.469728       -12.7819
 212   2.0000      -0.469400       -12.7730
 213   2.0000      -0.465235       -12.6597
 214   2.0000      -0.464739       -12.6462
 215   2.0000      -0.464457       -12.6385
 216   2.0000      -0.459843       -12.5130
 217   2.0000      -0.456740       -12.4285
 218   2.0000      -0.456018       -12.4089
 219   2.0000      -0.454537       -12.3686
 220   2.0000      -0.453768       -12.3477
 221   2.0000      -0.452821       -12.3219
 222   2.0000      -0.451302       -12.2806
 223   2.0000      -0.449598       -12.2342
 224   2.0000      -0.448445       -12.2028
 225   2.0000      -0.446813       -12.1584
 226   2.0000      -0.446555       -12.1514
 227   2.0000      -0.446223       -12.1423
 228   2.0000      -0.445505       -12.1228
 229   2.0000      -0.443923       -12.0798
 230   2.0000      -0.443430       -12.0663
 231   2.0000      -0.442780       -12.0487
 232   2.0000      -0.438751       -11.9390
 233   2.0000      -0.437065       -11.8931
 234   2.0000      -0.435430       -11.8487
 235   2.0000      -0.431062       -11.7298
 236   2.0000      -0.430292       -11.7088
 237   2.0000      -0.429718       -11.6932
 238   2.0000      -0.428005       -11.6466
 239   2.0000      -0.423738       -11.5305
 240   2.0000      -0.418961       -11.4005
 241   2.0000      -0.417528       -11.3615
 242   2.0000      -0.416227       -11.3261
 243   2.0000      -0.414779       -11.2867
 244   2.0000      -0.409113       -11.1325
 245   2.0000      -0.403824       -10.9886
 246   2.0000      -0.389706       -10.6044
 247   2.0000      -0.382724       -10.4144
 248   2.0000      -0.381775       -10.3886
 249   2.0000      -0.369505       -10.0547
 250   2.0000      -0.359113        -9.7720
 251   2.0000      -0.357062        -9.7162
 252   2.0000      -0.356195        -9.6926
 253   2.0000      -0.352015        -9.5788
 254   2.0000      -0.349749        -9.5172
 255   2.0000      -0.343755        -9.3540
 256   2.0000      -0.339179        -9.2295
 257   2.0000      -0.336809        -9.1650
 258   2.0000      -0.330869        -9.0034
 259   2.0000      -0.326787        -8.8923
 260   2.0000      -0.319561        -8.6957
 261   2.0000      -0.309984        -8.4351
 262   2.0000      -0.299500        -8.1498
 263   2.0000      -0.265542        -7.2258
 264   2.0000      -0.257026        -6.9940
 265   0.0000      -0.140637        -3.8269
 266   0.0000      -0.115103        -3.1321
 267   0.0000      -0.111339        -3.0297
 268   0.0000      -0.088453        -2.4069
 269   0.0000      -0.071103        -1.9348

MULLIKEN ATOMIC CHARGES
-----------------------
   0 C :   -0.202596
   1 S :    0.065564
   2 C :    0.138712
   3 O :   -0.171989
   4 N :   -0.266839
   5 C :    0.261846
   6 O :   -0.223053
   7 C :    0.124342
   8 C :    0.037776
   9 C :   -0.056323
  10 C :   -0.055123
  11 C :    0.039546
  12 C :   -0.084582
  13 S :    0.238568
  14 C :   -0.087593
  15 C :   -0.002349
  16 C :    0.302620
  17 C :   -0.292581
  18 C :   -0.183184
  19 N :    0.172656
  20 C :   -0.188401
  21 N :    0.176319
  22 C :   -0.051342
  23 C :   -0.122523
  24 S :    0.204944
  25 C :    0.109284
  26 C :   -0.038401
  27 C :   -0.088219
  28 C :   -0.136689
  29 N :    0.147327
  30 C :   -0.037216
  31 C :    0.040063
  32 C :    0.055560
  33 C :    0.091131
  34 C :   -0.021141
  35 C :   -0.085577
  36 C :   -0.043252
  37 C :   -0.127418
  38 N :    0.148125
  39 C :   -0.033378
  40 C :    0.013833
  41 C :   -0.035674
  42 C :   -0.039568
  43 C :    0.022259
  44 C :   -0.100495
  45 S :    0.178854
  46 C :   -0.067688
  47 C :    0.045319
  48 C :    0.304740
  49 C :   -0.293855
  50 C :   -0.195695
  51 N :    0.187375
  52 C :   -0.187169
  53 N :    0.173218
  54 C :   -0.059706
  55 C :   -0.055095
  56 S :    0.245734
  57 C :   -0.029280
  58 C :   -0.096624
  59 C :    0.328464
  60 C :   -0.350014
  61 C :   -0.192185
  62 N :    0.155492
  63 C :   -0.181108
  64 N :    0.150711
  65 C :    0.039985
  66 C :   -0.021451
  67 C :    0.172229
  68 O :   -0.191573
  69 C :   -0.018432
  70 C :    0.008445
  71 C :   -0.040032
  72 C :   -0.065213
  73 C :    0.087352
  74 H :    0.050376
  75 H :    0.049922
  76 H :    0.058511
  77 H :    0.013418
  78 H :    0.011665
  79 H :    0.027871
  80 H :   -0.003417
  81 H :    0.002168
  82 H :   -0.000593
  83 H :    0.017760
  84 H :    0.002376
  85 H :    0.001277
  86 H :    0.009779
  87 H :    0.027653
  88 H :    0.014977
  89 H :   -0.005787
  90 H :   -0.014891
  91 H :   -0.010734
  92 H :    0.021030
  93 H :    0.034375
  94 H :    0.044496
Sum of atomic charges:   -0.0000000

LOEWDIN ATOMIC CHARGES
----------------------
   0 C :   -0.223917
   1 S :    0.336932
   2 C :   -0.050925
   3 O :   -0.161341
   4 N :   -0.040182
   5 C :    0.070510
   6 O :   -0.199086
   7 C :    0.042097
   8 C :   -0.002624
   9 C :   -0.177765
  10 C :   -0.008847
  11 C :   -0.073448
  12 C :   -0.184238
  13 S :    0.544177
  14 C :   -0.173530
  15 C :   -0.068941
  16 C :    0.080507
  17 C :   -0.100514
  18 C :   -0.013793
  19 N :   -0.033760
  20 C :   -0.016989
  21 N :   -0.029099
  22 C :   -0.024613
  23 C :   -0.161530
  24 S :    0.486764
  25 C :   -0.041104
  26 C :   -0.011331
  27 C :   -0.044223
  28 C :   -0.031120
  29 N :   -0.035331
  30 C :   -0.011696
  31 C :    0.036110
  32 C :    0.047432
  33 C :   -0.030703
  34 C :    0.016394
  35 C :   -0.045252
  36 C :   -0.005506
  37 C :   -0.029606
  38 N :   -0.036849
  39 C :   -0.030584
  40 C :   -0.021873
  41 C :   -0.152647
  42 C :   -0.025873
  43 C :   -0.056942
  44 C :   -0.181549
  45 S :    0.476006
  46 C :   -0.168797
  47 C :   -0.077260
  48 C :    0.077621
  49 C :   -0.098421
  50 C :   -0.020420
  51 N :   -0.021841
  52 C :   -0.016176
  53 N :   -0.030965
  54 C :    0.010930
  55 C :   -0.183275
  56 S :    0.548637
  57 C :    0.053911
  58 C :   -0.109358
  59 C :    0.076988
  60 C :   -0.136343
  61 C :   -0.022701
  62 N :   -0.045016
  63 C :   -0.017403
  64 N :   -0.051198
  65 C :   -0.008646
  66 C :   -0.053270
  67 C :    0.087071
  68 O :   -0.175123
  69 C :    0.018056
  70 C :   -0.009197
  71 C :    0.003281
  72 C :   -0.004752
  73 C :   -0.042719
  74 H :    0.036468
  75 H :    0.036266
  76 H :    0.038517
  77 H :    0.049746
  78 H :    0.042380
  79 H :    0.042186
  80 H :    0.031194
  81 H :    0.035095
  82 H :    0.034312
  83 H :    0.036837
  84 H :    0.022879
  85 H :    0.040450
  86 H :    0.042907
  87 H :    0.047949
  88 H :    0.053349
  89 H :    0.039561
  90 H :    0.031668
  91 H :    0.037188
  92 H :    0.033394
  93 H :    0.039176
  94 H :    0.045262

  Mayer bond orders larger than 0.100000
B(  0-C ,  1-S ) :   1.0298 B(  0-C ,  5-C ) :   0.9865 B(  0-C ,  8-C ) :   1.6632
B(  1-S ,  2-C ) :   0.9956 B(  2-C ,  3-O ) :   2.1386 B(  2-C ,  4-N ) :   1.0536
B(  4-N ,  5-C ) :   1.0985 B(  4-N ,  7-C ) :   0.9281 B(  5-C ,  6-O ) :   2.0243
B(  7-C , 74-H ) :   0.9760 B(  7-C , 75-H ) :   0.9771 B(  7-C , 76-H ) :   0.9590
B(  8-C ,  9-C ) :   1.2236 B(  8-C , 77-H ) :   0.9537 B(  9-C , 10-C ) :   1.3726
B(  9-C , 13-S ) :   1.0981 B( 10-C , 11-C ) :   1.3178 B( 10-C , 78-H ) :   1.0059
B( 11-C , 12-C ) :   1.3870 B( 11-C , 16-C ) :   0.9872 B( 12-C , 13-S ) :   1.1104
B( 12-C , 14-C ) :   1.1955 B( 14-C , 15-C ) :   1.4403 B( 14-C , 24-S ) :   1.1194
B( 15-C , 16-C ) :   0.9954 B( 15-C , 22-C ) :   1.2950 B( 16-C , 17-C ) :   1.7182
B( 17-C , 18-C ) :   1.1346 B( 17-C , 20-C ) :   1.1336 B( 18-C , 19-N ) :   2.9803
B( 20-C , 21-N ) :   2.9931 B( 22-C , 23-C ) :   1.4546 B( 22-C , 79-H ) :   0.9837
B( 23-C , 24-S ) :   1.1139 B( 23-C , 25-C ) :   1.0708 B( 25-C , 26-C ) :   1.6042
B( 25-C , 31-C ) :   1.0633 B( 26-C , 27-C ) :   1.1164 B( 26-C , 80-H ) :   1.0158
B( 27-C , 28-C ) :   1.0581 B( 27-C , 30-C ) :   1.6071 B( 28-C , 29-N ) :   3.0399
B( 30-C , 31-C ) :   1.1081 B( 30-C , 81-H ) :   1.0138 B( 31-C , 32-C ) :   1.4693
B( 32-C , 33-C ) :   1.0393 B( 32-C , 36-C ) :   1.1030 B( 33-C , 34-C ) :   1.5909
B( 33-C , 39-C ) :   1.1072 B( 34-C , 35-C ) :   1.1072 B( 34-C , 82-H ) :   1.0115
B( 35-C , 36-C ) :   1.6172 B( 35-C , 37-C ) :   1.0562 B( 36-C , 83-H ) :   1.0081
B( 37-C , 38-N ) :   3.0411 B( 39-C , 40-C ) :   1.6421 B( 39-C , 84-H ) :   0.9571
B( 40-C , 41-C ) :   1.1662 B( 40-C , 85-H ) :   0.9804 B( 41-C , 42-C ) :   1.4180
B( 41-C , 45-S ) :   1.0956 B( 42-C , 43-C ) :   1.2851 B( 42-C , 86-H ) :   1.0045
B( 43-C , 44-C ) :   1.4241 B( 43-C , 48-C ) :   0.9960 B( 44-C , 45-S ) :   1.1188
B( 44-C , 46-C ) :   1.2112 B( 46-C , 47-C ) :   1.3532 B( 46-C , 56-S ) :   1.1219
B( 47-C , 48-C ) :   0.9900 B( 47-C , 54-C ) :   1.3276 B( 48-C , 49-C ) :   1.7164
B( 49-C , 50-C ) :   1.1361 B( 49-C , 52-C ) :   1.1314 B( 50-C , 51-N ) :   2.9949
B( 52-C , 53-N ) :   2.9916 B( 54-C , 55-C ) :   1.3346 B( 54-C , 87-H ) :   1.0085
B( 55-C , 56-S ) :   1.0739 B( 55-C , 57-C ) :   1.2579 B( 57-C , 58-C ) :   1.5082
B( 57-C , 88-H ) :   0.9386 B( 58-C , 59-C ) :   1.0730 B( 58-C , 67-C ) :   0.9749
B( 59-C , 60-C ) :   1.6346 B( 59-C , 65-C ) :   0.9763 B( 60-C , 61-C ) :   1.1421
B( 60-C , 63-C ) :   1.1449 B( 61-C , 62-N ) :   2.9625 B( 63-C , 64-N ) :   2.9657
B( 65-C , 66-C ) :   1.3281 B( 65-C , 72-C ) :   1.3748 B( 66-C , 67-C ) :   0.9747
B( 66-C , 69-C ) :   1.3748 B( 67-C , 68-O ) :   2.1057 B( 69-C , 70-C ) :   1.3451
B( 69-C , 89-H ) :   1.0073 B( 70-C , 71-C ) :   1.3892 B( 70-C , 90-H ) :   0.9907
B( 71-C , 72-C ) :   1.3495 B( 71-C , 73-C ) :   1.0530 B( 72-C , 91-H ) :   0.9845
B( 73-C , 92-H ) :   0.9591 B( 73-C , 93-H ) :   0.9574 B( 73-C , 94-H ) :   0.9507

-----------------------------------------------------------------------------
         ABSORPTION SPECTRUM VIA TRANSITION ELECTRIC DIPOLE MOMENTS
-----------------------------------------------------------------------------
State   Energy  Wavelength   fosc         T2         TX        TY        TZ
        (cm-1)    (nm)                  (au**2)     (au)      (au)      (au)
-----------------------------------------------------------------------------
   0    8871.5   1127.2   0.281854428  10.45934  -1.27602   1.96198   2.23199
   1   11339.4    881.9   0.067235495   1.95201   1.12314  -0.20737  -0.80471
   2   13638.4    733.2   0.185409832   4.47553   0.28417  -2.02519  -0.54165
   3   14125.5    707.9   0.053310427   1.24246  -0.50509   0.83209   0.54310
   4   20040.1    499.0   0.178063656   2.92517  -0.29842   1.58909   0.55758
   5   20137.7    496.6   0.181836048   2.97266   0.46998  -1.60098  -0.43434
   6   21256.4    470.4   0.379997470   5.88528  -0.01244   2.32841   0.68092
   7   21514.0    464.8   0.613101639   9.38183  -0.85991   2.80766   0.87145
   8   23445.3    426.5   0.082971243   1.16506   0.42417  -0.96633  -0.22658
   9   25040.1    399.4   0.487391447   6.40792   1.19010  -0.67445  -2.12995
  10   25120.3    398.1   0.023185280   0.30385   0.16180  -0.22109   0.47832
  11   25498.7    392.2   0.411375615   5.31124  -0.86380   1.09287   1.83595
  12   26205.7    381.6   0.059659702   0.74948  -0.19738  -0.83572   0.10995
  13   26795.6    373.2   0.230077476   2.82674  -0.57556   0.46554   1.50955
  14   27708.5    360.9   0.193526557   2.29934   0.16047  -1.36531   0.63995
  15   28008.3    357.0   0.146543129   1.72248  -0.23853   1.07454  -0.71480
  16   28698.0    348.5   0.002655994   0.03047   0.10937   0.13604   0.00079
  17   28903.0    346.0   0.062966394   0.71720  -0.02671   0.60060  -0.59646
  18   29822.1    335.3   0.126169921   1.39281   0.42587  -0.56022  -0.94742
  19   30208.6    331.0   0.107563273   1.17222   0.59979  -0.73532  -0.52132
  20   30268.1    330.4   0.117505931   1.27806   0.34886   0.12050  -1.06857
  21   30370.4    329.3   0.315466489   3.41962  -0.13380  -0.47591  -1.78192
  22   30794.0    324.7   0.159145738   1.70139   0.36768  -0.00067  -1.25148
  23   31026.8    322.3   0.258047975   2.73803   0.22945   1.28202  -1.02069
  24   31218.6    320.3   0.252097822   2.65847  -0.70120  -0.51852   1.37765
  25   31775.6    314.7   0.164555095   1.70488  -0.18205  -1.25610  -0.30652
  26   32154.5    311.0   0.192755831   1.97352  -0.32557   0.06553  -1.36500
  27   32398.2    308.7   0.330994255   3.36337   0.84066  -0.45935   1.56386
  28   32532.0    307.4   0.048191996   0.48769   0.01498  -0.69390  -0.07726
  29   32592.2    306.8   0.003961353   0.04001   0.02689   0.19791  -0.01112
  30   32881.7    304.1   0.050177533   0.50238  -0.45682  -0.51046   0.18199
  31   33072.9    302.4   0.046525451   0.46312   0.39275  -0.53381  -0.15464
  32   33347.1    299.9   0.031328591   0.30928  -0.18014   0.42086   0.31577
  33   33630.2    297.4   0.365780018   3.58069  -1.12143   1.43285  -0.51964
  34   34138.8    292.9   0.011524972   0.11114   0.11412   0.24584  -0.19411
  35   34283.9    291.7   0.070583742   0.67778  -0.63119   0.52423  -0.06758
  36   34355.1    291.1   0.137645798   1.31901   0.33839   0.82130  -0.72799
  37   34763.7    287.7   0.072709465   0.68856   0.25751  -0.69805  -0.36739
  38   34925.4    286.3   0.234637043   2.21173  -0.49133   1.01460  -0.97000
  39   35056.9    285.3   0.003391489   0.03185   0.09758  -0.00990   0.14910
  40   35671.6    280.3   0.167833528   1.54893   1.00649   0.18199  -0.70907
  41   35759.5    279.6   0.058062719   0.53454   0.60352  -0.28738  -0.29618
  42   35896.3    278.6   0.158065961   1.44965   0.32340  -1.03851   0.51630
  43   36072.2    277.2   0.491087004   4.48190  -0.33744  -0.11274   2.08694
  44   36329.9    275.3   0.036357192   0.32946   0.54530  -0.07837  -0.16113
  45   36448.2    274.4   0.028224014   0.25493  -0.04398   0.36451   0.34659
  46   36808.3    271.7   0.114558427   1.02461   0.46335  -0.16701  -0.88432
  47   36986.9    270.4   0.278312771   2.47720  -1.16108   1.00626   0.34138
  48   37354.7    267.7   0.137890271   1.21524   0.50198  -0.94915  -0.24976
  49   37466.2    266.9   0.183681879   1.61400   0.34183  -0.92014   0.80653
  50   38000.9    263.2   0.000609404   0.00528  -0.00116   0.06405  -0.03429
  51   38107.8    262.4   0.172177345   1.48743   0.52492  -0.93882   0.57491
  52   38182.9    261.9   0.007436164   0.06411  -0.12693  -0.15800   0.15179
  53   38440.1    260.1   0.001811276   0.01551  -0.09191  -0.08145  -0.02075
  54   38686.9    258.5   0.011307692   0.09622   0.20323  -0.22924   0.04869
  55   38854.9    257.4   0.084842399   0.71886   0.61343  -0.54555   0.21199
  56   39243.5    254.8   0.048902567   0.41024   0.18498  -0.59689  -0.14054
  57   39293.7    254.5   0.082147015   0.68825  -0.23841   0.78412   0.12867
  58   39582.6    252.6   0.010591869   0.08809  -0.29363  -0.00197   0.04327
  59   39680.2    252.0   0.026304670   0.21824   0.39025  -0.21112  -0.14618
  60   39919.4    250.5   0.027516839   0.22693   0.16861  -0.05154  -0.44254

FINAL SINGLE POINT ENERGY     -4889.587388971828

DIPOLE MOMENT
-------------
                                X             Y             Z
Electronic contribution:     -6.20836      31.96102      -5.61370
Nuclear contribution   :      4.88560     -32.81818       9.97044
                        -----------------------------------------
Total Dipole Moment    :     -1.32277      -0.85716       4.35674
                        -----------------------------------------
Magnitude (a.u.)       :      4.63310
Magnitude (Debye)      :     11.77641

Rotational constants in cm-1:     0.001529     0.000209     0.000192
Rotational constants in MHz :    45.830891     6.273704     5.765565

                             ****ORCA TERMINATED NORMALLY****
TOTAL RUN TIME: 0 days 0 hours 11 minutes 3 seconds 27 msec
