                         Program Version 4.2.0 -  RELEASE  -
|  1> # ORCA input file
|  2> # SCF done       -181.630030080783          0.000547633068
|  3> ! CAM-B3LYP def2-SVP def2/J RIJCOSX Grid4 TightSCF
|  4> %maxcore 5000
|  5> %tddft
|  6>     Mode sTDDFT
|  7>     Ethresh 5.0
|  8>     maxcore 5000
|  9> end
| 10>
| 11> %pal
| 12>   nprocs 6
| 13>   end
| 14> * xyz 0 1
| 15>    C        4.81120        -8.07408        10.01172
| 16>    C        4.63320        -7.83040         8.68285
| 17>    C        5.80448        -8.14353         7.91299
| 18>    C        6.83752        -8.60113         8.66244
| 19>    S        6.39399        -8.67100        10.32783
| 20>    C        5.54794        -7.88102         6.49362
| 21>    O        6.31366        -8.03960         5.56264
| 22>    C        4.14124        -7.44625         6.43897
| 23>    C        3.63100        -7.28219         7.78497
| 24>    C        2.49061        -6.59393         8.11130
| 25>    N        1.90614        -6.55288         9.41072
| 26>    O        2.13964        -7.47746        10.16556
| 27>    O        1.21868        -5.59185         9.68093
| 28>    N        1.80773        -5.74843         7.14508
| 29>    O        0.61190        -5.87623         7.04706
| 30>    O        2.49526        -4.98243         6.50774
| 31>    C        3.37122        -7.42180         5.29587
| 32>    C        3.75463        -7.50108         3.95691
| 33>    S        5.40754        -7.45370         3.34723
| 34>    C        4.83122        -7.48118         1.74822
| 35>    C        3.42412        -7.55914         1.67098
| 36>    C        2.82069        -7.55849         2.90373
| 37>    C        3.05915        -7.61028         0.24272
| 38>    O        1.97200        -7.69262        -0.26885
| 39>    C        4.38825        -7.54330        -0.48256
| 40>    C        5.39932        -7.47667         0.44637
| 41>    C        4.41858        -7.55965        -1.89541
| 42>    C        5.53675        -7.43530        -2.65728
| 43>    C        5.55527        -7.45666        -4.07619
| 44>    C        4.52963        -7.67789        -4.96218
| 45>    C        4.92792        -7.62847        -6.31534
| 46>    C        6.31725        -7.34926        -6.45558
| 47>    S        7.08058        -7.17262        -4.90381
| 48>    C        6.92928        -7.24198        -7.68345
| 49>    C        6.14408        -7.42404        -8.82234
| 50>    C        4.75863        -7.71573        -8.68344
| 51>    C        4.14432        -7.81655        -7.45695
| 52>    S        3.99328        -7.91238       -10.23599
| 53>    C        5.51205        -7.59828       -11.05243
| 54>    C        6.53626        -7.36148       -10.18034
| 55>    C        5.56541        -7.60235       -12.47709
| 56>    S        7.03064        -7.21664       -13.31426
| 57>    C        6.25906        -7.39630       -14.86044
| 58>    C        7.01631        -7.24754       -16.10925
| 59>    O        6.53434        -7.45860       -17.19571
| 60>    O        8.29172        -6.85702       -15.99880
| 61>    C        4.92522        -7.75893       -14.71189
| 62>    C        4.55402        -7.89033       -13.35923
| 63>    C        3.97077        -7.99884       -15.77429
| 64>    C        3.72969        -7.26202       -16.87112
| 65>    C        4.31621        -5.99546       -17.32133
| 66>    C        4.63912        -4.95834       -16.49755
| 67>    N        5.22138        -3.71197       -16.90148
| 68>    O        5.04201        -2.76678       -16.16595
| 69>    O        5.83227        -3.67760       -17.94665
| 70>    N        4.36926        -5.01299       -15.07097
| 71>    O        5.28392        -4.72828       -14.33306
| 72>    O        3.26578        -5.35803       -14.72381
| 73>    C        4.26869        -6.03770       -18.76508
| 74>    C        4.76692        -5.34652       -19.83367
| 75>    S        4.19760        -5.99807       -21.31321
| 76>    C        3.27653        -7.22000       -20.52019
| 77>    C        3.41693        -7.12426       -19.17448
| 78>    C        2.95771        -7.87566       -18.00343
| 79>    O        2.20216        -8.80947       -17.93623
| 80>    H        4.11218        -7.97779        10.81821
| 81>    H        7.81926        -8.89468         8.34904
| 82>    H        2.29499        -7.37841         5.42521
| 83>    H        1.75953        -7.59042         3.07516
| 84>    H        6.45344        -7.42645         0.24458
| 85>    H        3.45059        -7.66778        -2.36628
| 86>    H        6.49479        -7.29806        -2.17462
| 87>    H        3.51776        -7.87699        -4.65988
| 88>    H        7.98159        -7.02396        -7.77092
| 89>    H        3.09154        -8.03225        -7.37031
| 90>    H        7.54137        -7.14665       -10.49888
| 91>    H        8.56833        -6.66926       -15.09144
| 92>    H        3.55727        -8.14261       -13.04471
| 93>    H        3.37917        -8.90285       -15.67136
| 94>    H        5.45418        -4.52460       -19.84242
| 95>    H        2.70090        -7.92359       -21.08768
| 96> *
| 97>
| 98>                          ****END OF INPUT****

CARTESIAN COORDINATES (ANGSTROEM)
---------------------------------
  C      4.811200   -8.074080   10.011720
  C      4.633200   -7.830400    8.682850
  C      5.804480   -8.143530    7.912990
  C      6.837520   -8.601130    8.662440
  S      6.393990   -8.671000   10.327830
  C      5.547940   -7.881020    6.493620
  O      6.313660   -8.039600    5.562640
  C      4.141240   -7.446250    6.438970
  C      3.631000   -7.282190    7.784970
  C      2.490610   -6.593930    8.111300
  N      1.906140   -6.552880    9.410720
  O      2.139640   -7.477460   10.165560
  O      1.218680   -5.591850    9.680930
  N      1.807730   -5.748430    7.145080
  O      0.611900   -5.876230    7.047060
  O      2.495260   -4.982430    6.507740
  C      3.371220   -7.421800    5.295870
  C      3.754630   -7.501080    3.956910
  S      5.407540   -7.453700    3.347230
  C      4.831220   -7.481180    1.748220
  C      3.424120   -7.559140    1.670980
  C      2.820690   -7.558490    2.903730
  C      3.059150   -7.610280    0.242720
  O      1.972000   -7.692620   -0.268850
  C      4.388250   -7.543300   -0.482560
  C      5.399320   -7.476670    0.446370
  C      4.418580   -7.559650   -1.895410
  C      5.536750   -7.435300   -2.657280
  C      5.555270   -7.456660   -4.076190
  C      4.529630   -7.677890   -4.962180
  C      4.927920   -7.628470   -6.315340
  C      6.317250   -7.349260   -6.455580
  S      7.080580   -7.172620   -4.903810
  C      6.929280   -7.241980   -7.683450
  C      6.144080   -7.424040   -8.822340
  C      4.758630   -7.715730   -8.683440
  C      4.144320   -7.816550   -7.456950
  S      3.993280   -7.912380  -10.235990
  C      5.512050   -7.598280  -11.052430
  C      6.536260   -7.361480  -10.180340
  C      5.565410   -7.602350  -12.477090
  S      7.030640   -7.216640  -13.314260
  C      6.259060   -7.396300  -14.860440
  C      7.016310   -7.247540  -16.109250
  O      6.534340   -7.458600  -17.195710
  O      8.291720   -6.857020  -15.998800
  C      4.925220   -7.758930  -14.711890
  C      4.554020   -7.890330  -13.359230
  C      3.970770   -7.998840  -15.774290
  C      3.729690   -7.262020  -16.871120
  C      4.316210   -5.995460  -17.321330
  C      4.639120   -4.958340  -16.497550
  N      5.221380   -3.711970  -16.901480
  O      5.042010   -2.766780  -16.165950
  O      5.832270   -3.677600  -17.946650
  N      4.369260   -5.012990  -15.070970
  O      5.283920   -4.728280  -14.333060
  O      3.265780   -5.358030  -14.723810
  C      4.268690   -6.037700  -18.765080
  C      4.766920   -5.346520  -19.833670
  S      4.197600   -5.998070  -21.313210
  C      3.276530   -7.220000  -20.520190
  C      3.416930   -7.124260  -19.174480
  C      2.957710   -7.875660  -18.003430
  O      2.202160   -8.809470  -17.936230
  H      4.112180   -7.977790   10.818210
  H      7.819260   -8.894680    8.349040
  H      2.294990   -7.378410    5.425210
  H      1.759530   -7.590420    3.075160
  H      6.453440   -7.426450    0.244580
  H      3.450590   -7.667780   -2.366280
  H      6.494790   -7.298060   -2.174620
  H      3.517760   -7.876990   -4.659880
  H      7.981590   -7.023960   -7.770920
  H      3.091540   -8.032250   -7.370310
  H      7.541370   -7.146650  -10.498880
  H      8.568330   -6.669260  -15.091440
  H      3.557270   -8.142610  -13.044710
  H      3.379170   -8.902850  -15.671360
  H      5.454180   -4.524600  -19.842420
  H      2.700900   -7.923590  -21.087680

 Total Charge           Charge          ....    0
 Multiplicity           Mult            ....    1
 Number of Electrons    NEL             ....  496
 Basis Dimension        Dim             .... 1014

ORBITAL ENERGIES
----------------

  NO   OCC          E(Eh)            E(eV)
   0   2.0000     -88.988292     -2421.4945
   1   2.0000     -88.987611     -2421.4760
   2   2.0000     -88.984476     -2421.3907
   3   2.0000     -88.980911     -2421.2937
   4   2.0000     -88.964179     -2420.8384
   5   2.0000     -88.961099     -2420.7546
   6   2.0000     -19.273873      -524.4688
   7   2.0000     -19.261086      -524.1208
   8   2.0000     -19.260545      -524.1061
   9   2.0000     -19.254514      -523.9420
  10   2.0000     -19.253210      -523.9065
  11   2.0000     -19.251645      -523.8639
  12   2.0000     -19.251068      -523.8482
  13   2.0000     -19.244526      -523.6702
  14   2.0000     -19.244306      -523.6642
  15   2.0000     -19.239496      -523.5333
  16   2.0000     -19.221277      -523.0375
  17   2.0000     -19.218070      -522.9503
  18   2.0000     -19.209568      -522.7189
  19   2.0000     -14.666673      -399.1005
  20   2.0000     -14.665600      -399.0713
  21   2.0000     -14.659352      -398.9013
  22   2.0000     -14.656682      -398.8286
  23   2.0000     -10.421893      -283.5941
  24   2.0000     -10.381950      -282.5072
  25   2.0000     -10.374471      -282.3037
  26   2.0000     -10.373394      -282.2744
  27   2.0000     -10.372739      -282.2566
  28   2.0000     -10.362906      -281.9890
  29   2.0000     -10.357206      -281.8339
  30   2.0000     -10.348885      -281.6075
  31   2.0000     -10.338863      -281.3348
  32   2.0000     -10.330761      -281.1143
  33   2.0000     -10.329657      -281.0843
  34   2.0000     -10.328766      -281.0600
  35   2.0000     -10.328314      -281.0477
  36   2.0000     -10.324143      -280.9342
  37   2.0000     -10.322006      -280.8761
  38   2.0000     -10.321242      -280.8553
  39   2.0000     -10.320352      -280.8311
  40   2.0000     -10.320057      -280.8230
  41   2.0000     -10.319130      -280.7978
  42   2.0000     -10.318557      -280.7822
  43   2.0000     -10.317568      -280.7553
  44   2.0000     -10.315641      -280.7029
  45   2.0000     -10.314815      -280.6804
  46   2.0000     -10.314256      -280.6652
  47   2.0000     -10.313958      -280.6571
  48   2.0000     -10.309324      -280.5310
  49   2.0000     -10.308842      -280.5179
  50   2.0000     -10.308261      -280.5020
  51   2.0000     -10.306445      -280.4526
  52   2.0000     -10.304493      -280.3995
  53   2.0000     -10.301014      -280.3048
  54   2.0000     -10.298805      -280.2447
  55   2.0000     -10.297806      -280.2176
  56   2.0000     -10.297536      -280.2102
  57   2.0000     -10.296503      -280.1821
  58   2.0000     -10.295420      -280.1526
  59   2.0000     -10.295237      -280.1476
  60   2.0000     -10.295079      -280.1434
  61   2.0000     -10.293636      -280.1041
  62   2.0000     -10.291431      -280.0441
  63   2.0000     -10.290778      -280.0263
  64   2.0000     -10.289436      -279.9898
  65   2.0000      -8.083906      -219.9743
  66   2.0000      -8.080675      -219.8864
  67   2.0000      -8.080424      -219.8795
  68   2.0000      -8.076945      -219.7848
  69   2.0000      -8.060048      -219.3251
  70   2.0000      -8.057220      -219.2481
  71   2.0000      -6.053186      -164.7156
  72   2.0000      -6.049900      -164.6261
  73   2.0000      -6.049476      -164.6146
  74   2.0000      -6.049098      -164.6043
  75   2.0000      -6.046119      -164.5233
  76   2.0000      -6.045991      -164.5198
  77   2.0000      -6.045298      -164.5009
  78   2.0000      -6.044864      -164.4891
  79   2.0000      -6.043407      -164.4495
  80   2.0000      -6.043366      -164.4483
  81   2.0000      -6.041474      -164.3969
  82   2.0000      -6.039687      -164.3482
  83   2.0000      -6.029742      -164.0776
  84   2.0000      -6.026769      -163.9967
  85   2.0000      -6.025713      -163.9680
  86   2.0000      -6.022851      -163.8901
  87   2.0000      -6.021102      -163.8425
  88   2.0000      -6.018472      -163.7710
  89   2.0000      -1.349268       -36.7154
  90   2.0000      -1.340277       -36.4708
  91   2.0000      -1.331578       -36.2341
  92   2.0000      -1.322097       -35.9761
  93   2.0000      -1.198070       -32.6011
  94   2.0000      -1.163767       -31.6677
  95   2.0000      -1.155132       -31.4327
  96   2.0000      -1.154803       -31.4238
  97   2.0000      -1.151037       -31.3213
  98   2.0000      -1.144969       -31.1562
  99   2.0000      -1.138611       -30.9832
 100   2.0000      -1.136000       -30.9121
 101   2.0000      -1.109453       -30.1897
 102   2.0000      -1.023616       -27.8540
 103   2.0000      -1.021782       -27.8041
 104   2.0000      -1.020818       -27.7779
 105   2.0000      -1.019247       -27.7351
 106   2.0000      -1.009616       -27.4730
 107   2.0000      -0.988859       -26.9082
 108   2.0000      -0.984406       -26.7870
 109   2.0000      -0.980075       -26.6692
 110   2.0000      -0.960406       -26.1340
 111   2.0000      -0.941982       -25.6326
 112   2.0000      -0.936198       -25.4752
 113   2.0000      -0.930002       -25.3066
 114   2.0000      -0.906520       -24.6677
 115   2.0000      -0.896814       -24.4035
 116   2.0000      -0.888494       -24.1772
 117   2.0000      -0.880587       -23.9620
 118   2.0000      -0.867403       -23.6032
 119   2.0000      -0.863844       -23.5064
 120   2.0000      -0.851560       -23.1721
 121   2.0000      -0.849728       -23.1223
 122   2.0000      -0.846950       -23.0467
 123   2.0000      -0.840926       -22.8828
 124   2.0000      -0.828090       -22.5335
 125   2.0000      -0.814517       -22.1641
 126   2.0000      -0.812509       -22.1095
 127   2.0000      -0.801610       -21.8129
 128   2.0000      -0.796814       -21.6824
 129   2.0000      -0.792827       -21.5739
 130   2.0000      -0.783435       -21.3183
 131   2.0000      -0.777486       -21.1565
 132   2.0000      -0.765995       -20.8438
 133   2.0000      -0.764488       -20.8028
 134   2.0000      -0.745923       -20.2976
 135   2.0000      -0.727203       -19.7882
 136   2.0000      -0.712011       -19.3748
 137   2.0000      -0.703441       -19.1416
 138   2.0000      -0.693347       -18.8669
 139   2.0000      -0.688382       -18.7318
 140   2.0000      -0.687134       -18.6979
 141   2.0000      -0.682167       -18.5627
 142   2.0000      -0.672565       -18.3014
 143   2.0000      -0.671182       -18.2638
 144   2.0000      -0.669287       -18.2122
 145   2.0000      -0.665975       -18.1221
 146   2.0000      -0.658054       -17.9065
 147   2.0000      -0.655623       -17.8404
 148   2.0000      -0.647809       -17.6278
 149   2.0000      -0.647401       -17.6167
 150   2.0000      -0.643319       -17.5056
 151   2.0000      -0.636750       -17.3268
 152   2.0000      -0.636156       -17.3107
 153   2.0000      -0.633449       -17.2370
 154   2.0000      -0.630870       -17.1668
 155   2.0000      -0.628211       -17.0945
 156   2.0000      -0.626074       -17.0363
 157   2.0000      -0.621366       -16.9082
 158   2.0000      -0.620345       -16.8804
 159   2.0000      -0.618663       -16.8347
 160   2.0000      -0.607318       -16.5260
 161   2.0000      -0.600170       -16.3315
 162   2.0000      -0.598629       -16.2895
 163   2.0000      -0.591614       -16.0986
 164   2.0000      -0.590726       -16.0745
 165   2.0000      -0.588103       -16.0031
 166   2.0000      -0.584055       -15.8930
 167   2.0000      -0.581193       -15.8151
 168   2.0000      -0.579150       -15.7595
 169   2.0000      -0.572892       -15.5892
 170   2.0000      -0.566844       -15.4246
 171   2.0000      -0.560095       -15.2409
 172   2.0000      -0.556179       -15.1344
 173   2.0000      -0.551605       -15.0099
 174   2.0000      -0.545362       -14.8401
 175   2.0000      -0.544035       -14.8040
 176   2.0000      -0.542195       -14.7539
 177   2.0000      -0.540240       -14.7007
 178   2.0000      -0.538125       -14.6431
 179   2.0000      -0.535572       -14.5736
 180   2.0000      -0.533934       -14.5291
 181   2.0000      -0.531039       -14.4503
 182   2.0000      -0.529803       -14.4167
 183   2.0000      -0.525599       -14.3023
 184   2.0000      -0.521342       -14.1864
 185   2.0000      -0.515414       -14.0251
 186   2.0000      -0.513221       -13.9655
 187   2.0000      -0.507405       -13.8072
 188   2.0000      -0.506202       -13.7744
 189   2.0000      -0.503398       -13.6982
 190   2.0000      -0.499714       -13.5979
 191   2.0000      -0.497989       -13.5510
 192   2.0000      -0.495911       -13.4944
 193   2.0000      -0.494110       -13.4454
 194   2.0000      -0.486079       -13.2269
 195   2.0000      -0.484619       -13.1872
 196   2.0000      -0.481990       -13.1156
 197   2.0000      -0.481231       -13.0950
 198   2.0000      -0.477532       -12.9943
 199   2.0000      -0.473908       -12.8957
 200   2.0000      -0.470330       -12.7983
 201   2.0000      -0.469659       -12.7801
 202   2.0000      -0.468147       -12.7389
 203   2.0000      -0.467723       -12.7274
 204   2.0000      -0.458888       -12.4870
 205   2.0000      -0.457440       -12.4476
 206   2.0000      -0.447448       -12.1757
 207   2.0000      -0.447218       -12.1694
 208   2.0000      -0.445777       -12.1302
 209   2.0000      -0.444781       -12.1031
 210   2.0000      -0.440845       -11.9960
 211   2.0000      -0.437609       -11.9079
 212   2.0000      -0.430737       -11.7209
 213   2.0000      -0.428421       -11.6579
 214   2.0000      -0.418345       -11.3837
 215   2.0000      -0.417439       -11.3591
 216   2.0000      -0.416646       -11.3375
 217   2.0000      -0.408364       -11.1121
 218   2.0000      -0.407780       -11.0963
 219   2.0000      -0.404795       -11.0150
 220   2.0000      -0.399042       -10.8585
 221   2.0000      -0.396278       -10.7833
 222   2.0000      -0.393566       -10.7095
 223   2.0000      -0.388899       -10.5825
 224   2.0000      -0.387846       -10.5538
 225   2.0000      -0.384730       -10.4690
 226   2.0000      -0.384419       -10.4606
 227   2.0000      -0.381177       -10.3724
 228   2.0000      -0.379848       -10.3362
 229   2.0000      -0.375302       -10.2125
 230   2.0000      -0.369434       -10.0528
 231   2.0000      -0.367832       -10.0092
 232   2.0000      -0.361348        -9.8328
 233   2.0000      -0.356729        -9.7071
 234   2.0000      -0.352311        -9.5869
 235   2.0000      -0.351069        -9.5531
 236   2.0000      -0.344542        -9.3755
 237   2.0000      -0.340671        -9.2701
 238   2.0000      -0.336412        -9.1542
 239   2.0000      -0.336254        -9.1499
 240   2.0000      -0.334969        -9.1150
 241   2.0000      -0.327326        -8.9070
 242   2.0000      -0.321898        -8.7593
 243   2.0000      -0.319758        -8.7011
 244   2.0000      -0.312648        -8.5076
 245   2.0000      -0.293243        -7.9796
 246   2.0000      -0.277894        -7.5619
 247   2.0000      -0.251363        -6.8399
 248   0.0000      -0.112838        -3.0705
 249   0.0000      -0.094750        -2.5783
 250   0.0000      -0.082036        -2.2323
 251   0.0000      -0.061146        -1.6639
 252   0.0000      -0.053725        -1.4619

MULLIKEN ATOMIC CHARGES
-----------------------
   0 C :   -0.131054
   1 C :    0.064522
   2 C :    0.007553
   3 C :   -0.131111
   4 S :    0.149682
   5 C :    0.184964
   6 O :   -0.183026
   7 C :   -0.111395
   8 C :    0.201774
   9 C :    0.049391
  10 N :    0.261146
  11 O :   -0.255894
  12 O :   -0.229800
  13 N :    0.197065
  14 O :   -0.208180
  15 O :   -0.211879
  16 C :   -0.002366
  17 C :   -0.085630
  18 S :    0.248929
  19 C :   -0.024394
  20 C :    0.015643
  21 C :   -0.012044
  22 C :    0.164793
  23 O :   -0.105670
  24 C :   -0.027193
  25 C :   -0.034429
  26 C :    0.009111
  27 C :    0.080530
  28 C :   -0.064376
  29 C :   -0.020566
  30 C :    0.106240
  31 C :   -0.045304
  32 S :    0.115280
  33 C :   -0.050256
  34 C :    0.116509
  35 C :   -0.040905
  36 C :   -0.048234
  37 S :    0.126265
  38 C :   -0.015221
  39 C :   -0.052875
  40 C :   -0.005235
  41 S :    0.119365
  42 C :   -0.221296
  43 C :    0.198106
  44 O :   -0.188607
  45 O :   -0.143055
  46 C :    0.068128
  47 C :   -0.024745
  48 C :    0.022241
  49 C :   -0.080150
  50 C :    0.215783
  51 C :    0.071054
  52 N :    0.256334
  53 O :   -0.226921
  54 O :   -0.241890
  55 N :    0.214816
  56 O :   -0.209472
  57 O :   -0.204069
  58 C :    0.053948
  59 C :   -0.116477
  60 S :    0.160696
  61 C :   -0.129864
  62 C :    0.020172
  63 C :    0.151119
  64 O :   -0.131432
  65 H :    0.057797
  66 H :    0.037307
  67 H :    0.020427
  68 H :    0.012865
  69 H :   -0.001809
  70 H :    0.002965
  71 H :   -0.013932
  72 H :   -0.012352
  73 H :   -0.028083
  74 H :   -0.024540
  75 H :   -0.013360
  76 H :    0.183512
  77 H :    0.007031
  78 H :    0.032555
  79 H :    0.060808
  80 H :    0.042669
Sum of atomic charges:   -0.0000000

LOEWDIN ATOMIC CHARGES
----------------------
   0 C :   -0.145780
   1 C :   -0.062927
   2 C :   -0.088701
   3 C :   -0.142977
   4 S :    0.481590
   5 C :    0.082735
   6 O :   -0.173023
   7 C :   -0.118808
   8 C :    0.059759
   9 C :   -0.076956
  10 N :    0.279638
  11 O :   -0.209034
  12 O :   -0.194729
  13 N :    0.268188
  14 O :   -0.180168
  15 O :   -0.188260
  16 C :    0.055630
  17 C :   -0.188855
  18 S :    0.552437
  19 C :   -0.146561
  20 C :   -0.117062
  21 C :    0.027405
  22 C :    0.096484
  23 O :   -0.098958
  24 C :   -0.033524
  25 C :   -0.011633
  26 C :   -0.017742
  27 C :   -0.005968
  28 C :   -0.155071
  29 C :   -0.036658
  30 C :   -0.041379
  31 C :   -0.151034
  32 S :    0.397405
  33 C :   -0.033281
  34 C :   -0.041096
  35 C :   -0.148458
  36 C :   -0.031091
  37 S :    0.408006
  38 C :   -0.166730
  39 C :   -0.048277
  40 C :   -0.153658
  41 S :    0.457821
  42 C :   -0.237476
  43 C :    0.066157
  44 O :   -0.162776
  45 O :   -0.020614
  46 C :   -0.043688
  47 C :   -0.039551
  48 C :    0.063396
  49 C :   -0.052539
  50 C :    0.066905
  51 C :   -0.062612
  52 N :    0.279227
  53 O :   -0.192763
  54 O :   -0.192947
  55 N :    0.274695
  56 O :   -0.180679
  57 O :   -0.173588
  58 C :   -0.053771
  59 C :   -0.141126
  60 S :    0.498113
  61 C :   -0.141527
  62 C :   -0.086500
  63 C :    0.087320
  64 O :   -0.129949
  65 H :    0.030820
  66 H :    0.034849
  67 H :    0.044820
  68 H :    0.045827
  69 H :    0.032280
  70 H :    0.035533
  71 H :    0.028894
  72 H :    0.033451
  73 H :    0.032480
  74 H :    0.033663
  75 H :    0.028107
  76 H :    0.080080
  77 H :    0.036014
  78 H :    0.051200
  79 H :    0.032927
  80 H :    0.036647

  Mayer bond orders larger than 0.100000
B(  0-C ,  1-C ) :   1.5562 B(  0-C ,  4-S ) :   1.1804 B(  0-C , 65-H ) :   0.9478
B(  1-C ,  2-C ) :   1.2200 B(  1-C ,  8-C ) :   1.0133 B(  2-C ,  3-C ) :   1.5559
B(  2-C ,  5-C ) :   0.9714 B(  3-C ,  4-S ) :   1.1784 B(  3-C , 66-H ) :   0.9713
B(  5-C ,  6-O ) :   2.1254 B(  5-C ,  7-C ) :   0.9946 B(  7-C ,  8-C ) :   1.1124
B(  7-C , 16-C ) :   1.4517 B(  8-C ,  9-C ) :   1.5739 B(  9-C , 10-N ) :   0.9546
B(  9-C , 13-N ) :   0.8814 B( 10-N , 11-O ) :   1.4894 B( 10-N , 12-O ) :   1.5294
B( 11-O , 12-O ) :   0.2582 B( 13-N , 14-O ) :   1.5216 B( 13-N , 15-O ) :   1.5356
B( 14-O , 15-O ) :   0.2830 B( 16-C , 17-C ) :   1.3324 B( 16-C , 67-H ) :   0.9568
B( 17-C , 18-S ) :   1.0733 B( 17-C , 21-C ) :   1.2962 B( 18-S , 19-C ) :   1.1740
B( 19-C , 20-C ) :   1.3379 B( 19-C , 25-C ) :   1.0892 B( 20-C , 21-C ) :   1.3873
B( 20-C , 22-C ) :   0.9155 B( 21-C , 68-H ) :   1.0123 B( 22-C , 23-O ) :   2.2758
B( 22-C , 24-C ) :   0.9094 B( 24-C , 25-C ) :   1.5853 B( 24-C , 26-C ) :   1.1627
B( 25-C , 69-H ) :   1.0152 B( 26-C , 27-C ) :   1.6323 B( 26-C , 70-H ) :   0.9693
B( 27-C , 28-C ) :   1.1229 B( 27-C , 71-H ) :   0.9646 B( 28-C , 29-C ) :   1.5456
B( 28-C , 32-S ) :   1.0677 B( 29-C , 30-C ) :   1.1753 B( 29-C , 72-H ) :   0.9968
B( 30-C , 31-C ) :   1.2715 B( 30-C , 36-C ) :   1.3077 B( 31-C , 32-S ) :   1.0505
B( 31-C , 33-C ) :   1.3874 B( 33-C , 34-C ) :   1.3218 B( 33-C , 36-C ) :   0.1002
B( 33-C , 73-H ) :   1.0011 B( 34-C , 35-C ) :   1.2740 B( 34-C , 39-C ) :   1.1607
B( 35-C , 36-C ) :   1.3977 B( 35-C , 37-S ) :   1.0421 B( 36-C , 74-H ) :   1.0002
B( 37-S , 38-C ) :   1.0803 B( 38-C , 39-C ) :   1.5685 B( 38-C , 40-C ) :   1.1457
B( 39-C , 75-H ) :   0.9947 B( 40-C , 41-S ) :   1.1532 B( 40-C , 47-C ) :   1.4970
B( 41-S , 42-C ) :   1.0938 B( 42-C , 43-C ) :   0.9486 B( 42-C , 46-C ) :   1.5238
B( 43-C , 44-O ) :   2.1097 B( 43-C , 45-O ) :   1.2659 B( 45-O , 76-H ) :   0.9457
B( 46-C , 47-C ) :   1.2543 B( 46-C , 48-C ) :   1.0049 B( 47-C , 77-H ) :   0.9988
B( 48-C , 49-C ) :   1.8374 B( 48-C , 78-H ) :   0.9393 B( 49-C , 50-C ) :   0.9910
B( 49-C , 63-C ) :   0.9308 B( 50-C , 51-C ) :   1.6393 B( 50-C , 58-C ) :   1.0323
B( 51-C , 52-N ) :   0.9362 B( 51-C , 55-N ) :   0.8833 B( 52-N , 53-O ) :   1.5307
B( 52-N , 54-O ) :   1.5078 B( 53-O , 54-O ) :   0.2657 B( 55-N , 56-O ) :   1.5242
B( 55-N , 57-O ) :   1.5386 B( 56-O , 57-O ) :   0.2809 B( 58-C , 59-C ) :   1.5419
B( 58-C , 62-C ) :   1.2156 B( 59-C , 60-S ) :   1.1923 B( 59-C , 79-H ) :   0.9489
B( 60-S , 61-C ) :   1.1874 B( 61-C , 62-C ) :   1.5499 B( 61-C , 80-H ) :   0.9705
B( 62-C , 63-C ) :   0.9335 B( 63-C , 64-O ) :   2.2730

-----------------------------------------------------------------------------
         ABSORPTION SPECTRUM VIA TRANSITION ELECTRIC DIPOLE MOMENTS
-----------------------------------------------------------------------------
State   Energy  Wavelength   fosc         T2         TX        TY        TZ
        (cm-1)    (nm)                  (au**2)     (au)      (au)      (au)
-----------------------------------------------------------------------------
   0   14845.1    673.6   1.616767531  35.85427  -0.55768   0.09931   5.96099
   1   21579.0    463.4   0.305791772   4.66519  -0.32240   0.27039   2.11852
   2   21869.8    457.3   0.070040027   1.05433   0.30657   0.03175   0.97946
   3   22354.0    447.3   0.025221400   0.37144   0.52539  -0.10288  -0.29124
   4   25438.8    393.1   0.062751136   0.81208   0.16555   0.25117  -0.84946
   5   25870.2    386.5   0.163012322   2.07442  -0.16604  -0.24396   1.40973
   6   26586.4    376.1   0.453851049   5.61990   0.41932  -0.25140   2.31967
   7   27043.2    369.8   0.247239656   3.00979   0.24973  -0.37196   1.67603
   8   28234.6    354.2   0.095782587   1.11681   0.47095   0.17329   0.93005
   9   28468.3    351.3   0.230454792   2.66501   0.30713  -0.77673  -1.40263
  10   28990.9    344.9   0.122100034   1.38653   0.84131  -0.29462  -0.76937
  11   29145.0    343.1   0.108436654   1.22486   0.34258  -0.56943   0.88501
  12   29275.0    341.6   0.044080254   0.49570  -0.16946  -0.17397  -0.66085
  13   29947.5    333.9   0.134512004   1.47869  -0.16569  -0.31129  -1.16376
  14   30495.6    327.9   0.025438039   0.27461  -0.22987  -0.05190  -0.46806
  15   30868.9    324.0   0.105861313   1.12900  -0.40870   0.40493  -0.89331
  16   31216.6    320.3   0.061286808   0.64633   0.52423  -0.22472   0.56658
  17   31291.6    319.6   0.070697947   0.74380  -0.01887   0.15273  -0.84860
  18   31619.8    316.3   0.010886040   0.11334  -0.15205   0.01480  -0.30000
  19   31867.6    313.8   0.024603934   0.25417  -0.15467   0.17293   0.44760
  20   32802.0    304.9   0.032170265   0.32287  -0.01994   0.32741   0.46398
  21   32937.2    303.6   0.067988701   0.67956   0.59348   0.07665  -0.56698
  22   33075.9    302.3   0.031937958   0.31789   0.47540  -0.16423   0.25476
  23   33573.7    297.9   0.046239804   0.45341  -0.23603   0.45810  -0.43341
  24   33876.1    295.2   0.031317272   0.30434   0.49987  -0.01217   0.23309
  25   34078.8    293.4   0.184358373   1.78096  -0.75664  -0.08462  -1.09604
  26   34598.4    289.0   0.035104920   0.33403  -0.49354   0.26323   0.14545
  27   34814.3    287.2   0.013607149   0.12867  -0.04874  -0.35423   0.02861
  28   35165.4    284.4   0.091305930   0.85479  -0.53636   0.07443  -0.74938
  29   35445.5    282.1   0.082768448   0.76874   0.76942  -0.27329  -0.31944
  30   35883.2    278.7   0.057532855   0.52784   0.61898  -0.24074   0.29452
  31   36049.1    277.4   0.089033366   0.81308   0.12847  -0.35323   0.81964
  32   36263.9    275.8   0.055560987   0.50439  -0.07014  -0.04301  -0.70543
  33   36419.3    274.6   0.034378065   0.31076   0.23002  -0.42017   0.28515
  34   36674.6    272.7   0.032529276   0.29200   0.49166   0.17596   0.13895
  35   36984.9    270.4   0.094058089   0.83724  -0.37791  -0.49033  -0.67380
  36   37207.3    268.8   0.014306453   0.12658  -0.22324   0.17214  -0.21706
  37   37350.1    267.7   0.005900213   0.05201   0.13196  -0.15859   0.09716
  38   37555.2    266.3   0.115714752   1.01437  -0.30194   0.17765  -0.94427
  39   37731.5    265.0   0.053555763   0.46728  -0.18484  -0.26036  -0.60442
  40   38084.0    262.6   0.018357888   0.15869  -0.07058   0.14539   0.36411
  41   38209.9    261.7   0.017854544   0.15383   0.08153  -0.14977   0.35321
  42   38300.4    261.1   0.011816929   0.10157  -0.31230  -0.03280  -0.05448
  43   38435.9    260.2   0.014342333   0.12285  -0.31793   0.07591  -0.12650
  44   38785.9    257.8   0.050324509   0.42715  -0.58479   0.26319   0.12610
  45   38797.1    257.8   0.013169803   0.11175  -0.18133  -0.27456   0.05906
  46   38914.6    257.0   0.053307489   0.45097  -0.20717   0.01692  -0.63857
  47   39119.7    255.6   0.023257892   0.19573   0.28442   0.06218   0.33312
  48   39361.9    254.1   0.201439054   1.68478   0.69026   0.59280   0.92569
  49   39423.0    253.7   0.012987310   0.10845  -0.18747   0.09876   0.25210
  50   39452.6    253.5   0.069912816   0.58339  -0.74428  -0.01399   0.17098
  51   39855.0    250.9   0.132901425   1.09780  -0.50866   0.53726   0.74190
  52   40007.5    250.0   0.026061395   0.21445  -0.18330  -0.18404   0.38338
  53   40276.8    248.3   0.148080960   1.21038   0.00556  -0.21856   1.07823

FINAL SINGLE POINT ENERGY     -5191.559988270405

DIPOLE MOMENT
-------------
                                X             Y             Z
Electronic contribution:     -0.30316       5.77623       0.39812
Nuclear contribution   :      3.01249      -7.76890      -1.52577
                        -----------------------------------------
Total Dipole Moment    :      2.70933      -1.99267      -1.12765
                        -----------------------------------------
Magnitude (a.u.)       :      3.54722
Magnitude (Debye)      :      9.01633

Rotational constants in cm-1:     0.004328     0.000157     0.000155
Rotational constants in MHz :   129.745604     4.698024     4.632514

                             ****ORCA TERMINATED NORMALLY****
TOTAL RUN TIME: 0 days 0 hours 7 minutes 42 seconds 175 msec
