                         Program Version 4.2.0 -  RELEASE  -
|  1> # ORCA input file
|  2> # SCF done       -174.734374496060          0.000808653911
|  3> ! CAM-B3LYP def2-SVP def2/J RIJCOSX Grid4 TightSCF
|  4> %maxcore 5000
|  5> %tddft
|  6>     Mode sTDDFT
|  7>     Ethresh 5.0
|  8>     maxcore 5000
|  9> end
| 10>
| 11> %pal
| 12>   nprocs 6
| 13>   end
| 14> * xyz 0 1
| 15>    C        2.95680        -0.58983        -7.33210
| 16>    C        3.60261        -0.47689        -6.13669
| 17>    C        2.79381         0.16276        -5.14381
| 18>    C        1.56990         0.52906        -5.59526
| 19>    S        1.38264         0.10158        -7.25686
| 20>    C        3.50403         0.15615        -3.85761
| 21>    O        3.08195         0.50715        -2.78158
| 22>    C        4.81444        -0.50036        -4.15283
| 23>    C        4.86157        -0.90067        -5.53452
| 24>    C        5.86771        -1.47916        -6.28924
| 25>    N        5.80014        -1.34543        -7.74238
| 26>    O        5.85967        -2.35208        -8.40107
| 27>    O        5.66787        -0.22237        -8.17422
| 28>    N        7.01066        -2.18233        -5.88056
| 29>    O        7.03024        -2.70093        -4.76494
| 30>    O        7.94879        -2.24159        -6.65495
| 31>    C        5.79582        -0.73329        -3.21242
| 32>    C        5.98740        -0.11742        -1.96627
| 33>    C        6.85327        -0.67449        -1.01199
| 34>    O        7.14647        -0.04389         0.15704
| 35>    C        6.50149         1.14105         0.38048
| 36>    C        5.60341         1.69332        -0.57673
| 37>    C        5.05215         2.86149        -0.16332
| 38>    S        5.62702         3.30194         1.40089
| 39>    C        6.61816         1.89921         1.50037
| 40>    O        5.37676         1.09252        -1.77251
| 41>    C        7.46101        -1.94342        -1.18313
| 42>    C        8.38183        -2.45800        -0.31627
| 43>    C        9.06696        -3.68416        -0.43915
| 44>    S       10.16534        -4.10337         0.85469
| 45>    C       10.60751        -5.59459         0.08206
| 46>    C        9.91488        -5.75231        -1.11689
| 47>    C        9.06917        -4.67879        -1.42158
| 48>    C        8.26249        -4.62899        -2.67764
| 49>    C        8.64343        -5.72958        -3.67863
| 50>    C        7.58716        -5.84583        -4.66247
| 51>    N        6.72218        -5.95741        -5.39913
| 52>    C        8.83110        -7.06861        -2.94164
| 53>    C        9.06324        -8.14568        -3.87825
| 54>    N        9.28191        -8.99542        -4.60895
| 55>    C       10.02772        -6.96340        -1.98661
| 56>    C       11.57332        -6.42616         0.69796
| 57>    S       12.29130        -7.81667        -0.10761
| 58>    C       13.28096        -8.12470         1.24784
| 59>    C       13.06473        -7.20367         2.27459
| 60>    C       12.11214        -6.24510         1.96863
| 61>    C       13.96276        -7.56792         3.39277
| 62>    O       14.06909        -7.02519         4.46366
| 63>    C       14.71532        -8.78161         2.88436
| 64>    C       14.27563        -9.07216         1.61633
| 65>    C       15.71442        -9.48634         3.59645
| 66>    C       16.11117        -9.19213         4.86248
| 67>    C       17.12954        -9.91284         5.53434
| 68>    S       17.59817        -9.53299         7.17830
| 69>    C       18.80052       -10.74951         7.25481
| 70>    C       18.86337       -11.44249         6.06827
| 71>    C       17.91771       -10.96439         5.10824
| 72>    O       18.01077       -11.66308         3.95754
| 73>    C       18.99941       -12.57460         4.17034
| 74>    N       19.31396       -13.45353         3.10251
| 75>    O       20.20109       -14.25785         3.30804
| 76>    O       18.68315       -13.33955         2.07486
| 77>    C       19.55624       -12.50086         5.41672
| 78>    H        3.26899        -1.02952        -8.25808
| 79>    H        0.77383         1.01599        -5.06889
| 80>    H        6.52968        -1.47713        -3.47806
| 81>    H        4.34805         3.47448        -0.68500
| 82>    H        7.22246         1.71345         2.36359
| 83>    H        7.15961        -2.50822        -2.04198
| 84>    H        8.63219        -1.87720         0.56233
| 85>    H        8.39013        -3.66666        -3.17644
| 86>    H        7.19963        -4.72733        -2.42949
| 87>    H        9.57304        -5.46777        -4.19709
| 88>    H        7.91896        -7.29604        -2.37539
| 89>    H       10.95707        -6.92261        -2.56585
| 90>    H       10.07178        -7.86496        -1.36953
| 91>    H       11.80552        -5.44709         2.62068
| 92>    H       14.62304        -9.87853         0.99662
| 93>    H       16.18119       -10.31147         3.07315
| 94>    H       15.64982        -8.37941         5.40304
| 95>    H       19.37888       -10.88282         8.14554
| 96>    H       20.34420       -13.11911         5.79368
| 97> *
| 98>
| 99>                          ****END OF INPUT****

CARTESIAN COORDINATES (ANGSTROEM)
---------------------------------
  C      2.956800   -0.589830   -7.332100
  C      3.602610   -0.476890   -6.136690
  C      2.793810    0.162760   -5.143810
  C      1.569900    0.529060   -5.595260
  S      1.382640    0.101580   -7.256860
  C      3.504030    0.156150   -3.857610
  O      3.081950    0.507150   -2.781580
  C      4.814440   -0.500360   -4.152830
  C      4.861570   -0.900670   -5.534520
  C      5.867710   -1.479160   -6.289240
  N      5.800140   -1.345430   -7.742380
  O      5.859670   -2.352080   -8.401070
  O      5.667870   -0.222370   -8.174220
  N      7.010660   -2.182330   -5.880560
  O      7.030240   -2.700930   -4.764940
  O      7.948790   -2.241590   -6.654950
  C      5.795820   -0.733290   -3.212420
  C      5.987400   -0.117420   -1.966270
  C      6.853270   -0.674490   -1.011990
  O      7.146470   -0.043890    0.157040
  C      6.501490    1.141050    0.380480
  C      5.603410    1.693320   -0.576730
  C      5.052150    2.861490   -0.163320
  S      5.627020    3.301940    1.400890
  C      6.618160    1.899210    1.500370
  O      5.376760    1.092520   -1.772510
  C      7.461010   -1.943420   -1.183130
  C      8.381830   -2.458000   -0.316270
  C      9.066960   -3.684160   -0.439150
  S     10.165340   -4.103370    0.854690
  C     10.607510   -5.594590    0.082060
  C      9.914880   -5.752310   -1.116890
  C      9.069170   -4.678790   -1.421580
  C      8.262490   -4.628990   -2.677640
  C      8.643430   -5.729580   -3.678630
  C      7.587160   -5.845830   -4.662470
  N      6.722180   -5.957410   -5.399130
  C      8.831100   -7.068610   -2.941640
  C      9.063240   -8.145680   -3.878250
  N      9.281910   -8.995420   -4.608950
  C     10.027720   -6.963400   -1.986610
  C     11.573320   -6.426160    0.697960
  S     12.291300   -7.816670   -0.107610
  C     13.280960   -8.124700    1.247840
  C     13.064730   -7.203670    2.274590
  C     12.112140   -6.245100    1.968630
  C     13.962760   -7.567920    3.392770
  O     14.069090   -7.025190    4.463660
  C     14.715320   -8.781610    2.884360
  C     14.275630   -9.072160    1.616330
  C     15.714420   -9.486340    3.596450
  C     16.111170   -9.192130    4.862480
  C     17.129540   -9.912840    5.534340
  S     17.598170   -9.532990    7.178300
  C     18.800520  -10.749510    7.254810
  C     18.863370  -11.442490    6.068270
  C     17.917710  -10.964390    5.108240
  O     18.010770  -11.663080    3.957540
  C     18.999410  -12.574600    4.170340
  N     19.313960  -13.453530    3.102510
  O     20.201090  -14.257850    3.308040
  O     18.683150  -13.339550    2.074860
  C     19.556240  -12.500860    5.416720
  H      3.268990   -1.029520   -8.258080
  H      0.773830    1.015990   -5.068890
  H      6.529680   -1.477130   -3.478060
  H      4.348050    3.474480   -0.685000
  H      7.222460    1.713450    2.363590
  H      7.159610   -2.508220   -2.041980
  H      8.632190   -1.877200    0.562330
  H      8.390130   -3.666660   -3.176440
  H      7.199630   -4.727330   -2.429490
  H      9.573040   -5.467770   -4.197090
  H      7.918960   -7.296040   -2.375390
  H     10.957070   -6.922610   -2.565850
  H     10.071780   -7.864960   -1.369530
  H     11.805520   -5.447090    2.620680
  H     14.623040   -9.878530    0.996620
  H     16.181190  -10.311470    3.073150
  H     15.649820   -8.379410    5.403040
  H     19.378880  -10.882820    8.145540
  H     20.344200  -13.119110    5.793680

 Total Charge           Charge          ....    0
 Multiplicity           Mult            ....    1
 Number of Electrons    NEL             ....  474
 Basis Dimension        Dim             ....  997

ORBITAL ENERGIES
----------------

  NO   OCC          E(Eh)            E(eV)
   0   2.0000     -88.993807     -2421.6446
   1   2.0000     -88.985784     -2421.4263
   2   2.0000     -88.976827     -2421.1826
   3   2.0000     -88.976299     -2421.1682
   4   2.0000     -88.966852     -2420.9111
   5   2.0000     -19.319744      -525.7170
   6   2.0000     -19.304607      -525.3051
   7   2.0000     -19.277184      -524.5588
   8   2.0000     -19.251759      -523.8670
   9   2.0000     -19.249931      -523.8173
  10   2.0000     -19.246825      -523.7327
  11   2.0000     -19.245090      -523.6855
  12   2.0000     -19.243925      -523.6538
  13   2.0000     -19.243703      -523.6478
  14   2.0000     -19.240627      -523.5641
  15   2.0000     -19.205227      -522.6008
  16   2.0000     -14.663607      -399.0170
  17   2.0000     -14.655782      -398.8041
  18   2.0000     -14.650429      -398.6584
  19   2.0000     -14.409228      -392.0950
  20   2.0000     -14.401381      -391.8815
  21   2.0000     -10.395881      -282.8863
  22   2.0000     -10.385635      -282.6075
  23   2.0000     -10.384283      -282.5707
  24   2.0000     -10.361758      -281.9578
  25   2.0000     -10.361077      -281.9392
  26   2.0000     -10.358426      -281.8671
  27   2.0000     -10.355890      -281.7981
  28   2.0000     -10.352829      -281.7148
  29   2.0000     -10.348141      -281.5872
  30   2.0000     -10.347086      -281.5585
  31   2.0000     -10.340615      -281.3824
  32   2.0000     -10.336702      -281.2760
  33   2.0000     -10.334641      -281.2199
  34   2.0000     -10.331514      -281.1348
  35   2.0000     -10.326004      -280.9849
  36   2.0000     -10.323931      -280.9284
  37   2.0000     -10.323552      -280.9181
  38   2.0000     -10.321927      -280.8739
  39   2.0000     -10.321688      -280.8674
  40   2.0000     -10.317404      -280.7508
  41   2.0000     -10.317255      -280.7468
  42   2.0000     -10.314376      -280.6684
  43   2.0000     -10.311179      -280.5814
  44   2.0000     -10.310461      -280.5619
  45   2.0000     -10.309677      -280.5406
  46   2.0000     -10.309007      -280.5223
  47   2.0000     -10.308086      -280.4973
  48   2.0000     -10.307307      -280.4761
  49   2.0000     -10.307001      -280.4678
  50   2.0000     -10.306395      -280.4513
  51   2.0000     -10.305261      -280.4204
  52   2.0000     -10.302508      -280.3455
  53   2.0000     -10.300518      -280.2914
  54   2.0000     -10.300326      -280.2861
  55   2.0000     -10.300154      -280.2814
  56   2.0000     -10.300020      -280.2778
  57   2.0000     -10.298922      -280.2479
  58   2.0000     -10.297658      -280.2135
  59   2.0000     -10.296528      -280.1828
  60   2.0000     -10.289407      -279.9890
  61   2.0000     -10.289265      -279.9851
  62   2.0000     -10.283511      -279.8286
  63   2.0000      -8.087950      -220.0843
  64   2.0000      -8.080684      -219.8866
  65   2.0000      -8.072795      -219.6719
  66   2.0000      -8.071903      -219.6476
  67   2.0000      -8.062618      -219.3950
  68   2.0000      -6.057150      -164.8234
  69   2.0000      -6.052974      -164.7098
  70   2.0000      -6.050465      -164.6415
  71   2.0000      -6.049903      -164.6262
  72   2.0000      -6.045586      -164.5088
  73   2.0000      -6.043267      -164.4456
  74   2.0000      -6.042032      -164.4120
  75   2.0000      -6.041177      -164.3888
  76   2.0000      -6.037336      -164.2843
  77   2.0000      -6.037180      -164.2800
  78   2.0000      -6.035471      -164.2335
  79   2.0000      -6.033845      -164.1893
  80   2.0000      -6.032105      -164.1419
  81   2.0000      -6.027898      -164.0275
  82   2.0000      -6.024373      -163.9315
  83   2.0000      -1.335588       -36.3432
  84   2.0000      -1.334705       -36.3192
  85   2.0000      -1.316207       -35.8158
  86   2.0000      -1.239199       -33.7203
  87   2.0000      -1.223947       -33.3053
  88   2.0000      -1.181590       -32.1527
  89   2.0000      -1.152379       -31.3578
  90   2.0000      -1.152279       -31.3551
  91   2.0000      -1.147797       -31.2331
  92   2.0000      -1.138168       -30.9711
  93   2.0000      -1.121675       -30.5223
  94   2.0000      -1.028223       -27.9794
  95   2.0000      -1.015116       -27.6227
  96   2.0000      -1.014195       -27.5976
  97   2.0000      -1.006450       -27.3869
  98   2.0000      -1.001634       -27.2558
  99   2.0000      -0.997880       -27.1537
 100   2.0000      -0.987998       -26.8848
 101   2.0000      -0.974763       -26.5247
 102   2.0000      -0.959075       -26.0977
 103   2.0000      -0.955133       -25.9905
 104   2.0000      -0.945485       -25.7280
 105   2.0000      -0.943310       -25.6688
 106   2.0000      -0.930484       -25.3198
 107   2.0000      -0.912659       -24.8347
 108   2.0000      -0.905041       -24.6274
 109   2.0000      -0.891415       -24.2566
 110   2.0000      -0.887201       -24.1420
 111   2.0000      -0.877787       -23.8858
 112   2.0000      -0.867488       -23.6056
 113   2.0000      -0.859224       -23.3807
 114   2.0000      -0.845341       -23.0029
 115   2.0000      -0.845119       -22.9969
 116   2.0000      -0.838614       -22.8199
 117   2.0000      -0.829169       -22.5628
 118   2.0000      -0.821374       -22.3507
 119   2.0000      -0.804718       -21.8975
 120   2.0000      -0.800516       -21.7831
 121   2.0000      -0.791599       -21.5405
 122   2.0000      -0.783004       -21.3066
 123   2.0000      -0.768268       -20.9056
 124   2.0000      -0.765104       -20.8195
 125   2.0000      -0.760170       -20.6853
 126   2.0000      -0.754599       -20.5337
 127   2.0000      -0.748198       -20.3595
 128   2.0000      -0.725413       -19.7395
 129   2.0000      -0.718246       -19.5445
 130   2.0000      -0.706456       -19.2237
 131   2.0000      -0.700635       -19.0652
 132   2.0000      -0.688180       -18.7263
 133   2.0000      -0.677784       -18.4434
 134   2.0000      -0.675580       -18.3835
 135   2.0000      -0.675189       -18.3728
 136   2.0000      -0.666501       -18.1364
 137   2.0000      -0.662589       -18.0300
 138   2.0000      -0.652230       -17.7481
 139   2.0000      -0.650707       -17.7066
 140   2.0000      -0.648864       -17.6565
 141   2.0000      -0.646280       -17.5862
 142   2.0000      -0.643085       -17.4992
 143   2.0000      -0.640848       -17.4384
 144   2.0000      -0.633360       -17.2346
 145   2.0000      -0.631961       -17.1965
 146   2.0000      -0.630227       -17.1493
 147   2.0000      -0.625622       -17.0240
 148   2.0000      -0.614671       -16.7260
 149   2.0000      -0.613362       -16.6904
 150   2.0000      -0.609410       -16.5829
 151   2.0000      -0.606908       -16.5148
 152   2.0000      -0.595181       -16.1957
 153   2.0000      -0.594331       -16.1726
 154   2.0000      -0.589218       -16.0334
 155   2.0000      -0.585828       -15.9412
 156   2.0000      -0.585185       -15.9237
 157   2.0000      -0.582706       -15.8562
 158   2.0000      -0.580111       -15.7856
 159   2.0000      -0.579165       -15.7599
 160   2.0000      -0.577824       -15.7234
 161   2.0000      -0.575776       -15.6677
 162   2.0000      -0.565980       -15.4011
 163   2.0000      -0.560965       -15.2646
 164   2.0000      -0.558217       -15.1898
 165   2.0000      -0.552395       -15.0314
 166   2.0000      -0.547305       -14.8929
 167   2.0000      -0.542457       -14.7610
 168   2.0000      -0.533936       -14.5291
 169   2.0000      -0.532297       -14.4845
 170   2.0000      -0.531148       -14.4533
 171   2.0000      -0.528416       -14.3789
 172   2.0000      -0.526877       -14.3371
 173   2.0000      -0.522450       -14.2166
 174   2.0000      -0.521061       -14.1788
 175   2.0000      -0.518063       -14.0972
 176   2.0000      -0.516610       -14.0577
 177   2.0000      -0.512819       -13.9545
 178   2.0000      -0.510389       -13.8884
 179   2.0000      -0.507271       -13.8035
 180   2.0000      -0.502301       -13.6683
 181   2.0000      -0.495289       -13.4775
 182   2.0000      -0.493191       -13.4204
 183   2.0000      -0.490521       -13.3478
 184   2.0000      -0.488150       -13.2832
 185   2.0000      -0.485673       -13.2158
 186   2.0000      -0.485189       -13.2027
 187   2.0000      -0.483986       -13.1699
 188   2.0000      -0.479934       -13.0597
 189   2.0000      -0.478001       -13.0071
 190   2.0000      -0.475864       -12.9489
 191   2.0000      -0.474478       -12.9112
 192   2.0000      -0.471163       -12.8210
 193   2.0000      -0.464512       -12.6400
 194   2.0000      -0.462465       -12.5843
 195   2.0000      -0.454478       -12.3670
 196   2.0000      -0.451843       -12.2953
 197   2.0000      -0.444983       -12.1086
 198   2.0000      -0.443052       -12.0560
 199   2.0000      -0.440901       -11.9975
 200   2.0000      -0.440402       -11.9839
 201   2.0000      -0.439365       -11.9557
 202   2.0000      -0.435300       -11.8451
 203   2.0000      -0.434736       -11.8298
 204   2.0000      -0.431986       -11.7549
 205   2.0000      -0.427912       -11.6441
 206   2.0000      -0.424203       -11.5432
 207   2.0000      -0.420987       -11.4556
 208   2.0000      -0.417268       -11.3544
 209   2.0000      -0.408350       -11.1118
 210   2.0000      -0.405953       -11.0465
 211   2.0000      -0.404588       -11.0094
 212   2.0000      -0.400343       -10.8939
 213   2.0000      -0.397501       -10.8166
 214   2.0000      -0.394825       -10.7437
 215   2.0000      -0.390928       -10.6377
 216   2.0000      -0.388664       -10.5761
 217   2.0000      -0.386572       -10.5192
 218   2.0000      -0.384348       -10.4586
 219   2.0000      -0.379828       -10.3356
 220   2.0000      -0.376839       -10.2543
 221   2.0000      -0.370788       -10.0897
 222   2.0000      -0.368382       -10.0242
 223   2.0000      -0.363507        -9.8915
 224   2.0000      -0.353452        -9.6179
 225   2.0000      -0.348531        -9.4840
 226   2.0000      -0.341258        -9.2861
 227   2.0000      -0.335834        -9.1385
 228   2.0000      -0.330461        -8.9923
 229   2.0000      -0.329707        -8.9718
 230   2.0000      -0.327322        -8.9069
 231   2.0000      -0.317632        -8.6432
 232   2.0000      -0.314153        -8.5485
 233   2.0000      -0.306094        -8.3292
 234   2.0000      -0.292504        -7.9595
 235   2.0000      -0.262890        -7.1536
 236   2.0000      -0.239483        -6.5167
 237   0.0000      -0.111203        -3.0260
 238   0.0000      -0.092723        -2.5231
 239   0.0000      -0.069931        -1.9029
 240   0.0000      -0.063071        -1.7163
 241   0.0000      -0.038649        -1.0517

MULLIKEN ATOMIC CHARGES
-----------------------
   0 C :   -0.120570
   1 C :    0.048072
   2 C :    0.013151
   3 C :   -0.135582
   4 S :    0.151886
   5 C :    0.144588
   6 O :   -0.126564
   7 C :   -0.058579
   8 C :    0.216934
   9 C :    0.044994
  10 N :    0.193395
  11 O :   -0.202035
  12 O :   -0.221680
  13 N :    0.280795
  14 O :   -0.281121
  15 O :   -0.233560
  16 C :   -0.104137
  17 C :    0.166558
  18 C :    0.202768
  19 O :   -0.233700
  20 C :    0.202948
  21 C :    0.229001
  22 C :   -0.166965
  23 S :    0.121275
  24 C :   -0.163673
  25 O :   -0.218481
  26 C :   -0.105477
  27 C :    0.087585
  28 C :   -0.126503
  29 S :    0.135918
  30 C :   -0.071177
  31 C :   -0.098781
  32 C :   -0.053064
  33 C :    0.147651
  34 C :   -0.057517
  35 C :   -0.262044
  36 N :    0.161784
  37 C :   -0.087465
  38 C :   -0.255018
  39 N :    0.162791
  40 C :    0.165853
  41 C :   -0.109642
  42 S :    0.152000
  43 C :   -0.021413
  44 C :    0.007029
  45 C :   -0.028797
  46 C :    0.172198
  47 O :   -0.115382
  48 C :    0.003029
  49 C :   -0.041740
  50 C :   -0.049040
  51 C :    0.066989
  52 C :   -0.201450
  53 S :    0.173579
  54 C :   -0.137726
  55 C :    0.126675
  56 C :    0.192736
  57 O :   -0.191449
  58 C :    0.246368
  59 N :    0.271331
  60 O :   -0.244488
  61 O :   -0.230132
  62 C :   -0.076654
  63 H :    0.047903
  64 H :    0.036639
  65 H :    0.023583
  66 H :    0.035269
  67 H :    0.027765
  68 H :    0.010565
  69 H :    0.002857
  70 H :    0.063376
  71 H :    0.047789
  72 H :    0.049950
  73 H :    0.049405
  74 H :    0.036559
  75 H :    0.046465
  76 H :    0.006122
  77 H :    0.002017
  78 H :    0.000675
  79 H :    0.002432
  80 H :    0.036387
  81 H :    0.015969
Sum of atomic charges:   -0.0000000

LOEWDIN ATOMIC CHARGES
----------------------
   0 C :   -0.148667
   1 C :   -0.065668
   2 C :   -0.088218
   3 C :   -0.145497
   4 S :    0.484650
   5 C :    0.074529
   6 O :   -0.132749
   7 C :   -0.093061
   8 C :    0.061580
   9 C :   -0.079011
  10 N :    0.268300
  11 O :   -0.174721
  12 O :   -0.190406
  13 N :    0.288379
  14 O :   -0.230816
  15 O :   -0.198497
  16 C :    0.045989
  17 C :    0.003260
  18 C :    0.085636
  19 O :   -0.029245
  20 C :   -0.013748
  21 C :   -0.003708
  22 C :   -0.201201
  23 S :    0.448780
  24 C :   -0.203973
  25 O :   -0.031777
  26 C :   -0.061635
  27 C :    0.005312
  28 C :   -0.179985
  29 S :    0.452410
  30 C :   -0.166390
  31 C :   -0.073498
  32 C :   -0.034656
  33 C :   -0.013382
  34 C :   -0.026539
  35 C :   -0.035743
  36 N :   -0.044231
  37 C :   -0.031681
  38 C :   -0.037109
  39 N :   -0.043633
  40 C :   -0.020618
  41 C :   -0.194900
  42 S :    0.489801
  43 C :   -0.167236
  44 C :   -0.104260
  45 C :   -0.019093
  46 C :    0.106346
  47 O :   -0.100557
  48 C :   -0.047850
  49 C :   -0.007439
  50 C :   -0.025910
  51 C :   -0.022817
  52 C :   -0.204924
  53 S :    0.492244
  54 C :   -0.182571
  55 C :   -0.082881
  56 C :    0.024325
  57 O :    0.002357
  58 C :    0.026786
  59 N :    0.271383
  60 O :   -0.205724
  61 O :   -0.191818
  62 C :   -0.006539
  63 H :    0.030106
  64 H :    0.034411
  65 H :    0.028836
  66 H :    0.034338
  67 H :    0.030725
  68 H :    0.037656
  69 H :    0.035046
  70 H :    0.043439
  71 H :    0.046555
  72 H :    0.060173
  73 H :    0.059301
  74 H :    0.039973
  75 H :    0.032528
  76 H :    0.035084
  77 H :    0.036380
  78 H :    0.034857
  79 H :    0.033676
  80 H :    0.030782
  81 H :    0.048643

  Mayer bond orders larger than 0.100000
B(  0-C ,  1-C ) :   1.5289 B(  0-C ,  4-S ) :   1.1973 B(  0-C , 63-H ) :   0.9575
B(  1-C ,  2-C ) :   1.2374 B(  1-C ,  8-C ) :   1.0224 B(  2-C ,  3-C ) :   1.5630
B(  2-C ,  5-C ) :   0.9437 B(  3-C ,  4-S ) :   1.1776 B(  3-C , 64-H ) :   0.9695
B(  5-C ,  6-O ) :   2.2738 B(  5-C ,  7-C ) :   0.9288 B(  7-C ,  8-C ) :   1.1593
B(  7-C , 16-C ) :   1.4792 B(  8-C ,  9-C ) :   1.4851 B(  9-C , 10-N ) :   0.8744
B(  9-C , 13-N ) :   1.0114 B( 10-N , 11-O ) :   1.5409 B( 10-N , 12-O ) :   1.5256
B( 11-O , 12-O ) :   0.2899 B( 13-N , 14-O ) :   1.3959 B( 13-N , 15-O ) :   1.5224
B( 14-O , 15-O ) :   0.2274 B( 14-O , 65-H ) :   0.1123 B( 16-C , 17-C ) :   1.2715
B( 16-C , 65-H ) :   0.9125 B( 17-C , 18-C ) :   1.3141 B( 17-C , 25-O ) :   1.0820
B( 18-C , 19-O ) :   1.1298 B( 18-C , 26-C ) :   1.2267 B( 19-O , 20-C ) :   1.0143
B( 20-C , 21-C ) :   1.2066 B( 20-C , 24-C ) :   1.5673 B( 21-C , 22-C ) :   1.5734
B( 21-C , 25-O ) :   1.0630 B( 22-C , 23-S ) :   1.1421 B( 22-C , 66-H ) :   0.9706
B( 23-S , 24-C ) :   1.1547 B( 24-C , 67-H ) :   0.9734 B( 26-C , 27-C ) :   1.5860
B( 26-C , 68-H ) :   0.9402 B( 27-C , 28-C ) :   1.1693 B( 27-C , 69-H ) :   0.9544
B( 28-C , 29-S ) :   1.0904 B( 28-C , 32-C ) :   1.4555 B( 29-S , 30-C ) :   1.1552
B( 30-C , 31-C ) :   1.4679 B( 30-C , 41-C ) :   1.1765 B( 31-C , 32-C ) :   1.3546
B( 31-C , 40-C ) :   1.0537 B( 32-C , 33-C ) :   1.0524 B( 33-C , 34-C ) :   1.0687
B( 33-C , 70-H ) :   0.8954 B( 33-C , 71-H ) :   0.8861 B( 34-C , 35-C ) :   1.0923
B( 34-C , 37-C ) :   1.0737 B( 34-C , 72-H ) :   0.8452 B( 35-C , 36-N ) :   3.1140
B( 37-C , 38-C ) :   1.0899 B( 37-C , 40-C ) :   1.0894 B( 37-C , 73-H ) :   0.8562
B( 38-C , 39-N ) :   3.1252 B( 40-C , 74-H ) :   0.8825 B( 40-C , 75-H ) :   0.9081
B( 41-C , 42-S ) :   1.1007 B( 41-C , 45-C ) :   1.4228 B( 42-S , 43-C ) :   1.1386
B( 43-C , 44-C ) :   1.4449 B( 43-C , 49-C ) :   1.0446 B( 44-C , 45-C ) :   1.3326
B( 44-C , 46-C ) :   0.9286 B( 45-C , 76-H ) :   0.9965 B( 46-C , 47-O ) :   2.2347
B( 46-C , 48-C ) :   0.9094 B( 48-C , 49-C ) :   1.5880 B( 48-C , 50-C ) :   1.1594
B( 49-C , 77-H ) :   1.0278 B( 50-C , 51-C ) :   1.6326 B( 50-C , 78-H ) :   0.9794
B( 51-C , 52-C ) :   1.1093 B( 51-C , 79-H ) :   0.9589 B( 52-C , 53-S ) :   1.1339
B( 52-C , 54-C ) :   0.1098 B( 52-C , 56-C ) :   1.4455 B( 53-S , 54-C ) :   1.2044
B( 54-C , 55-C ) :   1.4219 B( 54-C , 80-H ) :   0.9750 B( 55-C , 56-C ) :   1.2337
B( 55-C , 62-C ) :   1.0569 B( 56-C , 57-O ) :   1.0976 B( 57-O , 58-C ) :   1.1185
B( 58-C , 59-N ) :   0.9109 B( 58-C , 62-C ) :   1.5800 B( 59-N , 60-O ) :   1.5384
B( 59-N , 61-O ) :   1.5149 B( 60-O , 61-O ) :   0.2812 B( 62-C , 81-H ) :   1.0268

-----------------------------------------------------------------------------
         ABSORPTION SPECTRUM VIA TRANSITION ELECTRIC DIPOLE MOMENTS
-----------------------------------------------------------------------------
State   Energy  Wavelength   fosc         T2         TX        TY        TZ
        (cm-1)    (nm)                  (au**2)     (au)      (au)      (au)
-----------------------------------------------------------------------------
   0   12945.8    772.5   1.382422550  35.15510   3.72685  -2.72241   3.72212
   1   15644.3    639.2   0.065013800   1.36812  -0.82066   0.79566   0.24809
   2   19670.1    508.4   0.185631869   3.10685   1.01380  -1.43227  -0.16636
   3   22499.5    444.5   0.203132752   2.97223  -1.24338   1.01546  -0.62855
   4   22921.3    436.3   0.270214128   3.88101   1.34479  -1.42462  -0.20737
   5   23805.0    420.1   0.041207480   0.56988   0.01197  -0.64412  -0.39350
   6   24735.5    404.3   0.149009234   1.98321  -0.04118   0.48999   1.31963
   7   26210.0    381.5   0.057649000   0.72410   0.77781  -0.33194   0.09454
   8   26437.2    378.3   0.000207414   0.00258   0.01073  -0.04632  -0.01795
   9   26611.2    375.8   0.064913481   0.80306   0.68966  -0.54105  -0.18625
  10   27696.0    361.1   0.426101205   5.06491   1.53053  -1.43527   0.81386
  11   28235.5    354.2   0.073928217   0.86197   0.55001   0.39853   0.63295
  12   28882.0    346.2   0.044996532   0.51289   0.45146  -0.23983   0.50156
  13   29244.9    341.9   0.025465040   0.28666   0.33567  -0.08853   0.40762
  14   30081.0    332.4   0.042693825   0.46725   0.51434  -0.41443  -0.17592
  15   30618.6    326.6   0.026501680   0.28495  -0.43428   0.08241  -0.29926
  16   30876.5    323.9   0.058637248   0.62520  -0.19743   0.72993   0.23113
  17   31497.6    317.5   0.038301075   0.40032   0.35589  -0.42920  -0.29909
  18   31628.5    316.2   0.076256944   0.79374   0.71288  -0.43775   0.30646
  19   32343.0    309.2   0.021881106   0.22272   0.42821  -0.04551   0.19309
  20   32733.5    305.5   0.001130437   0.01137  -0.04001  -0.04308  -0.08895
  21   33018.8    302.9   0.522498392   5.20954  -1.47340   0.26321  -1.72318
  22   33061.6    302.5   0.000137962   0.00137  -0.02518   0.00751  -0.02614
  23   33629.5    297.4   0.057495817   0.56285  -0.70113   0.25299  -0.08523
  24   34285.0    291.7   0.011842438   0.11371  -0.32736   0.00486   0.08076
  25   34551.4    289.4   0.088744143   0.84557   0.85954  -0.23678   0.22515
  26   35045.6    285.3   0.030737052   0.28874  -0.41090   0.31760  -0.13794
  27   35357.2    282.8   0.178235826   1.65956   0.68486  -1.06693  -0.22846
  28   35836.1    279.0   0.083117580   0.76357  -0.83269   0.26288  -0.03307
  29   35969.5    278.0   0.017239238   0.15778   0.38435  -0.08479  -0.05354
  30   36566.2    273.5   0.017966352   0.16175  -0.08686  -0.24592  -0.30616
  31   37084.4    269.7   0.007727022   0.06860   0.13507   0.00501   0.22434
  32   37126.8    269.3   0.051516392   0.45681  -0.42230   0.10217  -0.51772
  33   37378.0    267.5   0.125546102   1.10577  -0.13804   0.55996   0.87929
  34   37663.0    265.5   0.017091128   0.14939  -0.00720   0.07637   0.37883
  35   38283.9    261.2   0.057663557   0.49586   0.49714  -0.34386   0.36121
  36   38578.0    259.2   0.053597748   0.45739   0.16219   0.38638   0.53084
  37   38810.5    257.7   0.078861845   0.66895   0.41085  -0.55394  -0.43965
  38   38895.7    257.1   0.052252323   0.44226  -0.32121   0.34773   0.46708
  39   38987.5    256.5   0.304958578   2.57508   0.06467   0.84946   1.35989
  40   39432.4    253.6   0.026044460   0.21744  -0.26085  -0.05870  -0.38204
  41   39977.4    250.1   0.134841268   1.11041  -0.02935  -0.49865  -0.92785
  42   39994.2    250.0   0.104867655   0.86322   0.00622  -0.50697  -0.77856

FINAL SINGLE POINT ENERGY     -4699.695052598226

DIPOLE MOMENT
-------------
                                X             Y             Z
Electronic contribution:     -1.82919       6.89847      -2.48792
Nuclear contribution   :      2.57976      -5.50307       7.34800
                        -----------------------------------------
Total Dipole Moment    :      0.75057       1.39541       4.86008
                        -----------------------------------------
Magnitude (a.u.)       :      5.11184
Magnitude (Debye)      :     12.99326

Rotational constants in cm-1:     0.002158     0.000298     0.000266
Rotational constants in MHz :    64.681921     8.926486     7.975971

                             ****ORCA TERMINATED NORMALLY****
TOTAL RUN TIME: 0 days 0 hours 7 minutes 8 seconds 645 msec
