                         Program Version 4.2.0 -  RELEASE  -
|  1> # ORCA input file
|  2> # SCF done       -163.158492774756          0.000523412428
|  3> ! CAM-B3LYP def2-SVP def2/J RIJCOSX Grid4 TightSCF
|  4> %maxcore 5000
|  5> %tddft
|  6>     Mode sTDDFT
|  7>     Ethresh 5.0
|  8>     maxcore 5000
|  9> end
| 10>
| 11> %pal
| 12>   nprocs 6
| 13>   end
| 14> * xyz 0 1
| 15>    C        1.68806         6.02706        -3.77575
| 16>    C        1.78138         4.67966        -3.60540
| 17>    C        3.07317         4.17384        -3.97450
| 18>    C        3.92782         5.13354        -4.40325
| 19>    S        3.16429         6.68184        -4.37658
| 20>    C        3.10370         2.71870        -3.78295
| 21>    O        4.03346         1.96719        -4.00773
| 22>    C        1.75176         2.37083        -3.31817
| 23>    C        0.98961         3.57270        -3.09312
| 24>    C       -0.19207         3.64301        -2.38823
| 25>    N       -1.03194         4.78866        -2.34905
| 26>    O       -1.75101         4.92953        -1.38125
| 27>    O       -0.97236         5.56621        -3.28584
| 28>    N       -0.63594         2.55907        -1.53983
| 29>    O       -1.80529         2.25514        -1.58668
| 30>    O        0.20172         2.02907        -0.83938
| 31>    C        1.22639         1.08945        -3.30469
| 32>    C        1.86460        -0.13847        -3.41915
| 33>    S        3.61007        -0.40601        -3.43689
| 34>    C        3.36497        -2.09271        -3.45850
| 35>    C        1.99267        -2.44725        -3.49088
| 36>    C        1.15936        -1.36165        -3.45986
| 37>    C        1.91584        -3.91736        -3.53925
| 38>    O        0.94627        -4.63339        -3.58634
| 39>    C        3.36027        -4.36596        -3.52083
| 40>    C        4.17415        -3.24462        -3.47991
| 41>    C        3.67206        -5.73150        -3.54087
| 42>    C        4.93908        -6.24995        -3.46163
| 43>    C        5.25302        -7.61456        -3.47862
| 44>    S        6.93745        -8.11020        -3.27731
| 45>    C        6.49784        -9.75821        -3.39729
| 46>    C        5.11124        -9.91538        -3.59399
| 47>    C        4.41629        -8.72539        -3.63640
| 48>    C        4.85095       -11.36347        -3.69623
| 49>    O        3.80544       -11.93718        -3.87843
| 50>    C        6.20986       -12.00442        -3.52379
| 51>    C        7.15247       -11.00233        -3.35145
| 52>    C        6.34394       -13.39756        -3.55710
| 53>    C        7.51619       -14.08507        -3.37208
| 54>    C        7.60373       -15.49095        -3.42779
| 55>    C        8.77197       -16.21533        -3.21749
| 56>    O        8.81086       -17.58608        -3.30256
| 57>    C        7.63164       -18.20514        -3.59766
| 58>    C        6.43207       -17.46717        -3.80337
| 59>    C        5.36915       -18.26211        -4.08366
| 60>    S        5.82179       -19.92525        -4.09933
| 61>    C        7.45865       -19.54511        -3.72507
| 62>    O        6.40304       -16.11226        -3.72098
| 63>    C       10.02888       -15.63985        -2.89096
| 64>    C       11.14915       -16.38614        -2.70259
| 65>    N       12.35101       -15.85051        -2.40502
| 66>    C       13.51265       -16.54447        -2.11104
| 67>    C       13.61512       -17.88103        -1.85085
| 68>    S       15.22215       -18.34702        -1.47899
| 69>    C       15.78601       -16.73579        -1.69159
| 70>    C       14.78353       -15.87362        -2.02666
| 71>    N       14.90450       -14.51697        -2.25471
| 72>    C       16.01982       -13.76136        -1.95931
| 73>    C       16.22231       -12.53545        -2.42439
| 74>    H        0.84761         6.67486        -3.62789
| 75>    H        4.94487         5.03689        -4.72623
| 76>    H        0.14706         1.00430        -3.23620
| 77>    H        0.08471        -1.40357        -3.45510
| 78>    H        5.24832        -3.23728        -3.46364
| 79>    H        2.82168        -6.39632        -3.60897
| 80>    H        5.77331        -5.56824        -3.36464
| 81>    H        3.35466        -8.64252        -3.77827
| 82>    H        8.20891       -11.13513        -3.20859
| 83>    H        5.43354       -13.95204        -3.73914
| 84>    H        8.41861       -13.53221        -3.17489
| 85>    H        4.35957       -17.96791        -4.27902
| 86>    H        8.19010       -20.31886        -3.62159
| 87>    H       10.08310       -14.56982        -2.78279
| 88>    H       11.11773       -17.45844        -2.80684
| 89>    H       12.39357       -14.84527        -2.29731
| 90>    H       12.83835       -18.61695        -1.82965
| 91>    H       16.82785       -16.52770        -1.56497
| 92>    H       14.26333       -14.10109        -2.91548
| 93>    H       16.70505       -14.22964        -1.27004
| 94>    H       15.53707       -12.06504        -3.10928
| 95>    H       17.08112       -11.96526        -2.12927
| 96> *
| 97>
| 98>                          ****END OF INPUT****

CARTESIAN COORDINATES (ANGSTROEM)
---------------------------------
  C      1.688060    6.027060   -3.775750
  C      1.781380    4.679660   -3.605400
  C      3.073170    4.173840   -3.974500
  C      3.927820    5.133540   -4.403250
  S      3.164290    6.681840   -4.376580
  C      3.103700    2.718700   -3.782950
  O      4.033460    1.967190   -4.007730
  C      1.751760    2.370830   -3.318170
  C      0.989610    3.572700   -3.093120
  C     -0.192070    3.643010   -2.388230
  N     -1.031940    4.788660   -2.349050
  O     -1.751010    4.929530   -1.381250
  O     -0.972360    5.566210   -3.285840
  N     -0.635940    2.559070   -1.539830
  O     -1.805290    2.255140   -1.586680
  O      0.201720    2.029070   -0.839380
  C      1.226390    1.089450   -3.304690
  C      1.864600   -0.138470   -3.419150
  S      3.610070   -0.406010   -3.436890
  C      3.364970   -2.092710   -3.458500
  C      1.992670   -2.447250   -3.490880
  C      1.159360   -1.361650   -3.459860
  C      1.915840   -3.917360   -3.539250
  O      0.946270   -4.633390   -3.586340
  C      3.360270   -4.365960   -3.520830
  C      4.174150   -3.244620   -3.479910
  C      3.672060   -5.731500   -3.540870
  C      4.939080   -6.249950   -3.461630
  C      5.253020   -7.614560   -3.478620
  S      6.937450   -8.110200   -3.277310
  C      6.497840   -9.758210   -3.397290
  C      5.111240   -9.915380   -3.593990
  C      4.416290   -8.725390   -3.636400
  C      4.850950  -11.363470   -3.696230
  O      3.805440  -11.937180   -3.878430
  C      6.209860  -12.004420   -3.523790
  C      7.152470  -11.002330   -3.351450
  C      6.343940  -13.397560   -3.557100
  C      7.516190  -14.085070   -3.372080
  C      7.603730  -15.490950   -3.427790
  C      8.771970  -16.215330   -3.217490
  O      8.810860  -17.586080   -3.302560
  C      7.631640  -18.205140   -3.597660
  C      6.432070  -17.467170   -3.803370
  C      5.369150  -18.262110   -4.083660
  S      5.821790  -19.925250   -4.099330
  C      7.458650  -19.545110   -3.725070
  O      6.403040  -16.112260   -3.720980
  C     10.028880  -15.639850   -2.890960
  C     11.149150  -16.386140   -2.702590
  N     12.351010  -15.850510   -2.405020
  C     13.512650  -16.544470   -2.111040
  C     13.615120  -17.881030   -1.850850
  S     15.222150  -18.347020   -1.478990
  C     15.786010  -16.735790   -1.691590
  C     14.783530  -15.873620   -2.026660
  N     14.904500  -14.516970   -2.254710
  C     16.019820  -13.761360   -1.959310
  C     16.222310  -12.535450   -2.424390
  H      0.847610    6.674860   -3.627890
  H      4.944870    5.036890   -4.726230
  H      0.147060    1.004300   -3.236200
  H      0.084710   -1.403570   -3.455100
  H      5.248320   -3.237280   -3.463640
  H      2.821680   -6.396320   -3.608970
  H      5.773310   -5.568240   -3.364640
  H      3.354660   -8.642520   -3.778270
  H      8.208910  -11.135130   -3.208590
  H      5.433540  -13.952040   -3.739140
  H      8.418610  -13.532210   -3.174890
  H      4.359570  -17.967910   -4.279020
  H      8.190100  -20.318860   -3.621590
  H     10.083100  -14.569820   -2.782790
  H     11.117730  -17.458440   -2.806840
  H     12.393570  -14.845270   -2.297310
  H     12.838350  -18.616950   -1.829650
  H     16.827850  -16.527700   -1.564970
  H     14.263330  -14.101090   -2.915480
  H     16.705050  -14.229640   -1.270040
  H     15.537070  -12.065040   -3.109280
  H     17.081120  -11.965260   -2.129270

 Total Charge           Charge          ....    0
 Multiplicity           Mult            ....    1
 Number of Electrons    NEL             ....  448
 Basis Dimension        Dim             ....  956

ORBITAL ENERGIES
----------------

  NO   OCC          E(Eh)            E(eV)
   0   2.0000     -88.980894     -2421.2932
   1   2.0000     -88.973113     -2421.0815
   2   2.0000     -88.968513     -2420.9563
   3   2.0000     -88.962560     -2420.7943
   4   2.0000     -88.959580     -2420.7132
   5   2.0000     -19.290045      -524.9088
   6   2.0000     -19.274155      -524.4764
   7   2.0000     -19.237600      -523.4817
   8   2.0000     -19.234806      -523.4057
   9   2.0000     -19.229128      -523.2512
  10   2.0000     -19.229005      -523.2478
  11   2.0000     -19.228940      -523.2460
  12   2.0000     -19.227226      -523.1994
  13   2.0000     -19.206916      -522.6467
  14   2.0000     -14.644204      -398.4890
  15   2.0000     -14.641388      -398.4124
  16   2.0000     -14.474956      -393.8836
  17   2.0000     -14.453913      -393.3110
  18   2.0000     -10.370792      -282.2036
  19   2.0000     -10.370156      -282.1863
  20   2.0000     -10.366440      -282.0852
  21   2.0000     -10.360396      -281.9207
  22   2.0000     -10.347286      -281.5640
  23   2.0000     -10.346113      -281.5320
  24   2.0000     -10.345850      -281.5249
  25   2.0000     -10.344719      -281.4941
  26   2.0000     -10.340937      -281.3912
  27   2.0000     -10.334827      -281.2249
  28   2.0000     -10.330996      -281.1207
  29   2.0000     -10.328593      -281.0553
  30   2.0000     -10.324127      -280.9338
  31   2.0000     -10.319685      -280.8129
  32   2.0000     -10.318115      -280.7702
  33   2.0000     -10.316795      -280.7343
  34   2.0000     -10.314322      -280.6670
  35   2.0000     -10.310456      -280.5618
  36   2.0000     -10.309154      -280.5263
  37   2.0000     -10.306536      -280.4551
  38   2.0000     -10.305662      -280.4313
  39   2.0000     -10.303623      -280.3758
  40   2.0000     -10.301169      -280.3090
  41   2.0000     -10.300037      -280.2782
  42   2.0000     -10.299880      -280.2740
  43   2.0000     -10.298005      -280.2230
  44   2.0000     -10.297991      -280.2226
  45   2.0000     -10.296759      -280.1891
  46   2.0000     -10.296450      -280.1807
  47   2.0000     -10.295484      -280.1544
  48   2.0000     -10.294958      -280.1401
  49   2.0000     -10.294071      -280.1159
  50   2.0000     -10.291229      -280.0386
  51   2.0000     -10.286074      -279.8983
  52   2.0000     -10.282147      -279.7914
  53   2.0000     -10.281228      -279.7664
  54   2.0000     -10.280566      -279.7484
  55   2.0000     -10.278720      -279.6982
  56   2.0000     -10.277050      -279.6527
  57   2.0000     -10.276644      -279.6417
  58   2.0000     -10.258886      -279.1585
  59   2.0000      -8.076037      -219.7601
  60   2.0000      -8.066225      -219.4931
  61   2.0000      -8.064531      -219.4470
  62   2.0000      -8.058348      -219.2788
  63   2.0000      -8.055433      -219.1995
  64   2.0000      -6.045105      -164.4957
  65   2.0000      -6.041183      -164.3889
  66   2.0000      -6.038470      -164.3151
  67   2.0000      -6.035540      -164.2354
  68   2.0000      -6.033791      -164.1878
  69   2.0000      -6.030948      -164.1104
  70   2.0000      -6.029088      -164.0598
  71   2.0000      -6.028733      -164.0502
  72   2.0000      -6.027829      -164.0256
  73   2.0000      -6.027191      -164.0082
  74   2.0000      -6.024972      -163.9478
  75   2.0000      -6.023675      -163.9125
  76   2.0000      -6.020635      -163.8298
  77   2.0000      -6.020056      -163.8140
  78   2.0000      -6.017288      -163.7387
  79   2.0000      -1.323796       -36.0223
  80   2.0000      -1.305542       -35.5256
  81   2.0000      -1.210358       -32.9355
  82   2.0000      -1.171157       -31.8688
  83   2.0000      -1.139128       -30.9972
  84   2.0000      -1.138101       -30.9693
  85   2.0000      -1.137946       -30.9651
  86   2.0000      -1.127664       -30.6853
  87   2.0000      -1.124077       -30.5877
  88   2.0000      -1.083150       -29.4740
  89   2.0000      -1.049743       -28.5650
  90   2.0000      -1.012029       -27.5387
  91   2.0000      -1.008586       -27.4450
  92   2.0000      -1.006100       -27.3774
  93   2.0000      -0.992315       -27.0023
  94   2.0000      -0.976458       -26.5708
  95   2.0000      -0.966434       -26.2980
  96   2.0000      -0.952783       -25.9266
  97   2.0000      -0.944487       -25.7008
  98   2.0000      -0.927322       -25.2337
  99   2.0000      -0.921571       -25.0772
 100   2.0000      -0.901913       -24.5423
 101   2.0000      -0.890046       -24.2194
 102   2.0000      -0.869666       -23.6648
 103   2.0000      -0.865793       -23.5594
 104   2.0000      -0.856865       -23.3165
 105   2.0000      -0.853774       -23.2324
 106   2.0000      -0.847929       -23.0733
 107   2.0000      -0.838465       -22.8158
 108   2.0000      -0.834215       -22.7001
 109   2.0000      -0.821300       -22.3487
 110   2.0000      -0.816269       -22.2118
 111   2.0000      -0.808407       -21.9979
 112   2.0000      -0.801894       -21.8206
 113   2.0000      -0.795617       -21.6498
 114   2.0000      -0.787272       -21.4228
 115   2.0000      -0.770471       -20.9656
 116   2.0000      -0.764996       -20.8166
 117   2.0000      -0.758914       -20.6511
 118   2.0000      -0.751956       -20.4618
 119   2.0000      -0.743699       -20.2371
 120   2.0000      -0.727162       -19.7871
 121   2.0000      -0.715127       -19.4596
 122   2.0000      -0.703757       -19.1502
 123   2.0000      -0.693388       -18.8681
 124   2.0000      -0.689325       -18.7575
 125   2.0000      -0.679180       -18.4814
 126   2.0000      -0.675689       -18.3864
 127   2.0000      -0.670132       -18.2352
 128   2.0000      -0.666415       -18.1341
 129   2.0000      -0.660830       -17.9821
 130   2.0000      -0.654663       -17.8143
 131   2.0000      -0.652339       -17.7510
 132   2.0000      -0.646715       -17.5980
 133   2.0000      -0.639553       -17.4031
 134   2.0000      -0.633931       -17.2501
 135   2.0000      -0.632689       -17.2164
 136   2.0000      -0.629723       -17.1356
 137   2.0000      -0.621749       -16.9187
 138   2.0000      -0.615482       -16.7481
 139   2.0000      -0.610566       -16.6144
 140   2.0000      -0.605902       -16.4874
 141   2.0000      -0.602361       -16.3911
 142   2.0000      -0.601399       -16.3649
 143   2.0000      -0.594258       -16.1706
 144   2.0000      -0.590634       -16.0720
 145   2.0000      -0.583303       -15.8725
 146   2.0000      -0.579694       -15.7743
 147   2.0000      -0.575470       -15.6593
 148   2.0000      -0.575226       -15.6527
 149   2.0000      -0.573336       -15.6013
 150   2.0000      -0.570938       -15.5360
 151   2.0000      -0.566933       -15.4270
 152   2.0000      -0.562314       -15.3013
 153   2.0000      -0.558381       -15.1943
 154   2.0000      -0.556410       -15.1407
 155   2.0000      -0.543915       -14.8007
 156   2.0000      -0.536917       -14.6103
 157   2.0000      -0.532831       -14.4991
 158   2.0000      -0.530406       -14.4331
 159   2.0000      -0.528842       -14.3905
 160   2.0000      -0.526654       -14.3310
 161   2.0000      -0.525388       -14.2965
 162   2.0000      -0.523360       -14.2414
 163   2.0000      -0.520264       -14.1571
 164   2.0000      -0.519074       -14.1247
 165   2.0000      -0.513496       -13.9729
 166   2.0000      -0.511195       -13.9103
 167   2.0000      -0.508809       -13.8454
 168   2.0000      -0.507285       -13.8039
 169   2.0000      -0.505970       -13.7681
 170   2.0000      -0.504438       -13.7265
 171   2.0000      -0.495790       -13.4911
 172   2.0000      -0.493373       -13.4254
 173   2.0000      -0.488422       -13.2906
 174   2.0000      -0.486676       -13.2431
 175   2.0000      -0.483995       -13.1702
 176   2.0000      -0.483456       -13.1555
 177   2.0000      -0.481888       -13.1128
 178   2.0000      -0.478342       -13.0163
 179   2.0000      -0.476269       -12.9600
 180   2.0000      -0.474909       -12.9229
 181   2.0000      -0.472066       -12.8456
 182   2.0000      -0.470410       -12.8005
 183   2.0000      -0.468334       -12.7440
 184   2.0000      -0.466711       -12.6999
 185   2.0000      -0.458744       -12.4831
 186   2.0000      -0.456909       -12.4331
 187   2.0000      -0.453305       -12.3350
 188   2.0000      -0.447490       -12.1768
 189   2.0000      -0.440387       -11.9835
 190   2.0000      -0.437928       -11.9166
 191   2.0000      -0.437141       -11.8952
 192   2.0000      -0.433596       -11.7988
 193   2.0000      -0.433491       -11.7959
 194   2.0000      -0.432553       -11.7704
 195   2.0000      -0.429389       -11.6843
 196   2.0000      -0.421710       -11.4753
 197   2.0000      -0.416213       -11.3257
 198   2.0000      -0.415003       -11.2928
 199   2.0000      -0.397696       -10.8219
 200   2.0000      -0.394488       -10.7346
 201   2.0000      -0.383543       -10.4367
 202   2.0000      -0.379928       -10.3384
 203   2.0000      -0.374594       -10.1932
 204   2.0000      -0.365757        -9.9527
 205   2.0000      -0.362423        -9.8620
 206   2.0000      -0.360335        -9.8052
 207   2.0000      -0.351660        -9.5692
 208   2.0000      -0.345659        -9.4059
 209   2.0000      -0.344403        -9.3717
 210   2.0000      -0.343333        -9.3426
 211   2.0000      -0.341629        -9.2962
 212   2.0000      -0.339937        -9.2502
 213   2.0000      -0.335395        -9.1266
 214   2.0000      -0.323909        -8.8140
 215   2.0000      -0.322599        -8.7784
 216   2.0000      -0.316417        -8.6102
 217   2.0000      -0.309638        -8.4257
 218   2.0000      -0.303607        -8.2616
 219   2.0000      -0.288745        -7.8571
 220   2.0000      -0.280500        -7.6328
 221   2.0000      -0.267357        -7.2751
 222   2.0000      -0.247439        -6.7332
 223   2.0000      -0.218511        -5.9460
 224   0.0000      -0.108875        -2.9626
 225   0.0000      -0.084747        -2.3061
 226   0.0000      -0.069699        -1.8966
 227   0.0000      -0.041175        -1.1204
 228   0.0000      -0.022987        -0.6255

MULLIKEN ATOMIC CHARGES
-----------------------
   0 C :   -0.133871
   1 C :    0.066225
   2 C :    0.010402
   3 C :   -0.133498
   4 S :    0.137781
   5 C :    0.181387
   6 O :   -0.186825
   7 C :   -0.116558
   8 C :    0.202182
   9 C :    0.039110
  10 N :    0.259592
  11 O :   -0.236176
  12 O :   -0.262198
  13 N :    0.200728
  14 O :   -0.215130
  15 O :   -0.222746
  16 C :   -0.007548
  17 C :   -0.081048
  18 S :    0.237252
  19 C :   -0.004562
  20 C :    0.013212
  21 C :   -0.014601
  22 C :    0.162519
  23 O :   -0.110941
  24 C :   -0.014060
  25 C :   -0.061113
  26 C :   -0.022258
  27 C :    0.081023
  28 C :   -0.108878
  29 S :    0.163115
  30 C :   -0.023297
  31 C :   -0.014008
  32 C :    0.004563
  33 C :    0.161509
  34 O :   -0.107071
  35 C :   -0.016828
  36 C :   -0.056108
  37 C :   -0.000296
  38 C :   -0.044328
  39 C :    0.170683
  40 C :    0.185252
  41 O :   -0.257788
  42 C :    0.210936
  43 C :    0.226232
  44 C :   -0.172475
  45 S :    0.114870
  46 C :   -0.173566
  47 O :   -0.256190
  48 C :   -0.091195
  49 C :    0.092433
  50 N :   -0.038692
  51 C :    0.116752
  52 C :   -0.211373
  53 S :    0.120633
  54 C :   -0.215493
  55 C :    0.148519
  56 N :   -0.102222
  57 C :    0.054030
  58 C :   -0.072556
  59 H :    0.053099
  60 H :    0.032581
  61 H :    0.018150
  62 H :    0.011547
  63 H :   -0.010216
  64 H :   -0.000717
  65 H :   -0.015358
  66 H :    0.008313
  67 H :   -0.019890
  68 H :    0.010228
  69 H :   -0.020704
  70 H :    0.030043
  71 H :    0.023566
  72 H :   -0.028741
  73 H :    0.027533
  74 H :    0.114864
  75 H :    0.017198
  76 H :    0.014770
  77 H :    0.113263
  78 H :    0.017417
  79 H :    0.002505
  80 H :    0.025104
Sum of atomic charges:    0.0000000

LOEWDIN ATOMIC CHARGES
----------------------
   0 C :   -0.146750
   1 C :   -0.062304
   2 C :   -0.087665
   3 C :   -0.146004
   4 S :    0.469825
   5 C :    0.081025
   6 O :   -0.177810
   7 C :   -0.128800
   8 C :    0.062856
   9 C :   -0.090934
  10 N :    0.279624
  11 O :   -0.201221
  12 O :   -0.217502
  13 N :    0.269710
  14 O :   -0.186314
  15 O :   -0.198355
  16 C :    0.055049
  17 C :   -0.190594
  18 S :    0.536305
  19 C :   -0.134309
  20 C :   -0.121865
  21 C :    0.031947
  22 C :    0.095674
  23 O :   -0.104085
  24 C :   -0.022181
  25 C :   -0.042804
  26 C :   -0.043808
  27 C :    0.001677
  28 C :   -0.184850
  29 S :    0.456042
  30 C :   -0.147358
  31 C :   -0.112875
  32 C :    0.007160
  33 C :    0.098280
  34 O :   -0.099623
  35 C :   -0.035200
  36 C :   -0.041989
  37 C :   -0.037727
  38 C :   -0.006334
  39 C :   -0.002522
  40 C :    0.059719
  41 O :   -0.047979
  42 C :   -0.011400
  43 C :   -0.006108
  44 C :   -0.209779
  45 S :    0.442100
  46 C :   -0.211326
  47 O :   -0.053921
  48 C :   -0.123781
  49 C :    0.066225
  50 N :    0.037728
  51 C :   -0.033037
  52 C :   -0.231422
  53 S :    0.439519
  54 C :   -0.233880
  55 C :   -0.027500
  56 N :   -0.004484
  57 C :    0.032238
  58 C :   -0.126266
  59 H :    0.029349
  60 H :    0.032950
  61 H :    0.043890
  62 H :    0.045361
  63 H :    0.028109
  64 H :    0.033468
  65 H :    0.029319
  66 H :    0.043275
  67 H :    0.024600
  68 H :    0.036772
  69 H :    0.027734
  70 H :    0.031402
  71 H :    0.028459
  72 H :    0.025606
  73 H :    0.035290
  74 H :    0.080926
  75 H :    0.021561
  76 H :    0.021379
  77 H :    0.075070
  78 H :    0.030594
  79 H :    0.016578
  80 H :    0.028273

  Mayer bond orders larger than 0.100000
B(  0-C ,  1-C ) :   1.5606 B(  0-C ,  4-S ) :   1.1751 B(  0-C , 59-H ) :   0.9477
B(  1-C ,  2-C ) :   1.2207 B(  1-C ,  8-C ) :   1.0129 B(  2-C ,  3-C ) :   1.5625
B(  2-C ,  5-C ) :   0.9667 B(  3-C ,  4-S ) :   1.1715 B(  3-C , 60-H ) :   0.9708
B(  5-C ,  6-O ) :   2.1260 B(  5-C ,  7-C ) :   1.0016 B(  7-C ,  8-C ) :   1.1491
B(  7-C , 16-C ) :   1.3936 B(  8-C ,  9-C ) :   1.5251 B(  9-C , 10-N ) :   0.9629
B(  9-C , 13-N ) :   0.8953 B( 10-N , 11-O ) :   1.5238 B( 10-N , 12-O ) :   1.4846
B( 11-O , 12-O ) :   0.2537 B( 13-N , 14-O ) :   1.5162 B( 13-N , 15-O ) :   1.5277
B( 14-O , 15-O ) :   0.2776 B( 16-C , 17-C ) :   1.3807 B( 16-C , 61-H ) :   0.9570
B( 17-C , 18-S ) :   1.0529 B( 17-C , 21-C ) :   1.2673 B( 18-S , 19-C ) :   1.1668
B( 19-C , 20-C ) :   1.2987 B( 19-C , 25-C ) :   1.1339 B( 20-C , 21-C ) :   1.4108
B( 20-C , 22-C ) :   0.9213 B( 21-C , 62-H ) :   1.0122 B( 22-C , 23-O ) :   2.2733
B( 22-C , 24-C ) :   0.9081 B( 24-C , 25-C ) :   1.5118 B( 24-C , 26-C ) :   1.2257
B( 25-C , 63-H ) :   1.0149 B( 26-C , 27-C ) :   1.5407 B( 26-C , 64-H ) :   0.9691
B( 27-C , 28-C ) :   1.2083 B( 27-C , 65-H ) :   0.9605 B( 28-C , 29-S ) :   1.0734
B( 28-C , 32-C ) :   1.3800 B( 29-S , 30-C ) :   1.1527 B( 30-C , 31-C ) :   1.3820
B( 30-C , 36-C ) :   1.1159 B( 31-C , 32-C ) :   1.3668 B( 31-C , 33-C ) :   0.9208
B( 32-C , 66-H ) :   1.0002 B( 33-C , 34-O ) :   2.2818 B( 33-C , 35-C ) :   0.9093
B( 35-C , 36-C ) :   1.5405 B( 35-C , 37-C ) :   1.1742 B( 36-C , 67-H ) :   1.0131
B( 37-C , 38-C ) :   1.5253 B( 37-C , 68-H ) :   0.9838 B( 38-C , 39-C ) :   1.2388
B( 38-C , 69-H ) :   0.9570 B( 39-C , 40-C ) :   1.3917 B( 39-C , 47-O ) :   1.0500
B( 40-C , 41-O ) :   1.0802 B( 40-C , 48-C ) :   1.2345 B( 41-O , 42-C ) :   1.0330
B( 42-C , 43-C ) :   1.2061 B( 42-C , 46-C ) :   1.5665 B( 43-C , 44-C ) :   1.5695
B( 43-C , 47-O ) :   1.0632 B( 44-C , 45-S ) :   1.1409 B( 44-C , 70-H ) :   0.9719
B( 45-S , 46-C ) :   1.1495 B( 46-C , 71-H ) :   0.9738 B( 48-C , 49-C ) :   1.5892
B( 48-C , 72-H ) :   0.9444 B( 49-C , 50-N ) :   1.2009 B( 49-C , 73-H ) :   0.9653
B( 50-N , 51-C ) :   1.0980 B( 50-N , 74-H ) :   0.9146 B( 51-C , 52-C ) :   1.5215
B( 51-C , 55-C ) :   1.2462 B( 52-C , 53-S ) :   1.1525 B( 52-C , 75-H ) :   0.9777
B( 53-S , 54-C ) :   1.1422 B( 54-C , 55-C ) :   1.5250 B( 54-C , 76-H ) :   0.9777
B( 55-C , 56-N ) :   1.1038 B( 56-N , 57-C ) :   1.1119 B( 56-N , 77-H ) :   0.9220
B( 57-C , 58-C ) :   1.9181 B( 57-C , 78-H ) :   0.9639 B( 58-C , 79-H ) :   0.9620
B( 58-C , 80-H ) :   0.9539

-----------------------------------------------------------------------------
         ABSORPTION SPECTRUM VIA TRANSITION ELECTRIC DIPOLE MOMENTS
-----------------------------------------------------------------------------
State   Energy  Wavelength   fosc         T2         TX        TY        TZ
        (cm-1)    (nm)                  (au**2)     (au)      (au)      (au)
-----------------------------------------------------------------------------
   0    9734.4   1027.3   1.728829102  58.46792  -3.21798   6.93526  -0.12138
   1   14393.5    694.8   0.155488786   3.55637   0.21106  -1.85475  -0.26782
   2   17474.1    572.3   0.017978854   0.33872  -0.51689   0.16080  -0.21374
   3   19427.1    514.7   0.274346108   4.64909  -0.69291   2.01095   0.35360
   4   21822.0    458.3   0.026270951   0.39633   0.62158  -0.04688  -0.08815
   5   23918.9    418.1   0.057093727   0.78582   0.84305   0.21746   0.16670
   6   24756.0    403.9   0.017256445   0.22948  -0.34829  -0.29943  -0.13608
   7   25116.3    398.1   0.169727484   2.22470  -0.13967   1.46117  -0.26493
   8   25609.4    390.5   0.021645816   0.27826  -0.03697  -0.44319   0.28368
   9   25999.9    384.6   0.082869433   1.04930  -0.55327   0.82305   0.25647
  10   26090.4    383.3   0.005532941   0.06982  -0.12065   0.23310   0.03040
  11   26718.2    374.3   0.292945297   3.60957  -0.98898   1.59038  -0.31963
  12   27275.2    366.6   0.176229779   2.12709   1.19385  -0.73474   0.40246
  13   28241.6    354.1   0.222418774   2.59273   1.59467  -0.21489  -0.05971
  14   28659.9    348.9   0.025718495   0.29542   0.43919  -0.06390  -0.31377
  15   28983.6    345.0   0.213960830   2.43029  -0.44589  -1.46096   0.31157
  16   29313.5    341.1   0.019954663   0.22411  -0.33320   0.32517   0.08571
  17   30103.7    332.2   0.025173455   0.27529  -0.40282  -0.18801  -0.27871
  18   31335.2    319.1   0.006193944   0.06507  -0.15293  -0.07832  -0.18855
  19   31433.3    318.1   0.002399934   0.02514   0.06466  -0.11989   0.08111
  20   31565.2    316.8   0.026822007   0.27974   0.16710  -0.49881  -0.05482
  21   32025.0    312.3   0.015835601   0.16279  -0.19575  -0.31197   0.16477
  22   32756.2    305.3   0.046732533   0.46968   0.31931   0.56898  -0.20972
  23   33154.9    301.6   0.079283889   0.78725   0.33405   0.80916  -0.14461
  24   33572.6    297.9   0.090972842   0.89208  -0.07540  -0.94120  -0.02305
  25   33630.2    297.4   0.034279528   0.33557  -0.19940  -0.44005  -0.31964
  26   34173.7    292.6   0.016161108   0.15569  -0.13044  -0.37188  -0.01934
  27   34414.3    290.6   0.159906578   1.52969   1.00667   0.63127  -0.34323
  28   34921.4    286.4   0.119730909   1.12873  -0.14778  -1.05043   0.05912
  29   35157.3    284.4   0.039649978   0.37128   0.13783   0.59097   0.05511
  30   35311.2    283.2   0.078723718   0.73395  -0.85040  -0.00362   0.10370
  31   35499.0    281.7   0.156599998   1.45228   0.75242   0.88308   0.32607
  32   35735.6    279.8   0.018711508   0.17238  -0.06672  -0.21658   0.34788
  33   35893.2    278.6   0.026902558   0.24675  -0.41729  -0.26847   0.02342
  34   36195.1    276.3   0.036298247   0.33015  -0.13988  -0.54850   0.09867
  35   36747.3    272.1   0.030370400   0.27208   0.32523  -0.40769  -0.00995
  36   37164.3    269.1   0.000255350   0.00226   0.00844  -0.03798  -0.02736
  37   37501.6    266.7   0.023707845   0.20812  -0.44057   0.05600   0.10431
  38   37558.5    266.3   0.057470990   0.50375   0.57412  -0.39459   0.13576
  39   37659.4    265.5   0.027421992   0.23972  -0.45347  -0.17992  -0.04138
  40   37852.0    264.2   0.059059091   0.51366   0.71622  -0.01311  -0.02279
  41   37929.6    263.6   0.017095868   0.14838   0.00053  -0.28712   0.25680
  42   38119.2    262.3   0.047349298   0.40893   0.58482  -0.04199  -0.25525
  43   38352.2    260.7   0.006854293   0.05884  -0.17273   0.13620  -0.10221
  44   38686.6    258.5   0.037146839   0.31611  -0.45607   0.22564   0.23917
  45   38807.6    257.7   0.040151859   0.34062   0.43180  -0.37966   0.10008
  46   39030.1    256.2   0.053544860   0.45164  -0.53443   0.38724   0.12678
  47   39150.1    255.4   0.014926585   0.12552   0.27338   0.13745  -0.17858
  48   39461.4    253.4   0.132023115   1.10142  -0.28162   1.01052   0.03087
  49   40000.7    250.0   0.051252630   0.42182  -0.27209  -0.58646   0.06206

FINAL SINGLE POINT ENERGY     -4458.551601630531

DIPOLE MOMENT
-------------
                                X             Y             Z
Electronic contribution:    -48.60068      56.77456      -1.90469
Nuclear contribution   :     54.80485     -61.49729       1.01492
                        -----------------------------------------
Total Dipole Moment    :      6.20417      -4.72273      -0.88977
                        -----------------------------------------
Magnitude (a.u.)       :      7.84778
Magnitude (Debye)      :     19.94746

Rotational constants in cm-1:     0.002203     0.000205     0.000190
Rotational constants in MHz :    66.052442     6.147589     5.695040

                             ****ORCA TERMINATED NORMALLY****
TOTAL RUN TIME: 0 days 0 hours 7 minutes 7 seconds 266 msec
