                         Program Version 4.2.0 -  RELEASE  -
|  1> # ORCA input file
|  2> # SCF done       -188.901347378546          0.000718214172
|  3> ! CAM-B3LYP def2-SVP def2/J RIJCOSX Grid4 TightSCF
|  4> %maxcore 5000
|  5> %tddft
|  6>     Mode sTDDFT
|  7>     Ethresh 5.0
|  8>     maxcore 5000
|  9> end
| 10>
| 11> %pal
| 12>   nprocs 6
| 13>   end
| 14> * xyz 0 1
| 15>    C       10.63823         2.22081         0.67131
| 16>    C        9.40249         1.66960         0.55279
| 17>    C        8.87175         1.24003         1.81527
| 18>    C        9.70388         1.47041         2.85793
| 19>    S       11.16417         2.22116         2.31687
| 20>    C        7.53746         0.65648         1.61323
| 21>    O        6.77257         0.24721         2.46566
| 22>    C        7.30536         0.76078         0.16056
| 23>    C        8.44763         1.30583        -0.48472
| 24>    C        8.64880         1.33807        -1.86100
| 25>    N        9.64272         2.13980        -2.47350
| 26>    O       10.07498         1.79890        -3.55708
| 27>    O       10.02768         3.12430        -1.86074
| 28>    N        7.90981         0.49291        -2.74080
| 29>    O        7.61796         0.90936        -3.83948
| 30>    O        7.61472        -0.62109        -2.32534
| 31>    C        6.05337         0.59157        -0.43792
| 32>    C        4.94961        -0.08711         0.05962
| 33>    C        4.95634        -1.15271         0.98422
| 34>    O        3.83858        -1.51552         1.66011
| 35>    C        2.67857        -0.89416         1.30387
| 36>    C        2.62938         0.01214         0.20509
| 37>    C        1.37432         0.46462        -0.04179
| 38>    S        0.23919        -0.20768         1.06923
| 39>    C        1.46376        -1.10818         1.87250
| 40>    O        3.74881         0.37645        -0.46864
| 41>    C        6.05792        -1.98737         1.25916
| 42>    C        7.12930        -2.16619         0.42540
| 43>    C        8.27673        -2.90295         0.73419
| 44>    S        9.49359        -3.12683        -0.51689
| 45>    C        8.65795        -3.49208         1.94509
| 46>    C        9.88419        -4.12377         1.87211
| 47>    C       10.79973        -4.87423         2.73522
| 48>    C       10.62491        -5.17466         4.04040
| 49>    C       11.66839        -5.88614         4.85186
| 50>    N       11.37587        -7.31943         4.84521
| 51>    C        9.34099        -4.85682         4.75356
| 52>    N        9.30751        -5.41043         6.09335
| 53>    C       10.46094        -4.00889         0.57879
| 54>    C       11.68852        -4.67666         0.57761
| 55>    S       12.91951        -5.06042        -0.55090
| 56>    C       11.92759        -5.21565         1.86281
| 57>    C       13.10473        -5.95199         1.90016
| 58>    C       13.77422        -5.97277         0.67927
| 59>    C       14.97538        -6.62502         0.32926
| 60>    C       15.76948        -7.33401         1.17940
| 61>    C       16.94332        -8.01135         0.79887
| 62>    S       17.49089        -8.06116        -0.87691
| 63>    C       18.83019        -9.03422        -0.43574
| 64>    C       18.85486        -9.29688         0.94517
| 65>    C       17.79951        -8.72710         1.63430
| 66>    C       20.03705       -10.13354         1.20704
| 67>    O       20.43885       -10.57726         2.25628
| 68>    C       20.66609       -10.33517        -0.15443
| 69>    C       19.90804        -9.65251        -1.09605
| 70>    C       21.81127       -11.11919        -0.29784
| 71>    C       22.43489       -11.42353        -1.48868
| 72>    C       23.56298       -12.23008        -1.57482
| 73>    C       24.18682       -12.58564        -2.75588
| 74>    C       25.32507       -13.40864        -2.89626
| 75>    C       25.71852       -13.60862        -4.18678
| 76>    C       24.90792       -12.95095        -5.13824
| 77>    S       23.63025       -12.06374        -4.33325
| 78>    C       25.03518       -12.96318        -6.51237
| 79>    C       26.01821       -13.64739        -7.27812
| 80>    C       25.89482       -13.48461        -8.61527
| 81>    C       24.79635       -12.65176        -9.01005
| 82>    S       23.93966       -12.09606        -7.56278
| 83>    C       24.42596       -12.31284       -10.25326
| 84>    H       11.26275         2.66640        -0.07616
| 85>    H        9.56675         1.24625         3.89668
| 86>    H        5.83855         1.18926        -1.31824
| 87>    H        1.05591         1.14358        -0.80436
| 88>    H        1.22685        -1.73887         2.70355
| 89>    H        5.96895        -2.56309         2.16884
| 90>    H        7.10764        -1.71912        -0.55950
| 91>    H        8.03439        -3.41474         2.81438
| 92>    H       11.58464        -5.54159         5.88576
| 93>    H       12.67014        -5.63205         4.47832
| 94>    H       11.45710        -7.68796         3.90257
| 95>    H       12.03452        -7.81508         5.43588
| 96>    H        8.50739        -5.20853         4.12043
| 97>    H        9.24797        -3.76683         4.84152
| 98>    H        9.43066        -6.41713         6.05167
| 99>    H        8.41610        -5.21156         6.53190
|100>    H       13.48988        -6.48269         2.75010
|101>    H       15.27336        -6.54863        -0.70852
|102>    H       15.51169        -7.40597         2.22718
|103>    H       17.63820        -8.81482         2.69368
|104>    H       20.09949        -9.59807        -2.15151
|105>    H       22.21616       -11.52619         0.62096
|106>    H       22.02822       -11.03129        -2.41181
|107>    H       23.98861       -12.62194        -0.65989
|108>    H       25.81934       -13.83089        -2.03905
|109>    H       26.56301       -14.20851        -4.47415
|110>    H       26.78370       -14.23869        -6.80802
|111>    H       26.54293       -13.92469        -9.35195
|112>    H       24.97336       -12.67311       -11.10630
|113>    H       23.57907       -11.67779       -10.43800
|114> *
|115>
|116>                          ****END OF INPUT****

CARTESIAN COORDINATES (ANGSTROEM)
---------------------------------
  C     10.638230    2.220810    0.671310
  C      9.402490    1.669600    0.552790
  C      8.871750    1.240030    1.815270
  C      9.703880    1.470410    2.857930
  S     11.164170    2.221160    2.316870
  C      7.537460    0.656480    1.613230
  O      6.772570    0.247210    2.465660
  C      7.305360    0.760780    0.160560
  C      8.447630    1.305830   -0.484720
  C      8.648800    1.338070   -1.861000
  N      9.642720    2.139800   -2.473500
  O     10.074980    1.798900   -3.557080
  O     10.027680    3.124300   -1.860740
  N      7.909810    0.492910   -2.740800
  O      7.617960    0.909360   -3.839480
  O      7.614720   -0.621090   -2.325340
  C      6.053370    0.591570   -0.437920
  C      4.949610   -0.087110    0.059620
  C      4.956340   -1.152710    0.984220
  O      3.838580   -1.515520    1.660110
  C      2.678570   -0.894160    1.303870
  C      2.629380    0.012140    0.205090
  C      1.374320    0.464620   -0.041790
  S      0.239190   -0.207680    1.069230
  C      1.463760   -1.108180    1.872500
  O      3.748810    0.376450   -0.468640
  C      6.057920   -1.987370    1.259160
  C      7.129300   -2.166190    0.425400
  C      8.276730   -2.902950    0.734190
  S      9.493590   -3.126830   -0.516890
  C      8.657950   -3.492080    1.945090
  C      9.884190   -4.123770    1.872110
  C     10.799730   -4.874230    2.735220
  C     10.624910   -5.174660    4.040400
  C     11.668390   -5.886140    4.851860
  N     11.375870   -7.319430    4.845210
  C      9.340990   -4.856820    4.753560
  N      9.307510   -5.410430    6.093350
  C     10.460940   -4.008890    0.578790
  C     11.688520   -4.676660    0.577610
  S     12.919510   -5.060420   -0.550900
  C     11.927590   -5.215650    1.862810
  C     13.104730   -5.951990    1.900160
  C     13.774220   -5.972770    0.679270
  C     14.975380   -6.625020    0.329260
  C     15.769480   -7.334010    1.179400
  C     16.943320   -8.011350    0.798870
  S     17.490890   -8.061160   -0.876910
  C     18.830190   -9.034220   -0.435740
  C     18.854860   -9.296880    0.945170
  C     17.799510   -8.727100    1.634300
  C     20.037050  -10.133540    1.207040
  O     20.438850  -10.577260    2.256280
  C     20.666090  -10.335170   -0.154430
  C     19.908040   -9.652510   -1.096050
  C     21.811270  -11.119190   -0.297840
  C     22.434890  -11.423530   -1.488680
  C     23.562980  -12.230080   -1.574820
  C     24.186820  -12.585640   -2.755880
  C     25.325070  -13.408640   -2.896260
  C     25.718520  -13.608620   -4.186780
  C     24.907920  -12.950950   -5.138240
  S     23.630250  -12.063740   -4.333250
  C     25.035180  -12.963180   -6.512370
  C     26.018210  -13.647390   -7.278120
  C     25.894820  -13.484610   -8.615270
  C     24.796350  -12.651760   -9.010050
  S     23.939660  -12.096060   -7.562780
  C     24.425960  -12.312840  -10.253260
  H     11.262750    2.666400   -0.076160
  H      9.566750    1.246250    3.896680
  H      5.838550    1.189260   -1.318240
  H      1.055910    1.143580   -0.804360
  H      1.226850   -1.738870    2.703550
  H      5.968950   -2.563090    2.168840
  H      7.107640   -1.719120   -0.559500
  H      8.034390   -3.414740    2.814380
  H     11.584640   -5.541590    5.885760
  H     12.670140   -5.632050    4.478320
  H     11.457100   -7.687960    3.902570
  H     12.034520   -7.815080    5.435880
  H      8.507390   -5.208530    4.120430
  H      9.247970   -3.766830    4.841520
  H      9.430660   -6.417130    6.051670
  H      8.416100   -5.211560    6.531900
  H     13.489880   -6.482690    2.750100
  H     15.273360   -6.548630   -0.708520
  H     15.511690   -7.405970    2.227180
  H     17.638200   -8.814820    2.693680
  H     20.099490   -9.598070   -2.151510
  H     22.216160  -11.526190    0.620960
  H     22.028220  -11.031290   -2.411810
  H     23.988610  -12.621940   -0.659890
  H     25.819340  -13.830890   -2.039050
  H     26.563010  -14.208510   -4.474150
  H     26.783700  -14.238690   -6.808020
  H     26.542930  -13.924690   -9.351950
  H     24.973360  -12.673110  -11.106300
  H     23.579070  -11.677790  -10.438000

 Total Charge           Charge          ....    0
 Multiplicity           Mult            ....    1
 Number of Electrons    NEL             ....  534
 Basis Dimension        Dim             .... 1144

ORBITAL ENERGIES
----------------

  NO   OCC          E(Eh)            E(eV)
   0   2.0000     -88.971754     -2421.0445
   1   2.0000     -88.970251     -2421.0036
   2   2.0000     -88.968138     -2420.9461
   3   2.0000     -88.959206     -2420.7031
   4   2.0000     -88.955449     -2420.6008
   5   2.0000     -88.950077     -2420.4546
   6   2.0000     -88.946739     -2420.3638
   7   2.0000     -19.296716      -525.0903
   8   2.0000     -19.265673      -524.2456
   9   2.0000     -19.226075      -523.1681
  10   2.0000     -19.223256      -523.0914
  11   2.0000     -19.221351      -523.0395
  12   2.0000     -19.212475      -522.7980
  13   2.0000     -19.211701      -522.7770
  14   2.0000     -19.193112      -522.2711
  15   2.0000     -14.633237      -398.1906
  16   2.0000     -14.625269      -397.9738
  17   2.0000     -14.403636      -391.9429
  18   2.0000     -14.386318      -391.4716
  19   2.0000     -10.380592      -282.4703
  20   2.0000     -10.364655      -282.0366
  21   2.0000     -10.345077      -281.5039
  22   2.0000     -10.343778      -281.4685
  23   2.0000     -10.340683      -281.3843
  24   2.0000     -10.340629      -281.3828
  25   2.0000     -10.327601      -281.0283
  26   2.0000     -10.320103      -280.8243
  27   2.0000     -10.319332      -280.8033
  28   2.0000     -10.318504      -280.7808
  29   2.0000     -10.315305      -280.6937
  30   2.0000     -10.314852      -280.6814
  31   2.0000     -10.313583      -280.6469
  32   2.0000     -10.313547      -280.6459
  33   2.0000     -10.313463      -280.6436
  34   2.0000     -10.307803      -280.4896
  35   2.0000     -10.306628      -280.4576
  36   2.0000     -10.305207      -280.4189
  37   2.0000     -10.303070      -280.3608
  38   2.0000     -10.302617      -280.3485
  39   2.0000     -10.300959      -280.3034
  40   2.0000     -10.299912      -280.2749
  41   2.0000     -10.299276      -280.2576
  42   2.0000     -10.298065      -280.2246
  43   2.0000     -10.297836      -280.2184
  44   2.0000     -10.296257      -280.1754
  45   2.0000     -10.295282      -280.1489
  46   2.0000     -10.294761      -280.1347
  47   2.0000     -10.294413      -280.1252
  48   2.0000     -10.293915      -280.1117
  49   2.0000     -10.292745      -280.0798
  50   2.0000     -10.292429      -280.0712
  51   2.0000     -10.292185      -280.0646
  52   2.0000     -10.291500      -280.0460
  53   2.0000     -10.290765      -280.0259
  54   2.0000     -10.290714      -280.0246
  55   2.0000     -10.288644      -279.9682
  56   2.0000     -10.287634      -279.9407
  57   2.0000     -10.286844      -279.9193
  58   2.0000     -10.285169      -279.8737
  59   2.0000     -10.285089      -279.8715
  60   2.0000     -10.283864      -279.8382
  61   2.0000     -10.281026      -279.7609
  62   2.0000     -10.279443      -279.7179
  63   2.0000     -10.278558      -279.6938
  64   2.0000     -10.278293      -279.6866
  65   2.0000     -10.275882      -279.6210
  66   2.0000     -10.271500      -279.5017
  67   2.0000     -10.267500      -279.3929
  68   2.0000     -10.267017      -279.3797
  69   2.0000      -8.066740      -219.5072
  70   2.0000      -8.065039      -219.4609
  71   2.0000      -8.063272      -219.4128
  72   2.0000      -8.054973      -219.1870
  73   2.0000      -8.051546      -219.0937
  74   2.0000      -8.046317      -218.9514
  75   2.0000      -8.043470      -218.8739
  76   2.0000      -6.035864      -164.2442
  77   2.0000      -6.034277      -164.2010
  78   2.0000      -6.032569      -164.1545
  79   2.0000      -6.031915      -164.1368
  80   2.0000      -6.030147      -164.0886
  81   2.0000      -6.029091      -164.0599
  82   2.0000      -6.028564      -164.0456
  83   2.0000      -6.027321      -164.0117
  84   2.0000      -6.025316      -163.9572
  85   2.0000      -6.024468      -163.9341
  86   2.0000      -6.020894      -163.8369
  87   2.0000      -6.020235      -163.8189
  88   2.0000      -6.016737      -163.7237
  89   2.0000      -6.016258      -163.7107
  90   2.0000      -6.016017      -163.7042
  91   2.0000      -6.013965      -163.6483
  92   2.0000      -6.013261      -163.6292
  93   2.0000      -6.012064      -163.5966
  94   2.0000      -6.009324      -163.5220
  95   2.0000      -6.007253      -163.4657
  96   2.0000      -6.004076      -163.3792
  97   2.0000      -1.308446       -35.6046
  98   2.0000      -1.288929       -35.0736
  99   2.0000      -1.215309       -33.0702
 100   2.0000      -1.167388       -31.7663
 101   2.0000      -1.132767       -30.8242
 102   2.0000      -1.122004       -30.5313
 103   2.0000      -1.109425       -30.1890
 104   2.0000      -1.107733       -30.1430
 105   2.0000      -1.021210       -27.7885
 106   2.0000      -1.003803       -27.3149
 107   2.0000      -0.999655       -27.2020
 108   2.0000      -0.993818       -27.0432
 109   2.0000      -0.991473       -26.9794
 110   2.0000      -0.988940       -26.9104
 111   2.0000      -0.982290       -26.7295
 112   2.0000      -0.976825       -26.5808
 113   2.0000      -0.962418       -26.1887
 114   2.0000      -0.953874       -25.9562
 115   2.0000      -0.944489       -25.7008
 116   2.0000      -0.935516       -25.4567
 117   2.0000      -0.923439       -25.1280
 118   2.0000      -0.909823       -24.7575
 119   2.0000      -0.907315       -24.6893
 120   2.0000      -0.892823       -24.2949
 121   2.0000      -0.883685       -24.0463
 122   2.0000      -0.877376       -23.8746
 123   2.0000      -0.865870       -23.5615
 124   2.0000      -0.851533       -23.1714
 125   2.0000      -0.849491       -23.1158
 126   2.0000      -0.848908       -23.0999
 127   2.0000      -0.844254       -22.9733
 128   2.0000      -0.840465       -22.8702
 129   2.0000      -0.837417       -22.7873
 130   2.0000      -0.826864       -22.5001
 131   2.0000      -0.825072       -22.4514
 132   2.0000      -0.822235       -22.3741
 133   2.0000      -0.811085       -22.0707
 134   2.0000      -0.803121       -21.8540
 135   2.0000      -0.790099       -21.4997
 136   2.0000      -0.784129       -21.3372
 137   2.0000      -0.777695       -21.1622
 138   2.0000      -0.759487       -20.6667
 139   2.0000      -0.757442       -20.6111
 140   2.0000      -0.754559       -20.5326
 141   2.0000      -0.752255       -20.4699
 142   2.0000      -0.747661       -20.3449
 143   2.0000      -0.739107       -20.1121
 144   2.0000      -0.723617       -19.6906
 145   2.0000      -0.711685       -19.3659
 146   2.0000      -0.699482       -19.0339
 147   2.0000      -0.691673       -18.8214
 148   2.0000      -0.685397       -18.6506
 149   2.0000      -0.677817       -18.4443
 150   2.0000      -0.672168       -18.2906
 151   2.0000      -0.666902       -18.1473
 152   2.0000      -0.654358       -17.8060
 153   2.0000      -0.650976       -17.7139
 154   2.0000      -0.641564       -17.4578
 155   2.0000      -0.639639       -17.4055
 156   2.0000      -0.634357       -17.2617
 157   2.0000      -0.632728       -17.2174
 158   2.0000      -0.631978       -17.1970
 159   2.0000      -0.630216       -17.1490
 160   2.0000      -0.628878       -17.1126
 161   2.0000      -0.625567       -17.0226
 162   2.0000      -0.621911       -16.9230
 163   2.0000      -0.613264       -16.6878
 164   2.0000      -0.609407       -16.5828
 165   2.0000      -0.608665       -16.5626
 166   2.0000      -0.604412       -16.4469
 167   2.0000      -0.601074       -16.3561
 168   2.0000      -0.597590       -16.2612
 169   2.0000      -0.595833       -16.2134
 170   2.0000      -0.594121       -16.1668
 171   2.0000      -0.588705       -16.0195
 172   2.0000      -0.587178       -15.9779
 173   2.0000      -0.581011       -15.8101
 174   2.0000      -0.574639       -15.6367
 175   2.0000      -0.568279       -15.4637
 176   2.0000      -0.566477       -15.4146
 177   2.0000      -0.565795       -15.3961
 178   2.0000      -0.563859       -15.3434
 179   2.0000      -0.562831       -15.3154
 180   2.0000      -0.552455       -15.0331
 181   2.0000      -0.550736       -14.9863
 182   2.0000      -0.549555       -14.9541
 183   2.0000      -0.545499       -14.8438
 184   2.0000      -0.538596       -14.6559
 185   2.0000      -0.535273       -14.5655
 186   2.0000      -0.530971       -14.4484
 187   2.0000      -0.528944       -14.3933
 188   2.0000      -0.522659       -14.2223
 189   2.0000      -0.521794       -14.1987
 190   2.0000      -0.519900       -14.1472
 191   2.0000      -0.518764       -14.1163
 192   2.0000      -0.516121       -14.0444
 193   2.0000      -0.513446       -13.9716
 194   2.0000      -0.510464       -13.8904
 195   2.0000      -0.508843       -13.8463
 196   2.0000      -0.504910       -13.7393
 197   2.0000      -0.502661       -13.6781
 198   2.0000      -0.502454       -13.6725
 199   2.0000      -0.501627       -13.6500
 200   2.0000      -0.501116       -13.6361
 201   2.0000      -0.499641       -13.5959
 202   2.0000      -0.495596       -13.4858
 203   2.0000      -0.490292       -13.3415
 204   2.0000      -0.488446       -13.2913
 205   2.0000      -0.484333       -13.1794
 206   2.0000      -0.482824       -13.1383
 207   2.0000      -0.480186       -13.0665
 208   2.0000      -0.479198       -13.0396
 209   2.0000      -0.476407       -12.9637
 210   2.0000      -0.473905       -12.8956
 211   2.0000      -0.472251       -12.8506
 212   2.0000      -0.470314       -12.7979
 213   2.0000      -0.469662       -12.7802
 214   2.0000      -0.466970       -12.7069
 215   2.0000      -0.463407       -12.6099
 216   2.0000      -0.462175       -12.5764
 217   2.0000      -0.461156       -12.5487
 218   2.0000      -0.459558       -12.5052
 219   2.0000      -0.456030       -12.4092
 220   2.0000      -0.455099       -12.3839
 221   2.0000      -0.450079       -12.2473
 222   2.0000      -0.446902       -12.1608
 223   2.0000      -0.444922       -12.1069
 224   2.0000      -0.434987       -11.8366
 225   2.0000      -0.434150       -11.8138
 226   2.0000      -0.432699       -11.7743
 227   2.0000      -0.429000       -11.6737
 228   2.0000      -0.427455       -11.6316
 229   2.0000      -0.425429       -11.5765
 230   2.0000      -0.422232       -11.4895
 231   2.0000      -0.421131       -11.4596
 232   2.0000      -0.420339       -11.4380
 233   2.0000      -0.418172       -11.3790
 234   2.0000      -0.414270       -11.2729
 235   2.0000      -0.412260       -11.2182
 236   2.0000      -0.403549       -10.9811
 237   2.0000      -0.402440       -10.9510
 238   2.0000      -0.385925       -10.5015
 239   2.0000      -0.385059       -10.4780
 240   2.0000      -0.382793       -10.4163
 241   2.0000      -0.371653       -10.1132
 242   2.0000      -0.366716        -9.9788
 243   2.0000      -0.362310        -9.8590
 244   2.0000      -0.357620        -9.7313
 245   2.0000      -0.350919        -9.5490
 246   2.0000      -0.346508        -9.4290
 247   2.0000      -0.343631        -9.3507
 248   2.0000      -0.339627        -9.2417
 249   2.0000      -0.336798        -9.1647
 250   2.0000      -0.336693        -9.1619
 251   2.0000      -0.335916        -9.1407
 252   2.0000      -0.333952        -9.0873
 253   2.0000      -0.329527        -8.9669
 254   2.0000      -0.326661        -8.8889
 255   2.0000      -0.319387        -8.6910
 256   2.0000      -0.316214        -8.6046
 257   2.0000      -0.313337        -8.5263
 258   2.0000      -0.309639        -8.4257
 259   2.0000      -0.301610        -8.2072
 260   2.0000      -0.298065        -8.1108
 261   2.0000      -0.289302        -7.8723
 262   2.0000      -0.288657        -7.8548
 263   2.0000      -0.270905        -7.3717
 264   2.0000      -0.247490        -6.7346
 265   2.0000      -0.231414        -6.2971
 266   2.0000      -0.206336        -5.6147
 267   0.0000      -0.104734        -2.8500
 268   0.0000      -0.091976        -2.5028
 269   0.0000      -0.060556        -1.6478
 270   0.0000      -0.052276        -1.4225
 271   0.0000      -0.040734        -1.1084

MULLIKEN ATOMIC CHARGES
-----------------------
   0 C :   -0.134060
   1 C :    0.076491
   2 C :    0.018402
   3 C :   -0.148894
   4 S :    0.116632
   5 C :    0.180760
   6 O :   -0.173320
   7 C :   -0.174140
   8 C :    0.201762
   9 C :    0.013348
  10 N :    0.258622
  11 O :   -0.247697
  12 O :   -0.273511
  13 N :    0.235253
  14 O :   -0.215934
  15 O :   -0.270792
  16 C :   -0.014300
  17 C :    0.100812
  18 C :    0.228360
  19 O :   -0.206321
  20 C :    0.194146
  21 C :    0.229034
  22 C :   -0.173577
  23 S :    0.116677
  24 C :   -0.161071
  25 O :   -0.250961
  26 C :   -0.042639
  27 C :    0.122319
  28 C :   -0.118148
  29 S :    0.210573
  30 C :   -0.060917
  31 C :    0.052721
  32 C :    0.191852
  33 C :   -0.328748
  34 C :    0.174917
  35 N :   -0.235133
  36 C :    0.143938
  37 N :   -0.217058
  38 C :   -0.096414
  39 C :   -0.136253
  40 S :    0.170492
  41 C :    0.084507
  42 C :   -0.086132
  43 C :   -0.056837
  44 C :    0.018287
  45 C :    0.019466
  46 C :   -0.065609
  47 S :    0.148198
  48 C :   -0.030659
  49 C :    0.003017
  50 C :   -0.022108
  51 C :    0.156314
  52 O :   -0.117340
  53 C :   -0.028272
  54 C :   -0.044698
  55 C :   -0.013664
  56 C :    0.025799
  57 C :   -0.009615
  58 C :   -0.017259
  59 C :    0.034656
  60 C :    0.026970
  61 C :   -0.046886
  62 S :    0.077269
  63 C :   -0.064451
  64 C :    0.029041
  65 C :    0.056577
  66 C :   -0.067826
  67 S :    0.088471
  68 C :   -0.022905
  69 H :    0.044560
  70 H :    0.025408
  71 H :    0.027834
  72 H :    0.029362
  73 H :    0.027900
  74 H :   -0.006191
  75 H :    0.028196
  76 H :   -0.005595
  77 H :    0.019643
  78 H :    0.002566
  79 H :    0.100056
  80 H :    0.102298
  81 H :    0.021340
  82 H :    0.035157
  83 H :    0.105584
  84 H :    0.094727
  85 H :   -0.029379
  86 H :   -0.011496
  87 H :   -0.013797
  88 H :   -0.009447
  89 H :   -0.010323
  90 H :   -0.005400
  91 H :   -0.002544
  92 H :   -0.012193
  93 H :   -0.010732
  94 H :   -0.011590
  95 H :   -0.009563
  96 H :   -0.007990
  97 H :    0.023911
  98 H :    0.026166
Sum of atomic charges:   -0.0000000

LOEWDIN ATOMIC CHARGES
----------------------
   0 C :   -0.147392
   1 C :   -0.061461
   2 C :   -0.085018
   3 C :   -0.153067
   4 S :    0.447999
   5 C :    0.074238
   6 O :   -0.162159
   7 C :   -0.140723
   8 C :    0.060623
   9 C :   -0.121241
  10 N :    0.279222
  11 O :   -0.213110
  12 O :   -0.230630
  13 N :    0.280931
  14 O :   -0.183931
  15 O :   -0.240591
  16 C :    0.055357
  17 C :   -0.012136
  18 C :    0.123519
  19 O :   -0.008479
  20 C :   -0.016127
  21 C :   -0.003979
  22 C :   -0.212212
  23 S :    0.445109
  24 C :   -0.202471
  25 O :   -0.061662
  26 C :   -0.063900
  27 C :    0.037128
  28 C :   -0.185872
  29 S :    0.482429
  30 C :   -0.014700
  31 C :   -0.050463
  32 C :   -0.045440
  33 C :    0.026942
  34 C :    0.018992
  35 N :   -0.108520
  36 C :    0.019689
  37 N :   -0.112021
  38 C :   -0.164075
  39 C :   -0.213228
  40 S :    0.449819
  41 C :   -0.024308
  42 C :   -0.067441
  43 C :   -0.146063
  44 C :   -0.069546
  45 C :   -0.026252
  46 C :   -0.176086
  47 S :    0.452223
  48 C :   -0.152749
  49 C :   -0.117604
  50 C :   -0.014238
  51 C :    0.099010
  52 O :   -0.109284
  53 C :   -0.051588
  54 C :   -0.025370
  55 C :   -0.026570
  56 C :   -0.007491
  57 C :   -0.059130
  58 C :   -0.137811
  59 C :   -0.037012
  60 C :   -0.026375
  61 C :   -0.183768
  62 S :    0.374133
  63 C :   -0.170609
  64 C :   -0.027332
  65 C :   -0.026031
  66 C :   -0.140550
  67 S :    0.360257
  68 C :   -0.066198
  69 H :    0.027620
  70 H :    0.029349
  71 H :    0.044749
  72 H :    0.031143
  73 H :    0.030736
  74 H :    0.034297
  75 H :    0.039245
  76 H :    0.032831
  77 H :    0.031024
  78 H :    0.006123
  79 H :    0.054551
  80 H :    0.059910
  81 H :    0.018724
  82 H :    0.037247
  83 H :    0.052243
  84 H :    0.058698
  85 H :    0.022887
  86 H :    0.021319
  87 H :    0.033837
  88 H :    0.037255
  89 H :    0.028989
  90 H :    0.033627
  91 H :    0.021282
  92 H :    0.034941
  93 H :    0.034537
  94 H :    0.032304
  95 H :    0.033260
  96 H :    0.034954
  97 H :    0.030525
  98 H :    0.028187

  Mayer bond orders larger than 0.100000
B(  0-C ,  1-C ) :   1.5770 B(  0-C ,  4-S ) :   1.1586 B(  0-C , 69-H ) :   0.9477
B(  1-C ,  2-C ) :   1.2199 B(  1-C ,  8-C ) :   1.0086 B(  2-C ,  3-C ) :   1.5708
B(  2-C ,  5-C ) :   0.9546 B(  3-C ,  4-S ) :   1.1563 B(  3-C , 70-H ) :   0.9730
B(  5-C ,  6-O ) :   2.1519 B(  5-C ,  7-C ) :   0.9958 B(  7-C ,  8-C ) :   1.2490
B(  7-C , 16-C ) :   1.2957 B(  8-C ,  9-C ) :   1.4006 B(  9-C , 10-N ) :   0.9751
B(  9-C , 13-N ) :   0.9484 B( 10-N , 11-O ) :   1.5136 B( 10-N , 12-O ) :   1.4803
B( 11-O , 12-O ) :   0.2453 B( 13-N , 14-O ) :   1.5320 B( 13-N , 15-O ) :   1.4439
B( 14-O , 15-O ) :   0.2493 B( 16-C , 17-C ) :   1.4342 B( 16-C , 71-H ) :   0.9487
B( 17-C , 18-C ) :   1.2329 B( 17-C , 25-O ) :   1.0193 B( 18-C , 19-O ) :   1.1506
B( 18-C , 26-C ) :   1.2656 B( 19-O , 20-C ) :   1.0294 B( 20-C , 21-C ) :   1.1998
B( 20-C , 24-C ) :   1.5634 B( 21-C , 22-C ) :   1.5695 B( 21-C , 25-O ) :   1.0825
B( 22-C , 23-S ) :   1.1365 B( 22-C , 72-H ) :   0.9718 B( 23-S , 24-C ) :   1.1592
B( 24-C , 73-H ) :   0.9734 B( 26-C , 27-C ) :   1.5286 B( 26-C , 74-H ) :   0.9488
B( 27-C , 28-C ) :   1.2771 B( 27-C , 75-H ) :   0.9194 B( 28-C , 29-S ) :   1.0705
B( 28-C , 30-C ) :   1.3441 B( 29-S , 38-C ) :   1.1315 B( 30-C , 31-C ) :   1.3636
B( 30-C , 76-H ) :   0.9921 B( 31-C , 32-C ) :   1.0136 B( 31-C , 38-C ) :   1.3546
B( 32-C , 33-C ) :   1.7452 B( 32-C , 41-C ) :   1.0111 B( 33-C , 34-C ) :   1.0745
B( 33-C , 36-C ) :   1.0329 B( 34-C , 35-N ) :   1.0859 B( 34-C , 77-H ) :   0.8926
B( 34-C , 78-H ) :   0.9163 B( 35-N , 79-H ) :   0.9724 B( 35-N , 80-H ) :   0.9681
B( 36-C , 37-N ) :   1.1023 B( 36-C , 81-H ) :   0.9266 B( 36-C , 82-H ) :   0.9106
B( 37-N , 83-H ) :   0.9474 B( 37-N , 84-H ) :   0.9642 B( 38-C , 39-C ) :   1.2846
B( 39-C , 40-S ) :   1.0681 B( 39-C , 41-C ) :   1.4136 B( 40-S , 43-C ) :   1.1144
B( 41-C , 42-C ) :   1.2947 B( 42-C , 43-C ) :   1.4431 B( 42-C , 85-H ) :   0.9873
B( 43-C , 44-C ) :   1.1581 B( 44-C , 45-C ) :   1.6194 B( 44-C , 86-H ) :   0.9550
B( 45-C , 46-C ) :   1.2098 B( 45-C , 87-H ) :   0.9733 B( 46-C , 47-S ) :   1.0789
B( 46-C , 50-C ) :   1.4027 B( 47-S , 48-C ) :   1.1331 B( 48-C , 49-C ) :   1.4079
B( 48-C , 54-C ) :   1.1163 B( 49-C , 50-C ) :   1.3099 B( 49-C , 51-C ) :   0.9267
B( 50-C , 88-H ) :   1.0105 B( 51-C , 52-O ) :   2.2730 B( 51-C , 53-C ) :   0.9115
B( 53-C , 54-C ) :   1.5330 B( 53-C , 55-C ) :   1.2021 B( 54-C , 89-H ) :   1.0145
B( 55-C , 56-C ) :   1.5116 B( 55-C , 90-H ) :   0.9804 B( 56-C , 57-C ) :   1.2235
B( 56-C , 91-H ) :   0.9709 B( 57-C , 58-C ) :   1.4947 B( 57-C , 92-H ) :   0.9857
B( 58-C , 59-C ) :   1.1623 B( 58-C , 62-S ) :   1.0464 B( 59-C , 60-C ) :   1.5737
B( 59-C , 93-H ) :   1.0006 B( 60-C , 61-C ) :   1.1932 B( 60-C , 94-H ) :   0.9937
B( 61-C , 62-S ) :   1.0395 B( 61-C , 63-C ) :   1.5241 B( 63-C , 64-C ) :   1.1614
B( 63-C , 67-S ) :   1.0566 B( 64-C , 65-C ) :   1.6539 B( 64-C , 95-H ) :   0.9918
B( 65-C , 66-C ) :   1.0827 B( 65-C , 96-H ) :   0.9931 B( 66-C , 67-S ) :   1.0067
B( 66-C , 68-C ) :   1.8583 B( 68-C , 97-H ) :   0.9513 B( 68-C , 98-H ) :   0.9424

-----------------------------------------------------------------------------
         ABSORPTION SPECTRUM VIA TRANSITION ELECTRIC DIPOLE MOMENTS
-----------------------------------------------------------------------------
State   Energy  Wavelength   fosc         T2         TX        TY        TZ
        (cm-1)    (nm)                  (au**2)     (au)      (au)      (au)
-----------------------------------------------------------------------------
   0    8909.2   1122.4   1.393559390  51.49490   5.22568  -4.16710  -2.61200
   1   11241.6    889.6   0.286846649   8.40033  -0.80985  -1.53536   2.32102
   2   15334.3    652.1   0.418680669   8.98864  -2.78512   1.10593   0.09325
   3   16786.8    595.7   0.276535034   5.42324   2.00820  -0.87671   0.78851
   4   19211.9    520.5   0.287113616   4.91993  -1.61153   0.21189   1.50930
   5   19921.5    502.0   0.356242457   5.88707  -0.29984  -0.17097  -2.40165
   6   20432.5    489.4   0.327994395   5.28470   1.82909  -0.85610  -1.09827
   7   22262.8    449.2   0.065454959   0.96792  -0.29710  -0.08123   0.93437
   8   22446.5    445.5   0.041339454   0.60631   0.35751   0.01251  -0.69162
   9   23748.7    421.1   0.022859476   0.31689  -0.35456  -0.12384  -0.41933
  10   23897.1    418.5   0.024679033   0.33998  -0.12373  -0.53961  -0.18302
  11   25244.4    396.1   0.031403142   0.40953   0.12676  -0.09312   0.62031
  12   25649.6    389.9   0.141494174   1.81607  -1.07327   0.28120   0.76492
  13   25807.8    387.5   0.076040179   0.96999  -0.75851   0.42423  -0.46334
  14   26247.3    381.0   0.070217871   0.88072   0.67735  -0.58247   0.28749
  15   26275.2    380.6   0.014053523   0.17608  -0.28342  -0.11209  -0.28843
  16   26303.1    380.2   0.002170945   0.02717  -0.13249  -0.00235  -0.09804
  17   27454.8    364.2   0.178806119   2.14407   1.29614  -0.67571   0.08667
  18   27800.2    359.7   0.174992873   2.07228   1.36216  -0.33463   0.32377
  19   28099.4    355.9   0.071286067   0.83519   0.73671   0.54060  -0.01425
  20   28614.4    349.5   0.048215944   0.55473   0.53202   0.33730  -0.39738
  21   28817.0    347.0   0.050228100   0.57382   0.70320   0.28140  -0.01185
  22   29349.5    340.7   0.090667180   1.01701  -0.76371   0.31135  -0.58036
  23   29602.0    337.8   0.056396497   0.62720   0.40696  -0.36012   0.57611
  24   30185.2    331.3   0.018602131   0.20288  -0.11434   0.21145   0.38091
  25   30790.8    324.8   0.026514520   0.28349  -0.11882   0.27719  -0.43879
  26   31020.4    322.4   0.007301215   0.07749   0.26036   0.00189  -0.09847
  27   31180.4    320.7   0.016908227   0.17852   0.29768  -0.03401   0.29791
  28   31475.9    317.7   0.041172328   0.43063   0.02923   0.31307  -0.57599
  29   31770.5    314.8   0.072656283   0.75288  -0.82816   0.02540   0.25764
  30   32009.4    312.4   0.013687779   0.14078   0.17312  -0.21066  -0.25774
  31   32423.9    308.4   0.271201605   2.75361   1.42377   0.13782   0.84114
  32   32863.3    304.3   0.010516922   0.10535   0.15950  -0.14925   0.24008
  33   33033.5    302.7   0.077646268   0.77382  -0.71887   0.17479  -0.47591
  34   33299.5    300.3   0.058787857   0.58120  -0.38568  -0.56851   0.33052
  35   33598.4    297.6   0.076924296   0.75374   0.22107   0.29766   0.78502
  36   33782.2    296.0   0.017994530   0.17536  -0.39986  -0.05881  -0.10960
  37   33895.9    295.0   0.000202276   0.00196   0.03784   0.01841   0.01393
  38   34012.8    294.0   0.016238276   0.15717   0.16419  -0.11870   0.34077
  39   34223.4    292.2   0.137542462   1.32309  -0.87906   0.55770  -0.48920
  40   34426.2    290.5   0.038338394   0.36662   0.59536  -0.10352  -0.03820
  41   34716.5    288.0   0.042464181   0.40268  -0.35290  -0.02215  -0.52693
  42   34890.2    286.6   0.104399749   0.98508   0.55103   0.13101  -0.81504
  43   34977.2    285.9   0.019366414   0.18228   0.07119   0.00532  -0.42093
  44   35164.3    284.4   0.001345372   0.01260  -0.00105   0.05425   0.09824
  45   35322.4    283.1   0.151007140   1.40742   0.75995  -0.85208   0.32225
  46   35671.6    280.3   0.022649074   0.20903  -0.09564   0.29764  -0.33360
  47   35724.1    279.9   0.079746195   0.73489   0.25426  -0.00271   0.81868
  48   36004.3    277.7   0.061637127   0.56359  -0.14040  -0.25602   0.69161
  49   36274.2    275.7   0.059898501   0.54362  -0.66458  -0.03779  -0.31706
  50   36762.4    272.0   0.023465111   0.21013   0.02888  -0.00135  -0.45749
  51   36975.1    270.5   0.072818328   0.64835   0.03568   0.09125  -0.79922
  52   37197.3    268.8   0.004322828   0.03826   0.17981   0.07009  -0.03185
  53   37498.0    266.7   0.107156718   0.94078  -0.37110   0.49590  -0.74643
  54   37682.1    265.4   0.070024705   0.61177  -0.74187  -0.22000  -0.11400
  55   37750.9    264.9   0.028964398   0.25259   0.40175   0.18314  -0.24010
  56   37835.6    264.3   0.031420940   0.27340  -0.34416  -0.31049  -0.24198
  57   38126.7    262.3   0.053611090   0.46291  -0.59154   0.02747  -0.33502
  58   38452.4    260.1   0.006071098   0.05198  -0.02345  -0.16253   0.15815
  59   38576.7    259.2   0.019996565   0.17065   0.31596   0.25890   0.06159
  60   38697.8    258.4   0.023329754   0.19847   0.39809  -0.18703   0.07082
  61   38784.3    257.8   0.008067518   0.06848   0.11309   0.00532   0.23593
  62   38867.7    257.3   0.088815153   0.75227  -0.76972   0.16519   0.36402
  63   39017.7    256.3   0.017929630   0.15128   0.18708   0.06267  -0.33519
  64   39338.9    254.2   0.020164417   0.16875   0.36616  -0.13777   0.12527
  65   39453.8    253.5   0.070683793   0.58980   0.75266  -0.15222  -0.01126
  66   39494.7    253.2   0.108242158   0.90226  -0.51716   0.13584  -0.78508
  67   39669.0    252.1   0.011053408   0.09173  -0.29248   0.01988  -0.07613
  68   40046.9    249.7   0.024263506   0.19946   0.12348  -0.35366   0.24318
  69   40173.7    248.9   0.067545488   0.55352  -0.73247   0.09497  -0.08938
  70   40233.0    248.6   0.057796911   0.47293   0.29225   0.16170  -0.60115
  71   40278.6    248.3   0.008781104   0.07177  -0.23322   0.12258   0.04851

FINAL SINGLE POINT ENERGY     -5526.826016663858

DIPOLE MOMENT
-------------
                                X             Y             Z
Electronic contribution:    -38.45405      48.97425     -21.46717
Nuclear contribution   :     40.95489     -53.74943      22.95533
                        -----------------------------------------
Total Dipole Moment    :      2.50084      -4.77518       1.48816
                        -----------------------------------------
Magnitude (a.u.)       :      5.59206
Magnitude (Debye)      :     14.21388

Rotational constants in cm-1:     0.001480     0.000191     0.000181
Rotational constants in MHz :    44.362957     5.719306     5.424598

                             ****ORCA TERMINATED NORMALLY****
TOTAL RUN TIME: 0 days 0 hours 10 minutes 51 seconds 32 msec
