                         Program Version 4.2.0 -  RELEASE  -
|  1> # ORCA input file
|  2> # SCF done       -168.541019397496          0.000635542638
|  3> ! CAM-B3LYP def2-SVP def2/J RIJCOSX Grid4 TightSCF
|  4> %maxcore 5000
|  5> %tddft
|  6>     Mode sTDDFT
|  7>     Ethresh 5.0
|  8>     maxcore 5000
|  9> end
| 10>
| 11> %pal
| 12>   nprocs 6
| 13>   end
| 14> * xyz 0 1
| 15>    C        7.45431        -6.10800         9.42897
| 16>    C        7.63090        -6.46984         8.12781
| 17>    C        6.39250        -6.50631         7.40243
| 18>    C        5.31351        -6.18646         8.15731
| 19>    S        5.79206        -5.82080         9.77474
| 20>    C        6.65019        -6.88360         6.00827
| 21>    O        5.83428        -6.99663         5.11341
| 22>    C        8.11186        -7.03487         5.92120
| 23>    C        8.69309        -6.90796         7.23745
| 24>    C        9.97278        -7.27867         7.57900
| 25>    N       10.59578        -6.96529         8.81981
| 26>    O       10.19377        -5.98629         9.42276
| 27>    O       11.48331        -7.69758         9.20416
| 28>    N       10.78079        -8.11376         6.71419
| 29>    O       10.23550        -9.07388         6.21269
| 30>    O       11.93575        -7.79686         6.55365
| 31>    C        8.83187        -7.07404         4.74220
| 32>    C        8.39847        -7.23752         3.42995
| 33>    S        6.75462        -7.61462         2.91008
| 34>    C        7.26874        -7.68031         1.28815
| 35>    C        8.64643        -7.40069         1.13659
| 36>    C        9.27818        -7.16343         2.32937
| 37>    C        8.95481        -7.45345        -0.30471
| 38>    O       10.00399        -7.27358        -0.86941
| 39>    C        7.62905        -7.78175        -0.95600
| 40>    C        6.66855        -7.90458         0.02646
| 41>    C        7.54134        -7.89049        -2.35776
| 42>    C        6.41473        -8.17498        -3.06752
| 43>    C        6.36114        -8.23727        -4.47817
| 44>    C        5.25442        -8.51551        -5.24818
| 45>    C        5.49923        -8.47577        -6.63424
| 46>    C        6.85545        -8.15292        -6.92566
| 47>    S        7.77886        -7.92065        -5.46910
| 48>    C        7.32766        -8.03731        -8.21176
| 49>    C        6.42938        -8.24376        -9.26149
| 50>    C        5.07518        -8.57486        -8.97002
| 51>    C        4.60236        -8.69452        -7.68670
| 52>    S        4.14784        -8.77877       -10.43358
| 53>    C        5.55752        -8.40830       -11.41529
| 54>    C        6.66695        -8.15852       -10.64915
| 55>    C        5.45139        -8.37578       -12.82629
| 56>    S        6.84534        -7.94072       -13.80984
| 57>    C        5.91063        -8.09828       -15.23676
| 58>    C        4.58920        -8.47716       -14.95797
| 59>    C        4.33161        -8.63234       -13.60325
| 60>    C        3.88501        -8.57627       -16.24569
| 61>    O        2.73784        -8.88003       -16.46794
| 62>    C        4.93057        -8.20343       -17.27813
| 63>    C        6.12051        -7.93339       -16.62247
| 64>    C        4.60256        -8.16541       -18.63536
| 65>    C        5.45021        -7.80437       -19.65868
| 66>    C        5.06278        -7.76849       -20.99383
| 67>    C        5.88256        -7.39103       -22.03946
| 68>    C        5.53575        -7.33182       -23.40741
| 69>    C        6.54399        -6.91567       -24.22527
| 70>    C        7.74682        -6.62286       -23.54410
| 71>    S        7.55024        -6.89764       -21.82553
| 72>    C        8.93825        -6.18065       -24.08100
| 73>    C        9.21977        -5.91849       -25.44996
| 74>    C       10.48067        -5.49060       -25.68658
| 75>    C       11.29769        -5.38162       -24.51306
| 76>    S       10.34710        -5.86086       -23.09727
| 77>    C       12.57675        -4.98827       -24.43440
| 78>    H        8.18541        -5.95383        10.19689
| 79>    H        4.28051        -6.14637         7.87549
| 80>    H        9.90103        -6.90675         4.81476
| 81>    H       10.32544        -6.94741         2.44459
| 82>    H        5.62895        -8.13224        -0.12143
| 83>    H        8.46902        -7.71890        -2.89145
| 84>    H        5.48287        -8.36214        -2.55070
| 85>    H        4.29073        -8.73689        -4.82419
| 86>    H        8.35734        -7.78862        -8.41276
| 87>    H        3.57224        -8.94256        -7.48618
| 88>    H        7.62436        -7.91474       -11.07493
| 89>    H        3.38418        -8.91379       -13.17952
| 90>    H        7.05040        -7.64441       -17.07555
| 91>    H        3.58164        -8.43739       -18.87512
| 92>    H        6.46955        -7.52463       -19.42589
| 93>    H        4.04775        -8.04918       -21.24400
| 94>    H        4.55003        -7.59793       -23.74631
| 95>    H        6.45296        -6.81267       -25.29146
| 96>    H        8.47396        -6.05685       -26.21227
| 97>    H       10.87559        -5.24289       -26.65564
| 98>    H       13.11930        -4.70510       -25.31901
| 99>    H       13.09788        -4.94297       -23.49577
|100> *
|101>
|102>                          ****END OF INPUT****

CARTESIAN COORDINATES (ANGSTROEM)
---------------------------------
  C      7.454310   -6.108000    9.428970
  C      7.630900   -6.469840    8.127810
  C      6.392500   -6.506310    7.402430
  C      5.313510   -6.186460    8.157310
  S      5.792060   -5.820800    9.774740
  C      6.650190   -6.883600    6.008270
  O      5.834280   -6.996630    5.113410
  C      8.111860   -7.034870    5.921200
  C      8.693090   -6.907960    7.237450
  C      9.972780   -7.278670    7.579000
  N     10.595780   -6.965290    8.819810
  O     10.193770   -5.986290    9.422760
  O     11.483310   -7.697580    9.204160
  N     10.780790   -8.113760    6.714190
  O     10.235500   -9.073880    6.212690
  O     11.935750   -7.796860    6.553650
  C      8.831870   -7.074040    4.742200
  C      8.398470   -7.237520    3.429950
  S      6.754620   -7.614620    2.910080
  C      7.268740   -7.680310    1.288150
  C      8.646430   -7.400690    1.136590
  C      9.278180   -7.163430    2.329370
  C      8.954810   -7.453450   -0.304710
  O     10.003990   -7.273580   -0.869410
  C      7.629050   -7.781750   -0.956000
  C      6.668550   -7.904580    0.026460
  C      7.541340   -7.890490   -2.357760
  C      6.414730   -8.174980   -3.067520
  C      6.361140   -8.237270   -4.478170
  C      5.254420   -8.515510   -5.248180
  C      5.499230   -8.475770   -6.634240
  C      6.855450   -8.152920   -6.925660
  S      7.778860   -7.920650   -5.469100
  C      7.327660   -8.037310   -8.211760
  C      6.429380   -8.243760   -9.261490
  C      5.075180   -8.574860   -8.970020
  C      4.602360   -8.694520   -7.686700
  S      4.147840   -8.778770  -10.433580
  C      5.557520   -8.408300  -11.415290
  C      6.666950   -8.158520  -10.649150
  C      5.451390   -8.375780  -12.826290
  S      6.845340   -7.940720  -13.809840
  C      5.910630   -8.098280  -15.236760
  C      4.589200   -8.477160  -14.957970
  C      4.331610   -8.632340  -13.603250
  C      3.885010   -8.576270  -16.245690
  O      2.737840   -8.880030  -16.467940
  C      4.930570   -8.203430  -17.278130
  C      6.120510   -7.933390  -16.622470
  C      4.602560   -8.165410  -18.635360
  C      5.450210   -7.804370  -19.658680
  C      5.062780   -7.768490  -20.993830
  C      5.882560   -7.391030  -22.039460
  C      5.535750   -7.331820  -23.407410
  C      6.543990   -6.915670  -24.225270
  C      7.746820   -6.622860  -23.544100
  S      7.550240   -6.897640  -21.825530
  C      8.938250   -6.180650  -24.081000
  C      9.219770   -5.918490  -25.449960
  C     10.480670   -5.490600  -25.686580
  C     11.297690   -5.381620  -24.513060
  S     10.347100   -5.860860  -23.097270
  C     12.576750   -4.988270  -24.434400
  H      8.185410   -5.953830   10.196890
  H      4.280510   -6.146370    7.875490
  H      9.901030   -6.906750    4.814760
  H     10.325440   -6.947410    2.444590
  H      5.628950   -8.132240   -0.121430
  H      8.469020   -7.718900   -2.891450
  H      5.482870   -8.362140   -2.550700
  H      4.290730   -8.736890   -4.824190
  H      8.357340   -7.788620   -8.412760
  H      3.572240   -8.942560   -7.486180
  H      7.624360   -7.914740  -11.074930
  H      3.384180   -8.913790  -13.179520
  H      7.050400   -7.644410  -17.075550
  H      3.581640   -8.437390  -18.875120
  H      6.469550   -7.524630  -19.425890
  H      4.047750   -8.049180  -21.244000
  H      4.550030   -7.597930  -23.746310
  H      6.452960   -6.812670  -25.291460
  H      8.473960   -6.056850  -26.212270
  H     10.875590   -5.242890  -26.655640
  H     13.119300   -4.705100  -25.319010
  H     13.097880   -4.942970  -23.495770

 Total Charge           Charge          ....    0
 Multiplicity           Mult            ....    1
 Number of Electrons    NEL             ....  486
 Basis Dimension        Dim             .... 1020

ORBITAL ENERGIES
----------------

  NO   OCC          E(Eh)            E(eV)
   0   2.0000     -88.981905     -2421.3207
   1   2.0000     -88.975791     -2421.1544
   2   2.0000     -88.973576     -2421.0941
   3   2.0000     -88.951977     -2420.5064
   4   2.0000     -88.950889     -2420.4768
   5   2.0000     -88.948671     -2420.4164
   6   2.0000     -88.945430     -2420.3282
   7   2.0000     -19.245818      -523.7053
   8   2.0000     -19.243144      -523.6326
   9   2.0000     -19.237350      -523.4749
  10   2.0000     -19.237108      -523.4683
  11   2.0000     -19.233515      -523.3706
  12   2.0000     -19.222218      -523.0632
  13   2.0000     -19.215459      -522.8792
  14   2.0000     -14.652326      -398.7101
  15   2.0000     -14.649515      -398.6336
  16   2.0000     -10.376089      -282.3477
  17   2.0000     -10.368487      -282.1409
  18   2.0000     -10.363543      -282.0063
  19   2.0000     -10.355239      -281.7804
  20   2.0000     -10.343137      -281.4511
  21   2.0000     -10.325241      -280.9641
  22   2.0000     -10.325213      -280.9633
  23   2.0000     -10.318745      -280.7873
  24   2.0000     -10.317706      -280.7590
  25   2.0000     -10.316126      -280.7161
  26   2.0000     -10.315987      -280.7123
  27   2.0000     -10.313843      -280.6539
  28   2.0000     -10.313560      -280.6462
  29   2.0000     -10.312648      -280.6214
  30   2.0000     -10.312604      -280.6202
  31   2.0000     -10.312345      -280.6132
  32   2.0000     -10.311248      -280.5833
  33   2.0000     -10.310900      -280.5739
  34   2.0000     -10.309545      -280.5370
  35   2.0000     -10.306561      -280.4558
  36   2.0000     -10.305735      -280.4333
  37   2.0000     -10.304764      -280.4069
  38   2.0000     -10.304199      -280.3915
  39   2.0000     -10.303397      -280.3697
  40   2.0000     -10.298681      -280.2414
  41   2.0000     -10.295250      -280.1480
  42   2.0000     -10.293462      -280.0993
  43   2.0000     -10.292072      -280.0615
  44   2.0000     -10.291229      -280.0386
  45   2.0000     -10.291054      -280.0338
  46   2.0000     -10.290329      -280.0141
  47   2.0000     -10.288520      -279.9649
  48   2.0000     -10.288093      -279.9532
  49   2.0000     -10.287980      -279.9502
  50   2.0000     -10.287948      -279.9493
  51   2.0000     -10.287424      -279.9350
  52   2.0000     -10.287005      -279.9236
  53   2.0000     -10.285886      -279.8932
  54   2.0000     -10.284030      -279.8427
  55   2.0000     -10.283944      -279.8403
  56   2.0000     -10.282759      -279.8081
  57   2.0000     -10.282713      -279.8068
  58   2.0000     -10.280133      -279.7367
  59   2.0000     -10.277356      -279.6611
  60   2.0000     -10.276038      -279.6252
  61   2.0000     -10.274947      -279.5955
  62   2.0000     -10.270964      -279.4871
  63   2.0000      -8.074830      -219.7273
  64   2.0000      -8.071735      -219.6431
  65   2.0000      -8.068437      -219.5533
  66   2.0000      -8.047836      -218.9928
  67   2.0000      -8.046786      -218.9642
  68   2.0000      -8.044989      -218.9153
  69   2.0000      -8.042189      -218.8391
  70   2.0000      -6.044108      -164.4685
  71   2.0000      -6.040948      -164.3825
  72   2.0000      -6.039478      -164.3425
  73   2.0000      -6.037608      -164.2917
  74   2.0000      -6.037476      -164.2881
  75   2.0000      -6.036275      -164.2554
  76   2.0000      -6.034470      -164.2063
  77   2.0000      -6.033616      -164.1830
  78   2.0000      -6.030756      -164.1052
  79   2.0000      -6.017546      -163.7458
  80   2.0000      -6.016352      -163.7133
  81   2.0000      -6.014662      -163.6673
  82   2.0000      -6.013537      -163.6367
  83   2.0000      -6.012454      -163.6072
  84   2.0000      -6.011970      -163.5940
  85   2.0000      -6.010766      -163.5613
  86   2.0000      -6.008862      -163.5094
  87   2.0000      -6.008072      -163.4880
  88   2.0000      -6.007978      -163.4854
  89   2.0000      -6.005897      -163.4288
  90   2.0000      -6.002765      -163.3435
  91   2.0000      -1.332307       -36.2539
  92   2.0000      -1.314044       -35.7570
  93   2.0000      -1.146655       -31.2021
  94   2.0000      -1.144693       -31.1487
  95   2.0000      -1.136467       -30.9248
  96   2.0000      -1.132552       -30.8183
  97   2.0000      -1.131942       -30.8017
  98   2.0000      -1.016049       -27.6481
  99   2.0000      -1.013616       -27.5819
 100   2.0000      -1.008320       -27.4378
 101   2.0000      -1.000175       -27.2161
 102   2.0000      -0.998465       -27.1696
 103   2.0000      -0.979521       -26.6541
 104   2.0000      -0.975639       -26.5485
 105   2.0000      -0.974136       -26.5076
 106   2.0000      -0.954531       -25.9741
 107   2.0000      -0.940397       -25.5895
 108   2.0000      -0.929818       -25.3016
 109   2.0000      -0.918556       -24.9952
 110   2.0000      -0.906016       -24.6540
 111   2.0000      -0.891175       -24.2501
 112   2.0000      -0.879322       -23.9276
 113   2.0000      -0.877705       -23.8836
 114   2.0000      -0.871607       -23.7176
 115   2.0000      -0.860092       -23.4043
 116   2.0000      -0.851115       -23.1600
 117   2.0000      -0.850074       -23.1317
 118   2.0000      -0.847522       -23.0623
 119   2.0000      -0.841465       -22.8974
 120   2.0000      -0.835753       -22.7420
 121   2.0000      -0.829771       -22.5792
 122   2.0000      -0.823285       -22.4027
 123   2.0000      -0.812867       -22.1192
 124   2.0000      -0.800394       -21.7798
 125   2.0000      -0.794902       -21.6304
 126   2.0000      -0.785936       -21.3864
 127   2.0000      -0.781638       -21.2695
 128   2.0000      -0.772991       -21.0341
 129   2.0000      -0.760815       -20.7028
 130   2.0000      -0.755616       -20.5614
 131   2.0000      -0.752109       -20.4659
 132   2.0000      -0.734499       -19.9867
 133   2.0000      -0.715756       -19.4767
 134   2.0000      -0.701242       -19.0818
 135   2.0000      -0.691506       -18.8168
 136   2.0000      -0.683227       -18.5916
 137   2.0000      -0.680667       -18.5219
 138   2.0000      -0.675641       -18.3851
 139   2.0000      -0.664726       -18.0881
 140   2.0000      -0.662584       -18.0298
 141   2.0000      -0.658576       -17.9208
 142   2.0000      -0.648840       -17.6558
 143   2.0000      -0.642197       -17.4751
 144   2.0000      -0.641478       -17.4555
 145   2.0000      -0.640890       -17.4395
 146   2.0000      -0.632487       -17.2108
 147   2.0000      -0.629704       -17.1351
 148   2.0000      -0.627160       -17.0659
 149   2.0000      -0.624870       -17.0036
 150   2.0000      -0.623552       -16.9677
 151   2.0000      -0.621960       -16.9244
 152   2.0000      -0.616258       -16.7692
 153   2.0000      -0.613590       -16.6966
 154   2.0000      -0.610159       -16.6033
 155   2.0000      -0.605039       -16.4639
 156   2.0000      -0.603000       -16.4085
 157   2.0000      -0.599842       -16.3225
 158   2.0000      -0.583189       -15.8694
 159   2.0000      -0.581249       -15.8166
 160   2.0000      -0.578545       -15.7430
 161   2.0000      -0.574271       -15.6267
 162   2.0000      -0.571010       -15.5380
 163   2.0000      -0.568098       -15.4587
 164   2.0000      -0.564478       -15.3602
 165   2.0000      -0.562001       -15.2928
 166   2.0000      -0.552238       -15.0272
 167   2.0000      -0.546639       -14.8748
 168   2.0000      -0.538329       -14.6487
 169   2.0000      -0.536784       -14.6066
 170   2.0000      -0.534027       -14.5316
 171   2.0000      -0.532310       -14.4849
 172   2.0000      -0.529910       -14.4196
 173   2.0000      -0.527747       -14.3607
 174   2.0000      -0.524730       -14.2786
 175   2.0000      -0.522839       -14.2272
 176   2.0000      -0.521991       -14.2041
 177   2.0000      -0.517459       -14.0808
 178   2.0000      -0.508451       -13.8357
 179   2.0000      -0.507755       -13.8167
 180   2.0000      -0.504457       -13.7270
 181   2.0000      -0.502498       -13.6737
 182   2.0000      -0.500526       -13.6200
 183   2.0000      -0.499895       -13.6028
 184   2.0000      -0.498073       -13.5532
 185   2.0000      -0.496017       -13.4973
 186   2.0000      -0.492021       -13.3886
 187   2.0000      -0.490118       -13.3368
 188   2.0000      -0.486171       -13.2294
 189   2.0000      -0.482862       -13.1394
 190   2.0000      -0.480088       -13.0639
 191   2.0000      -0.478975       -13.0336
 192   2.0000      -0.476054       -12.9541
 193   2.0000      -0.474639       -12.9156
 194   2.0000      -0.471637       -12.8339
 195   2.0000      -0.468977       -12.7615
 196   2.0000      -0.468255       -12.7419
 197   2.0000      -0.464086       -12.6284
 198   2.0000      -0.461710       -12.5638
 199   2.0000      -0.460039       -12.5183
 200   2.0000      -0.458765       -12.4836
 201   2.0000      -0.454292       -12.3619
 202   2.0000      -0.447758       -12.1841
 203   2.0000      -0.443951       -12.0805
 204   2.0000      -0.440862       -11.9965
 205   2.0000      -0.439613       -11.9625
 206   2.0000      -0.433809       -11.8045
 207   2.0000      -0.431089       -11.7305
 208   2.0000      -0.427645       -11.6368
 209   2.0000      -0.424332       -11.5467
 210   2.0000      -0.423439       -11.5224
 211   2.0000      -0.422504       -11.4969
 212   2.0000      -0.415482       -11.3058
 213   2.0000      -0.410091       -11.1592
 214   2.0000      -0.405620       -11.0375
 215   2.0000      -0.402417       -10.9503
 216   2.0000      -0.402270       -10.9463
 217   2.0000      -0.395651       -10.7662
 218   2.0000      -0.388780       -10.5792
 219   2.0000      -0.382445       -10.4069
 220   2.0000      -0.382241       -10.4013
 221   2.0000      -0.378038       -10.2869
 222   2.0000      -0.372539       -10.1373
 223   2.0000      -0.368251       -10.0206
 224   2.0000      -0.363327        -9.8866
 225   2.0000      -0.357901        -9.7390
 226   2.0000      -0.350315        -9.5325
 227   2.0000      -0.346197        -9.4205
 228   2.0000      -0.342712        -9.3257
 229   2.0000      -0.340973        -9.2783
 230   2.0000      -0.336360        -9.1528
 231   2.0000      -0.334833        -9.1113
 232   2.0000      -0.334152        -9.0927
 233   2.0000      -0.330809        -9.0018
 234   2.0000      -0.329552        -8.9676
 235   2.0000      -0.326461        -8.8834
 236   2.0000      -0.315035        -8.5725
 237   2.0000      -0.308389        -8.3917
 238   2.0000      -0.293070        -7.9749
 239   2.0000      -0.273731        -7.4486
 240   2.0000      -0.262029        -7.1302
 241   2.0000      -0.241195        -6.5632
 242   2.0000      -0.209089        -5.6896
 243   0.0000      -0.108985        -2.9656
 244   0.0000      -0.096548        -2.6272
 245   0.0000      -0.077169        -2.0999
 246   0.0000      -0.051505        -1.4015
 247   0.0000      -0.048288        -1.3140

MULLIKEN ATOMIC CHARGES
-----------------------
   0 C :   -0.133320
   1 C :    0.064868
   2 C :    0.010709
   3 C :   -0.136267
   4 S :    0.145132
   5 C :    0.183759
   6 O :   -0.183374
   7 C :   -0.110872
   8 C :    0.205927
   9 C :    0.041983
  10 N :    0.260080
  11 O :   -0.258801
  12 O :   -0.231589
  13 N :    0.200722
  14 O :   -0.218585
  15 O :   -0.211560
  16 C :   -0.003210
  17 C :   -0.085559
  18 S :    0.243975
  19 C :   -0.014809
  20 C :    0.016190
  21 C :   -0.013964
  22 C :    0.164810
  23 O :   -0.104635
  24 C :   -0.021752
  25 C :   -0.040313
  26 C :   -0.010418
  27 C :    0.043812
  28 C :   -0.031267
  29 C :   -0.025928
  30 C :    0.110478
  31 C :   -0.037448
  32 S :    0.106525
  33 C :   -0.058569
  34 C :    0.126805
  35 C :   -0.041178
  36 C :   -0.047787
  37 S :    0.108108
  38 C :   -0.018075
  39 C :   -0.071067
  40 C :   -0.072798
  41 S :    0.160663
  42 C :   -0.033459
  43 C :   -0.002539
  44 C :   -0.033169
  45 C :    0.155828
  46 O :   -0.115839
  47 C :   -0.028108
  48 C :   -0.041304
  49 C :   -0.011170
  50 C :    0.028165
  51 C :   -0.010842
  52 C :   -0.018122
  53 C :    0.035946
  54 C :    0.026669
  55 C :   -0.048224
  56 S :    0.074526
  57 C :   -0.063016
  58 C :    0.029261
  59 C :    0.053244
  60 C :   -0.065402
  61 S :    0.086422
  62 C :   -0.025405
  63 H :    0.055060
  64 H :    0.036596
  65 H :    0.019191
  66 H :    0.012119
  67 H :   -0.006242
  68 H :    0.012589
  69 H :   -0.010169
  70 H :   -0.020378
  71 H :   -0.030022
  72 H :   -0.030165
  73 H :   -0.018905
  74 H :    0.001772
  75 H :   -0.011989
  76 H :   -0.006011
  77 H :   -0.004918
  78 H :   -0.012287
  79 H :   -0.010931
  80 H :   -0.011254
  81 H :   -0.008873
  82 H :   -0.008719
  83 H :    0.023247
  84 H :    0.025424
Sum of atomic charges:   -0.0000000

LOEWDIN ATOMIC CHARGES
----------------------
   0 C :   -0.145632
   1 C :   -0.062748
   2 C :   -0.088236
   3 C :   -0.144224
   4 S :    0.477181
   5 C :    0.082311
   6 O :   -0.174502
   7 C :   -0.122418
   8 C :    0.062873
   9 C :   -0.084664
  10 N :    0.279716
  11 O :   -0.213365
  12 O :   -0.197018
  13 N :    0.269021
  14 O :   -0.194444
  15 O :   -0.183033
  16 C :    0.057494
  17 C :   -0.189364
  18 S :    0.546004
  19 C :   -0.141619
  20 C :   -0.117870
  21 C :    0.029532
  22 C :    0.096126
  23 O :   -0.098051
  24 C :   -0.027602
  25 C :   -0.020985
  26 C :   -0.039097
  27 C :    0.003735
  28 C :   -0.158135
  29 C :   -0.032584
  30 C :   -0.052560
  31 C :   -0.145748
  32 S :    0.397894
  33 C :   -0.042076
  34 C :   -0.032905
  35 C :   -0.152711
  36 C :   -0.030677
  37 S :    0.393578
  38 C :   -0.154339
  39 C :   -0.074656
  40 C :   -0.194785
  41 S :    0.459904
  42 C :   -0.154385
  43 C :   -0.116299
  44 C :   -0.017743
  45 C :    0.099174
  46 O :   -0.107663
  47 C :   -0.051398
  48 C :   -0.024829
  49 C :   -0.026058
  50 C :   -0.008041
  51 C :   -0.058753
  52 C :   -0.138385
  53 C :   -0.036424
  54 C :   -0.027038
  55 C :   -0.183281
  56 S :    0.372201
  57 C :   -0.172165
  58 C :   -0.027040
  59 C :   -0.027331
  60 C :   -0.140003
  61 S :    0.358493
  62 C :   -0.068579
  63 H :    0.030106
  64 H :    0.034317
  65 H :    0.044629
  66 H :    0.045705
  67 H :    0.030812
  68 H :    0.030696
  69 H :    0.034533
  70 H :    0.031471
  71 H :    0.031435
  72 H :    0.031406
  73 H :    0.025069
  74 H :    0.035673
  75 H :    0.028453
  76 H :    0.033481
  77 H :    0.020826
  78 H :    0.034967
  79 H :    0.034442
  80 H :    0.032289
  81 H :    0.033292
  82 H :    0.034570
  83 H :    0.030222
  84 H :    0.027832

  Mayer bond orders larger than 0.100000
B(  0-C ,  1-C ) :   1.5561 B(  0-C ,  4-S ) :   1.1783 B(  0-C , 63-H ) :   0.9483
B(  1-C ,  2-C ) :   1.2226 B(  1-C ,  8-C ) :   1.0143 B(  2-C ,  3-C ) :   1.5558
B(  2-C ,  5-C ) :   0.9695 B(  3-C ,  4-S ) :   1.1759 B(  3-C , 64-H ) :   0.9722
B(  5-C ,  6-O ) :   2.1263 B(  5-C ,  7-C ) :   0.9971 B(  7-C ,  8-C ) :   1.1283
B(  7-C , 16-C ) :   1.4252 B(  8-C ,  9-C ) :   1.5471 B(  9-C , 10-N ) :   0.9570
B(  9-C , 13-N ) :   0.8920 B( 10-N , 11-O ) :   1.4865 B( 10-N , 12-O ) :   1.5265
B( 11-O , 12-O ) :   0.2567 B( 13-N , 14-O ) :   1.5298 B( 13-N , 15-O ) :   1.5174
B( 14-O , 15-O ) :   0.2805 B( 16-C , 17-C ) :   1.3555 B( 16-C , 65-H ) :   0.9563
B( 17-C , 18-S ) :   1.0653 B( 17-C , 21-C ) :   1.2833 B( 18-S , 19-C ) :   1.1689
B( 19-C , 20-C ) :   1.3227 B( 19-C , 25-C ) :   1.1021 B( 20-C , 21-C ) :   1.3975
B( 20-C , 22-C ) :   0.9145 B( 21-C , 66-H ) :   1.0122 B( 22-C , 23-O ) :   2.2802
B( 22-C , 24-C ) :   0.9109 B( 24-C , 25-C ) :   1.5692 B( 24-C , 26-C ) :   1.1782
B( 25-C , 67-H ) :   1.0150 B( 26-C , 27-C ) :   1.5641 B( 26-C , 68-H ) :   0.9667
B( 27-C , 28-C ) :   1.1854 B( 27-C , 69-H ) :   0.9812 B( 28-C , 29-C ) :   1.4976
B( 28-C , 32-S ) :   1.0629 B( 29-C , 30-C ) :   1.1664 B( 29-C , 70-H ) :   1.0064
B( 30-C , 31-C ) :   1.2717 B( 30-C , 36-C ) :   1.2979 B( 31-C , 32-S ) :   1.0465
B( 31-C , 33-C ) :   1.3911 B( 33-C , 34-C ) :   1.3144 B( 33-C , 71-H ) :   1.0014
B( 34-C , 35-C ) :   1.2682 B( 34-C , 39-C ) :   1.1695 B( 35-C , 36-C ) :   1.4103
B( 35-C , 37-S ) :   1.0331 B( 36-C , 72-H ) :   1.0007 B( 37-S , 38-C ) :   1.0788
B( 38-C , 39-C ) :   1.5450 B( 38-C , 40-C ) :   1.1816 B( 39-C , 73-H ) :   0.9948
B( 40-C , 41-S ) :   1.0953 B( 40-C , 44-C ) :   1.4502 B( 41-S , 42-C ) :   1.1351
B( 42-C , 43-C ) :   1.4299 B( 42-C , 48-C ) :   1.0984 B( 43-C , 44-C ) :   1.3091
B( 43-C , 45-C ) :   0.9278 B( 44-C , 74-H ) :   0.9980 B( 45-C , 46-O ) :   2.2729
B( 45-C , 47-C ) :   0.9073 B( 47-C , 48-C ) :   1.5518 B( 47-C , 49-C ) :   1.1930
B( 48-C , 75-H ) :   1.0135 B( 49-C , 50-C ) :   1.5244 B( 49-C , 76-H ) :   0.9795
B( 50-C , 51-C ) :   1.2169 B( 50-C , 77-H ) :   0.9701 B( 51-C , 52-C ) :   1.5033
B( 51-C , 78-H ) :   0.9849 B( 52-C , 53-C ) :   1.1600 B( 52-C , 56-S ) :   1.0438
B( 53-C , 54-C ) :   1.5793 B( 53-C , 79-H ) :   0.9993 B( 54-C , 55-C ) :   1.1897
B( 54-C , 80-H ) :   0.9938 B( 55-C , 56-S ) :   1.0396 B( 55-C , 57-C ) :   1.5287
B( 57-C , 58-C ) :   1.1582 B( 57-C , 61-S ) :   1.0550 B( 58-C , 59-C ) :   1.6548
B( 58-C , 81-H ) :   0.9927 B( 59-C , 60-C ) :   1.0827 B( 59-C , 82-H ) :   0.9934
B( 60-C , 61-S ) :   1.0063 B( 60-C , 62-C ) :   1.8588 B( 62-C , 83-H ) :   0.9511
B( 62-C , 84-H ) :   0.9423

-----------------------------------------------------------------------------
         ABSORPTION SPECTRUM VIA TRANSITION ELECTRIC DIPOLE MOMENTS
-----------------------------------------------------------------------------
State   Energy  Wavelength   fosc         T2         TX        TY        TZ
        (cm-1)    (nm)                  (au**2)     (au)      (au)      (au)
-----------------------------------------------------------------------------
   0   10258.2    974.8   1.596709729  51.24239   1.36929   0.83519  -6.97638
   1   13521.5    739.6   1.003798400  24.43984  -1.59706  -0.75357  -4.61751
   2   16796.4    595.4   0.118492259   2.32247   0.58913   0.29887   1.37335
   3   18805.2    531.8   0.015190042   0.26592   0.42026   0.09968   0.28172
   4   20228.7    494.3   0.622035048  10.12332  -2.39233  -0.98884   1.84994
   5   20697.4    483.2   0.225193485   3.58192  -0.17339   0.01723  -1.88456
   6   21481.6    465.5   0.013914106   0.21324  -0.26794  -0.07753  -0.36802
   7   23666.5    422.5   0.208699865   2.90311   0.41938   0.09997   1.64840
   8   24108.0    414.8   0.009290181   0.12686   0.31399  -0.06923   0.15324
   9   24820.6    402.9   0.181830700   2.41174   0.19598  -0.09206  -1.53781
  10   25506.0    392.1   0.011017824   0.14221  -0.08431   0.03226  -0.36614
  11   26140.3    382.6   0.337593601   4.25167   0.59320   0.24790   1.95916
  12   26215.6    381.5   0.000078584   0.00099  -0.00896   0.01991   0.02259
  13   26456.4    378.0   0.137572249   1.71189   0.89818   0.01803   0.95123
  14   27353.8    365.6   0.131725603   1.58536   0.44048  -0.41451  -1.10432
  15   27740.3    360.5   0.005057438   0.06002  -0.12191   0.21099  -0.02529
  16   28530.6    350.5   0.000685889   0.00791  -0.08736  -0.00099   0.01679
  17   28706.2    348.4   0.064899667   0.74429  -0.77035   0.38746   0.02692
  18   29142.4    343.1   0.060219247   0.68028  -0.71511   0.00813  -0.41088
  19   29856.6    334.9   0.133709067   1.47433  -0.45122   0.19500   1.11028
  20   30426.0    328.7   0.121818073   1.31808   0.06176   0.30799   1.10427
  21   30733.5    325.4   0.011032017   0.11817   0.33830  -0.00471  -0.06087
  22   30765.8    325.0   0.133909121   1.43291  -0.89547  -0.25730  -0.75156
  23   31292.8    319.6   0.086159316   0.90643  -0.16370  -0.04064  -0.93700
  24   31498.0    317.5   0.010345556   0.10813  -0.02330  -0.06797   0.32089
  25   31746.7    315.0   0.201598760   2.09057   0.91465   0.12622   1.11268
  26   32658.0    306.2   0.028620305   0.28851  -0.51283   0.05341   0.15053
  27   32784.6    305.0   0.051748446   0.51964  -0.70491  -0.00623   0.15069
  28   33281.6    300.5   0.065087551   0.64383  -0.53780   0.00433   0.59546
  29   33686.6    296.9   0.061107360   0.59719   0.71050  -0.02001  -0.30327
  30   33872.1    295.2   0.001212709   0.01179   0.01591   0.01223   0.10669
  31   33890.4    295.1   0.076002659   0.73829  -0.16518   0.03424  -0.84252
  32   34192.2    292.5   0.049073688   0.47249  -0.01783   0.04856   0.68543
  33   34399.2    290.7   0.069899139   0.66896   0.59503  -0.15759   0.53857
  34   34790.1    287.4   0.076602956   0.72488  -0.40331   0.16155   0.73220
  35   34912.6    286.4   0.002463888   0.02323   0.12848   0.03817   0.07259
  36   35055.9    285.3   0.118794852   1.11561  -0.39535  -0.15641  -0.96687
  37   35246.1    283.7   0.086234031   0.80546   0.68695  -0.14210   0.55980
  38   35557.3    281.2   0.035581587   0.32944  -0.36082   0.17632   0.41007
  39   36102.4    277.0   0.056151097   0.51203   0.69412  -0.06324  -0.16198
  40   36239.6    275.9   0.058086917   0.52768  -0.49573   0.13639   0.51316
  41   36536.0    273.7   0.047656776   0.42942   0.47548   0.17604   0.41514
  42   36836.0    271.5   0.010370578   0.09268  -0.18477  -0.15704  -0.18407
  43   36875.7    271.2   0.011725466   0.10468  -0.04577   0.01471   0.31995
  44   36935.2    270.7   0.121848908   1.08607  -1.02818  -0.16993  -0.00603
  45   37030.5    270.0   0.012054657   0.10717  -0.05349  -0.15502  -0.28333
  46   37636.0    265.7   0.037678007   0.32958  -0.53861  -0.10605   0.16802
  47   37793.3    264.6   0.005908098   0.05146  -0.16427   0.15467  -0.02363
  48   37991.1    263.2   0.003257279   0.02823   0.03306  -0.03676   0.16057
  49   38324.4    260.9   0.112705644   0.96816   0.18227  -0.05824   0.96517
  50   38537.5    259.5   0.020391265   0.17420   0.34728  -0.19518  -0.12449
  51   38739.1    258.1   0.028569173   0.24279   0.49153  -0.03295   0.00993
  52   39148.2    255.4   0.042261412   0.35539   0.45774   0.10590  -0.36694
  53   39311.4    254.4   0.058285198   0.48811  -0.68622  -0.11984  -0.05341
  54   39446.0    253.5   0.099340895   0.82909  -0.34539  -0.07861  -0.83882
  55   39597.9    252.5   0.037960223   0.31560  -0.13179   0.05703  -0.54312
  56   39860.3    250.9   0.007773152   0.06420   0.13057  -0.02067   0.21616
  57   40174.4    248.9   0.013226182   0.10838  -0.10048  -0.02159   0.31276

FINAL SINGLE POINT ENERGY     -5223.432805121948

DIPOLE MOMENT
-------------
                                X             Y             Z
Electronic contribution:      1.62482      -2.95451      89.50101
Nuclear contribution   :     -3.58861       3.86255     -94.70532
                        -----------------------------------------
Total Dipole Moment    :     -1.96379       0.90804      -5.20431
                        -----------------------------------------
Magnitude (a.u.)       :      5.63612
Magnitude (Debye)      :     14.32587

Rotational constants in cm-1:     0.003081     0.000129     0.000125
Rotational constants in MHz :    92.357155     3.865619     3.743198

                             ****ORCA TERMINATED NORMALLY****
TOTAL RUN TIME: 0 days 0 hours 7 minutes 50 seconds 108 msec
