                         Program Version 4.2.0 -  RELEASE  -
|  1> # ORCA input file
|  2> # SCF done       -179.825526453223          0.000649997241
|  3> ! CAM-B3LYP def2-SVP def2/J RIJCOSX Grid4 TightSCF
|  4> %maxcore 5000
|  5> %tddft
|  6>     Mode sTDDFT
|  7>     Ethresh 5.0
|  8>     maxcore 5000
|  9> end
| 10>
| 11> %pal
| 12>   nprocs 6
| 13>   end
| 14> * xyz 0 1
| 15>    C        5.78116         6.21905        -7.06083
| 16>    C        5.79066         4.91024        -6.68294
| 17>    C        5.68184         4.02583        -7.80180
| 18>    C        5.60932         4.66356        -8.99624
| 19>    S        5.66429         6.37210        -8.77236
| 20>    C        5.62695         2.64738        -7.31301
| 21>    O        5.58717         1.63178        -7.98221
| 22>    C        5.62371         2.74564        -5.84046
| 23>    C        5.79407         4.12635        -5.44903
| 24>    C        6.02064         4.71543        -4.22611
| 25>    N        6.54270         6.07646        -4.18523
| 26>    O        5.93803         6.88012        -3.51873
| 27>    O        7.53602         6.30223        -4.83780
| 28>    N        5.83891         4.18794        -2.92169
| 29>    O        6.52467         4.65992        -2.03694
| 30>    O        5.01160         3.30677        -2.75654
| 31>    C        5.47005         1.65381        -5.00485
| 32>    C        5.44445         0.28991        -5.27621
| 33>    S        5.70909        -0.50919        -6.83158
| 34>    C        5.56808        -2.03548        -6.08764
| 35>    C        5.30469        -1.94829        -4.70106
| 36>    C        5.23895        -0.65668        -4.24866
| 37>    C        5.19404        -3.31913        -4.17195
| 38>    O        4.97990        -3.66417        -3.03561
| 39>    C        5.41680        -4.20077        -5.38422
| 40>    C        5.62540        -3.38939        -6.48493
| 41>    C        5.42346        -5.60740        -5.37753
| 42>    C        5.22202        -6.36397        -4.25541
| 43>    C        5.24581        -7.76818        -4.20292
| 44>    S        4.97835        -8.55394        -2.64889
| 45>    C        5.17228       -10.09066        -3.36129
| 46>    C        5.42797       -10.00375        -4.73898
| 47>    C        5.46896        -8.70698        -5.21440
| 48>    C        5.58161       -11.38587        -5.23863
| 49>    O        5.80273       -11.76979        -6.36035
| 50>    C        5.39600       -12.25318        -4.01337
| 51>    C        5.15300       -11.44206        -2.93011
| 52>    C        5.49256       -13.66157        -4.11568
| 53>    C        5.35546       -14.52748        -3.08111
| 54>    C        5.45825       -15.95663        -3.14459
| 55>    C        5.26569       -16.70067        -1.97640
| 56>    C        5.35127       -18.07979        -1.97253
| 57>    N        5.00476       -18.73700        -0.73852
| 58>    O        5.21361       -18.13244         0.29142
| 59>    O        4.48386       -19.83129        -0.80260
| 60>    C        5.66249       -18.80322        -3.14157
| 61>    C        5.84817       -18.04422        -4.31049
| 62>    C        5.74485       -16.67605        -4.31914
| 63>    C        5.87855       -20.22463        -3.17149
| 64>    S        6.78358       -21.02476        -1.93379
| 65>    C        6.67923       -22.56238        -2.71114
| 66>    C        5.96503       -22.46293        -3.90599
| 67>    C        5.50855       -21.13138        -4.16699
| 68>    C        4.70223       -20.88052        -5.29569
| 69>    C        4.42720       -21.88757        -6.17870
| 70>    S        3.41516       -21.70330        -7.60498
| 71>    C        3.28061       -19.89600        -7.84790
| 72>    C        4.58930       -19.28172        -8.30607
| 73>    C        4.95799       -23.19902        -5.96633
| 74>    S        4.58643       -24.38326        -7.21235
| 75>    C        5.03545       -25.98289        -6.43473
| 76>    C        4.53637       -27.10965        -7.31882
| 77>    C        5.70587       -23.47406        -4.85558
| 78>    C        7.29426       -23.67847        -2.04821
| 79>    C        6.96702       -24.96423        -2.17144
| 80>    H        5.82877         7.11736        -6.47870
| 81>    H        5.52105         4.24736        -9.97954
| 82>    H        5.30990         1.87092        -3.95483
| 83>    H        5.05555        -0.36189        -3.23073
| 84>    H        5.80986        -3.73242        -7.48690
| 85>    H        5.60839        -6.09185        -6.32822
| 86>    H        5.03474        -5.85263        -3.32151
| 87>    H        5.65319        -8.43759        -6.23797
| 88>    H        4.97813       -11.75515        -1.91750
| 89>    H        5.69634       -14.02028        -5.11581
| 90>    H        5.15136       -14.12583        -2.09755
| 91>    H        5.02155       -16.20335        -1.04863
| 92>    H        6.13117       -18.56041        -5.21457
| 93>    H        5.91114       -16.14578        -5.24328
| 94>    H        4.28658       -19.89523        -5.42279
| 95>    H        2.90307       -19.44444        -6.93143
| 96>    H        2.51732       -19.80143        -8.61987
| 97>    H        4.46540       -18.21048        -8.45191
| 98>    H        4.90299       -19.72814        -9.24644
| 99>    H        5.37568       -19.44602        -7.57262
|100>    H        4.55953       -26.01409        -5.45459
|101>    H        6.11997       -26.02316        -6.33088
|102>    H        3.45767       -27.04853        -7.43966
|103>    H        4.78516       -28.06892        -6.86998
|104>    H        4.99673       -27.05373        -8.30220
|105>    H        6.13082       -24.44952        -4.70287
|106>    H        8.06936       -23.40205        -1.34317
|107>    H        6.15725       -25.30326        -2.79190
|108>    H        7.49124       -25.72089        -1.61446
|109> *
|110>
|111>                          ****END OF INPUT****

CARTESIAN COORDINATES (ANGSTROEM)
---------------------------------
  C      5.781160    6.219050   -7.060830
  C      5.790660    4.910240   -6.682940
  C      5.681840    4.025830   -7.801800
  C      5.609320    4.663560   -8.996240
  S      5.664290    6.372100   -8.772360
  C      5.626950    2.647380   -7.313010
  O      5.587170    1.631780   -7.982210
  C      5.623710    2.745640   -5.840460
  C      5.794070    4.126350   -5.449030
  C      6.020640    4.715430   -4.226110
  N      6.542700    6.076460   -4.185230
  O      5.938030    6.880120   -3.518730
  O      7.536020    6.302230   -4.837800
  N      5.838910    4.187940   -2.921690
  O      6.524670    4.659920   -2.036940
  O      5.011600    3.306770   -2.756540
  C      5.470050    1.653810   -5.004850
  C      5.444450    0.289910   -5.276210
  S      5.709090   -0.509190   -6.831580
  C      5.568080   -2.035480   -6.087640
  C      5.304690   -1.948290   -4.701060
  C      5.238950   -0.656680   -4.248660
  C      5.194040   -3.319130   -4.171950
  O      4.979900   -3.664170   -3.035610
  C      5.416800   -4.200770   -5.384220
  C      5.625400   -3.389390   -6.484930
  C      5.423460   -5.607400   -5.377530
  C      5.222020   -6.363970   -4.255410
  C      5.245810   -7.768180   -4.202920
  S      4.978350   -8.553940   -2.648890
  C      5.172280  -10.090660   -3.361290
  C      5.427970  -10.003750   -4.738980
  C      5.468960   -8.706980   -5.214400
  C      5.581610  -11.385870   -5.238630
  O      5.802730  -11.769790   -6.360350
  C      5.396000  -12.253180   -4.013370
  C      5.153000  -11.442060   -2.930110
  C      5.492560  -13.661570   -4.115680
  C      5.355460  -14.527480   -3.081110
  C      5.458250  -15.956630   -3.144590
  C      5.265690  -16.700670   -1.976400
  C      5.351270  -18.079790   -1.972530
  N      5.004760  -18.737000   -0.738520
  O      5.213610  -18.132440    0.291420
  O      4.483860  -19.831290   -0.802600
  C      5.662490  -18.803220   -3.141570
  C      5.848170  -18.044220   -4.310490
  C      5.744850  -16.676050   -4.319140
  C      5.878550  -20.224630   -3.171490
  S      6.783580  -21.024760   -1.933790
  C      6.679230  -22.562380   -2.711140
  C      5.965030  -22.462930   -3.905990
  C      5.508550  -21.131380   -4.166990
  C      4.702230  -20.880520   -5.295690
  C      4.427200  -21.887570   -6.178700
  S      3.415160  -21.703300   -7.604980
  C      3.280610  -19.896000   -7.847900
  C      4.589300  -19.281720   -8.306070
  C      4.957990  -23.199020   -5.966330
  S      4.586430  -24.383260   -7.212350
  C      5.035450  -25.982890   -6.434730
  C      4.536370  -27.109650   -7.318820
  C      5.705870  -23.474060   -4.855580
  C      7.294260  -23.678470   -2.048210
  C      6.967020  -24.964230   -2.171440
  H      5.828770    7.117360   -6.478700
  H      5.521050    4.247360   -9.979540
  H      5.309900    1.870920   -3.954830
  H      5.055550   -0.361890   -3.230730
  H      5.809860   -3.732420   -7.486900
  H      5.608390   -6.091850   -6.328220
  H      5.034740   -5.852630   -3.321510
  H      5.653190   -8.437590   -6.237970
  H      4.978130  -11.755150   -1.917500
  H      5.696340  -14.020280   -5.115810
  H      5.151360  -14.125830   -2.097550
  H      5.021550  -16.203350   -1.048630
  H      6.131170  -18.560410   -5.214570
  H      5.911140  -16.145780   -5.243280
  H      4.286580  -19.895230   -5.422790
  H      2.903070  -19.444440   -6.931430
  H      2.517320  -19.801430   -8.619870
  H      4.465400  -18.210480   -8.451910
  H      4.902990  -19.728140   -9.246440
  H      5.375680  -19.446020   -7.572620
  H      4.559530  -26.014090   -5.454590
  H      6.119970  -26.023160   -6.330880
  H      3.457670  -27.048530   -7.439660
  H      4.785160  -28.068920   -6.869980
  H      4.996730  -27.053730   -8.302200
  H      6.130820  -24.449520   -4.702870
  H      8.069360  -23.402050   -1.343170
  H      6.157250  -25.303260   -2.791900
  H      7.491240  -25.720890   -1.614460

 Total Charge           Charge          ....    0
 Multiplicity           Mult            ....    1
 Number of Electrons    NEL             ....  500
 Basis Dimension        Dim             .... 1079

ORBITAL ENERGIES
----------------

  NO   OCC          E(Eh)            E(eV)
   0   2.0000     -88.988172     -2421.4913
   1   2.0000     -88.981749     -2421.3165
   2   2.0000     -88.979259     -2421.2487
   3   2.0000     -88.960601     -2420.7410
   4   2.0000     -88.922720     -2419.7102
   5   2.0000     -88.920358     -2419.6460
   6   2.0000     -19.246755      -523.7308
   7   2.0000     -19.246139      -523.7141
   8   2.0000     -19.243699      -523.6477
   9   2.0000     -19.242673      -523.6198
  10   2.0000     -19.241562      -523.5895
  11   2.0000     -19.241326      -523.5831
  12   2.0000     -19.239760      -523.5405
  13   2.0000     -19.238550      -523.5075
  14   2.0000     -19.218148      -522.9524
  15   2.0000     -14.654659      -398.7735
  16   2.0000     -14.652252      -398.7081
  17   2.0000     -14.646666      -398.5560
  18   2.0000     -10.383460      -282.5483
  19   2.0000     -10.380865      -282.4777
  20   2.0000     -10.370427      -282.1937
  21   2.0000     -10.357959      -281.8544
  22   2.0000     -10.346489      -281.5423
  23   2.0000     -10.332064      -281.1498
  24   2.0000     -10.327816      -281.0342
  25   2.0000     -10.325319      -280.9662
  26   2.0000     -10.321742      -280.8689
  27   2.0000     -10.319207      -280.7999
  28   2.0000     -10.318338      -280.7762
  29   2.0000     -10.317951      -280.7657
  30   2.0000     -10.317856      -280.7631
  31   2.0000     -10.315293      -280.6934
  32   2.0000     -10.313006      -280.6312
  33   2.0000     -10.309752      -280.5426
  34   2.0000     -10.309436      -280.5340
  35   2.0000     -10.305965      -280.4396
  36   2.0000     -10.305910      -280.4381
  37   2.0000     -10.305656      -280.4312
  38   2.0000     -10.303364      -280.3688
  39   2.0000     -10.302775      -280.3528
  40   2.0000     -10.301731      -280.3244
  41   2.0000     -10.301333      -280.3135
  42   2.0000     -10.301093      -280.3070
  43   2.0000     -10.301084      -280.3068
  44   2.0000     -10.300731      -280.2971
  45   2.0000     -10.300622      -280.2942
  46   2.0000     -10.300177      -280.2821
  47   2.0000     -10.297628      -280.2127
  48   2.0000     -10.296767      -280.1893
  49   2.0000     -10.296355      -280.1781
  50   2.0000     -10.294664      -280.1321
  51   2.0000     -10.294606      -280.1305
  52   2.0000     -10.294256      -280.1209
  53   2.0000     -10.291408      -280.0434
  54   2.0000     -10.289646      -279.9955
  55   2.0000     -10.287368      -279.9335
  56   2.0000     -10.284725      -279.8616
  57   2.0000     -10.283326      -279.8235
  58   2.0000     -10.282717      -279.8070
  59   2.0000     -10.278647      -279.6962
  60   2.0000     -10.274540      -279.5844
  61   2.0000     -10.273071      -279.5445
  62   2.0000     -10.267924      -279.4044
  63   2.0000     -10.267101      -279.3820
  64   2.0000     -10.266680      -279.3706
  65   2.0000      -8.083163      -219.9540
  66   2.0000      -8.075181      -219.7369
  67   2.0000      -8.074408      -219.7158
  68   2.0000      -8.055982      -219.2144
  69   2.0000      -8.018246      -218.1876
  70   2.0000      -8.015941      -218.1249
  71   2.0000      -6.052154      -164.6875
  72   2.0000      -6.048150      -164.5785
  73   2.0000      -6.045827      -164.5153
  74   2.0000      -6.044441      -164.4776
  75   2.0000      -6.043725      -164.4581
  76   2.0000      -6.039734      -164.3495
  77   2.0000      -6.039059      -164.3311
  78   2.0000      -6.037847      -164.2982
  79   2.0000      -6.037057      -164.2767
  80   2.0000      -6.024918      -163.9464
  81   2.0000      -6.020828      -163.8351
  82   2.0000      -6.018769      -163.7790
  83   2.0000      -5.988626      -162.9588
  84   2.0000      -5.986244      -162.8940
  85   2.0000      -5.984318      -162.8416
  86   2.0000      -5.982129      -162.7820
  87   2.0000      -5.978142      -162.6735
  88   2.0000      -5.975801      -162.6098
  89   2.0000      -1.336012       -36.3547
  90   2.0000      -1.322925       -35.9986
  91   2.0000      -1.317708       -35.8566
  92   2.0000      -1.150489       -31.3064
  93   2.0000      -1.149841       -31.2888
  94   2.0000      -1.149619       -31.2827
  95   2.0000      -1.141358       -31.0579
  96   2.0000      -1.141202       -31.0537
  97   2.0000      -1.135275       -30.8924
  98   2.0000      -1.019863       -27.7519
  99   2.0000      -1.017031       -27.6748
 100   2.0000      -1.015580       -27.6353
 101   2.0000      -1.002925       -27.2910
 102   2.0000      -0.985403       -26.8142
 103   2.0000      -0.974640       -26.5213
 104   2.0000      -0.960275       -26.1304
 105   2.0000      -0.954936       -25.9851
 106   2.0000      -0.952559       -25.9204
 107   2.0000      -0.932054       -25.3625
 108   2.0000      -0.923811       -25.1382
 109   2.0000      -0.905465       -24.6389
 110   2.0000      -0.903107       -24.5748
 111   2.0000      -0.897014       -24.4090
 112   2.0000      -0.890944       -24.2438
 113   2.0000      -0.883234       -24.0340
 114   2.0000      -0.873976       -23.7821
 115   2.0000      -0.864128       -23.5141
 116   2.0000      -0.860985       -23.4286
 117   2.0000      -0.855325       -23.2746
 118   2.0000      -0.847323       -23.0568
 119   2.0000      -0.845930       -23.0189
 120   2.0000      -0.843411       -22.9504
 121   2.0000      -0.824684       -22.4408
 122   2.0000      -0.811106       -22.0713
 123   2.0000      -0.802519       -21.8377
 124   2.0000      -0.799380       -21.7522
 125   2.0000      -0.789149       -21.4738
 126   2.0000      -0.778971       -21.1969
 127   2.0000      -0.776139       -21.1198
 128   2.0000      -0.772227       -21.0134
 129   2.0000      -0.765285       -20.8245
 130   2.0000      -0.760724       -20.7004
 131   2.0000      -0.755504       -20.5583
 132   2.0000      -0.732911       -19.9435
 133   2.0000      -0.721670       -19.6376
 134   2.0000      -0.713644       -19.4192
 135   2.0000      -0.706613       -19.2279
 136   2.0000      -0.697536       -18.9809
 137   2.0000      -0.687383       -18.7046
 138   2.0000      -0.680627       -18.5208
 139   2.0000      -0.677106       -18.4250
 140   2.0000      -0.667074       -18.1520
 141   2.0000      -0.664873       -18.0921
 142   2.0000      -0.662452       -18.0262
 143   2.0000      -0.657206       -17.8835
 144   2.0000      -0.650872       -17.7111
 145   2.0000      -0.648959       -17.6591
 146   2.0000      -0.644752       -17.5446
 147   2.0000      -0.640702       -17.4344
 148   2.0000      -0.639366       -17.3980
 149   2.0000      -0.635818       -17.3015
 150   2.0000      -0.633284       -17.2325
 151   2.0000      -0.626645       -17.0519
 152   2.0000      -0.625073       -17.0091
 153   2.0000      -0.620941       -16.8967
 154   2.0000      -0.616115       -16.7653
 155   2.0000      -0.613889       -16.7048
 156   2.0000      -0.606631       -16.5073
 157   2.0000      -0.598418       -16.2838
 158   2.0000      -0.594169       -16.1682
 159   2.0000      -0.592430       -16.1208
 160   2.0000      -0.585681       -15.9372
 161   2.0000      -0.584024       -15.8921
 162   2.0000      -0.582537       -15.8516
 163   2.0000      -0.581710       -15.8291
 164   2.0000      -0.578880       -15.7521
 165   2.0000      -0.571080       -15.5399
 166   2.0000      -0.564198       -15.3526
 167   2.0000      -0.563676       -15.3384
 168   2.0000      -0.555877       -15.1262
 169   2.0000      -0.550633       -14.9835
 170   2.0000      -0.547201       -14.8901
 171   2.0000      -0.545160       -14.8346
 172   2.0000      -0.543578       -14.7915
 173   2.0000      -0.541289       -14.7292
 174   2.0000      -0.539716       -14.6864
 175   2.0000      -0.537765       -14.6333
 176   2.0000      -0.534089       -14.5333
 177   2.0000      -0.533802       -14.5255
 178   2.0000      -0.531992       -14.4762
 179   2.0000      -0.528825       -14.3901
 180   2.0000      -0.525773       -14.3070
 181   2.0000      -0.522053       -14.2058
 182   2.0000      -0.517920       -14.0933
 183   2.0000      -0.511186       -13.9101
 184   2.0000      -0.511068       -13.9069
 185   2.0000      -0.504623       -13.7315
 186   2.0000      -0.502650       -13.6778
 187   2.0000      -0.499480       -13.5916
 188   2.0000      -0.498321       -13.5600
 189   2.0000      -0.493655       -13.4330
 190   2.0000      -0.490021       -13.3342
 191   2.0000      -0.486904       -13.2493
 192   2.0000      -0.486172       -13.2294
 193   2.0000      -0.483821       -13.1654
 194   2.0000      -0.482956       -13.1419
 195   2.0000      -0.481640       -13.1061
 196   2.0000      -0.480786       -13.0829
 197   2.0000      -0.479727       -13.0540
 198   2.0000      -0.473393       -12.8817
 199   2.0000      -0.473072       -12.8730
 200   2.0000      -0.470538       -12.8040
 201   2.0000      -0.467104       -12.7106
 202   2.0000      -0.466871       -12.7042
 203   2.0000      -0.459187       -12.4951
 204   2.0000      -0.456176       -12.4132
 205   2.0000      -0.450462       -12.2577
 206   2.0000      -0.445888       -12.1332
 207   2.0000      -0.444455       -12.0942
 208   2.0000      -0.443899       -12.0791
 209   2.0000      -0.441089       -12.0027
 210   2.0000      -0.440157       -11.9773
 211   2.0000      -0.438013       -11.9189
 212   2.0000      -0.437071       -11.8933
 213   2.0000      -0.431829       -11.7507
 214   2.0000      -0.429856       -11.6970
 215   2.0000      -0.425032       -11.5657
 216   2.0000      -0.422538       -11.4978
 217   2.0000      -0.421290       -11.4639
 218   2.0000      -0.409713       -11.1489
 219   2.0000      -0.405507       -11.0344
 220   2.0000      -0.404029       -10.9942
 221   2.0000      -0.400735       -10.9046
 222   2.0000      -0.395486       -10.7617
 223   2.0000      -0.391447       -10.6518
 224   2.0000      -0.386130       -10.5071
 225   2.0000      -0.383189       -10.4271
 226   2.0000      -0.381862       -10.3910
 227   2.0000      -0.378669       -10.3041
 228   2.0000      -0.374045       -10.1783
 229   2.0000      -0.371895       -10.1198
 230   2.0000      -0.369805       -10.0629
 231   2.0000      -0.366243        -9.9660
 232   2.0000      -0.361042        -9.8244
 233   2.0000      -0.352881        -9.6024
 234   2.0000      -0.352370        -9.5885
 235   2.0000      -0.351403        -9.5622
 236   2.0000      -0.350183        -9.5290
 237   2.0000      -0.348097        -9.4722
 238   2.0000      -0.347062        -9.4440
 239   2.0000      -0.345666        -9.4060
 240   2.0000      -0.335166        -9.1203
 241   2.0000      -0.333155        -9.0656
 242   2.0000      -0.331934        -9.0324
 243   2.0000      -0.320886        -8.7317
 244   2.0000      -0.311905        -8.4874
 245   2.0000      -0.300489        -8.1767
 246   2.0000      -0.279225        -7.5981
 247   2.0000      -0.264769        -7.2047
 248   2.0000      -0.245407        -6.6779
 249   2.0000      -0.232499        -6.3266
 250   0.0000      -0.113847        -3.0979
 251   0.0000      -0.091324        -2.4851
 252   0.0000      -0.076574        -2.0837
 253   0.0000      -0.060561        -1.6479
 254   0.0000      -0.051242        -1.3944

MULLIKEN ATOMIC CHARGES
-----------------------
   0 C :   -0.126671
   1 C :    0.047710
   2 C :    0.019110
   3 C :   -0.131152
   4 S :    0.150146
   5 C :    0.177816
   6 O :   -0.189487
   7 C :   -0.095735
   8 C :    0.236554
   9 C :    0.027986
  10 N :    0.198795
  11 O :   -0.211652
  12 O :   -0.219644
  13 N :    0.265526
  14 O :   -0.229953
  15 O :   -0.253071
  16 C :   -0.032376
  17 C :   -0.079907
  18 S :    0.237634
  19 C :    0.005900
  20 C :    0.017162
  21 C :   -0.021255
  22 C :    0.178316
  23 O :   -0.118910
  24 C :    0.015760
  25 C :   -0.061130
  26 C :   -0.050813
  27 C :    0.068272
  28 C :   -0.102223
  29 S :    0.193625
  30 C :   -0.050196
  31 C :   -0.008217
  32 C :    0.004866
  33 C :    0.162204
  34 O :   -0.110864
  35 C :   -0.034030
  36 C :   -0.029475
  37 C :    0.024559
  38 C :    0.011602
  39 C :    0.117709
  40 C :   -0.073074
  41 C :    0.120139
  42 N :    0.231852
  43 O :   -0.236194
  44 O :   -0.217721
  45 C :    0.068738
  46 C :   -0.022451
  47 C :    0.012297
  48 C :   -0.184281
  49 S :    0.185069
  50 C :   -0.148165
  51 C :    0.129892
  52 C :    0.158699
  53 C :   -0.102100
  54 C :   -0.017283
  55 S :    0.003533
  56 C :   -0.125761
  57 C :    0.029814
  58 C :   -0.009442
  59 S :   -0.017639
  60 C :   -0.139987
  61 C :    0.033547
  62 C :   -0.098941
  63 C :    0.018989
  64 C :   -0.026447
  65 H :    0.047554
  66 H :    0.036069
  67 H :    0.019252
  68 H :    0.016597
  69 H :   -0.006388
  70 H :   -0.021445
  71 H :    0.017045
  72 H :   -0.001145
  73 H :   -0.003024
  74 H :   -0.004544
  75 H :   -0.022234
  76 H :   -0.001104
  77 H :   -0.010720
  78 H :   -0.011698
  79 H :   -0.040559
  80 H :    0.058942
  81 H :    0.055756
  82 H :    0.021223
  83 H :    0.027681
  84 H :    0.028081
  85 H :    0.058716
  86 H :    0.064490
  87 H :    0.030630
  88 H :    0.027031
  89 H :    0.027959
  90 H :   -0.040119
  91 H :   -0.001094
  92 H :    0.023077
  93 H :    0.026395
Sum of atomic charges:    0.0000000

LOEWDIN ATOMIC CHARGES
----------------------
   0 C :   -0.150648
   1 C :   -0.062898
   2 C :   -0.089365
   3 C :   -0.144305
   4 S :    0.483642
   5 C :    0.086018
   6 O :   -0.175397
   7 C :   -0.122428
   8 C :    0.058410
   9 C :   -0.078960
  10 N :    0.269222
  11 O :   -0.182965
  12 O :   -0.186964
  13 N :    0.280418
  14 O :   -0.194995
  15 O :   -0.213137
  16 C :    0.056872
  17 C :   -0.192012
  18 S :    0.538835
  19 C :   -0.141796
  20 C :   -0.119837
  21 C :    0.032380
  22 C :    0.102826
  23 O :   -0.104217
  24 C :   -0.024697
  25 C :   -0.029192
  26 C :   -0.037910
  27 C :   -0.005291
  28 C :   -0.177078
  29 S :    0.484874
  30 C :   -0.163150
  31 C :   -0.106322
  32 C :   -0.002536
  33 C :    0.099477
  34 O :   -0.101876
  35 C :   -0.050204
  36 C :   -0.002633
  37 C :   -0.022369
  38 C :    0.003466
  39 C :   -0.031865
  40 C :    0.010863
  41 C :   -0.036811
  42 N :    0.276979
  43 O :   -0.203897
  44 O :   -0.195564
  45 C :   -0.014678
  46 C :   -0.010179
  47 C :    0.011106
  48 C :   -0.199011
  49 S :    0.494971
  50 C :   -0.174505
  51 C :   -0.045775
  52 C :   -0.032056
  53 C :   -0.061092
  54 C :   -0.161875
  55 S :    0.298776
  56 C :   -0.134268
  57 C :   -0.072196
  58 C :   -0.167941
  59 S :    0.287882
  60 C :   -0.130283
  61 C :   -0.067074
  62 C :   -0.050881
  63 C :   -0.041484
  64 C :   -0.045428
  65 H :    0.029691
  66 H :    0.034667
  67 H :    0.039571
  68 H :    0.047136
  69 H :    0.032473
  70 H :    0.029349
  71 H :    0.035172
  72 H :    0.039314
  73 H :    0.032121
  74 H :    0.031655
  75 H :    0.028314
  76 H :    0.038647
  77 H :    0.036507
  78 H :    0.033714
  79 H :    0.023860
  80 H :    0.021631
  81 H :    0.031939
  82 H :    0.027014
  83 H :    0.029741
  84 H :    0.023461
  85 H :    0.023252
  86 H :    0.021357
  87 H :    0.028736
  88 H :    0.032124
  89 H :    0.027954
  90 H :    0.025103
  91 H :    0.030691
  92 H :    0.020825
  93 H :    0.027009

  Mayer bond orders larger than 0.100000
B(  0-C ,  1-C ) :   1.5382 B(  0-C ,  4-S ) :   1.1893 B(  0-C , 65-H ) :   0.9592
B(  1-C ,  2-C ) :   1.2424 B(  1-C ,  8-C ) :   1.0109 B(  2-C ,  3-C ) :   1.5488
B(  2-C ,  5-C ) :   0.9695 B(  3-C ,  4-S ) :   1.1802 B(  3-C , 66-H ) :   0.9724
B(  5-C ,  6-O ) :   2.1139 B(  5-C ,  7-C ) :   0.9912 B(  7-C ,  8-C ) :   1.1390
B(  7-C , 16-C ) :   1.4222 B(  8-C ,  9-C ) :   1.5380 B(  9-C , 10-N ) :   0.8779
B(  9-C , 13-N ) :   0.9688 B( 10-N , 11-O ) :   1.5353 B( 10-N , 12-O ) :   1.5277
B( 11-O , 12-O ) :   0.2883 B( 13-N , 14-O ) :   1.5250 B( 13-N , 15-O ) :   1.4516
B( 14-O , 15-O ) :   0.2506 B( 15-O , 67-H ) :   0.1096 B( 16-C , 17-C ) :   1.3371
B( 16-C , 67-H ) :   0.9335 B( 17-C , 18-S ) :   1.0509 B( 17-C , 21-C ) :   1.2806
B( 18-S , 19-C ) :   1.1607 B( 19-C , 20-C ) :   1.3207 B( 19-C , 25-C ) :   1.0963
B( 20-C , 21-C ) :   1.3863 B( 20-C , 22-C ) :   0.9354 B( 21-C , 68-H ) :   1.0169
B( 22-C , 23-O ) :   2.2212 B( 22-C , 24-C ) :   0.9062 B( 24-C , 25-C ) :   1.5246
B( 24-C , 26-C ) :   1.2069 B( 25-C , 69-H ) :   1.0275 B( 26-C , 27-C ) :   1.5893
B( 26-C , 70-H ) :   0.9797 B( 27-C , 28-C ) :   1.1494 B( 27-C , 71-H ) :   0.9500
B( 28-C , 29-S ) :   1.1063 B( 28-C , 32-C ) :   1.3997 B( 29-S , 30-C ) :   1.1577
B( 30-C , 31-C ) :   1.4135 B( 30-C , 36-C ) :   1.0773 B( 31-C , 32-C ) :   1.3532
B( 31-C , 33-C ) :   0.9180 B( 32-C , 72-H ) :   1.0002 B( 33-C , 34-O ) :   2.2676
B( 33-C , 35-C ) :   0.9147 B( 35-C , 36-C ) :   1.6078 B( 35-C , 37-C ) :   1.1480
B( 36-C , 73-H ) :   1.0143 B( 37-C , 38-C ) :   1.6191 B( 37-C , 74-H ) :   0.9652
B( 38-C , 39-C ) :   1.0961 B( 38-C , 75-H ) :   0.9865 B( 39-C , 40-C ) :   1.2829
B( 39-C , 47-C ) :   1.3002 B( 40-C , 41-C ) :   1.3759 B( 40-C , 76-H ) :   0.9992
B( 41-C , 42-N ) :   0.8720 B( 41-C , 45-C ) :   1.3550 B( 42-N , 43-O ) :   1.5390
B( 42-N , 44-O ) :   1.5427 B( 43-O , 44-O ) :   0.2688 B( 45-C , 46-C ) :   1.3407
B( 45-C , 48-C ) :   1.0375 B( 46-C , 47-C ) :   1.4242 B( 46-C , 77-H ) :   0.9884
B( 47-C , 78-H ) :   0.9916 B( 48-C , 49-S ) :   1.1553 B( 48-C , 50-C ) :   0.1142
B( 48-C , 52-C ) :   1.3922 B( 49-S , 50-C ) :   1.1779 B( 50-C , 51-C ) :   1.3801
B( 50-C , 63-C ) :   1.0912 B( 51-C , 52-C ) :   1.2068 B( 51-C , 62-C ) :   1.1700
B( 52-C , 53-C ) :   1.1921 B( 53-C , 54-C ) :   1.5386 B( 53-C , 79-H ) :   0.9825
B( 54-C , 55-S ) :   1.0292 B( 54-C , 58-C ) :   1.2440 B( 55-S , 56-C ) :   1.0121
B( 56-C , 57-C ) :   1.0599 B( 56-C , 80-H ) :   0.9455 B( 56-C , 81-H ) :   0.9532
B( 57-C , 82-H ) :   0.9624 B( 57-C , 83-H ) :   0.9660 B( 57-C , 84-H ) :   0.9720
B( 58-C , 59-S ) :   1.0233 B( 58-C , 62-C ) :   1.5478 B( 59-S , 60-C ) :   0.9980
B( 60-C , 61-C ) :   1.0827 B( 60-C , 85-H ) :   0.9496 B( 60-C , 86-H ) :   0.9437
B( 61-C , 87-H ) :   0.9701 B( 61-C , 88-H ) :   0.9678 B( 61-C , 89-H ) :   0.9696
B( 62-C , 90-H ) :   0.9844 B( 63-C , 64-C ) :   1.9348 B( 63-C , 91-H ) :   0.9489
B( 64-C , 92-H ) :   0.9572 B( 64-C , 93-H ) :   0.9473

-----------------------------------------------------------------------------
         ABSORPTION SPECTRUM VIA TRANSITION ELECTRIC DIPOLE MOMENTS
-----------------------------------------------------------------------------
State   Energy  Wavelength   fosc         T2         TX        TY        TZ
        (cm-1)    (nm)                  (au**2)     (au)      (au)      (au)
-----------------------------------------------------------------------------
   0   12249.4    816.4   1.947491280  52.34021  -0.08683  -7.19868   0.71536
   1   16035.2    623.6   0.007279043   0.14944   0.22224   0.30939  -0.06580
   2   17709.7    564.7   0.088825266   1.65120  -0.15619   1.22194   0.36560
   3   20257.5    493.6   0.155713151   2.53055   0.27977   1.56429   0.07263
   4   20412.5    489.9   0.245784098   3.96400  -0.10819   1.90259   0.57660
   5   22388.4    446.7   0.032995336   0.48518  -0.12631   0.47701  -0.49162
   6   23717.8    421.6   0.036351723   0.50457   0.23147   0.45343   0.49537
   7   23990.4    416.8   0.025055947   0.34383  -0.27192   0.04376  -0.51767
   8   25400.7    393.7   0.021992953   0.28504   0.05238   0.45937  -0.26698
   9   25663.2    389.7   0.343031053   4.40047   0.02561  -1.82845   1.02790
  10   26514.5    377.2   0.000326536   0.00405  -0.02856   0.04860  -0.02962
  11   26793.3    373.2   0.172334442   2.11749   0.18551  -1.35728   0.49079
  12   27523.4    363.3   0.208046384   2.48848  -0.06839  -1.40513  -0.71373
  13   27944.4    357.9   0.075619316   0.89087   0.41345  -0.08080   0.84463
  14   28117.5    355.7   0.010171359   0.11909   0.21513  -0.25262   0.09484
  15   28399.8    352.1   0.026485187   0.30702  -0.27924  -0.15519  -0.45273
  16   28746.3    347.9   0.017221756   0.19723  -0.06981   0.03279  -0.43736
  17   29385.4    340.3   0.107334565   1.20250   0.28261  -0.63627   0.84723
  18   29536.6    338.6   0.205728994   2.29304  -0.04122   1.46291  -0.38889
  19   30521.2    327.6   0.068389817   0.73767   0.14273   0.65803  -0.53320
  20   30779.5    324.9   0.018359384   0.19637   0.04207  -0.20380   0.39123
  21   31253.2    320.0   0.183072478   1.92843   0.14704   1.35978  -0.24045
  22   31657.5    315.9   0.055024713   0.57221  -0.38114  -0.60534  -0.24598
  23   31816.2    314.3   0.037925584   0.39243  -0.08670   0.42602   0.45101
  24   32130.2    311.2   0.030090297   0.30831   0.04222   0.50214   0.23319
  25   32901.7    303.9   0.007755364   0.07760   0.02161  -0.07006   0.26875
  26   33122.4    301.9   0.080660902   0.80171  -0.34967  -0.68223  -0.46261
  27   33365.3    299.7   0.018344524   0.18100   0.35810   0.08063   0.21510
  28   33731.1    296.5   0.188135460   1.83618   0.22920  -0.71315   1.12919
  29   33970.5    294.4   0.007990505   0.07744   0.03529  -0.21578   0.17214
  30   34474.8    290.1   0.115135769   1.09947   0.08846  -0.56224   0.88064
  31   34680.4    288.3   0.099129636   0.94101  -0.00217   0.25986  -0.93460
  32   34824.0    287.2   0.116522877   1.10156  -0.12839  -0.99100   0.32094
  33   35149.2    284.5   0.146858855   1.37550   0.05210  -1.17003   0.06174
  34   35397.5    282.5   0.041244314   0.38359  -0.06630   0.20282   0.58143
  35   35445.9    282.1   0.130614516   1.21311   0.12510  -0.95203  -0.53955
  36   36027.1    277.6   0.030450062   0.27825  -0.06407  -0.34441   0.39437
  37   36038.1    277.5   0.035551237   0.32476   0.11485   0.28651  -0.47905
  38   36439.4    274.4   0.006590884   0.05955  -0.01360   0.15502  -0.18796
  39   36804.3    271.7   0.012294645   0.10997   0.03487   0.32976  -0.00417
  40   36988.2    270.4   0.079333468   0.70610   0.14264   0.46453  -0.68555
  41   37102.1    269.5   0.050529384   0.44835  -0.08550  -0.19458   0.63497
  42   37639.0    265.7   0.064177631   0.56133   0.16045   0.24005   0.69135
  43   37832.7    264.3   0.015230473   0.13253  -0.08549   0.13955  -0.32519
  44   37855.9    264.2   0.099022860   0.86115  -0.41430   0.71548  -0.42141
  45   37927.3    263.7   0.005011463   0.04350  -0.04169  -0.08499   0.18584
  46   38321.1    261.0   0.033352216   0.28652  -0.05218  -0.06513  -0.52873
  47   38604.7    259.0   0.012095994   0.10315  -0.19186  -0.11294  -0.23149
  48   38660.6    258.7   0.111633739   0.95061  -0.45189  -0.18793  -0.84326
  49   38759.0    258.0   0.019736165   0.16764  -0.26304   0.05020  -0.30972
  50   38919.4    256.9   0.002432308   0.02057   0.01681  -0.06528  -0.12661
  51   39007.2    256.4   0.050941772   0.42994  -0.13283   0.25259   0.59033
  52   39161.2    255.4   0.010190503   0.08567  -0.02907  -0.16505  -0.23996
  53   39363.5    254.0   0.122917127   1.02800  -0.18906   0.95986  -0.26631
  54   39535.2    252.9   0.042025439   0.34995  -0.15614  -0.04047  -0.56915
  55   39668.4    252.1   0.065584745   0.54429   0.10461   0.66767  -0.29592
  56   40055.9    249.7   0.040260900   0.33090  -0.01711   0.57406   0.03253
  57   40253.3    248.4   0.023294981   0.19052   0.10139   0.12709   0.40507
  58   40289.1    248.2   0.137075026   1.12007  -0.43099  -0.36867  -0.89354

FINAL SINGLE POINT ENERGY     -5034.445950394085

DIPOLE MOMENT
-------------
                                X             Y             Z
Electronic contribution:      4.67155     154.87571      15.60333
Nuclear contribution   :     -4.77156    -157.81340     -18.19432
                        -----------------------------------------
Total Dipole Moment    :     -0.10001      -2.93769      -2.59099
                        -----------------------------------------
Magnitude (a.u.)       :      3.91833
Magnitude (Debye)      :      9.95960

Rotational constants in cm-1:     0.003307     0.000143     0.000138
Rotational constants in MHz :    99.143751     4.273931     4.127768

                             ****ORCA TERMINATED NORMALLY****
TOTAL RUN TIME: 0 days 0 hours 7 minutes 49 seconds 544 msec
