                         Program Version 4.2.0 -  RELEASE  -
|  1> # ORCA input file
|  2> # SCF done       -183.284061944827          0.000654496044
|  3> ! CAM-B3LYP def2-SVP def2/J RIJCOSX Grid4 TightSCF
|  4> %maxcore 5000
|  5> %tddft
|  6>     Mode sTDDFT
|  7>     Ethresh 5.0
|  8>     maxcore 5000
|  9> end
| 10>
| 11> %pal
| 12>   nprocs 6
| 13>   end
| 14> * xyz 0 1
| 15>    C        7.29283         2.74225         3.73587
| 16>    C        7.10163         1.54176         3.11682
| 17>    C        6.15209         1.63101         2.04474
| 18>    C        5.63624         2.87424         1.88176
| 19>    S        6.31636         3.96765         3.02900
| 20>    C        5.99273         0.32343         1.39607
| 21>    O        5.26358         0.06051         0.46766
| 22>    C        6.96045        -0.55943         2.10382
| 23>    C        7.50646         0.15567         3.24732
| 24>    C        8.14257        -0.43457         4.30830
| 25>    N        8.81524         0.27841         5.34799
| 26>    O        8.89846        -0.26289         6.42808
| 27>    O        9.25035         1.38192         5.08382
| 28>    N        8.11337        -1.87207         4.52807
| 29>    O        9.16072        -2.41023         4.79244
| 30>    O        7.03872        -2.41962         4.42598
| 31>    C        7.46491        -1.76473         1.67871
| 32>    C        7.04843        -2.63381         0.66063
| 33>    S        8.07896        -4.04475         0.37594
| 34>    C        7.02742        -4.60257        -0.83373
| 35>    C        5.92431        -3.74567        -1.01247
| 36>    C        5.92710        -2.64968        -0.17492
| 37>    C        5.09445        -4.32398        -2.08709
| 38>    O        4.06349        -3.92582        -2.56174
| 39>    C        5.83688        -5.58400        -2.49658
| 40>    C        6.96710        -5.70731        -1.72307
| 41>    C        5.33377        -6.38589        -3.54063
| 42>    C        5.88386        -7.54728        -3.98962
| 43>    C        5.37085        -8.29419        -5.06868
| 44>    S        3.98247        -7.81241        -6.01973
| 45>    C        4.07109        -9.18177        -7.08927
| 46>    C        5.14208        -9.99733        -6.71772
| 47>    C        5.84874        -9.48448        -5.59523
| 48>    O        6.87764       -10.28375        -5.26517
| 49>    C        6.84162       -11.30230        -6.16398
| 50>    N        7.82806       -12.31969        -6.05089
| 51>    O        7.75619       -13.22661        -6.85446
| 52>    O        8.65129       -12.20869        -5.17203
| 53>    C        5.82084       -11.19296        -7.07010
| 54>    C        3.17417        -9.32604        -8.17348
| 55>    S        1.98445        -8.11199        -8.51074
| 56>    C        1.46068        -8.94558        -9.93971
| 57>    C        0.36823        -8.42954       -10.77678
| 58>    O        0.02133        -8.96907       -11.79879
| 59>    O       -0.23536        -7.31140       -10.36079
| 60>    C        2.17600       -10.12542       -10.11946
| 61>    C        3.11721       -10.34596        -9.10128
| 62>    C        2.03229       -11.04794       -11.23280
| 63>    C        2.07746       -10.74688       -12.53882
| 64>    C        2.26719        -9.44711       -13.19435
| 65>    C        3.13568        -8.48678       -12.76662
| 66>    N        3.31360        -7.19390       -13.36482
| 67>    O        2.39849        -6.73800       -14.01378
| 68>    O        4.38195        -6.65461       -13.18591
| 69>    N        4.03239        -8.71890       -11.65016
| 70>    O        4.08937        -7.85767       -10.80202
| 71>    O        4.64538        -9.75997       -11.63283
| 72>    C        1.50820        -9.52010       -14.41978
| 73>    C        1.06752        -8.68738       -15.41067
| 74>    S        0.23193        -9.55886       -16.62576
| 75>    C        0.45766       -11.06657       -15.82207
| 76>    C        1.14065       -10.89159       -14.66319
| 77>    C        1.57299       -11.73894       -13.54849
| 78>    O        1.49296       -12.93008       -13.40881
| 79>    H        7.96496         2.99543         4.53127
| 80>    H        4.90695         3.21269         1.17338
| 81>    H        8.36500        -2.10880         2.17815
| 82>    H        5.17857        -1.87826        -0.15467
| 83>    H        7.69834        -6.49307        -1.77126
| 84>    H        4.43130        -6.01308        -4.01191
| 85>    H        6.77121        -7.95491        -3.52515
| 86>    H        5.62352       -11.88361        -7.86306
| 87>    H        0.12825        -6.94084        -9.54496
| 88>    H        3.77090       -11.19672        -9.09029
| 89>    H        1.86841       -12.08862       -10.97644
| 90>    H        1.15112        -7.62115       -15.47888
| 91>    H        0.07517       -11.97343       -16.24619
| 92> *
| 93>
| 94>                          ****END OF INPUT****

CARTESIAN COORDINATES (ANGSTROEM)
---------------------------------
  C      7.292830    2.742250    3.735870
  C      7.101630    1.541760    3.116820
  C      6.152090    1.631010    2.044740
  C      5.636240    2.874240    1.881760
  S      6.316360    3.967650    3.029000
  C      5.992730    0.323430    1.396070
  O      5.263580    0.060510    0.467660
  C      6.960450   -0.559430    2.103820
  C      7.506460    0.155670    3.247320
  C      8.142570   -0.434570    4.308300
  N      8.815240    0.278410    5.347990
  O      8.898460   -0.262890    6.428080
  O      9.250350    1.381920    5.083820
  N      8.113370   -1.872070    4.528070
  O      9.160720   -2.410230    4.792440
  O      7.038720   -2.419620    4.425980
  C      7.464910   -1.764730    1.678710
  C      7.048430   -2.633810    0.660630
  S      8.078960   -4.044750    0.375940
  C      7.027420   -4.602570   -0.833730
  C      5.924310   -3.745670   -1.012470
  C      5.927100   -2.649680   -0.174920
  C      5.094450   -4.323980   -2.087090
  O      4.063490   -3.925820   -2.561740
  C      5.836880   -5.584000   -2.496580
  C      6.967100   -5.707310   -1.723070
  C      5.333770   -6.385890   -3.540630
  C      5.883860   -7.547280   -3.989620
  C      5.370850   -8.294190   -5.068680
  S      3.982470   -7.812410   -6.019730
  C      4.071090   -9.181770   -7.089270
  C      5.142080   -9.997330   -6.717720
  C      5.848740   -9.484480   -5.595230
  O      6.877640  -10.283750   -5.265170
  C      6.841620  -11.302300   -6.163980
  N      7.828060  -12.319690   -6.050890
  O      7.756190  -13.226610   -6.854460
  O      8.651290  -12.208690   -5.172030
  C      5.820840  -11.192960   -7.070100
  C      3.174170   -9.326040   -8.173480
  S      1.984450   -8.111990   -8.510740
  C      1.460680   -8.945580   -9.939710
  C      0.368230   -8.429540  -10.776780
  O      0.021330   -8.969070  -11.798790
  O     -0.235360   -7.311400  -10.360790
  C      2.176000  -10.125420  -10.119460
  C      3.117210  -10.345960   -9.101280
  C      2.032290  -11.047940  -11.232800
  C      2.077460  -10.746880  -12.538820
  C      2.267190   -9.447110  -13.194350
  C      3.135680   -8.486780  -12.766620
  N      3.313600   -7.193900  -13.364820
  O      2.398490   -6.738000  -14.013780
  O      4.381950   -6.654610  -13.185910
  N      4.032390   -8.718900  -11.650160
  O      4.089370   -7.857670  -10.802020
  O      4.645380   -9.759970  -11.632830
  C      1.508200   -9.520100  -14.419780
  C      1.067520   -8.687380  -15.410670
  S      0.231930   -9.558860  -16.625760
  C      0.457660  -11.066570  -15.822070
  C      1.140650  -10.891590  -14.663190
  C      1.572990  -11.738940  -13.548490
  O      1.492960  -12.930080  -13.408810
  H      7.964960    2.995430    4.531270
  H      4.906950    3.212690    1.173380
  H      8.365000   -2.108800    2.178150
  H      5.178570   -1.878260   -0.154670
  H      7.698340   -6.493070   -1.771260
  H      4.431300   -6.013080   -4.011910
  H      6.771210   -7.954910   -3.525150
  H      5.623520  -11.883610   -7.863060
  H      0.128250   -6.940840   -9.544960
  H      3.770900  -11.196720   -9.090290
  H      1.868410  -12.088620  -10.976440
  H      1.151120   -7.621150  -15.478880
  H      0.075170  -11.973430  -16.246190

 Total Charge           Charge          ....    0
 Multiplicity           Mult            ....    1
 Number of Electrons    NEL             ....  484
 Basis Dimension        Dim             ....  981

ORBITAL ENERGIES
----------------

  NO   OCC          E(Eh)            E(eV)
   0   2.0000     -89.001209     -2421.8460
   1   2.0000     -88.999357     -2421.7956
   2   2.0000     -88.995475     -2421.6900
   3   2.0000     -88.989864     -2421.5373
   4   2.0000     -88.981916     -2421.3210
   5   2.0000     -19.334542      -526.1196
   6   2.0000     -19.281123      -524.6660
   7   2.0000     -19.268457      -524.3214
   8   2.0000     -19.267942      -524.3074
   9   2.0000     -19.261171      -524.1231
  10   2.0000     -19.260863      -524.1147
  11   2.0000     -19.259258      -524.0711
  12   2.0000     -19.258340      -524.0461
  13   2.0000     -19.254977      -523.9546
  14   2.0000     -19.252687      -523.8923
  15   2.0000     -19.247055      -523.7390
  16   2.0000     -19.246795      -523.7319
  17   2.0000     -19.244197      -523.6612
  18   2.0000     -19.224382      -523.1220
  19   2.0000     -19.219487      -522.9888
  20   2.0000     -19.217162      -522.9256
  21   2.0000     -14.674324      -399.3087
  22   2.0000     -14.673404      -399.2836
  23   2.0000     -14.671983      -399.2450
  24   2.0000     -14.661398      -398.9569
  25   2.0000     -14.658876      -398.8883
  26   2.0000     -10.429819      -283.8098
  27   2.0000     -10.409238      -283.2498
  28   2.0000     -10.386181      -282.6224
  29   2.0000     -10.380646      -282.4717
  30   2.0000     -10.379168      -282.4315
  31   2.0000     -10.375665      -282.3362
  32   2.0000     -10.375215      -282.3240
  33   2.0000     -10.365053      -282.0474
  34   2.0000     -10.363882      -282.0156
  35   2.0000     -10.355771      -281.7948
  36   2.0000     -10.353739      -281.7396
  37   2.0000     -10.350501      -281.6514
  38   2.0000     -10.343861      -281.4708
  39   2.0000     -10.341838      -281.4157
  40   2.0000     -10.338770      -281.3322
  41   2.0000     -10.334434      -281.2142
  42   2.0000     -10.332923      -281.1731
  43   2.0000     -10.329242      -281.0730
  44   2.0000     -10.328376      -281.0494
  45   2.0000     -10.327244      -281.0186
  46   2.0000     -10.326471      -280.9976
  47   2.0000     -10.326036      -280.9857
  48   2.0000     -10.324726      -280.9501
  49   2.0000     -10.320857      -280.8448
  50   2.0000     -10.320806      -280.8434
  51   2.0000     -10.320671      -280.8397
  52   2.0000     -10.319488      -280.8076
  53   2.0000     -10.314495      -280.6717
  54   2.0000     -10.314175      -280.6630
  55   2.0000     -10.314102      -280.6610
  56   2.0000     -10.314050      -280.6596
  57   2.0000     -10.307356      -280.4774
  58   2.0000     -10.305532      -280.4278
  59   2.0000     -10.305309      -280.4217
  60   2.0000     -10.302812      -280.3538
  61   2.0000     -10.299307      -280.2584
  62   2.0000     -10.294213      -280.1198
  63   2.0000     -10.291404      -280.0433
  64   2.0000      -8.095884      -220.3002
  65   2.0000      -8.095127      -220.2796
  66   2.0000      -8.090640      -220.1575
  67   2.0000      -8.085865      -220.0276
  68   2.0000      -8.077926      -219.8115
  69   2.0000      -6.065237      -165.0435
  70   2.0000      -6.064442      -165.0218
  71   2.0000      -6.061125      -164.9316
  72   2.0000      -6.060260      -164.9081
  73   2.0000      -6.059556      -164.8889
  74   2.0000      -6.057924      -164.8445
  75   2.0000      -6.057191      -164.8245
  76   2.0000      -6.055610      -164.7815
  77   2.0000      -6.054960      -164.7638
  78   2.0000      -6.053317      -164.7191
  79   2.0000      -6.050252      -164.6357
  80   2.0000      -6.048817      -164.5967
  81   2.0000      -6.047122      -164.5505
  82   2.0000      -6.042390      -164.4218
  83   2.0000      -6.040719      -164.3763
  84   2.0000      -1.356270       -36.9060
  85   2.0000      -1.345841       -36.6222
  86   2.0000      -1.342480       -36.5307
  87   2.0000      -1.338522       -36.4230
  88   2.0000      -1.324635       -36.0451
  89   2.0000      -1.256251       -34.1843
  90   2.0000      -1.205665       -32.8078
  91   2.0000      -1.170556       -31.8525
  92   2.0000      -1.162916       -31.6446
  93   2.0000      -1.161616       -31.6092
  94   2.0000      -1.157187       -31.4887
  95   2.0000      -1.156018       -31.4569
  96   2.0000      -1.147868       -31.2351
  97   2.0000      -1.142603       -31.0918
  98   2.0000      -1.136920       -30.9372
  99   2.0000      -1.117230       -30.4014
 100   2.0000      -1.037867       -28.2418
 101   2.0000      -1.028640       -27.9907
 102   2.0000      -1.028219       -27.9793
 103   2.0000      -1.020358       -27.7653
 104   2.0000      -1.015207       -27.6252
 105   2.0000      -0.991417       -26.9778
 106   2.0000      -0.981784       -26.7157
 107   2.0000      -0.966948       -26.3120
 108   2.0000      -0.958096       -26.0711
 109   2.0000      -0.948658       -25.8143
 110   2.0000      -0.936772       -25.4909
 111   2.0000      -0.926669       -25.2159
 112   2.0000      -0.918526       -24.9944
 113   2.0000      -0.902412       -24.5559
 114   2.0000      -0.891984       -24.2721
 115   2.0000      -0.879682       -23.9374
 116   2.0000      -0.869022       -23.6473
 117   2.0000      -0.858363       -23.3572
 118   2.0000      -0.855623       -23.2827
 119   2.0000      -0.847451       -23.0603
 120   2.0000      -0.840658       -22.8755
 121   2.0000      -0.822486       -22.3810
 122   2.0000      -0.821021       -22.3411
 123   2.0000      -0.810609       -22.0578
 124   2.0000      -0.803196       -21.8561
 125   2.0000      -0.801798       -21.8180
 126   2.0000      -0.789051       -21.4712
 127   2.0000      -0.777077       -21.1453
 128   2.0000      -0.773741       -21.0546
 129   2.0000      -0.772517       -21.0213
 130   2.0000      -0.752413       -20.4742
 131   2.0000      -0.733918       -19.9709
 132   2.0000      -0.731432       -19.9033
 133   2.0000      -0.710610       -19.3367
 134   2.0000      -0.699246       -19.0275
 135   2.0000      -0.693629       -18.8746
 136   2.0000      -0.689514       -18.7626
 137   2.0000      -0.683141       -18.5892
 138   2.0000      -0.678429       -18.4610
 139   2.0000      -0.677376       -18.4323
 140   2.0000      -0.675578       -18.3834
 141   2.0000      -0.671600       -18.2752
 142   2.0000      -0.663279       -18.0488
 143   2.0000      -0.662541       -18.0287
 144   2.0000      -0.659174       -17.9370
 145   2.0000      -0.652461       -17.7544
 146   2.0000      -0.650037       -17.6884
 147   2.0000      -0.649170       -17.6648
 148   2.0000      -0.645734       -17.5713
 149   2.0000      -0.640517       -17.4294
 150   2.0000      -0.637393       -17.3444
 151   2.0000      -0.635521       -17.2934
 152   2.0000      -0.630684       -17.1618
 153   2.0000      -0.629356       -17.1256
 154   2.0000      -0.628064       -17.0905
 155   2.0000      -0.622171       -16.9301
 156   2.0000      -0.621154       -16.9025
 157   2.0000      -0.612751       -16.6738
 158   2.0000      -0.607854       -16.5406
 159   2.0000      -0.604778       -16.4568
 160   2.0000      -0.602431       -16.3930
 161   2.0000      -0.597200       -16.2506
 162   2.0000      -0.592581       -16.1250
 163   2.0000      -0.592399       -16.1200
 164   2.0000      -0.591863       -16.1054
 165   2.0000      -0.588164       -16.0047
 166   2.0000      -0.583061       -15.8659
 167   2.0000      -0.575694       -15.6654
 168   2.0000      -0.573230       -15.5984
 169   2.0000      -0.568560       -15.4713
 170   2.0000      -0.562119       -15.2960
 171   2.0000      -0.560732       -15.2583
 172   2.0000      -0.554078       -15.0772
 173   2.0000      -0.548662       -14.9299
 174   2.0000      -0.545381       -14.8406
 175   2.0000      -0.545135       -14.8339
 176   2.0000      -0.539327       -14.6758
 177   2.0000      -0.537891       -14.6367
 178   2.0000      -0.535833       -14.5808
 179   2.0000      -0.534470       -14.5437
 180   2.0000      -0.533002       -14.5037
 181   2.0000      -0.525721       -14.3056
 182   2.0000      -0.521421       -14.1886
 183   2.0000      -0.517053       -14.0697
 184   2.0000      -0.514516       -14.0007
 185   2.0000      -0.509998       -13.8778
 186   2.0000      -0.503680       -13.7058
 187   2.0000      -0.503001       -13.6874
 188   2.0000      -0.497974       -13.5506
 189   2.0000      -0.495944       -13.4953
 190   2.0000      -0.491083       -13.3630
 191   2.0000      -0.488630       -13.2963
 192   2.0000      -0.485237       -13.2040
 193   2.0000      -0.484335       -13.1794
 194   2.0000      -0.483742       -13.1633
 195   2.0000      -0.481127       -13.0921
 196   2.0000      -0.476419       -12.9640
 197   2.0000      -0.475104       -12.9282
 198   2.0000      -0.474569       -12.9137
 199   2.0000      -0.470649       -12.8070
 200   2.0000      -0.464131       -12.6296
 201   2.0000      -0.453705       -12.3460
 202   2.0000      -0.452112       -12.3026
 203   2.0000      -0.451343       -12.2817
 204   2.0000      -0.449962       -12.2441
 205   2.0000      -0.446313       -12.1448
 206   2.0000      -0.444012       -12.0822
 207   2.0000      -0.442402       -12.0384
 208   2.0000      -0.425612       -11.5815
 209   2.0000      -0.424215       -11.5435
 210   2.0000      -0.415809       -11.3147
 211   2.0000      -0.412051       -11.2125
 212   2.0000      -0.410593       -11.1728
 213   2.0000      -0.406300       -11.0560
 214   2.0000      -0.405094       -11.0232
 215   2.0000      -0.400753       -10.9050
 216   2.0000      -0.397758       -10.8235
 217   2.0000      -0.394436       -10.7332
 218   2.0000      -0.393418       -10.7055
 219   2.0000      -0.390871       -10.6362
 220   2.0000      -0.390801       -10.6342
 221   2.0000      -0.389214       -10.5911
 222   2.0000      -0.389002       -10.5853
 223   2.0000      -0.381927       -10.3928
 224   2.0000      -0.378150       -10.2900
 225   2.0000      -0.376803       -10.2533
 226   2.0000      -0.374509       -10.1909
 227   2.0000      -0.369529       -10.0554
 228   2.0000      -0.364034        -9.9059
 229   2.0000      -0.356778        -9.7084
 230   2.0000      -0.356385        -9.6977
 231   2.0000      -0.350823        -9.5464
 232   2.0000      -0.345462        -9.4005
 233   2.0000      -0.344325        -9.3696
 234   2.0000      -0.341969        -9.3055
 235   2.0000      -0.339816        -9.2469
 236   2.0000      -0.336633        -9.1602
 237   2.0000      -0.333186        -9.0664
 238   2.0000      -0.326623        -8.8879
 239   2.0000      -0.319237        -8.6869
 240   2.0000      -0.296679        -8.0730
 241   2.0000      -0.257297        -7.0014
 242   0.0000      -0.123253        -3.3539
 243   0.0000      -0.100942        -2.7468
 244   0.0000      -0.091501        -2.4899
 245   0.0000      -0.082226        -2.2375
 246   0.0000      -0.056935        -1.5493

MULLIKEN ATOMIC CHARGES
-----------------------
   0 C :   -0.133709
   1 C :    0.067794
   2 C :    0.007851
   3 C :   -0.130701
   4 S :    0.152485
   5 C :    0.180982
   6 O :   -0.154199
   7 C :   -0.103214
   8 C :    0.194475
   9 C :    0.051457
  10 N :    0.258727
  11 O :   -0.226973
  12 O :   -0.252503
  13 N :    0.196920
  14 O :   -0.208004
  15 O :   -0.211945
  16 C :    0.054055
  17 C :   -0.147217
  18 S :    0.197003
  19 C :   -0.026220
  20 C :   -0.020069
  21 C :    0.034514
  22 C :    0.166274
  23 O :   -0.097980
  24 C :   -0.026933
  25 C :   -0.029953
  26 C :   -0.002348
  27 C :    0.035380
  28 C :   -0.169367
  29 S :    0.174040
  30 C :   -0.080945
  31 C :    0.106804
  32 C :    0.203640
  33 O :   -0.171952
  34 C :    0.233338
  35 N :    0.273858
  36 O :   -0.238366
  37 O :   -0.220968
  38 C :   -0.085834
  39 C :   -0.012659
  40 S :    0.129436
  41 C :   -0.214705
  42 C :    0.201709
  43 O :   -0.184930
  44 O :   -0.142257
  45 C :    0.039413
  46 C :   -0.007599
  47 C :    0.020029
  48 C :   -0.073533
  49 C :    0.203542
  50 C :    0.074492
  51 N :    0.255421
  52 O :   -0.239492
  53 O :   -0.223976
  54 N :    0.218470
  55 O :   -0.210227
  56 O :   -0.209686
  57 C :    0.057478
  58 C :   -0.112861
  59 S :    0.166250
  60 C :   -0.128353
  61 C :    0.015281
  62 C :    0.158190
  63 O :   -0.126632
  64 H :    0.057756
  65 H :    0.039892
  66 H :    0.011834
  67 H :    0.033847
  68 H :    0.002966
  69 H :    0.008527
  70 H :    0.010379
  71 H :    0.023773
  72 H :    0.184982
  73 H :   -0.017770
  74 H :    0.035532
  75 H :    0.061620
  76 H :    0.043661
Sum of atomic charges:   -0.0000000

LOEWDIN ATOMIC CHARGES
----------------------
   0 C :   -0.147129
   1 C :   -0.064528
   2 C :   -0.088525
   3 C :   -0.142607
   4 S :    0.485565
   5 C :    0.086439
   6 O :   -0.140582
   7 C :   -0.101556
   8 C :    0.059820
   9 C :   -0.076145
  10 N :    0.279035
  11 O :   -0.192335
  12 O :   -0.206155
  13 N :    0.267783
  14 O :   -0.180849
  15 O :   -0.188170
  16 C :    0.043151
  17 C :   -0.180614
  18 S :    0.494245
  19 C :   -0.141711
  20 C :   -0.112705
  21 C :    0.035190
  22 C :    0.098328
  23 O :   -0.091406
  24 C :   -0.036155
  25 C :   -0.010461
  26 C :   -0.028856
  27 C :   -0.005325
  28 C :   -0.191201
  29 S :    0.479754
  30 C :   -0.176089
  31 C :   -0.067398
  32 C :    0.030671
  33 O :    0.012571
  34 C :    0.035166
  35 N :    0.270247
  36 O :   -0.199475
  37 O :   -0.183608
  38 C :   -0.009475
  39 C :   -0.158760
  40 S :    0.453851
  41 C :   -0.237525
  42 C :    0.067173
  43 O :   -0.160360
  44 O :   -0.018660
  45 C :   -0.043028
  46 C :   -0.033564
  47 C :    0.060169
  48 C :   -0.046521
  49 C :    0.067399
  50 C :   -0.063523
  51 N :    0.278489
  52 O :   -0.192081
  53 O :   -0.189653
  54 N :    0.275672
  55 O :   -0.182018
  56 O :   -0.177736
  57 C :   -0.054312
  58 C :   -0.140516
  59 S :    0.503031
  60 C :   -0.139581
  61 C :   -0.086141
  62 C :    0.087989
  63 O :   -0.125940
  64 H :    0.030597
  65 H :    0.035736
  66 H :    0.034260
  67 H :    0.045357
  68 H :    0.034101
  69 H :    0.030353
  70 H :    0.042481
  71 H :    0.048090
  72 H :    0.081842
  73 H :    0.036149
  74 H :    0.051597
  75 H :    0.033348
  76 H :    0.037329

  Mayer bond orders larger than 0.100000
B(  0-C ,  1-C ) :   1.5454 B(  0-C ,  4-S ) :   1.1856 B(  0-C , 64-H ) :   0.9498
B(  1-C ,  2-C ) :   1.2222 B(  1-C ,  8-C ) :   1.0148 B(  2-C ,  3-C ) :   1.5531
B(  2-C ,  5-C ) :   0.9668 B(  3-C ,  4-S ) :   1.1796 B(  3-C , 65-H ) :   0.9721
B(  5-C ,  6-O ) :   2.1650 B(  5-C ,  7-C ) :   0.9540 B(  7-C ,  8-C ) :   1.1026
B(  7-C , 16-C ) :   1.5568 B(  8-C ,  9-C ) :   1.5809 B(  9-C , 10-N ) :   0.9483
B(  9-C , 13-N ) :   0.8826 B( 10-N , 11-O ) :   1.5324 B( 10-N , 12-O ) :   1.4918
B( 11-O , 12-O ) :   0.2600 B( 13-N , 14-O ) :   1.5206 B( 13-N , 15-O ) :   1.5350
B( 14-O , 15-O ) :   0.2820 B( 16-C , 17-C ) :   1.2636 B( 16-C , 66-H ) :   0.9284
B( 17-C , 18-S ) :   1.0743 B( 17-C , 21-C ) :   1.3670 B( 18-S , 19-C ) :   1.1922
B( 19-C , 20-C ) :   1.3734 B( 19-C , 25-C ) :   1.0868 B( 20-C , 21-C ) :   1.3455
B( 20-C , 22-C ) :   0.9202 B( 21-C , 67-H ) :   0.9807 B( 22-C , 23-O ) :   2.2821
B( 22-C , 24-C ) :   0.9096 B( 24-C , 25-C ) :   1.5862 B( 24-C , 26-C ) :   1.1699
B( 25-C , 68-H ) :   1.0141 B( 26-C , 27-C ) :   1.5586 B( 26-C , 69-H ) :   0.9693
B( 27-C , 28-C ) :   1.1968 B( 27-C , 70-H ) :   0.9817 B( 28-C , 29-S ) :   1.0956
B( 28-C , 30-C ) :   0.1187 B( 28-C , 32-C ) :   1.4211 B( 29-S , 30-C ) :   1.1491
B( 30-C , 31-C ) :   1.4010 B( 30-C , 39-C ) :   1.1632 B( 31-C , 32-C ) :   1.2307
B( 31-C , 38-C ) :   1.0821 B( 32-C , 33-O ) :   1.1370 B( 33-O , 34-C ) :   1.1247
B( 34-C , 35-N ) :   0.9087 B( 34-C , 38-C ) :   1.5821 B( 35-N , 36-O ) :   1.5344
B( 35-N , 37-O ) :   1.5167 B( 36-O , 37-O ) :   0.2854 B( 38-C , 71-H ) :   1.0167
B( 39-C , 40-S ) :   1.1437 B( 39-C , 46-C ) :   1.4716 B( 40-S , 41-C ) :   1.0959
B( 41-C , 42-C ) :   0.9488 B( 41-C , 45-C ) :   1.5204 B( 42-C , 43-O ) :   2.1054
B( 42-C , 44-O ) :   1.2663 B( 44-O , 72-H ) :   0.9449 B( 45-C , 46-C ) :   1.2777
B( 45-C , 47-C ) :   0.9929 B( 46-C , 73-H ) :   1.0016 B( 47-C , 48-C ) :   1.8547
B( 47-C , 74-H ) :   0.9417 B( 48-C , 49-C ) :   0.9899 B( 48-C , 62-C ) :   0.9248
B( 49-C , 50-C ) :   1.6337 B( 49-C , 57-C ) :   1.0359 B( 50-C , 51-N ) :   0.9346
B( 50-C , 54-N ) :   0.8877 B( 51-N , 52-O ) :   1.5080 B( 51-N , 53-O ) :   1.5334
B( 52-O , 53-O ) :   0.2669 B( 54-N , 55-O ) :   1.5232 B( 54-N , 56-O ) :   1.5315
B( 55-O , 56-O ) :   0.2796 B( 57-C , 58-C ) :   1.5408 B( 57-C , 61-C ) :   1.2124
B( 58-C , 59-S ) :   1.1958 B( 58-C , 75-H ) :   0.9484 B( 59-S , 60-C ) :   1.1900
B( 60-C , 61-C ) :   1.5500 B( 60-C , 76-H ) :   0.9713 B( 61-C , 62-C ) :   0.9329
B( 62-C , 63-O ) :   2.2809

-----------------------------------------------------------------------------
         ABSORPTION SPECTRUM VIA TRANSITION ELECTRIC DIPOLE MOMENTS
-----------------------------------------------------------------------------
State   Energy  Wavelength   fosc         T2         TX        TY        TZ
        (cm-1)    (nm)                  (au**2)     (au)      (au)      (au)
-----------------------------------------------------------------------------
   0   13957.6    716.5   1.414147072  33.35477  -1.57293  -3.46810  -4.34199
   1   20141.4    496.5   0.127294213   2.08063   1.07613  -0.67802   0.68034
   2   21593.4    463.1   0.348384764   5.31145   0.48144   1.42553   1.74572
   3   21909.4    456.4   0.046805085   0.70329  -0.43986  -0.14687  -0.69875
   4   23159.9    431.8   0.084254491   1.19766   0.86297  -0.37915   0.55604
   5   25535.7    391.6   0.000413428   0.00533   0.02485  -0.01237   0.06752
   6   27267.5    366.7   0.048041628   0.58003  -0.45859   0.28165  -0.53889
   7   27549.1    363.0   0.073027911   0.87268  -0.43119   0.52997   0.63710
   8   28202.5    354.6   0.323956753   3.78159  -0.18950   1.92902   0.15675
   9   28679.4    348.7   0.080869413   0.92830  -0.14074   0.93973  -0.15937
  10   28908.6    345.9   0.233361589   2.65753   1.22542  -0.40522   0.99583
  11   29338.9    340.8   0.073876022   0.82896  -0.13987  -0.37199  -0.81916
  12   29862.0    334.9   0.062882532   0.69324   0.17010  -0.03249   0.81440
  13   29906.5    334.4   0.082899525   0.91256  -0.68142  -0.19909  -0.63922
  14   30888.6    323.7   0.173524477   1.84943  -0.88678  -0.05276  -1.02969
  15   31015.6    322.4   0.012197765   0.12947  -0.19954  -0.27975  -0.10676
  16   31295.6    319.5   0.004645342   0.04887   0.04415  -0.13990   0.16537
  17   31472.7    317.7   0.013709246   0.14340  -0.19670  -0.10507  -0.30606
  18   31830.2    314.2   0.042692593   0.44156  -0.09969  -0.40663  -0.51602
  19   32296.9    309.6   0.052512038   0.53527   0.02902  -0.72701  -0.07673
  20   32388.2    308.8   0.032182317   0.32712   0.47675   0.20705   0.23867
  21   32746.0    305.4   0.106376597   1.06946   0.44120  -0.90626  -0.23129
  22   33115.3    302.0   0.140995895   1.40170  -0.05145   1.11896   0.38339
  23   33230.5    300.9   0.054601445   0.54093   0.45574  -0.45906   0.35000
  24   33250.2    300.7   0.065817278   0.65166   0.45322   0.19027   0.64035
  25   33616.9    297.5   0.031791886   0.31134  -0.41159  -0.34976  -0.14000
  26   33959.2    294.5   0.044834127   0.43464  -0.35393  -0.54406  -0.11563
  27   34210.0    292.3   0.053477648   0.51463   0.23183   0.26607   0.62457
  28   34365.9    291.0   0.044060014   0.42208  -0.32120   0.37378  -0.42332
  29   34491.4    289.9   0.029667297   0.28317  -0.23795   0.02540  -0.47529
  30   34600.2    289.0   0.079832878   0.75959   0.50364  -0.65511   0.27705
  31   34982.5    285.9   0.036560809   0.34406   0.34460  -0.40961  -0.23988
  32   35119.9    284.7   0.071800132   0.67305  -0.30079  -0.07946  -0.75912
  33   35469.0    281.9   0.021214793   0.19691   0.29778   0.22499   0.24003
  34   35947.1    278.2   0.014197349   0.13002  -0.01005  -0.28453  -0.22128
  35   36176.9    276.4   0.008835156   0.08040  -0.14974  -0.05245  -0.23501
  36   36983.5    270.4   0.083628643   0.74443   0.42576   0.10128   0.74357
  37   37147.9    269.2   0.032169326   0.28509  -0.06071  -0.24996  -0.46789
  38   37208.6    268.8   0.043272057   0.38286  -0.28387   0.45136  -0.31393
  39   37658.8    265.5   0.037764442   0.33014  -0.34562   0.39817  -0.22835
  40   37844.5    264.2   0.036411200   0.31674  -0.45640   0.32851  -0.02296
  41   37928.3    263.7   0.065807420   0.57120  -0.22343   0.70679   0.14738
  42   38102.3    262.5   0.064392394   0.55636  -0.27486   0.59139   0.36205
  43   38356.4    260.7   0.000236784   0.00203   0.00860   0.00566   0.04389
  44   38376.1    260.6   0.087582035   0.75133  -0.74592   0.00558  -0.44147
  45   38400.4    260.4   0.035208664   0.30185   0.44010  -0.11642   0.30758
  46   38519.1    259.6   0.030675596   0.26218  -0.22699  -0.06308  -0.45461
  47   38599.9    259.1   0.060731198   0.51797  -0.55499   0.27901   0.36346
  48   38768.6    257.9   0.047757464   0.40554  -0.30688   0.55799  -0.00371
  49   38930.2    256.9   0.050074202   0.42345  -0.32456   0.50060   0.25983
  50   39216.9    255.0   0.166807433   1.40029  -0.34915  -1.08851  -0.30584
  51   39472.1    253.3   0.099459543   0.82953  -0.40406   0.81410  -0.05923
  52   39647.4    252.2   0.000951845   0.00790  -0.00608  -0.04032  -0.07900
  53   39954.2    250.3   0.042168267   0.34746   0.12043   0.50094  -0.28637
  54   40274.0    248.3   0.008567811   0.07004   0.01356  -0.26361   0.01909

FINAL SINGLE POINT ENERGY     -4919.424469363241

DIPOLE MOMENT
-------------
                                X             Y             Z
Electronic contribution:      2.65519       1.43787       0.28713
Nuclear contribution   :     -4.37611      -1.28121      -2.34252
                        -----------------------------------------
Total Dipole Moment    :     -1.72092       0.15667      -2.05539
                        -----------------------------------------
Magnitude (a.u.)       :      2.68528
Magnitude (Debye)      :      6.82544

Rotational constants in cm-1:     0.002251     0.000260     0.000240
Rotational constants in MHz :    67.489811     7.797167     7.192419

                             ****ORCA TERMINATED NORMALLY****
TOTAL RUN TIME: 0 days 0 hours 6 minutes 41 seconds 588 msec
