                         Program Version 4.2.0 -  RELEASE  -
|  1> # ORCA input file
|  2> # SCF done       -166.177391460269          0.000878302202
|  3> ! CAM-B3LYP def2-SVP def2/J RIJCOSX Grid4 TightSCF
|  4> %maxcore 5000
|  5> %tddft
|  6>     Mode sTDDFT
|  7>     Ethresh 5.0
|  8>     maxcore 5000
|  9> end
| 10>
| 11> %pal
| 12>   nprocs 6
| 13>   end
| 14> * xyz 0 1
| 15>    C        5.00048        -6.27748         9.43146
| 16>    C        5.06748        -6.15114         8.07652
| 17>    C        5.64632        -7.30263         7.45625
| 18>    C        6.02102        -8.26516         8.33534
| 19>    S        5.65939        -7.78142         9.94954
| 20>    C        5.61653        -7.12549         6.00446
| 21>    O        6.07961        -7.87200         5.16299
| 22>    C        4.89744        -5.85630         5.77195
| 23>    C        4.64171        -5.21047         7.04237
| 24>    C        4.20266        -3.94690         7.35510
| 25>    N        4.40788        -3.43603         8.70713
| 26>    O        3.44348        -2.98891         9.27668
| 27>    O        5.52595        -3.51533         9.15989
| 28>    N        3.57148        -2.97935         6.52618
| 29>    O        3.74438        -1.81377         6.81641
| 30>    O        2.89201        -3.36588         5.59111
| 31>    C        4.51056        -5.42154         4.51949
| 32>    C        4.81053        -5.90882         3.24926
| 33>    S        5.94691        -7.19506         2.83204
| 34>    C        5.63043        -6.95686         1.17782
| 35>    C        4.67112        -5.94812         0.93933
| 36>    C        4.22200        -5.35609         2.09214
| 37>    C        4.46086        -5.87052        -0.51815
| 38>    O        3.73272        -5.14977        -1.15179
| 39>    C        5.38503        -6.92986        -1.08362
| 40>    C        6.05014        -7.54048        -0.04535
| 41>    C        5.43226        -7.14713        -2.47773
| 42>    C        6.23510        -8.04712        -3.10621
| 43>    C        6.25467        -8.27254        -4.50546
| 44>    C        5.48083        -7.71271        -5.49390
| 45>    C        5.77292        -8.19584        -6.78573
| 46>    C        6.81967        -9.16132        -6.77469
| 47>    S        7.39851        -9.43817        -5.15870
| 48>    C        7.27592        -9.77049        -7.92084
| 49>    C        6.67438        -9.42128        -9.13120
| 50>    C        5.62395        -8.46082        -9.14177
| 51>    C        5.17063        -7.84740        -7.99911
| 52>    S        5.02489        -8.19791       -10.75774
| 53>    C        6.17068        -9.36171       -11.40333
| 54>    C        6.95930        -9.90775       -10.42672
| 55>    C        6.18977        -9.63986       -12.79534
| 56>    S        7.35192       -10.77735       -13.45676
| 57>    C        6.71627       -10.54142       -15.02572
| 58>    C        5.66156        -9.62932       -15.03275
| 59>    C        5.36224        -9.11627       -13.77579
| 60>    C        5.18509        -9.51090       -16.42624
| 61>    O        4.28992        -8.82313       -16.84970
| 62>    C        6.07986       -10.45577       -17.20785
| 63>    C        6.96835       -11.03578       -16.33641
| 64>    C        5.99583       -10.69884       -18.59716
| 65>    C        5.08966       -10.11659       -19.42850
| 66>    C        5.00153       -10.37843       -20.81467
| 67>    S        6.08202       -11.51292       -21.57589
| 68>    C        5.31075       -11.23382       -23.09454
| 69>    N        5.77751       -11.92943       -24.21933
| 70>    O        5.22181       -11.72187       -25.28219
| 71>    O        6.71041       -12.69483       -24.04712
| 72>    C        4.28524       -10.32527       -23.02797
| 73>    C        4.09128        -9.82204       -21.73110
| 74>    C        3.08337        -8.84622       -21.37217
| 75>    C        2.16496        -8.35726       -22.20113
| 76>    H        4.61129        -5.61473        10.17805
| 77>    H        6.47231        -9.21733         8.14140
| 78>    H        3.82240        -4.58368         4.49155
| 79>    H        3.49965        -4.56103         2.14401
| 80>    H        6.77165        -8.33275        -0.12419
| 81>    H        4.75967        -6.52598        -3.05419
| 82>    H        6.91832        -8.64720        -2.52072
| 83>    H        4.71770        -6.98005        -5.30456
| 84>    H        8.07110       -10.49815        -7.89343
| 85>    H        4.37452        -7.12081        -8.02684
| 86>    H        7.71964       -10.64073       -10.63186
| 87>    H        4.58629        -8.40289       -13.56396
| 88>    H        7.73011       -11.74951       -16.59234
| 89>    H        6.70929       -11.40727       -19.00409
| 90>    H        4.38541        -9.41336       -19.01042
| 91>    H        3.71464       -10.04759       -23.89475
| 92>    H        3.09817        -8.50505       -20.34748
| 93>    H        2.08869        -8.65656       -23.23177
| 94>    H        1.44644        -7.63116       -21.86399
| 95> *
| 96>
| 97>                          ****END OF INPUT****

CARTESIAN COORDINATES (ANGSTROEM)
---------------------------------
  C      5.000480   -6.277480    9.431460
  C      5.067480   -6.151140    8.076520
  C      5.646320   -7.302630    7.456250
  C      6.021020   -8.265160    8.335340
  S      5.659390   -7.781420    9.949540
  C      5.616530   -7.125490    6.004460
  O      6.079610   -7.872000    5.162990
  C      4.897440   -5.856300    5.771950
  C      4.641710   -5.210470    7.042370
  C      4.202660   -3.946900    7.355100
  N      4.407880   -3.436030    8.707130
  O      3.443480   -2.988910    9.276680
  O      5.525950   -3.515330    9.159890
  N      3.571480   -2.979350    6.526180
  O      3.744380   -1.813770    6.816410
  O      2.892010   -3.365880    5.591110
  C      4.510560   -5.421540    4.519490
  C      4.810530   -5.908820    3.249260
  S      5.946910   -7.195060    2.832040
  C      5.630430   -6.956860    1.177820
  C      4.671120   -5.948120    0.939330
  C      4.222000   -5.356090    2.092140
  C      4.460860   -5.870520   -0.518150
  O      3.732720   -5.149770   -1.151790
  C      5.385030   -6.929860   -1.083620
  C      6.050140   -7.540480   -0.045350
  C      5.432260   -7.147130   -2.477730
  C      6.235100   -8.047120   -3.106210
  C      6.254670   -8.272540   -4.505460
  C      5.480830   -7.712710   -5.493900
  C      5.772920   -8.195840   -6.785730
  C      6.819670   -9.161320   -6.774690
  S      7.398510   -9.438170   -5.158700
  C      7.275920   -9.770490   -7.920840
  C      6.674380   -9.421280   -9.131200
  C      5.623950   -8.460820   -9.141770
  C      5.170630   -7.847400   -7.999110
  S      5.024890   -8.197910  -10.757740
  C      6.170680   -9.361710  -11.403330
  C      6.959300   -9.907750  -10.426720
  C      6.189770   -9.639860  -12.795340
  S      7.351920  -10.777350  -13.456760
  C      6.716270  -10.541420  -15.025720
  C      5.661560   -9.629320  -15.032750
  C      5.362240   -9.116270  -13.775790
  C      5.185090   -9.510900  -16.426240
  O      4.289920   -8.823130  -16.849700
  C      6.079860  -10.455770  -17.207850
  C      6.968350  -11.035780  -16.336410
  C      5.995830  -10.698840  -18.597160
  C      5.089660  -10.116590  -19.428500
  C      5.001530  -10.378430  -20.814670
  S      6.082020  -11.512920  -21.575890
  C      5.310750  -11.233820  -23.094540
  N      5.777510  -11.929430  -24.219330
  O      5.221810  -11.721870  -25.282190
  O      6.710410  -12.694830  -24.047120
  C      4.285240  -10.325270  -23.027970
  C      4.091280   -9.822040  -21.731100
  C      3.083370   -8.846220  -21.372170
  C      2.164960   -8.357260  -22.201130
  H      4.611290   -5.614730   10.178050
  H      6.472310   -9.217330    8.141400
  H      3.822400   -4.583680    4.491550
  H      3.499650   -4.561030    2.144010
  H      6.771650   -8.332750   -0.124190
  H      4.759670   -6.525980   -3.054190
  H      6.918320   -8.647200   -2.520720
  H      4.717700   -6.980050   -5.304560
  H      8.071100  -10.498150   -7.893430
  H      4.374520   -7.120810   -8.026840
  H      7.719640  -10.640730  -10.631860
  H      4.586290   -8.402890  -13.563960
  H      7.730110  -11.749510  -16.592340
  H      6.709290  -11.407270  -19.004090
  H      4.385410   -9.413360  -19.010420
  H      3.714640  -10.047590  -23.894750
  H      3.098170   -8.505050  -20.347480
  H      2.088690   -8.656560  -23.231770
  H      1.446440   -7.631160  -21.863990

 Total Charge           Charge          ....    0
 Multiplicity           Mult            ....    1
 Number of Electrons    NEL             ....  466
 Basis Dimension        Dim             ....  973

ORBITAL ENERGIES
----------------

  NO   OCC          E(Eh)            E(eV)
   0   2.0000     -88.988555     -2421.5017
   1   2.0000     -88.984659     -2421.3957
   2   2.0000     -88.982580     -2421.3391
   3   2.0000     -88.975281     -2421.1405
   4   2.0000     -88.960495     -2420.7381
   5   2.0000     -88.958878     -2420.6941
   6   2.0000     -19.250469      -523.8319
   7   2.0000     -19.249827      -523.8144
   8   2.0000     -19.248722      -523.7844
   9   2.0000     -19.247592      -523.7536
  10   2.0000     -19.241077      -523.5763
  11   2.0000     -19.237637      -523.4827
  12   2.0000     -19.236579      -523.4539
  13   2.0000     -19.235939      -523.4365
  14   2.0000     -19.221597      -523.0463
  15   2.0000     -14.659186      -398.8967
  16   2.0000     -14.656257      -398.8170
  17   2.0000     -14.647186      -398.5702
  18   2.0000     -10.384653      -282.5808
  19   2.0000     -10.379888      -282.4511
  20   2.0000     -10.374039      -282.2920
  21   2.0000     -10.362438      -281.9763
  22   2.0000     -10.349872      -281.6343
  23   2.0000     -10.342841      -281.4430
  24   2.0000     -10.327081      -281.0142
  25   2.0000     -10.326605      -281.0012
  26   2.0000     -10.324751      -280.9508
  27   2.0000     -10.324490      -280.9436
  28   2.0000     -10.323150      -280.9072
  29   2.0000     -10.322114      -280.8790
  30   2.0000     -10.321442      -280.8607
  31   2.0000     -10.320539      -280.8361
  32   2.0000     -10.318315      -280.7756
  33   2.0000     -10.317276      -280.7473
  34   2.0000     -10.314080      -280.6604
  35   2.0000     -10.312219      -280.6097
  36   2.0000     -10.311942      -280.6022
  37   2.0000     -10.311322      -280.5853
  38   2.0000     -10.311212      -280.5823
  39   2.0000     -10.307795      -280.4894
  40   2.0000     -10.307588      -280.4837
  41   2.0000     -10.304266      -280.3933
  42   2.0000     -10.302473      -280.3445
  43   2.0000     -10.301850      -280.3276
  44   2.0000     -10.301662      -280.3225
  45   2.0000     -10.299223      -280.2561
  46   2.0000     -10.298819      -280.2451
  47   2.0000     -10.297775      -280.2167
  48   2.0000     -10.295607      -280.1577
  49   2.0000     -10.294109      -280.1169
  50   2.0000     -10.294084      -280.1163
  51   2.0000     -10.293721      -280.1064
  52   2.0000     -10.292597      -280.0758
  53   2.0000     -10.291273      -280.0398
  54   2.0000     -10.290585      -280.0211
  55   2.0000     -10.289145      -279.9819
  56   2.0000     -10.287835      -279.9462
  57   2.0000     -10.287383      -279.9339
  58   2.0000     -10.286717      -279.9158
  59   2.0000     -10.284701      -279.8609
  60   2.0000     -10.274022      -279.5704
  61   2.0000      -8.083332      -219.9587
  62   2.0000      -8.078392      -219.8242
  63   2.0000      -8.077352      -219.7959
  64   2.0000      -8.070698      -219.6149
  65   2.0000      -8.056297      -219.2230
  66   2.0000      -8.054927      -219.1857
  67   2.0000      -6.052488      -164.6966
  68   2.0000      -6.048455      -164.5868
  69   2.0000      -6.047665      -164.5653
  70   2.0000      -6.046603      -164.5364
  71   2.0000      -6.045741      -164.5130
  72   2.0000      -6.042922      -164.4363
  73   2.0000      -6.041960      -164.4101
  74   2.0000      -6.041110      -164.3869
  75   2.0000      -6.040118      -164.3600
  76   2.0000      -6.040078      -164.3589
  77   2.0000      -6.035809      -164.2427
  78   2.0000      -6.032638      -164.1564
  79   2.0000      -6.026013      -163.9761
  80   2.0000      -6.024478      -163.9344
  81   2.0000      -6.021984      -163.8665
  82   2.0000      -6.020565      -163.8279
  83   2.0000      -6.017348      -163.7404
  84   2.0000      -6.016205      -163.7093
  85   2.0000      -1.340553       -36.4783
  86   2.0000      -1.322565       -35.9888
  87   2.0000      -1.316948       -35.8360
  88   2.0000      -1.154143       -31.4058
  89   2.0000      -1.152573       -31.3631
  90   2.0000      -1.148940       -31.2642
  91   2.0000      -1.146647       -31.2019
  92   2.0000      -1.139016       -30.9942
  93   2.0000      -1.135865       -30.9085
  94   2.0000      -1.022363       -27.8199
  95   2.0000      -1.020282       -27.7633
  96   2.0000      -1.017936       -27.6994
  97   2.0000      -1.009955       -27.4823
  98   2.0000      -1.008866       -27.4527
  99   2.0000      -0.987746       -26.8779
 100   2.0000      -0.978122       -26.6161
 101   2.0000      -0.958289       -26.0764
 102   2.0000      -0.954788       -25.9811
 103   2.0000      -0.935720       -25.4622
 104   2.0000      -0.926394       -25.2085
 105   2.0000      -0.919162       -25.0117
 106   2.0000      -0.901877       -24.5413
 107   2.0000      -0.895548       -24.3691
 108   2.0000      -0.885576       -24.0978
 109   2.0000      -0.876299       -23.8453
 110   2.0000      -0.868329       -23.6284
 111   2.0000      -0.863090       -23.4859
 112   2.0000      -0.861139       -23.4328
 113   2.0000      -0.850451       -23.1420
 114   2.0000      -0.844884       -22.9905
 115   2.0000      -0.837827       -22.7984
 116   2.0000      -0.828641       -22.5485
 117   2.0000      -0.818356       -22.2686
 118   2.0000      -0.806160       -21.9367
 119   2.0000      -0.803780       -21.8720
 120   2.0000      -0.791701       -21.5433
 121   2.0000      -0.788073       -21.4446
 122   2.0000      -0.777223       -21.1493
 123   2.0000      -0.768288       -20.9062
 124   2.0000      -0.761831       -20.7305
 125   2.0000      -0.753454       -20.5025
 126   2.0000      -0.736241       -20.0341
 127   2.0000      -0.716976       -19.5099
 128   2.0000      -0.700385       -19.0584
 129   2.0000      -0.687961       -18.7204
 130   2.0000      -0.686598       -18.6833
 131   2.0000      -0.682302       -18.5664
 132   2.0000      -0.674960       -18.3666
 133   2.0000      -0.669752       -18.2249
 134   2.0000      -0.664774       -18.0894
 135   2.0000      -0.657195       -17.8832
 136   2.0000      -0.655776       -17.8446
 137   2.0000      -0.649043       -17.6614
 138   2.0000      -0.643225       -17.5031
 139   2.0000      -0.641422       -17.4540
 140   2.0000      -0.640055       -17.4168
 141   2.0000      -0.638020       -17.3614
 142   2.0000      -0.630316       -17.1518
 143   2.0000      -0.629098       -17.1186
 144   2.0000      -0.628356       -17.0984
 145   2.0000      -0.624478       -16.9929
 146   2.0000      -0.623370       -16.9628
 147   2.0000      -0.620430       -16.8828
 148   2.0000      -0.618682       -16.8352
 149   2.0000      -0.612973       -16.6799
 150   2.0000      -0.605640       -16.4803
 151   2.0000      -0.592670       -16.1274
 152   2.0000      -0.589394       -16.0382
 153   2.0000      -0.585959       -15.9448
 154   2.0000      -0.583511       -15.8781
 155   2.0000      -0.581982       -15.8365
 156   2.0000      -0.579027       -15.7561
 157   2.0000      -0.574376       -15.6296
 158   2.0000      -0.573421       -15.6036
 159   2.0000      -0.560469       -15.2511
 160   2.0000      -0.557329       -15.1657
 161   2.0000      -0.550358       -14.9760
 162   2.0000      -0.546901       -14.8819
 163   2.0000      -0.541381       -14.7317
 164   2.0000      -0.539493       -14.6803
 165   2.0000      -0.539223       -14.6730
 166   2.0000      -0.536690       -14.6041
 167   2.0000      -0.534442       -14.5429
 168   2.0000      -0.533883       -14.5277
 169   2.0000      -0.529794       -14.4164
 170   2.0000      -0.524635       -14.2760
 171   2.0000      -0.522540       -14.2190
 172   2.0000      -0.516360       -14.0509
 173   2.0000      -0.514334       -13.9957
 174   2.0000      -0.511550       -13.9200
 175   2.0000      -0.507473       -13.8090
 176   2.0000      -0.503934       -13.7127
 177   2.0000      -0.498390       -13.5619
 178   2.0000      -0.497719       -13.5436
 179   2.0000      -0.496704       -13.5160
 180   2.0000      -0.494127       -13.4459
 181   2.0000      -0.492210       -13.3937
 182   2.0000      -0.486312       -13.2332
 183   2.0000      -0.484798       -13.1920
 184   2.0000      -0.483683       -13.1617
 185   2.0000      -0.482281       -13.1235
 186   2.0000      -0.481851       -13.1118
 187   2.0000      -0.475362       -12.9353
 188   2.0000      -0.470820       -12.8117
 189   2.0000      -0.469359       -12.7719
 190   2.0000      -0.468899       -12.7594
 191   2.0000      -0.466666       -12.6986
 192   2.0000      -0.456768       -12.4293
 193   2.0000      -0.455113       -12.3842
 194   2.0000      -0.451467       -12.2850
 195   2.0000      -0.447236       -12.1699
 196   2.0000      -0.442259       -12.0345
 197   2.0000      -0.439000       -11.9458
 198   2.0000      -0.438125       -11.9220
 199   2.0000      -0.430275       -11.7084
 200   2.0000      -0.427581       -11.6351
 201   2.0000      -0.426173       -11.5967
 202   2.0000      -0.424728       -11.5574
 203   2.0000      -0.415150       -11.2968
 204   2.0000      -0.414531       -11.2800
 205   2.0000      -0.407663       -11.0931
 206   2.0000      -0.397767       -10.8238
 207   2.0000      -0.395175       -10.7533
 208   2.0000      -0.392876       -10.6907
 209   2.0000      -0.389489       -10.5985
 210   2.0000      -0.385947       -10.5022
 211   2.0000      -0.383166       -10.4265
 212   2.0000      -0.381251       -10.3744
 213   2.0000      -0.376001       -10.2315
 214   2.0000      -0.375173       -10.2090
 215   2.0000      -0.373381       -10.1602
 216   2.0000      -0.369424       -10.0525
 217   2.0000      -0.363588        -9.8937
 218   2.0000      -0.353997        -9.6328
 219   2.0000      -0.351142        -9.5551
 220   2.0000      -0.349438        -9.5087
 221   2.0000      -0.348544        -9.4844
 222   2.0000      -0.345626        -9.4050
 223   2.0000      -0.341078        -9.2812
 224   2.0000      -0.336231        -9.1493
 225   2.0000      -0.333935        -9.0868
 226   2.0000      -0.322996        -8.7892
 227   2.0000      -0.317973        -8.6525
 228   2.0000      -0.308490        -8.3944
 229   2.0000      -0.293977        -7.9995
 230   2.0000      -0.277788        -7.5590
 231   2.0000      -0.259699        -7.0668
 232   2.0000      -0.240165        -6.5352
 233   0.0000      -0.111892        -3.0447
 234   0.0000      -0.099622        -2.7109
 235   0.0000      -0.080770        -2.1979
 236   0.0000      -0.055525        -1.5109
 237   0.0000      -0.053791        -1.4637

MULLIKEN ATOMIC CHARGES
-----------------------
   0 C :   -0.123324
   1 C :    0.042994
   2 C :    0.017848
   3 C :   -0.130161
   4 S :    0.152664
   5 C :    0.181316
   6 O :   -0.186460
   7 C :   -0.098263
   8 C :    0.238780
   9 C :    0.030439
  10 N :    0.200033
  11 O :   -0.210753
  12 O :   -0.217447
  13 N :    0.265144
  14 O :   -0.224787
  15 O :   -0.250334
  16 C :   -0.034319
  17 C :   -0.078762
  18 S :    0.241521
  19 C :   -0.021172
  20 C :    0.029998
  21 C :   -0.031348
  22 C :    0.161901
  23 O :   -0.106938
  24 C :   -0.022371
  25 C :   -0.040121
  26 C :    0.004615
  27 C :    0.081013
  28 C :   -0.064382
  29 C :   -0.023599
  30 C :    0.105842
  31 C :   -0.040535
  32 S :    0.111574
  33 C :   -0.059507
  34 C :    0.123618
  35 C :   -0.038032
  36 C :   -0.052446
  37 S :    0.112092
  38 C :   -0.021494
  39 C :   -0.067134
  40 C :   -0.066054
  41 S :    0.174408
  42 C :   -0.038465
  43 C :    0.000673
  44 C :   -0.029223
  45 C :    0.174284
  46 O :   -0.116345
  47 C :   -0.005740
  48 C :   -0.037350
  49 C :   -0.030474
  50 C :   -0.013796
  51 C :   -0.071407
  52 S :    0.165284
  53 C :    0.001669
  54 N :    0.272379
  55 O :   -0.247479
  56 O :   -0.258489
  57 C :    0.003408
  58 C :    0.102620
  59 C :   -0.021833
  60 C :   -0.009165
  61 H :    0.047452
  62 H :    0.036330
  63 H :    0.023600
  64 H :    0.018465
  65 H :   -0.002937
  66 H :    0.001695
  67 H :   -0.014666
  68 H :   -0.012487
  69 H :   -0.029421
  70 H :   -0.025450
  71 H :   -0.016640
  72 H :    0.006904
  73 H :   -0.002204
  74 H :   -0.008968
  75 H :    0.020566
  76 H :    0.005073
  77 H :   -0.001171
  78 H :    0.017672
  79 H :    0.029581
Sum of atomic charges:   -0.0000000

LOEWDIN ATOMIC CHARGES
----------------------
   0 C :   -0.150328
   1 C :   -0.062961
   2 C :   -0.089492
   3 C :   -0.143801
   4 S :    0.486464
   5 C :    0.086432
   6 O :   -0.173683
   7 C :   -0.119733
   8 C :    0.057147
   9 C :   -0.075093
  10 N :    0.268931
  11 O :   -0.181837
  12 O :   -0.184569
  13 N :    0.280462
  14 O :   -0.190749
  15 O :   -0.208693
  16 C :    0.056002
  17 C :   -0.192290
  18 S :    0.543301
  19 C :   -0.145763
  20 C :   -0.119155
  21 C :    0.030105
  22 C :    0.096132
  23 O :   -0.100083
  24 C :   -0.031851
  25 C :   -0.015705
  26 C :   -0.020988
  27 C :   -0.003963
  28 C :   -0.158373
  29 C :   -0.034965
  30 C :   -0.045281
  31 C :   -0.150173
  32 S :    0.394943
  33 C :   -0.038748
  34 C :   -0.037817
  35 C :   -0.150478
  36 C :   -0.031932
  37 S :    0.397282
  38 C :   -0.161425
  39 C :   -0.065769
  40 C :   -0.183279
  41 S :    0.474485
  42 C :   -0.169650
  43 C :   -0.103850
  44 C :   -0.021271
  45 C :    0.107672
  46 O :   -0.101184
  47 C :   -0.055211
  48 C :    0.001613
  49 C :   -0.019621
  50 C :   -0.030089
  51 C :   -0.144574
  52 S :    0.471850
  53 C :   -0.194745
  54 N :    0.272930
  55 O :   -0.213602
  56 O :   -0.225296
  57 C :   -0.004889
  58 C :   -0.053994
  59 C :   -0.022960
  60 C :   -0.029877
  61 H :    0.029980
  62 H :    0.034969
  63 H :    0.040223
  64 H :    0.047362
  65 H :    0.031621
  66 H :    0.034950
  67 H :    0.028756
  68 H :    0.033262
  69 H :    0.031518
  70 H :    0.032913
  71 H :    0.025964
  72 H :    0.037304
  73 H :    0.034384
  74 H :    0.025210
  75 H :    0.036428
  76 H :    0.042417
  77 H :    0.034881
  78 H :    0.022101
  79 H :    0.029793

  Mayer bond orders larger than 0.100000
B(  0-C ,  1-C ) :   1.5398 B(  0-C ,  4-S ) :   1.1914 B(  0-C , 61-H ) :   0.9587
B(  1-C ,  2-C ) :   1.2438 B(  1-C ,  8-C ) :   1.0092 B(  2-C ,  3-C ) :   1.5496
B(  2-C ,  5-C ) :   0.9700 B(  3-C ,  4-S ) :   1.1829 B(  3-C , 62-H ) :   0.9711
B(  5-C ,  6-O ) :   2.1154 B(  5-C ,  7-C ) :   0.9879 B(  7-C ,  8-C ) :   1.1243
B(  7-C , 16-C ) :   1.4455 B(  8-C ,  9-C ) :   1.5559 B(  9-C , 10-N ) :   0.8764
B(  9-C , 13-N ) :   0.9633 B( 10-N , 11-O ) :   1.5366 B( 10-N , 12-O ) :   1.5300
B( 11-O , 12-O ) :   0.2883 B( 13-N , 14-O ) :   1.5311 B( 13-N , 15-O ) :   1.4529
B( 14-O , 15-O ) :   0.2543 B( 15-O , 63-H ) :   0.1103 B( 16-C , 17-C ) :   1.3167
B( 16-C , 63-H ) :   0.9356 B( 17-C , 18-S ) :   1.0578 B( 17-C , 21-C ) :   1.2929
B( 18-S , 19-C ) :   1.1668 B( 19-C , 20-C ) :   1.3302 B( 19-C , 25-C ) :   1.0924
B( 20-C , 21-C ) :   1.3765 B( 20-C , 22-C ) :   0.9162 B( 21-C , 64-H ) :   1.0172
B( 22-C , 23-O ) :   2.2744 B( 22-C , 24-C ) :   0.9094 B( 24-C , 25-C ) :   1.5769
B( 24-C , 26-C ) :   1.1680 B( 25-C , 65-H ) :   1.0162 B( 26-C , 27-C ) :   1.6258
B( 26-C , 66-H ) :   0.9687 B( 27-C , 28-C ) :   1.1299 B( 27-C , 67-H ) :   0.9643
B( 28-C , 29-C ) :   1.5372 B( 28-C , 32-S ) :   1.0650 B( 29-C , 30-C ) :   1.1793
B( 29-C , 68-H ) :   0.9975 B( 30-C , 31-C ) :   1.2744 B( 30-C , 36-C ) :   1.2998
B( 31-C , 32-S ) :   1.0509 B( 31-C , 33-C ) :   1.3813 B( 33-C , 34-C ) :   1.3220
B( 33-C , 69-H ) :   1.0028 B( 34-C , 35-C ) :   1.2715 B( 34-C , 39-C ) :   1.1632
B( 35-C , 36-C ) :   1.4034 B( 35-C , 37-S ) :   1.0353 B( 36-C , 70-H ) :   1.0016
B( 37-S , 38-C ) :   1.0785 B( 38-C , 39-C ) :   1.5562 B( 38-C , 40-C ) :   1.1686
B( 39-C , 71-H ) :   0.9956 B( 40-C , 41-S ) :   1.1140 B( 40-C , 44-C ) :   1.4543
B( 41-S , 42-C ) :   1.1350 B( 42-C , 43-C ) :   1.4661 B( 42-C , 48-C ) :   1.0501
B( 43-C , 44-C ) :   1.3035 B( 43-C , 45-C ) :   0.9380 B( 44-C , 72-H ) :   0.9995
B( 45-C , 46-O ) :   2.2228 B( 45-C , 47-C ) :   0.9072 B( 47-C , 48-C ) :   1.5887
B( 47-C , 49-C ) :   1.1713 B( 48-C , 73-H ) :   1.0249 B( 49-C , 50-C ) :   1.6108
B( 49-C , 74-H ) :   0.9761 B( 50-C , 51-C ) :   1.1637 B( 50-C , 75-H ) :   0.9636
B( 51-C , 52-S ) :   1.1112 B( 51-C , 58-C ) :   1.4049 B( 52-S , 53-C ) :   1.1178
B( 53-C , 54-N ) :   0.9581 B( 53-C , 57-C ) :   1.4966 B( 54-N , 55-O ) :   1.5349
B( 54-N , 56-O ) :   1.5194 B( 55-O , 56-O ) :   0.2648 B( 57-C , 58-C ) :   1.2265
B( 57-C , 76-H ) :   0.9963 B( 58-C , 59-C ) :   1.0899 B( 59-C , 60-C ) :   1.9516
B( 59-C , 77-H ) :   0.9644 B( 60-C , 78-H ) :   0.9530 B( 60-C , 79-H ) :   0.9469

-----------------------------------------------------------------------------
         ABSORPTION SPECTRUM VIA TRANSITION ELECTRIC DIPOLE MOMENTS
-----------------------------------------------------------------------------
State   Energy  Wavelength   fosc         T2         TX        TY        TZ
        (cm-1)    (nm)                  (au**2)     (au)      (au)      (au)
-----------------------------------------------------------------------------
   0   13777.8    725.8   2.221565498  53.08289  -0.08034   1.33194   7.16257
   1   15297.9    653.7   0.071416423   1.53689   0.64403  -0.54781  -0.90665
   2   20944.1    477.5   0.053104485   0.83473   0.36830  -0.21455   0.80812
   3   21283.2    469.9   0.248381140   3.84200  -0.31928   0.80769   1.75719
   4   22530.4    443.8   0.000628364   0.00918   0.09099   0.00390   0.02978
   5   23985.2    416.9   0.263874971   3.62185   0.25441  -0.53386  -1.80890
   6   25376.8    394.1   0.625167027   8.11027  -0.53474  -0.24609  -2.78635
   7   25691.2    389.2   0.004702230   0.06026  -0.03562   0.03987   0.23958
   8   26179.2    382.0   0.000045535   0.00057  -0.00776  -0.01029  -0.02016
   9   26375.6    379.1   0.236724774   2.95472   0.09404  -0.30660   1.68875
  10   26613.0    375.8   0.073511756   0.90936  -0.41842   0.13898  -0.84556
  11   27582.8    362.5   0.042533056   0.50765   0.32891  -0.46828   0.42448
  12   27778.3    360.0   0.165478214   1.96115  -0.16243   0.01764  -1.39085
  13   28254.4    353.9   0.123190051   1.43538   0.08752  -0.58798  -1.04019
  14   28777.0    347.5   0.038946135   0.44555   0.09368  -0.27488  -0.60101
  15   29019.1    344.6   0.276336795   3.13495  -0.09418   0.34280  -1.73452
  16   30093.8    332.3   0.061889077   0.67704   0.02962  -0.74634  -0.34516
  17   30632.4    326.5   0.052541118   0.56467  -0.29017   0.45717  -0.52102
  18   31238.5    320.1   0.010928005   0.11517  -0.11827   0.15608  -0.27716
  19   31963.7    312.9   0.053103290   0.54694   0.02794  -0.22874  -0.70274
  20   32400.9    308.6   0.004052931   0.04118  -0.09728  -0.17769   0.01191
  21   32678.5    306.0   0.002376898   0.02395  -0.06167   0.13499  -0.04382
  22   33062.4    302.5   0.014160777   0.14100  -0.03861   0.23280   0.29209
  23   33714.2    296.6   0.223355865   2.18102   0.48740  -0.52733   1.29050
  24   34048.6    293.7   0.054324229   0.52526   0.21118  -0.12999  -0.68100
  25   34169.0    292.7   0.035079984   0.33799   0.35527  -0.45836  -0.04089
  26   34343.9    291.2   0.041924255   0.40188   0.46857  -0.41288   0.10886
  27   34521.2    289.7   0.020105742   0.19174  -0.16714   0.13498   0.38155
  28   34846.0    287.0   0.052208174   0.49324   0.09365  -0.64629  -0.25842
  29   34933.5    286.3   0.215530369   2.03115   0.60372  -0.86012   0.96274
  30   35246.5    283.7   0.099189637   0.92646   0.28469  -0.18511   0.90064
  31   35599.5    280.9   0.000081025   0.00075  -0.01359  -0.02353   0.00329
  32   35798.4    279.3   0.028298143   0.26024  -0.02718   0.37500  -0.34478
  33   36127.8    276.8   0.161985106   1.47608   0.74019  -0.46310   0.84483
  34   36509.1    273.9   0.006388213   0.05760   0.15540  -0.07287  -0.16777
  35   36948.6    270.6   0.024289644   0.21642   0.21870  -0.31588   0.26232
  36   36996.9    270.3   0.030707704   0.27325   0.16682  -0.20981   0.44877
  37   37488.0    266.8   0.019351444   0.16994   0.28166  -0.08663   0.28828
  38   37960.0    263.4   0.175259741   1.51996   0.65316  -0.47425   0.93189
  39   38018.8    263.0   0.094926019   0.82198   0.55006  -0.70746   0.13752
  40   38126.0    262.3   0.015951718   0.13774   0.23144  -0.05740   0.28440
  41   38261.2    261.4   0.024590965   0.21159   0.19718  -0.20253  -0.36290
  42   38495.6    259.8   0.007309658   0.06251   0.16505  -0.17974   0.05444
  43   39015.5    256.3   0.017316667   0.14612   0.24670  -0.29173  -0.01225
  44   39119.4    255.6   0.039823961   0.33514   0.29399  -0.27151  -0.41833
  45   39147.6    255.4   0.133898635   1.12602   0.34850  -0.60323  -0.80043
  46   39532.4    253.0   0.016194394   0.13486  -0.16457   0.30924  -0.11022
  47   39852.2    250.9   0.063055709   0.52089  -0.13811   0.20145   0.67914

FINAL SINGLE POINT ENERGY     -4876.231568981018

DIPOLE MOMENT
-------------
                                X             Y             Z
Electronic contribution:      8.11526       2.81671      51.48659
Nuclear contribution   :     -7.04133      -5.05209     -51.25564
                        -----------------------------------------
Total Dipole Moment    :      1.07393      -2.23538       0.23095
                        -----------------------------------------
Magnitude (a.u.)       :      2.49070
Magnitude (Debye)      :      6.33085

Rotational constants in cm-1:     0.005714     0.000141     0.000139
Rotational constants in MHz :   171.302902     4.238452     4.152961

                             ****ORCA TERMINATED NORMALLY****
TOTAL RUN TIME: 0 days 0 hours 6 minutes 6 seconds 359 msec
