                         Program Version 4.2.0 -  RELEASE  -
|  1> # ORCA input file
|  2> # SCF done       -200.893834824907          0.000890235151
|  3> ! CAM-B3LYP def2-SVP def2/J RIJCOSX Grid4 TightSCF
|  4> %maxcore 5000
|  5> %tddft
|  6>     Mode sTDDFT
|  7>     Ethresh 5.0
|  8>     maxcore 5000
|  9> end
| 10>
| 11> %pal
| 12>   nprocs 6
| 13>   end
| 14> * xyz 0 1
| 15>    C       -1.22171        -6.85474        -7.07382
| 16>    C       -0.46213        -6.07070        -7.89052
| 17>    S        1.22679        -6.11399        -7.52987
| 18>    C        0.92422        -7.19593        -6.23604
| 19>    C       -0.42491        -7.50687        -6.11738
| 20>    C       -0.60154        -8.45926        -5.01176
| 21>    O       -1.61261        -9.00269        -4.63263
| 22>    C        0.76072        -8.58393        -4.40241
| 23>    C        1.71741        -7.92352        -5.28320
| 24>    C        3.07288        -8.11158        -5.36505
| 25>    C        3.83906        -7.42412        -6.32841
| 26>    N        4.46412        -6.85106        -7.10176
| 27>    C        3.80339        -9.04532        -4.60445
| 28>    N        4.44212        -9.83961        -4.07622
| 29>    C        0.91829        -9.13908        -3.17998
| 30>    C        2.05372        -9.02293        -2.29945
| 31>    C        2.41214       -10.10664        -1.48488
| 32>    C        3.51218       -10.00389        -0.66889
| 33>    C        4.19872        -8.78020        -0.56690
| 34>    C        3.81740        -7.68331        -1.32873
| 35>    C        2.76667        -7.82001        -2.20883
| 36>    C        5.24462        -8.91730         0.41629
| 37>    C        5.22941       -10.23378         0.91206
| 38>    C        4.11965       -11.03604         0.25989
| 39>    C        4.76968       -12.20317        -0.51208
| 40>    C        3.82461       -13.07830        -1.32454
| 41>    C        3.03080       -11.47047         1.26374
| 42>    C        3.46144       -12.46325         2.33556
| 43>    C        6.18413       -10.63451         1.81428
| 44>    C        7.12557        -9.71153         2.30504
| 45>    C        7.09854        -8.39371         1.82075
| 46>    C        6.18136        -7.99868         0.87299
| 47>    C        8.08546       -10.15410         3.27889
| 48>    C        8.87137        -9.35296         4.04204
| 49>    C        9.79838        -9.82250         4.99332
| 50>    C       10.52259        -8.99973         5.81398
| 51>    C       11.47554        -9.37509         6.79581
| 52>    C       12.01499        -8.33376         7.48391
| 53>    C       11.51868        -7.06686         7.09359
| 54>    S       10.35451        -7.24791         5.79699
| 55>    C       11.82244        -5.83128         7.61867
| 56>    C       12.71454        -5.52209         8.67520
| 57>    C       12.75506        -4.20536         8.99651
| 58>    C       11.89721        -3.37361         8.21523
| 59>    S       11.04377        -4.37267         7.03710
| 60>    C       11.80952        -2.02094         8.32358
| 61>    C       10.92598        -1.14658         7.58659
| 62>    C       11.23866         0.16984         7.19031
| 63>    N       12.40271         0.90902         7.30608
| 64>    C       13.64496         0.41641         7.84444
| 65>    C       13.77041         0.63428         9.35358
| 66>    C       12.22257         2.13154         6.70458
| 67>    C       10.91519         2.18508         6.16147
| 68>    C       10.28473         0.93972         6.48458
| 69>    C        9.02329         0.45071         6.18068
| 70>    C        8.71100        -0.83250         6.58334
| 71>    C        9.64272        -1.60181         7.25842
| 72>    C       10.47458         3.27408         5.42864
| 73>    C       11.35472         4.31988         5.21329
| 74>    C       12.63453         4.27741         5.73511
| 75>    C       13.10833         3.21124         6.51392
| 76>    C       14.40301         3.33119         7.13554
| 77>    C       15.45694         3.98153         6.58129
| 78>    C       16.72946         4.22282         7.15840
| 79>    C       17.20013         4.14586         8.44210
| 80>    C       18.58214         4.48043         8.78304
| 81>    C       19.65555         4.71323         7.95969
| 82>    C       20.91829         5.02435         8.50725
| 83>    N       21.94705         5.28456         8.94483
| 84>    C       19.67275         4.65947         6.55330
| 85>    N       19.77989         4.62091         5.40982
| 86>    C       18.65483         4.49823        10.21769
| 87>    C       17.43697         4.15629        10.78226
| 88>    C       17.46187         4.15469        12.18710
| 89>    C       18.69763         4.49566        12.65143
| 90>    S       19.84929         4.81921        11.40474
| 91>    C       16.46928         3.88172         9.71255
| 92>    O       15.32035         3.51758         9.87042
| 93>    H       -2.28761        -6.96122        -7.15374
| 94>    H       -0.79528        -5.46052        -8.70728
| 95>    H        0.06168        -9.68852        -2.80193
| 96>    H        1.83261       -11.01485        -1.54571
| 97>    H        4.33578        -6.74098        -1.23604
| 98>    H        2.44859        -6.97396        -2.80188
| 99>    H        5.30599       -12.82452         0.20733
|100>    H        5.51125       -11.77212        -1.18905
|101>    H        3.02085       -13.47830        -0.71143
|102>    H        4.38102       -13.91673        -1.73854
|103>    H        3.40003       -12.51992        -2.15364
|104>    H        2.20152       -11.89813         0.69799
|105>    H        2.65695       -10.56626         1.75251
|106>    H        3.87333       -13.36773         1.89605
|107>    H        2.59636       -12.74305         2.93375
|108>    H        4.19889       -12.02320         3.00059
|109>    H        6.22939       -11.65434         2.16644
|110>    H        7.82986        -7.68347         2.17340
|111>    H        6.19366        -6.99038         0.48680
|112>    H        8.15059       -11.22556         3.42715
|113>    H        8.78977        -8.27749         3.95604
|114>    H        9.94708       -10.88989         5.09123
|115>    H       11.72632       -10.40849         6.96033
|116>    H       12.74839        -8.43781         8.26369
|117>    H       13.29721        -6.28329         9.16281
|118>    H       13.37165        -3.78766         9.77345
|119>    H       12.45042        -1.57977         9.07138
|120>    H       14.46595         0.91916         7.32413
|121>    H       13.70671        -0.65170         7.61217
|122>    H       14.63170         0.08807         9.73107
|123>    H       12.87809         0.28757         9.87006
|124>    H       13.90098         1.68391         9.60044
|125>    H        8.31321         1.06107         5.64510
|126>    H        7.73552        -1.24541         6.37697
|127>    H        9.35295        -2.58712         7.58707
|128>    H        9.47212         3.29718         5.03060
|129>    H       11.04224         5.18167         4.64350
|130>    H       13.28470         5.12602         5.58754
|131>    H       14.51196         2.92984         8.12793
|132>    H       15.36891         4.31926         5.55570
|133>    H       17.45766         4.57228         6.43508
|134>    H       16.62123         3.91788        12.81261
|135>    H       19.01324         4.57697        13.67328
|136> *
|137>
|138>                          ****END OF INPUT****

CARTESIAN COORDINATES (ANGSTROEM)
---------------------------------
  C     -1.221710   -6.854740   -7.073820
  C     -0.462130   -6.070700   -7.890520
  S      1.226790   -6.113990   -7.529870
  C      0.924220   -7.195930   -6.236040
  C     -0.424910   -7.506870   -6.117380
  C     -0.601540   -8.459260   -5.011760
  O     -1.612610   -9.002690   -4.632630
  C      0.760720   -8.583930   -4.402410
  C      1.717410   -7.923520   -5.283200
  C      3.072880   -8.111580   -5.365050
  C      3.839060   -7.424120   -6.328410
  N      4.464120   -6.851060   -7.101760
  C      3.803390   -9.045320   -4.604450
  N      4.442120   -9.839610   -4.076220
  C      0.918290   -9.139080   -3.179980
  C      2.053720   -9.022930   -2.299450
  C      2.412140  -10.106640   -1.484880
  C      3.512180  -10.003890   -0.668890
  C      4.198720   -8.780200   -0.566900
  C      3.817400   -7.683310   -1.328730
  C      2.766670   -7.820010   -2.208830
  C      5.244620   -8.917300    0.416290
  C      5.229410  -10.233780    0.912060
  C      4.119650  -11.036040    0.259890
  C      4.769680  -12.203170   -0.512080
  C      3.824610  -13.078300   -1.324540
  C      3.030800  -11.470470    1.263740
  C      3.461440  -12.463250    2.335560
  C      6.184130  -10.634510    1.814280
  C      7.125570   -9.711530    2.305040
  C      7.098540   -8.393710    1.820750
  C      6.181360   -7.998680    0.872990
  C      8.085460  -10.154100    3.278890
  C      8.871370   -9.352960    4.042040
  C      9.798380   -9.822500    4.993320
  C     10.522590   -8.999730    5.813980
  C     11.475540   -9.375090    6.795810
  C     12.014990   -8.333760    7.483910
  C     11.518680   -7.066860    7.093590
  S     10.354510   -7.247910    5.796990
  C     11.822440   -5.831280    7.618670
  C     12.714540   -5.522090    8.675200
  C     12.755060   -4.205360    8.996510
  C     11.897210   -3.373610    8.215230
  S     11.043770   -4.372670    7.037100
  C     11.809520   -2.020940    8.323580
  C     10.925980   -1.146580    7.586590
  C     11.238660    0.169840    7.190310
  N     12.402710    0.909020    7.306080
  C     13.644960    0.416410    7.844440
  C     13.770410    0.634280    9.353580
  C     12.222570    2.131540    6.704580
  C     10.915190    2.185080    6.161470
  C     10.284730    0.939720    6.484580
  C      9.023290    0.450710    6.180680
  C      8.711000   -0.832500    6.583340
  C      9.642720   -1.601810    7.258420
  C     10.474580    3.274080    5.428640
  C     11.354720    4.319880    5.213290
  C     12.634530    4.277410    5.735110
  C     13.108330    3.211240    6.513920
  C     14.403010    3.331190    7.135540
  C     15.456940    3.981530    6.581290
  C     16.729460    4.222820    7.158400
  C     17.200130    4.145860    8.442100
  C     18.582140    4.480430    8.783040
  C     19.655550    4.713230    7.959690
  C     20.918290    5.024350    8.507250
  N     21.947050    5.284560    8.944830
  C     19.672750    4.659470    6.553300
  N     19.779890    4.620910    5.409820
  C     18.654830    4.498230   10.217690
  C     17.436970    4.156290   10.782260
  C     17.461870    4.154690   12.187100
  C     18.697630    4.495660   12.651430
  S     19.849290    4.819210   11.404740
  C     16.469280    3.881720    9.712550
  O     15.320350    3.517580    9.870420
  H     -2.287610   -6.961220   -7.153740
  H     -0.795280   -5.460520   -8.707280
  H      0.061680   -9.688520   -2.801930
  H      1.832610  -11.014850   -1.545710
  H      4.335780   -6.740980   -1.236040
  H      2.448590   -6.973960   -2.801880
  H      5.305990  -12.824520    0.207330
  H      5.511250  -11.772120   -1.189050
  H      3.020850  -13.478300   -0.711430
  H      4.381020  -13.916730   -1.738540
  H      3.400030  -12.519920   -2.153640
  H      2.201520  -11.898130    0.697990
  H      2.656950  -10.566260    1.752510
  H      3.873330  -13.367730    1.896050
  H      2.596360  -12.743050    2.933750
  H      4.198890  -12.023200    3.000590
  H      6.229390  -11.654340    2.166440
  H      7.829860   -7.683470    2.173400
  H      6.193660   -6.990380    0.486800
  H      8.150590  -11.225560    3.427150
  H      8.789770   -8.277490    3.956040
  H      9.947080  -10.889890    5.091230
  H     11.726320  -10.408490    6.960330
  H     12.748390   -8.437810    8.263690
  H     13.297210   -6.283290    9.162810
  H     13.371650   -3.787660    9.773450
  H     12.450420   -1.579770    9.071380
  H     14.465950    0.919160    7.324130
  H     13.706710   -0.651700    7.612170
  H     14.631700    0.088070    9.731070
  H     12.878090    0.287570    9.870060
  H     13.900980    1.683910    9.600440
  H      8.313210    1.061070    5.645100
  H      7.735520   -1.245410    6.376970
  H      9.352950   -2.587120    7.587070
  H      9.472120    3.297180    5.030600
  H     11.042240    5.181670    4.643500
  H     13.284700    5.126020    5.587540
  H     14.511960    2.929840    8.127930
  H     15.368910    4.319260    5.555700
  H     17.457660    4.572280    6.435080
  H     16.621230    3.917880   12.812610
  H     19.013240    4.576970   13.673280

 Total Charge           Charge          ....    0
 Multiplicity           Mult            ....    1
 Number of Electrons    NEL             ....  560
 Basis Dimension        Dim             .... 1323

ORBITAL ENERGIES
----------------

  NO   OCC          E(Eh)            E(eV)
   0   2.0000     -88.987496     -2421.4729
   1   2.0000     -88.987035     -2421.4603
   2   2.0000     -88.938935     -2420.1515
   3   2.0000     -88.937691     -2420.1176
   4   2.0000     -19.223966      -523.1107
   5   2.0000     -19.214854      -522.8628
   6   2.0000     -14.458361      -393.4320
   7   2.0000     -14.416471      -392.2921
   8   2.0000     -14.414998      -392.2520
   9   2.0000     -14.414923      -392.2500
  10   2.0000     -14.410633      -392.1333
  11   2.0000     -10.377837      -282.3953
  12   2.0000     -10.369464      -282.1675
  13   2.0000     -10.347327      -281.5651
  14   2.0000     -10.346935      -281.5544
  15   2.0000     -10.343396      -281.4581
  16   2.0000     -10.342874      -281.4439
  17   2.0000     -10.326928      -281.0100
  18   2.0000     -10.325841      -280.9804
  19   2.0000     -10.320527      -280.8358
  20   2.0000     -10.319879      -280.8182
  21   2.0000     -10.319264      -280.8015
  22   2.0000     -10.316480      -280.7257
  23   2.0000     -10.316178      -280.7175
  24   2.0000     -10.314410      -280.6694
  25   2.0000     -10.313391      -280.6416
  26   2.0000     -10.312982      -280.6305
  27   2.0000     -10.312301      -280.6120
  28   2.0000     -10.309682      -280.5407
  29   2.0000     -10.308078      -280.4971
  30   2.0000     -10.305154      -280.4175
  31   2.0000     -10.304286      -280.3939
  32   2.0000     -10.303905      -280.3835
  33   2.0000     -10.301170      -280.3091
  34   2.0000     -10.299671      -280.2683
  35   2.0000     -10.299547      -280.2649
  36   2.0000     -10.298309      -280.2312
  37   2.0000     -10.297278      -280.2032
  38   2.0000     -10.297193      -280.2009
  39   2.0000     -10.295393      -280.1519
  40   2.0000     -10.295236      -280.1476
  41   2.0000     -10.284670      -279.8601
  42   2.0000     -10.284428      -279.8535
  43   2.0000     -10.284389      -279.8525
  44   2.0000     -10.283800      -279.8364
  45   2.0000     -10.281959      -279.7863
  46   2.0000     -10.281408      -279.7713
  47   2.0000     -10.281405      -279.7713
  48   2.0000     -10.280936      -279.7585
  49   2.0000     -10.278239      -279.6851
  50   2.0000     -10.277775      -279.6725
  51   2.0000     -10.277070      -279.6533
  52   2.0000     -10.276601      -279.6405
  53   2.0000     -10.275529      -279.6114
  54   2.0000     -10.275099      -279.5996
  55   2.0000     -10.274979      -279.5964
  56   2.0000     -10.274758      -279.5904
  57   2.0000     -10.273277      -279.5501
  58   2.0000     -10.272414      -279.5266
  59   2.0000     -10.270288      -279.4687
  60   2.0000     -10.270104      -279.4637
  61   2.0000     -10.269711      -279.4530
  62   2.0000     -10.268701      -279.4256
  63   2.0000     -10.268515      -279.4205
  64   2.0000     -10.268368      -279.4165
  65   2.0000     -10.267021      -279.3798
  66   2.0000     -10.266611      -279.3687
  67   2.0000     -10.265612      -279.3415
  68   2.0000     -10.265523      -279.3391
  69   2.0000     -10.265370      -279.3349
  70   2.0000     -10.265277      -279.3324
  71   2.0000     -10.264058      -279.2992
  72   2.0000     -10.262570      -279.2587
  73   2.0000     -10.262451      -279.2555
  74   2.0000     -10.259777      -279.1827
  75   2.0000     -10.258101      -279.1371
  76   2.0000     -10.251490      -278.9572
  77   2.0000     -10.246897      -278.8322
  78   2.0000      -8.082041      -219.9235
  79   2.0000      -8.081676      -219.9136
  80   2.0000      -8.034874      -218.6400
  81   2.0000      -8.033933      -218.6144
  82   2.0000      -6.051370      -164.6662
  83   2.0000      -6.051015      -164.6565
  84   2.0000      -6.046735      -164.5400
  85   2.0000      -6.046378      -164.5303
  86   2.0000      -6.044608      -164.4821
  87   2.0000      -6.044232      -164.4719
  88   2.0000      -6.004710      -163.3965
  89   2.0000      -6.003674      -163.3683
  90   2.0000      -6.000628      -163.2854
  91   2.0000      -5.999763      -163.2618
  92   2.0000      -5.995628      -163.1493
  93   2.0000      -5.994739      -163.1251
  94   2.0000      -1.138094       -30.9691
  95   2.0000      -1.130057       -30.7504
  96   2.0000      -1.085691       -29.5431
  97   2.0000      -1.028862       -27.9968
  98   2.0000      -1.027532       -27.9606
  99   2.0000      -1.007567       -27.4173
 100   2.0000      -1.004884       -27.3443
 101   2.0000      -0.993827       -27.0434
 102   2.0000      -0.991586       -26.9824
 103   2.0000      -0.989599       -26.9284
 104   2.0000      -0.985721       -26.8228
 105   2.0000      -0.968344       -26.3500
 106   2.0000      -0.962819       -26.1996
 107   2.0000      -0.962317       -26.1860
 108   2.0000      -0.952447       -25.9174
 109   2.0000      -0.945861       -25.7382
 110   2.0000      -0.945234       -25.7211
 111   2.0000      -0.921072       -25.0637
 112   2.0000      -0.917561       -24.9681
 113   2.0000      -0.904006       -24.5993
 114   2.0000      -0.902400       -24.5555
 115   2.0000      -0.899121       -24.4663
 116   2.0000      -0.892361       -24.2824
 117   2.0000      -0.886123       -24.1126
 118   2.0000      -0.874420       -23.7942
 119   2.0000      -0.864278       -23.5182
 120   2.0000      -0.861671       -23.4473
 121   2.0000      -0.853787       -23.2327
 122   2.0000      -0.853119       -23.2146
 123   2.0000      -0.849057       -23.1040
 124   2.0000      -0.838218       -22.8091
 125   2.0000      -0.836048       -22.7500
 126   2.0000      -0.833087       -22.6695
 127   2.0000      -0.829637       -22.5756
 128   2.0000      -0.828186       -22.5361
 129   2.0000      -0.826625       -22.4936
 130   2.0000      -0.815794       -22.1989
 131   2.0000      -0.808385       -21.9973
 132   2.0000      -0.801832       -21.8190
 133   2.0000      -0.795188       -21.6382
 134   2.0000      -0.773090       -21.0368
 135   2.0000      -0.769500       -20.9391
 136   2.0000      -0.767175       -20.8759
 137   2.0000      -0.765010       -20.8170
 138   2.0000      -0.759619       -20.6703
 139   2.0000      -0.748668       -20.3723
 140   2.0000      -0.739829       -20.1318
 141   2.0000      -0.724896       -19.7254
 142   2.0000      -0.713876       -19.4255
 143   2.0000      -0.711158       -19.3516
 144   2.0000      -0.704216       -19.1627
 145   2.0000      -0.701937       -19.1007
 146   2.0000      -0.699261       -19.0279
 147   2.0000      -0.694827       -18.9072
 148   2.0000      -0.691596       -18.8193
 149   2.0000      -0.682374       -18.5683
 150   2.0000      -0.680873       -18.5275
 151   2.0000      -0.675125       -18.3711
 152   2.0000      -0.669433       -18.2162
 153   2.0000      -0.665739       -18.1157
 154   2.0000      -0.661702       -18.0058
 155   2.0000      -0.659811       -17.9544
 156   2.0000      -0.654577       -17.8119
 157   2.0000      -0.646029       -17.5793
 158   2.0000      -0.638392       -17.3715
 159   2.0000      -0.634659       -17.2699
 160   2.0000      -0.625476       -17.0201
 161   2.0000      -0.623973       -16.9792
 162   2.0000      -0.616175       -16.7670
 163   2.0000      -0.614307       -16.7161
 164   2.0000      -0.612417       -16.6647
 165   2.0000      -0.610062       -16.6006
 166   2.0000      -0.605400       -16.4738
 167   2.0000      -0.600715       -16.3463
 168   2.0000      -0.597625       -16.2622
 169   2.0000      -0.595420       -16.2022
 170   2.0000      -0.593199       -16.1418
 171   2.0000      -0.589721       -16.0471
 172   2.0000      -0.578940       -15.7538
 173   2.0000      -0.574674       -15.6377
 174   2.0000      -0.570347       -15.5199
 175   2.0000      -0.564751       -15.3676
 176   2.0000      -0.557662       -15.1748
 177   2.0000      -0.553344       -15.0572
 178   2.0000      -0.551414       -15.0047
 179   2.0000      -0.550610       -14.9829
 180   2.0000      -0.545818       -14.8525
 181   2.0000      -0.543604       -14.7922
 182   2.0000      -0.542934       -14.7740
 183   2.0000      -0.539741       -14.6871
 184   2.0000      -0.537784       -14.6338
 185   2.0000      -0.537196       -14.6178
 186   2.0000      -0.532289       -14.4843
 187   2.0000      -0.531240       -14.4558
 188   2.0000      -0.525454       -14.2983
 189   2.0000      -0.524670       -14.2770
 190   2.0000      -0.523339       -14.2408
 191   2.0000      -0.521459       -14.1896
 192   2.0000      -0.518944       -14.1212
 193   2.0000      -0.517774       -14.0893
 194   2.0000      -0.510741       -13.8980
 195   2.0000      -0.510024       -13.8785
 196   2.0000      -0.507016       -13.7966
 197   2.0000      -0.505047       -13.7430
 198   2.0000      -0.501857       -13.6562
 199   2.0000      -0.497772       -13.5451
 200   2.0000      -0.497360       -13.5339
 201   2.0000      -0.496094       -13.4994
 202   2.0000      -0.495085       -13.4719
 203   2.0000      -0.492557       -13.4032
 204   2.0000      -0.491682       -13.3793
 205   2.0000      -0.490004       -13.3337
 206   2.0000      -0.484925       -13.1955
 207   2.0000      -0.483805       -13.1650
 208   2.0000      -0.482211       -13.1216
 209   2.0000      -0.482000       -13.1159
 210   2.0000      -0.481142       -13.0926
 211   2.0000      -0.479933       -13.0596
 212   2.0000      -0.475751       -12.9458
 213   2.0000      -0.475055       -12.9269
 214   2.0000      -0.474133       -12.9018
 215   2.0000      -0.469787       -12.7836
 216   2.0000      -0.466594       -12.6967
 217   2.0000      -0.465342       -12.6626
 218   2.0000      -0.462822       -12.5940
 219   2.0000      -0.459848       -12.5131
 220   2.0000      -0.458780       -12.4840
 221   2.0000      -0.456169       -12.4130
 222   2.0000      -0.455696       -12.4001
 223   2.0000      -0.453324       -12.3356
 224   2.0000      -0.452466       -12.3122
 225   2.0000      -0.448727       -12.2105
 226   2.0000      -0.447922       -12.1886
 227   2.0000      -0.447733       -12.1834
 228   2.0000      -0.446204       -12.1418
 229   2.0000      -0.442623       -12.0444
 230   2.0000      -0.442345       -12.0368
 231   2.0000      -0.439262       -11.9529
 232   2.0000      -0.438110       -11.9216
 233   2.0000      -0.434849       -11.8329
 234   2.0000      -0.434404       -11.8207
 235   2.0000      -0.433255       -11.7895
 236   2.0000      -0.431655       -11.7459
 237   2.0000      -0.429743       -11.6939
 238   2.0000      -0.426947       -11.6178
 239   2.0000      -0.426189       -11.5972
 240   2.0000      -0.424573       -11.5532
 241   2.0000      -0.424137       -11.5414
 242   2.0000      -0.422867       -11.5068
 243   2.0000      -0.421157       -11.4603
 244   2.0000      -0.419830       -11.4242
 245   2.0000      -0.418724       -11.3941
 246   2.0000      -0.416364       -11.3298
 247   2.0000      -0.414984       -11.2923
 248   2.0000      -0.412571       -11.2266
 249   2.0000      -0.409282       -11.1371
 250   2.0000      -0.408496       -11.1157
 251   2.0000      -0.407748       -11.0954
 252   2.0000      -0.403134       -10.9698
 253   2.0000      -0.398112       -10.8332
 254   2.0000      -0.393387       -10.7046
 255   2.0000      -0.390905       -10.6371
 256   2.0000      -0.388935       -10.5835
 257   2.0000      -0.384933       -10.4746
 258   2.0000      -0.376305       -10.2398
 259   2.0000      -0.373764       -10.1706
 260   2.0000      -0.364466        -9.9176
 261   2.0000      -0.354310        -9.6413
 262   2.0000      -0.347043        -9.4435
 263   2.0000      -0.345406        -9.3990
 264   2.0000      -0.343924        -9.3587
 265   2.0000      -0.341107        -9.2820
 266   2.0000      -0.336565        -9.1584
 267   2.0000      -0.333768        -9.0823
 268   2.0000      -0.326258        -8.8779
 269   2.0000      -0.321388        -8.7454
 270   2.0000      -0.318406        -8.6643
 271   2.0000      -0.312761        -8.5107
 272   2.0000      -0.310304        -8.4438
 273   2.0000      -0.305758        -8.3201
 274   2.0000      -0.301114        -8.1937
 275   2.0000      -0.292937        -7.9712
 276   2.0000      -0.278117        -7.5679
 277   2.0000      -0.265536        -7.2256
 278   2.0000      -0.253548        -6.8994
 279   2.0000      -0.206256        -5.6125
 280   0.0000      -0.086906        -2.3648
 281   0.0000      -0.083287        -2.2664
 282   0.0000      -0.070628        -1.9219
 283   0.0000      -0.064483        -1.7547
 284   0.0000      -0.049668        -1.3515

MULLIKEN ATOMIC CHARGES
-----------------------
   0 C :    0.013473
   1 C :   -0.054732
   2 S :    0.216958
   3 C :   -0.172365
   4 C :    0.025887
   5 C :    0.146669
   6 O :   -0.134656
   7 C :   -0.125854
   8 C :    0.226912
   9 C :   -0.330882
  10 C :   -0.202089
  11 N :    0.160988
  12 C :   -0.185039
  13 N :    0.180606
  14 C :    0.023553
  15 C :    0.048894
  16 C :   -0.079346
  17 C :    0.047555
  18 C :    0.114352
  19 C :   -0.052962
  20 C :    0.019676
  21 C :    0.086530
  22 C :    0.047100
  23 C :   -0.126493
  24 C :    0.052385
  25 C :    0.030827
  26 C :    0.053022
  27 C :    0.034379
  28 C :   -0.122951
  29 C :    0.133045
  30 C :   -0.015494
  31 C :   -0.040120
  32 C :   -0.014407
  33 C :    0.016162
  34 C :   -0.015695
  35 C :   -0.018919
  36 C :    0.038697
  37 C :    0.024688
  38 C :   -0.044897
  39 S :    0.057291
  40 C :   -0.059170
  41 C :    0.036679
  42 C :    0.025678
  43 C :   -0.032229
  44 S :    0.081128
  45 C :   -0.070884
  46 C :    0.049246
  47 C :    0.102121
  48 N :   -0.186762
  49 C :    0.072340
  50 C :    0.012857
  51 C :    0.109466
  52 C :    0.057950
  53 C :    0.068540
  54 C :   -0.054092
  55 C :    0.035573
  56 C :   -0.056776
  57 C :   -0.037522
  58 C :    0.031755
  59 C :   -0.033894
  60 C :    0.032545
  61 C :   -0.000035
  62 C :   -0.026912
  63 C :    0.001650
  64 C :   -0.086667
  65 C :    0.241604
  66 C :   -0.339743
  67 C :   -0.205203
  68 N :    0.158781
  69 C :   -0.188624
  70 N :    0.159592
  71 C :   -0.154583
  72 C :    0.025878
  73 C :    0.013552
  74 C :   -0.054384
  75 S :    0.221435
  76 C :    0.168884
  77 O :   -0.157445
  78 H :    0.008307
  79 H :    0.043149
  80 H :    0.025071
  81 H :   -0.030092
  82 H :   -0.031428
  83 H :   -0.013539
  84 H :    0.001605
  85 H :    0.020854
  86 H :   -0.001464
  87 H :    0.013110
  88 H :    0.027626
  89 H :    0.001919
  90 H :    0.006162
  91 H :    0.004570
  92 H :    0.011640
  93 H :    0.017936
  94 H :   -0.036200
  95 H :   -0.027362
  96 H :   -0.036073
  97 H :   -0.025044
  98 H :    0.003489
  99 H :   -0.018788
 100 H :   -0.014842
 101 H :   -0.014316
 102 H :   -0.016460
 103 H :   -0.015357
 104 H :   -0.027456
 105 H :    0.031602
 106 H :    0.033506
 107 H :    0.017499
 108 H :    0.025508
 109 H :    0.045078
 110 H :   -0.032367
 111 H :   -0.022418
 112 H :   -0.008900
 113 H :   -0.028431
 114 H :   -0.020200
 115 H :   -0.019112
 116 H :    0.019000
 117 H :   -0.002614
 118 H :    0.013136
 119 H :    0.003633
 120 H :    0.042987
Sum of atomic charges:   -0.0000000

LOEWDIN ATOMIC CHARGES
----------------------
   0 C :   -0.036523
   1 C :   -0.153918
   2 S :    0.505609
   3 C :   -0.174167
   4 C :   -0.070936
   5 C :    0.082070
   6 O :   -0.137548
   7 C :   -0.091383
   8 C :    0.053774
   9 C :   -0.137343
  10 C :   -0.034170
  11 N :   -0.047121
  12 C :   -0.017519
  13 N :   -0.042745
  14 C :    0.079556
  15 C :   -0.047566
  16 C :    0.000253
  17 C :    0.012474
  18 C :    0.006070
  19 C :   -0.017469
  20 C :   -0.004645
  21 C :   -0.021480
  22 C :    0.008852
  23 C :   -0.032298
  24 C :   -0.013085
  25 C :   -0.058570
  26 C :   -0.014408
  27 C :   -0.058264
  28 C :   -0.022038
  29 C :   -0.020883
  30 C :   -0.013874
  31 C :   -0.013595
  32 C :   -0.017280
  33 C :   -0.030017
  34 C :   -0.055698
  35 C :   -0.143943
  36 C :   -0.034340
  37 C :   -0.032664
  38 C :   -0.179371
  39 S :    0.360770
  40 C :   -0.182551
  41 C :   -0.033522
  42 C :   -0.035276
  43 C :   -0.142710
  44 S :    0.374527
  45 C :   -0.061509
  46 C :   -0.056653
  47 C :    0.035929
  48 N :    0.029893
  49 C :    0.035994
  50 C :   -0.067455
  51 C :    0.044012
  52 C :   -0.041314
  53 C :   -0.040617
  54 C :   -0.010926
  55 C :   -0.039110
  56 C :   -0.020813
  57 C :    0.004544
  58 C :   -0.045642
  59 C :    0.000258
  60 C :   -0.065022
  61 C :    0.057233
  62 C :   -0.067740
  63 C :    0.065964
  64 C :   -0.101097
  65 C :    0.064352
  66 C :   -0.144924
  67 C :   -0.034037
  68 N :   -0.048707
  69 C :   -0.027207
  70 N :   -0.047373
  71 C :   -0.176925
  72 C :   -0.070152
  73 C :   -0.037182
  74 C :   -0.154687
  75 S :    0.510183
  76 C :    0.089629
  77 O :   -0.142084
  78 H :    0.042804
  79 H :    0.030272
  80 H :    0.046468
  81 H :    0.026858
  82 H :    0.028836
  83 H :    0.028077
  84 H :    0.017931
  85 H :    0.033963
  86 H :    0.017501
  87 H :    0.029089
  88 H :    0.026950
  89 H :    0.018374
  90 H :    0.027604
  91 H :    0.020464
  92 H :    0.027879
  93 H :    0.023852
  94 H :    0.022715
  95 H :    0.026907
  96 H :    0.027209
  97 H :    0.026064
  98 H :    0.019956
  99 H :    0.031430
 100 H :    0.032668
 101 H :    0.031045
 102 H :    0.031070
 103 H :    0.031154
 104 H :    0.030615
 105 H :    0.032103
 106 H :    0.031339
 107 H :    0.029712
 108 H :    0.025138
 109 H :    0.029277
 110 H :    0.027165
 111 H :    0.027594
 112 H :    0.019223
 113 H :    0.029708
 114 H :    0.028221
 115 H :    0.029153
 116 H :    0.029392
 117 H :    0.033516
 118 H :    0.047440
 119 H :    0.041265
 120 H :    0.030148

  Mayer bond orders larger than 0.100000
B(  0-C ,  1-C ) :   1.5501 B(  0-C ,  4-C ) :   1.2723 B(  0-C , 78-H ) :   1.0068
B(  1-C ,  2-S ) :   1.1642 B(  1-C , 79-H ) :   0.9688 B(  2-S ,  3-C ) :   1.1514
B(  3-C ,  4-C ) :   1.4393 B(  3-C ,  8-C ) :   1.0968 B(  4-C ,  5-C ) :   0.9381
B(  5-C ,  6-O ) :   2.2733 B(  5-C ,  7-C ) :   0.9262 B(  7-C ,  8-C ) :   1.0156
B(  7-C , 14-C ) :   1.7384 B(  8-C ,  9-C ) :   1.6644 B(  9-C , 10-C ) :   1.1317
B(  9-C , 12-C ) :   1.1577 B( 10-C , 11-N ) :   3.0105 B( 12-C , 13-N ) :   3.0045
B( 14-C , 15-C ) :   1.0220 B( 14-C , 80-H ) :   0.9472 B( 15-C , 16-C ) :   1.2934
B( 15-C , 20-C ) :   1.3438 B( 16-C , 17-C ) :   1.3936 B( 16-C , 81-H ) :   1.0005
B( 17-C , 18-C ) :   1.3787 B( 17-C , 23-C ) :   0.9312 B( 18-C , 19-C ) :   1.3307
B( 18-C , 21-C ) :   1.0101 B( 19-C , 20-C ) :   1.3941 B( 19-C , 82-H ) :   0.9922
B( 20-C , 83-H ) :   0.9859 B( 21-C , 22-C ) :   1.3872 B( 21-C , 31-C ) :   1.3192
B( 22-C , 23-C ) :   0.9305 B( 22-C , 28-C ) :   1.3834 B( 23-C , 24-C ) :   1.0051
B( 23-C , 26-C ) :   1.0069 B( 24-C , 25-C ) :   1.1160 B( 24-C , 84-H ) :   0.9403
B( 24-C , 85-H ) :   0.9367 B( 25-C , 86-H ) :   0.9616 B( 25-C , 87-H ) :   0.9589
B( 25-C , 88-H ) :   0.9595 B( 26-C , 27-C ) :   1.1137 B( 26-C , 89-H ) :   0.9390
B( 26-C , 90-H ) :   0.9387 B( 27-C , 91-H ) :   0.9622 B( 27-C , 92-H ) :   0.9598
B( 27-C , 93-H ) :   0.9611 B( 28-C , 29-C ) :   1.2848 B( 28-C , 94-H ) :   1.0023
B( 29-C , 30-C ) :   1.3344 B( 29-C , 32-C ) :   1.0659 B( 30-C , 31-C ) :   1.4080
B( 30-C , 95-H ) :   0.9855 B( 31-C , 96-H ) :   0.9895 B( 32-C , 33-C ) :   1.6581
B( 32-C , 97-H ) :   0.9880 B( 33-C , 34-C ) :   1.1430 B( 33-C , 98-H ) :   0.9629
B( 34-C , 35-C ) :   1.5772 B( 34-C , 99-H ) :   0.9856 B( 35-C , 36-C ) :   1.1338
B( 35-C , 39-S ) :   1.0264 B( 36-C , 37-C ) :   1.6008 B( 36-C ,100-H ) :   0.9990
B( 37-C , 38-C ) :   1.1783 B( 37-C ,101-H ) :   0.9939 B( 38-C , 39-S ) :   1.0399
B( 38-C , 40-C ) :   1.5353 B( 40-C , 41-C ) :   1.1652 B( 40-C , 44-S ) :   1.0351
B( 41-C , 42-C ) :   1.6236 B( 41-C ,102-H ) :   0.9933 B( 42-C , 43-C ) :   1.1109
B( 42-C ,103-H ) :   0.9960 B( 43-C , 44-S ) :   1.0208 B( 43-C , 45-C ) :   1.6864
B( 45-C , 46-C ) :   1.0057 B( 45-C ,104-H ) :   0.9549 B( 46-C , 47-C ) :   1.3010
B( 46-C , 56-C ) :   1.3761 B( 47-C , 48-N ) :   1.1269 B( 47-C , 53-C ) :   1.2931
B( 48-N , 49-C ) :   0.9518 B( 48-N , 51-C ) :   1.1619 B( 49-C , 50-C ) :   1.1084
B( 49-C ,105-H ) :   0.9352 B( 49-C ,106-H ) :   0.9360 B( 50-C ,107-H ) :   0.9653
B( 50-C ,108-H ) :   0.9509 B( 50-C ,109-H ) :   0.9449 B( 51-C , 52-C ) :   1.2759
B( 51-C , 60-C ) :   1.2640 B( 52-C , 53-C ) :   1.0753 B( 52-C , 57-C ) :   1.3547
B( 53-C , 54-C ) :   1.3394 B( 54-C , 55-C ) :   1.3772 B( 54-C ,110-H ) :   0.9994
B( 55-C , 56-C ) :   1.3665 B( 55-C ,111-H ) :   0.9847 B( 56-C ,112-H ) :   0.9759
B( 57-C , 58-C ) :   1.3566 B( 57-C ,113-H ) :   0.9986 B( 58-C , 59-C ) :   1.3743
B( 58-C ,114-H ) :   0.9846 B( 59-C , 60-C ) :   1.3686 B( 59-C ,115-H ) :   0.9874
B( 60-C , 61-C ) :   1.0555 B( 61-C , 62-C ) :   1.6495 B( 61-C ,116-H ) :   0.9366
B( 62-C , 63-C ) :   1.2172 B( 62-C ,117-H ) :   0.9610 B( 63-C , 64-C ) :   1.5931
B( 63-C ,118-H ) :   0.9362 B( 64-C , 65-C ) :   1.0794 B( 64-C , 76-C ) :   0.9356
B( 65-C , 66-C ) :   1.6251 B( 65-C , 71-C ) :   1.0931 B( 66-C , 67-C ) :   1.1480
B( 66-C , 69-C ) :   1.1409 B( 67-C , 68-N ) :   3.0007 B( 69-C , 70-N ) :   2.9807
B( 71-C , 72-C ) :   1.4412 B( 71-C , 75-S ) :   1.1439 B( 72-C , 73-C ) :   1.2653
B( 72-C , 76-C ) :   0.9841 B( 73-C , 74-C ) :   1.5449 B( 73-C ,119-H ) :   1.0080
B( 74-C , 75-S ) :   1.1667 B( 74-C ,120-H ) :   0.9683 B( 76-C , 77-O ) :   2.1280

-----------------------------------------------------------------------------
         ABSORPTION SPECTRUM VIA TRANSITION ELECTRIC DIPOLE MOMENTS
-----------------------------------------------------------------------------
State   Energy  Wavelength   fosc         T2         TX        TY        TZ
        (cm-1)    (nm)                  (au**2)     (au)      (au)      (au)
-----------------------------------------------------------------------------
   0   15614.2    640.4   1.692764604  35.69055  -3.00283  -3.98074  -3.29049
   1   16666.6    600.0   0.026408680   0.52165  -0.29665   0.23125   0.61658
   2   18191.5    549.7   0.192655275   3.48649  -0.19704  -1.84857   0.17453
   3   20814.6    480.4   0.049975370   0.79043   0.80768   0.32462   0.18083
   4   21967.1    455.2   0.361118669   5.41193  -2.17448  -0.74806  -0.35209
   5   23605.6    423.6   0.041607932   0.58028   0.12851  -0.25399  -0.70658
   6   24106.0    414.8   0.433134584   5.91526   1.16144  -1.33862   1.66566
   7   25177.0    397.2   0.050985852   0.66669   0.58669   0.52479   0.21698
   8   25694.1    389.2   0.399581536   5.11974   1.61867  -0.82553   1.34838
   9   26906.5    371.7   0.044038123   0.53882  -0.66854   0.01026  -0.30293
  10   27750.6    360.4   0.452025549   5.36249  -1.62174   0.91608  -1.37595
  11   29333.0    340.9   0.326301451   3.66217  -1.31629   0.64634  -1.22955
  12   29724.2    336.4   0.098753959   1.09376   0.97961   0.26944   0.24803
  13   30636.9    326.4   0.147792377   1.58812  -1.14899   0.50151  -0.12817
  14   30797.2    324.7   0.136792552   1.46227  -1.07042   0.46070  -0.32285
  15   30996.0    322.6   0.026453928   0.28097  -0.18415   0.16581  -0.46858
  16   31253.6    320.0   0.061740651   0.65035  -0.18999   0.58614  -0.52028
  17   31303.5    319.5   0.141612728   1.48931  -0.60732   0.03687   1.05788
  18   31462.9    317.8   0.050090806   0.52413   0.69637  -0.15699  -0.12060
  19   31866.5    313.8   0.073937716   0.76385  -0.12469  -0.16232   0.84968
  20   32059.0    311.9   0.081085839   0.83266  -0.00114   0.23382  -0.88204
  21   32134.4    311.2   0.030360247   0.31104  -0.06891   0.37033  -0.41127
  22   32553.7    307.2   0.301272987   3.04674   1.37706  -0.87177   0.62486
  23   33006.0    303.0   0.123688700   1.23371  -1.05098  -0.16008  -0.32175
  24   33202.1    301.2   0.252904717   2.50765  -1.37347  -0.15631  -0.77253
  25   33631.7    297.3   0.279273647   2.73374   1.00738   0.34594  -1.26462
  26   33703.2    296.7   0.041396103   0.40436   0.13767  -0.33302  -0.52393
  27   34081.0    293.4   0.034266661   0.33101  -0.46567   0.28653  -0.17906
  28   34290.4    291.6   0.065878114   0.63248   0.76641  -0.12550   0.17129
  29   34362.7    291.0   0.185741991   1.77950  -0.71647  -0.19070  -1.10897
  30   34472.3    290.1   0.010245795   0.09785  -0.21163  -0.20408  -0.10684
  31   34663.6    288.5   0.003274090   0.03110   0.05339  -0.00597  -0.16795
  32   35213.4    284.0   0.099650710   0.93164   0.74189  -0.09373   0.61028
  33   36243.4    275.9   0.020456966   0.18582  -0.17674   0.14445   0.36567
  34   36376.7    274.9   0.080349094   0.72717   0.68229   0.10368   0.50089
  35   36492.1    274.0   0.018721887   0.16890  -0.39053  -0.03779  -0.12229
  36   36731.4    272.2   0.015891708   0.14243  -0.07217   0.15078   0.33836
  37   37073.0    269.7   0.025926171   0.23023  -0.15913  -0.45238   0.01604
  38   37240.3    268.5   0.014432928   0.12759   0.14810   0.26356   0.19024
  39   37453.9    267.0   0.118737198   1.04367  -0.22801   0.57180  -0.81531
  40   37566.1    266.2   0.145912155   1.27871   1.10723   0.21356  -0.08456
  41   37589.8    266.0   0.013875194   0.12152   0.09734  -0.29909  -0.15029
  42   37989.1    263.2   0.012858535   0.11143   0.07480   0.06916   0.31789
  43   38655.1    258.7   0.077019070   0.65594   0.29796  -0.61184   0.43910
  44   38813.0    257.6   0.065783026   0.55797   0.09464  -0.73731   0.07339
  45   39382.1    253.9   0.182419481   1.52492   1.13123   0.35430  -0.34599
  46   39612.0    252.4   0.005872971   0.04881  -0.18143   0.00170   0.12606
  47   39997.6    250.0   0.024603024   0.20250  -0.21982  -0.28060  -0.27468
  48   40267.5    248.3   0.014461992   0.11824  -0.34287   0.01735  -0.01934

FINAL SINGLE POINT ENERGY     -4591.521422325890

DIPOLE MOMENT
-------------
                                X             Y             Z
Electronic contribution:     35.39179      61.46557     -14.37370
Nuclear contribution   :    -37.48913     -61.91892      16.79393
                        -----------------------------------------
Total Dipole Moment    :     -2.09734      -0.45335       2.42023
                        -----------------------------------------
Magnitude (a.u.)       :      3.23448
Magnitude (Debye)      :      8.22139

Rotational constants in cm-1:     0.001134     0.000164     0.000150
Rotational constants in MHz :    33.988273     4.908442     4.489174

                             ****ORCA TERMINATED NORMALLY****
TOTAL RUN TIME: 0 days 0 hours 11 minutes 41 seconds 572 msec
