                         Program Version 4.2.0 -  RELEASE  -
|  1> # ORCA input file
|  2> # SCF done       -166.412208618413          0.000868651808
|  3> ! CAM-B3LYP def2-SVP def2/J RIJCOSX Grid4 TightSCF
|  4> %maxcore 5000
|  5> %tddft
|  6>     Mode sTDDFT
|  7>     Ethresh 5.0
|  8>     maxcore 5000
|  9> end
| 10>
| 11> %pal
| 12>   nprocs 6
| 13>   end
| 14> * xyz 0 1
| 15>    C        7.48103        -0.30163         0.30102
| 16>    C        7.77911         0.24686         1.51203
| 17>    S        7.76745        -0.88894         2.81613
| 18>    C        7.34367        -2.14116         1.72680
| 19>    C        7.22689        -1.67900         0.41906
| 20>    C        6.90429        -2.80485        -0.45633
| 21>    O        6.76157        -2.82644        -1.65562
| 22>    C        6.74638        -3.97887         0.47600
| 23>    C        7.18728        -3.56609         1.80382
| 24>    C        7.58767        -4.33626         2.86275
| 25>    C        7.95605        -3.73304         4.08381
| 26>    N        8.23236        -3.24354         5.08477
| 27>    C        7.82332        -5.72223         2.82611
| 28>    N        8.21376        -6.80400         2.86369
| 29>    C        6.13227        -5.08578         0.02293
| 30>    C        5.65275        -6.25021         0.73963
| 31>    N        5.53264        -6.23185         2.06817
| 32>    C        5.02643        -7.32140         2.62576
| 33>    C        4.70170        -8.45514         1.90218
| 34>    C        4.92801        -8.41056         0.51851
| 35>    N        5.33971        -7.27324        -0.03850
| 36>    C        4.71353        -9.54461        -0.36037
| 37>    C        5.32333        -9.66949        -1.55213
| 38>    C        6.36219        -8.76969        -1.99877
| 39>    C        6.35309        -8.20320        -3.28430
| 40>    C        7.21590        -7.09956        -3.63208
| 41>    N        7.15477        -6.56249        -4.84751
| 42>    C        6.29716        -7.04633        -5.72716
| 43>    C        5.42506        -8.12187        -5.37558
| 44>    N        5.46414        -8.66788        -4.18477
| 45>    C        4.50795        -8.62437        -6.33373
| 46>    N        3.77865        -9.00162        -7.13260
| 47>    C        6.25946        -6.49151        -7.02637
| 48>    N        6.20122        -6.05840        -8.08685
| 49>    C        8.11266        -6.51185        -2.67559
| 50>    C        8.27404        -7.25970        -1.47953
| 51>    C        7.41792        -8.36995        -1.15539
| 52>    N        7.75833        -8.93716         0.00392
| 53>    S        9.01559        -8.16106         0.62699
| 54>    N        9.19211        -7.06238        -0.53925
| 55>    C        8.67354        -5.26651        -2.96002
| 56>    C        9.34249        -4.37623        -2.13618
| 57>    C        9.64974        -3.05183        -2.51683
| 58>    C       10.13388        -2.26529        -1.50646
| 59>    C       10.25384        -2.95153        -0.28988
| 60>    S        9.77916        -4.62782        -0.46696
| 61>    C       10.64189        -2.48133         0.96072
| 62>    C       10.98109        -1.18026         1.36926
| 63>    C       11.25404        -1.07913         2.70613
| 64>    C       11.14985        -2.29273         3.42193
| 65>    S       10.70309        -3.57961         2.31277
| 66>    C       11.35192        -2.45251         4.77441
| 67>    C       11.24098        -3.61790         5.54901
| 68>    C       11.46393        -3.66481         6.93582
| 69>    C       11.24209        -4.98009         7.39152
| 70>    C       11.33534        -5.55390         8.64529
| 71>    C       11.04487        -6.91829         8.75928
| 72>    C       11.05642        -7.77538         9.85536
| 73>    C       10.67702        -9.08215         9.42872
| 74>    C       10.42545        -9.03321         8.06529
| 75>    C       10.64602        -7.70343         7.60111
| 76>    C       10.55150        -7.14266         6.35452
| 77>    C       10.85918        -5.77150         6.23355
| 78>    C       10.87137        -4.94309         5.13035
| 79>    C       10.56885       -10.26617        10.24678
| 80>    C       10.84197       -10.33599        11.54693
| 81>    H        7.44570         0.24502        -0.62301
| 82>    H        8.01402         1.27084         1.72746
| 83>    H        5.92825        -5.11710        -1.04200
| 84>    H        4.90348        -7.27899         3.70053
| 85>    H        4.32052        -9.34171         2.38112
| 86>    H        4.00418       -10.28721        -0.02505
| 87>    H        5.02127       -10.44568        -2.24191
| 88>    H        8.45569        -4.89700        -3.95500
| 89>    H        9.46382        -2.70420        -3.51716
| 90>    H       10.39185        -1.22689        -1.61619
| 91>    H       11.00511        -0.35569         0.67951
| 92>    H       11.52197        -0.16158         3.19987
| 93>    H       11.62304        -1.55272         5.31372
| 94>    H       11.75138        -2.83026         7.54845
| 95>    H       11.62509        -4.97551         9.51117
| 96>    H       11.30923        -7.49798        10.86210
| 97>    H       10.11849        -9.85846         7.44908
| 98>    H       10.25146        -7.71181         5.48633
| 99>    H       10.64082        -5.25072         4.12809
|100>    H       10.23828       -11.15346         9.72119
|101>    H       11.17630        -9.48243        12.11130
|102>    H       10.74105       -11.25710        12.09404
|103> *
|104>
|105>                          ****END OF INPUT****

CARTESIAN COORDINATES (ANGSTROEM)
---------------------------------
  C      7.481030   -0.301630    0.301020
  C      7.779110    0.246860    1.512030
  S      7.767450   -0.888940    2.816130
  C      7.343670   -2.141160    1.726800
  C      7.226890   -1.679000    0.419060
  C      6.904290   -2.804850   -0.456330
  O      6.761570   -2.826440   -1.655620
  C      6.746380   -3.978870    0.476000
  C      7.187280   -3.566090    1.803820
  C      7.587670   -4.336260    2.862750
  C      7.956050   -3.733040    4.083810
  N      8.232360   -3.243540    5.084770
  C      7.823320   -5.722230    2.826110
  N      8.213760   -6.804000    2.863690
  C      6.132270   -5.085780    0.022930
  C      5.652750   -6.250210    0.739630
  N      5.532640   -6.231850    2.068170
  C      5.026430   -7.321400    2.625760
  C      4.701700   -8.455140    1.902180
  C      4.928010   -8.410560    0.518510
  N      5.339710   -7.273240   -0.038500
  C      4.713530   -9.544610   -0.360370
  C      5.323330   -9.669490   -1.552130
  C      6.362190   -8.769690   -1.998770
  C      6.353090   -8.203200   -3.284300
  C      7.215900   -7.099560   -3.632080
  N      7.154770   -6.562490   -4.847510
  C      6.297160   -7.046330   -5.727160
  C      5.425060   -8.121870   -5.375580
  N      5.464140   -8.667880   -4.184770
  C      4.507950   -8.624370   -6.333730
  N      3.778650   -9.001620   -7.132600
  C      6.259460   -6.491510   -7.026370
  N      6.201220   -6.058400   -8.086850
  C      8.112660   -6.511850   -2.675590
  C      8.274040   -7.259700   -1.479530
  C      7.417920   -8.369950   -1.155390
  N      7.758330   -8.937160    0.003920
  S      9.015590   -8.161060    0.626990
  N      9.192110   -7.062380   -0.539250
  C      8.673540   -5.266510   -2.960020
  C      9.342490   -4.376230   -2.136180
  C      9.649740   -3.051830   -2.516830
  C     10.133880   -2.265290   -1.506460
  C     10.253840   -2.951530   -0.289880
  S      9.779160   -4.627820   -0.466960
  C     10.641890   -2.481330    0.960720
  C     10.981090   -1.180260    1.369260
  C     11.254040   -1.079130    2.706130
  C     11.149850   -2.292730    3.421930
  S     10.703090   -3.579610    2.312770
  C     11.351920   -2.452510    4.774410
  C     11.240980   -3.617900    5.549010
  C     11.463930   -3.664810    6.935820
  C     11.242090   -4.980090    7.391520
  C     11.335340   -5.553900    8.645290
  C     11.044870   -6.918290    8.759280
  C     11.056420   -7.775380    9.855360
  C     10.677020   -9.082150    9.428720
  C     10.425450   -9.033210    8.065290
  C     10.646020   -7.703430    7.601110
  C     10.551500   -7.142660    6.354520
  C     10.859180   -5.771500    6.233550
  C     10.871370   -4.943090    5.130350
  C     10.568850  -10.266170   10.246780
  C     10.841970  -10.335990   11.546930
  H      7.445700    0.245020   -0.623010
  H      8.014020    1.270840    1.727460
  H      5.928250   -5.117100   -1.042000
  H      4.903480   -7.278990    3.700530
  H      4.320520   -9.341710    2.381120
  H      4.004180  -10.287210   -0.025050
  H      5.021270  -10.445680   -2.241910
  H      8.455690   -4.897000   -3.955000
  H      9.463820   -2.704200   -3.517160
  H     10.391850   -1.226890   -1.616190
  H     11.005110   -0.355690    0.679510
  H     11.521970   -0.161580    3.199870
  H     11.623040   -1.552720    5.313720
  H     11.751380   -2.830260    7.548450
  H     11.625090   -4.975510    9.511170
  H     11.309230   -7.497980   10.862100
  H     10.118490   -9.858460    7.449080
  H     10.251460   -7.711810    5.486330
  H     10.640820   -5.250720    4.128090
  H     10.238280  -11.153460    9.721190
  H     11.176300   -9.482430   12.111300
  H     10.741050  -11.257100   12.094040

 Total Charge           Charge          ....    0
 Multiplicity           Mult            ....    1
 Number of Electrons    NEL             ....  470
 Basis Dimension        Dim             .... 1050

ORBITAL ENERGIES
----------------

  NO   OCC          E(Eh)            E(eV)
   0   2.0000     -89.015305     -2422.2296
   1   2.0000     -88.992140     -2421.5993
   2   2.0000     -88.961253     -2420.7588
   3   2.0000     -88.952085     -2420.5093
   4   2.0000     -19.221957      -523.0560
   5   2.0000     -14.435528      -392.8107
   6   2.0000     -14.431939      -392.7130
   7   2.0000     -14.430239      -392.6668
   8   2.0000     -14.424127      -392.5005
   9   2.0000     -14.420178      -392.3930
  10   2.0000     -14.419924      -392.3861
  11   2.0000     -14.417491      -392.3199
  12   2.0000     -14.410454      -392.1284
  13   2.0000     -14.407713      -392.0538
  14   2.0000     -14.400999      -391.8711
  15   2.0000     -10.374156      -282.2951
  16   2.0000     -10.354821      -281.7690
  17   2.0000     -10.349938      -281.6361
  18   2.0000     -10.348814      -281.6055
  19   2.0000     -10.348114      -281.5865
  20   2.0000     -10.345338      -281.5110
  21   2.0000     -10.332462      -281.1606
  22   2.0000     -10.329208      -281.0720
  23   2.0000     -10.329200      -281.0718
  24   2.0000     -10.327042      -281.0131
  25   2.0000     -10.325732      -280.9774
  26   2.0000     -10.324821      -280.9527
  27   2.0000     -10.324576      -280.9460
  28   2.0000     -10.320922      -280.8466
  29   2.0000     -10.319750      -280.8147
  30   2.0000     -10.318135      -280.7707
  31   2.0000     -10.314691      -280.6770
  32   2.0000     -10.314079      -280.6604
  33   2.0000     -10.313619      -280.6478
  34   2.0000     -10.313106      -280.6339
  35   2.0000     -10.307930      -280.4930
  36   2.0000     -10.306579      -280.4563
  37   2.0000     -10.304231      -280.3924
  38   2.0000     -10.304160      -280.3905
  39   2.0000     -10.302474      -280.3446
  40   2.0000     -10.302274      -280.3391
  41   2.0000     -10.301703      -280.3236
  42   2.0000     -10.301661      -280.3225
  43   2.0000     -10.300864      -280.3007
  44   2.0000     -10.299380      -280.2604
  45   2.0000     -10.296815      -280.1906
  46   2.0000     -10.296129      -280.1719
  47   2.0000     -10.293613      -280.1035
  48   2.0000     -10.292205      -280.0651
  49   2.0000     -10.291241      -280.0389
  50   2.0000     -10.289266      -279.9852
  51   2.0000     -10.288368      -279.9607
  52   2.0000     -10.284907      -279.8666
  53   2.0000     -10.282415      -279.7987
  54   2.0000     -10.280927      -279.7582
  55   2.0000     -10.279962      -279.7320
  56   2.0000     -10.277710      -279.6707
  57   2.0000     -10.276498      -279.6377
  58   2.0000     -10.276120      -279.6274
  59   2.0000     -10.275879      -279.6209
  60   2.0000     -10.275619      -279.6138
  61   2.0000     -10.274285      -279.5775
  62   2.0000     -10.273523      -279.5568
  63   2.0000     -10.273396      -279.5533
  64   2.0000     -10.268662      -279.4245
  65   2.0000     -10.264980      -279.3243
  66   2.0000      -8.106081      -220.5777
  67   2.0000      -8.086257      -220.0382
  68   2.0000      -8.056098      -219.2176
  69   2.0000      -8.045452      -218.9279
  70   2.0000      -6.077181      -165.3685
  71   2.0000      -6.069395      -165.1566
  72   2.0000      -6.068772      -165.1397
  73   2.0000      -6.055645      -164.7825
  74   2.0000      -6.050987      -164.6557
  75   2.0000      -6.048837      -164.5972
  76   2.0000      -6.025741      -163.9688
  77   2.0000      -6.021673      -163.8581
  78   2.0000      -6.017454      -163.7432
  79   2.0000      -6.015200      -163.6819
  80   2.0000      -6.010762      -163.5612
  81   2.0000      -6.006966      -163.4579
  82   2.0000      -1.136938       -30.9376
  83   2.0000      -1.115482       -30.3538
  84   2.0000      -1.090625       -29.6774
  85   2.0000      -1.089756       -29.6538
  86   2.0000      -1.033268       -28.1167
  87   2.0000      -1.017973       -27.7004
  88   2.0000      -1.014624       -27.6093
  89   2.0000      -1.004754       -27.3408
  90   2.0000      -1.002545       -27.2806
  91   2.0000      -0.996647       -27.1201
  92   2.0000      -0.989963       -26.9383
  93   2.0000      -0.987406       -26.8687
  94   2.0000      -0.981866       -26.7179
  95   2.0000      -0.977925       -26.6107
  96   2.0000      -0.970837       -26.4178
  97   2.0000      -0.966600       -26.3025
  98   2.0000      -0.965039       -26.2601
  99   2.0000      -0.950176       -25.8556
 100   2.0000      -0.917986       -24.9797
 101   2.0000      -0.912028       -24.8175
 102   2.0000      -0.906097       -24.6562
 103   2.0000      -0.894651       -24.3447
 104   2.0000      -0.883958       -24.0537
 105   2.0000      -0.880401       -23.9569
 106   2.0000      -0.874123       -23.7861
 107   2.0000      -0.867342       -23.6016
 108   2.0000      -0.859904       -23.3992
 109   2.0000      -0.857242       -23.3267
 110   2.0000      -0.851225       -23.1630
 111   2.0000      -0.848902       -23.0998
 112   2.0000      -0.832621       -22.6568
 113   2.0000      -0.826407       -22.4877
 114   2.0000      -0.809535       -22.0286
 115   2.0000      -0.807912       -21.9844
 116   2.0000      -0.799780       -21.7631
 117   2.0000      -0.783654       -21.3243
 118   2.0000      -0.775689       -21.1076
 119   2.0000      -0.768170       -20.9030
 120   2.0000      -0.766949       -20.8697
 121   2.0000      -0.757444       -20.6111
 122   2.0000      -0.751496       -20.4492
 123   2.0000      -0.735509       -20.0142
 124   2.0000      -0.725978       -19.7549
 125   2.0000      -0.715842       -19.4791
 126   2.0000      -0.706851       -19.2344
 127   2.0000      -0.696744       -18.9594
 128   2.0000      -0.692285       -18.8380
 129   2.0000      -0.683300       -18.5935
 130   2.0000      -0.678713       -18.4687
 131   2.0000      -0.676197       -18.4003
 132   2.0000      -0.672211       -18.2918
 133   2.0000      -0.663701       -18.0602
 134   2.0000      -0.657068       -17.8797
 135   2.0000      -0.653487       -17.7823
 136   2.0000      -0.650497       -17.7009
 137   2.0000      -0.638152       -17.3650
 138   2.0000      -0.636245       -17.3131
 139   2.0000      -0.629221       -17.1220
 140   2.0000      -0.626793       -17.0559
 141   2.0000      -0.624617       -16.9967
 142   2.0000      -0.619578       -16.8596
 143   2.0000      -0.615162       -16.7394
 144   2.0000      -0.605504       -16.4766
 145   2.0000      -0.602138       -16.3850
 146   2.0000      -0.598642       -16.2899
 147   2.0000      -0.597592       -16.2613
 148   2.0000      -0.589130       -16.0310
 149   2.0000      -0.586171       -15.9505
 150   2.0000      -0.579265       -15.7626
 151   2.0000      -0.569428       -15.4949
 152   2.0000      -0.564093       -15.3498
 153   2.0000      -0.558867       -15.2075
 154   2.0000      -0.557954       -15.1827
 155   2.0000      -0.552726       -15.0404
 156   2.0000      -0.550668       -14.9844
 157   2.0000      -0.546958       -14.8835
 158   2.0000      -0.540512       -14.7081
 159   2.0000      -0.539078       -14.6691
 160   2.0000      -0.535317       -14.5667
 161   2.0000      -0.535035       -14.5591
 162   2.0000      -0.528858       -14.3910
 163   2.0000      -0.525524       -14.3002
 164   2.0000      -0.524213       -14.2646
 165   2.0000      -0.520615       -14.1667
 166   2.0000      -0.514543       -14.0014
 167   2.0000      -0.511884       -13.9291
 168   2.0000      -0.509141       -13.8544
 169   2.0000      -0.504182       -13.7195
 170   2.0000      -0.502423       -13.6716
 171   2.0000      -0.500934       -13.6311
 172   2.0000      -0.499282       -13.5862
 173   2.0000      -0.496868       -13.5205
 174   2.0000      -0.490804       -13.3555
 175   2.0000      -0.487857       -13.2753
 176   2.0000      -0.485004       -13.1976
 177   2.0000      -0.484158       -13.1746
 178   2.0000      -0.481882       -13.1127
 179   2.0000      -0.480223       -13.0675
 180   2.0000      -0.477479       -12.9929
 181   2.0000      -0.472424       -12.8553
 182   2.0000      -0.471386       -12.8271
 183   2.0000      -0.470164       -12.7938
 184   2.0000      -0.466348       -12.6900
 185   2.0000      -0.463415       -12.6102
 186   2.0000      -0.461188       -12.5496
 187   2.0000      -0.459586       -12.5060
 188   2.0000      -0.457061       -12.4373
 189   2.0000      -0.453052       -12.3282
 190   2.0000      -0.452013       -12.2999
 191   2.0000      -0.448405       -12.2017
 192   2.0000      -0.447360       -12.1733
 193   2.0000      -0.442023       -12.0281
 194   2.0000      -0.440921       -11.9981
 195   2.0000      -0.439528       -11.9602
 196   2.0000      -0.435445       -11.8491
 197   2.0000      -0.434108       -11.8127
 198   2.0000      -0.429252       -11.6805
 199   2.0000      -0.428767       -11.6674
 200   2.0000      -0.428398       -11.6573
 201   2.0000      -0.426771       -11.6130
 202   2.0000      -0.422878       -11.5071
 203   2.0000      -0.420659       -11.4467
 204   2.0000      -0.419881       -11.4255
 205   2.0000      -0.415770       -11.3137
 206   2.0000      -0.411703       -11.2030
 207   2.0000      -0.410519       -11.1708
 208   2.0000      -0.405193       -11.0259
 209   2.0000      -0.399549       -10.8723
 210   2.0000      -0.397273       -10.8103
 211   2.0000      -0.388371       -10.5681
 212   2.0000      -0.387907       -10.5555
 213   2.0000      -0.385085       -10.4787
 214   2.0000      -0.381286       -10.3753
 215   2.0000      -0.378585       -10.3018
 216   2.0000      -0.376051       -10.2329
 217   2.0000      -0.371595       -10.1116
 218   2.0000      -0.357007        -9.7146
 219   2.0000      -0.348478        -9.4826
 220   2.0000      -0.344554        -9.3758
 221   2.0000      -0.342628        -9.3234
 222   2.0000      -0.340234        -9.2582
 223   2.0000      -0.334897        -9.1130
 224   2.0000      -0.333601        -9.0777
 225   2.0000      -0.330187        -8.9848
 226   2.0000      -0.327114        -8.9012
 227   2.0000      -0.319569        -8.6959
 228   2.0000      -0.311689        -8.4815
 229   2.0000      -0.309080        -8.4105
 230   2.0000      -0.302470        -8.2306
 231   2.0000      -0.278279        -7.5723
 232   2.0000      -0.276841        -7.5332
 233   2.0000      -0.250048        -6.8041
 234   2.0000      -0.202036        -5.4977
 235   0.0000      -0.112914        -3.0725
 236   0.0000      -0.102962        -2.8017
 237   0.0000      -0.089751        -2.4422
 238   0.0000      -0.062567        -1.7025
 239   0.0000      -0.056587        -1.5398

MULLIKEN ATOMIC CHARGES
-----------------------
   0 C :    0.007548
   1 C :   -0.056194
   2 S :    0.212151
   3 C :   -0.168459
   4 C :    0.051394
   5 C :    0.138739
   6 O :   -0.129964
   7 C :   -0.053625
   8 C :    0.245117
   9 C :   -0.260675
  10 C :   -0.220187
  11 N :    0.159916
  12 C :   -0.135124
  13 N :    0.100755
  14 C :    0.051172
  15 C :   -0.069562
  16 N :   -0.114353
  17 C :    0.101161
  18 C :   -0.009371
  19 C :    0.057056
  20 N :   -0.071926
  21 C :    0.025201
  22 C :    0.019942
  23 C :    0.019119
  24 C :   -0.026734
  25 C :   -0.071962
  26 N :    0.047482
  27 C :   -0.156397
  28 C :   -0.134465
  29 N :    0.038176
  30 C :   -0.207492
  31 N :    0.221010
  32 C :   -0.213522
  33 N :    0.213316
  34 C :    0.106067
  35 C :    0.021272
  36 C :    0.003471
  37 N :   -0.286146
  38 S :    0.550028
  39 N :   -0.334339
  40 C :   -0.097788
  41 C :    0.015253
  42 C :    0.044064
  43 C :    0.038310
  44 C :   -0.058398
  45 S :    0.107718
  46 C :   -0.018710
  47 C :    0.023170
  48 C :    0.046595
  49 C :   -0.043999
  50 S :    0.049443
  51 C :    0.031447
  52 C :    0.068912
  53 C :   -0.016355
  54 C :    0.062119
  55 C :    0.010021
  56 C :    0.044871
  57 C :   -0.012982
  58 C :    0.059697
  59 C :   -0.018908
  60 C :    0.054890
  61 C :    0.012222
  62 C :    0.032243
  63 C :   -0.014662
  64 C :    0.012000
  65 C :   -0.022852
  66 H :    0.003042
  67 H :    0.038611
  68 H :    0.027659
  69 H :    0.009018
  70 H :   -0.004567
  71 H :   -0.011298
  72 H :    0.016614
  73 H :    0.001158
  74 H :   -0.006031
  75 H :   -0.020448
  76 H :   -0.015908
  77 H :   -0.013004
  78 H :   -0.018267
  79 H :   -0.023777
  80 H :   -0.021311
  81 H :   -0.020047
  82 H :   -0.020854
  83 H :   -0.012284
  84 H :   -0.001716
  85 H :   -0.016723
  86 H :    0.008796
  87 H :    0.023418
Sum of atomic charges:   -0.0000000

LOEWDIN ATOMIC CHARGES
----------------------
   0 C :   -0.037269
   1 C :   -0.155311
   2 S :    0.513055
   3 C :   -0.166156
   4 C :   -0.069298
   5 C :    0.083274
   6 O :   -0.123659
   7 C :   -0.059243
   8 C :    0.053592
   9 C :   -0.126490
  10 C :   -0.035534
  11 N :   -0.044626
  12 C :   -0.002453
  13 N :   -0.103081
  14 C :    0.044995
  15 C :    0.008070
  16 N :   -0.079055
  17 C :    0.059338
  18 C :   -0.045088
  19 C :    0.051498
  20 N :   -0.063569
  21 C :   -0.048621
  22 C :    0.044678
  23 C :   -0.068672
  24 C :    0.002714
  25 C :   -0.013856
  26 N :   -0.000826
  27 C :   -0.059507
  28 C :   -0.027219
  29 N :   -0.021473
  30 C :   -0.031770
  31 N :   -0.018873
  32 C :   -0.038896
  33 N :   -0.031810
  34 C :   -0.019336
  35 C :   -0.054485
  36 C :   -0.036932
  37 N :   -0.304848
  38 S :    0.698082
  39 N :   -0.303795
  40 C :   -0.039928
  41 C :   -0.123738
  42 C :   -0.029416
  43 C :   -0.028287
  44 C :   -0.218140
  45 S :    0.457087
  46 C :   -0.153490
  47 C :   -0.057025
  48 C :   -0.015782
  49 C :   -0.175395
  50 S :    0.416984
  51 C :    0.003042
  52 C :   -0.067636
  53 C :    0.042486
  54 C :   -0.063113
  55 C :    0.084773
  56 C :   -0.064134
  57 C :    0.054069
  58 C :   -0.058332
  59 C :    0.026728
  60 C :   -0.059484
  61 C :    0.083282
  62 C :   -0.058402
  63 C :    0.038330
  64 C :   -0.022025
  65 C :   -0.049813
  66 H :    0.041346
  67 H :    0.027982
  68 H :    0.050761
  69 H :    0.027782
  70 H :    0.036443
  71 H :    0.030796
  72 H :    0.039269
  73 H :    0.041731
  74 H :    0.036332
  75 H :    0.028954
  76 H :    0.030917
  77 H :    0.033193
  78 H :    0.038957
  79 H :    0.026347
  80 H :    0.036628
  81 H :    0.026646
  82 H :    0.027193
  83 H :    0.040997
  84 H :    0.013276
  85 H :    0.030242
  86 H :    0.018166
  87 H :    0.025848

  Mayer bond orders larger than 0.100000
B(  0-C ,  1-C ) :   1.5434 B(  0-C ,  4-C ) :   1.2645 B(  0-C , 66-H ) :   1.0107
B(  1-C ,  2-S ) :   1.1636 B(  1-C , 67-H ) :   0.9690 B(  2-S ,  3-C ) :   1.1588
B(  3-C ,  4-C ) :   1.4352 B(  3-C ,  8-C ) :   1.0943 B(  4-C ,  5-C ) :   0.9469
B(  5-C ,  6-O ) :   2.2307 B(  5-C ,  7-C ) :   0.9156 B(  7-C ,  8-C ) :   0.9970
B(  7-C , 14-C ) :   1.7185 B(  8-C ,  9-C ) :   1.6812 B(  9-C , 10-C ) :   1.1364
B(  9-C , 12-C ) :   1.1751 B( 10-C , 11-N ) :   2.9500 B( 12-C , 13-N ) :   2.8441
B( 14-C , 15-C ) :   1.0044 B( 14-C , 68-H ) :   0.9406 B( 15-C , 16-N ) :   1.4762
B( 15-C , 20-N ) :   1.5052 B( 16-N , 17-C ) :   1.4912 B( 17-C , 18-C ) :   1.3926
B( 17-C , 69-H ) :   0.9783 B( 18-C , 19-C ) :   1.3329 B( 18-C , 70-H ) :   0.9750
B( 19-C , 20-N ) :   1.4597 B( 19-C , 21-C ) :   1.0459 B( 21-C , 22-C ) :   1.7922
B( 21-C , 71-H ) :   0.9665 B( 22-C , 23-C ) :   1.0618 B( 22-C , 72-H ) :   0.9494
B( 23-C , 24-C ) :   1.3465 B( 23-C , 36-C ) :   1.2055 B( 24-C , 25-C ) :   1.1125
B( 24-C , 29-N ) :   1.4503 B( 25-C , 26-N ) :   1.5300 B( 25-C , 34-C ) :   1.1477
B( 26-N , 27-C ) :   1.6587 B( 27-C , 28-C ) :   1.2361 B( 27-C , 32-C ) :   1.1614
B( 28-C , 29-N ) :   1.7252 B( 28-C , 30-C ) :   1.1497 B( 30-C , 31-N ) :   3.0525
B( 32-C , 33-N ) :   3.0404 B( 34-C , 35-C ) :   1.1294 B( 34-C , 40-C ) :   1.3606
B( 35-C , 36-C ) :   1.1245 B( 35-C , 39-N ) :   1.4617 B( 36-C , 37-N ) :   1.5317
B( 37-N , 38-S ) :   1.2723 B( 37-N , 39-N ) :   0.1297 B( 38-S , 39-N ) :   1.2650
B( 40-C , 41-C ) :   1.3738 B( 40-C , 73-H ) :   0.9443 B( 41-C , 42-C ) :   1.2080
B( 41-C , 45-S ) :   1.0925 B( 42-C , 43-C ) :   1.5046 B( 42-C , 74-H ) :   1.0007
B( 43-C , 44-C ) :   1.2404 B( 43-C , 75-H ) :   0.9965 B( 44-C , 45-S ) :   1.0239
B( 44-C , 46-C ) :   1.4045 B( 46-C , 47-C ) :   1.2380 B( 46-C , 50-S ) :   1.0872
B( 47-C , 48-C ) :   1.5209 B( 47-C , 76-H ) :   0.9937 B( 48-C , 49-C ) :   1.1790
B( 48-C , 77-H ) :   1.0011 B( 49-C , 50-S ) :   1.0162 B( 49-C , 51-C ) :   1.5136
B( 51-C , 52-C ) :   1.1769 B( 51-C , 78-H ) :   0.9682 B( 52-C , 53-C ) :   1.3768
B( 52-C , 63-C ) :   1.1277 B( 53-C , 54-C ) :   1.1584 B( 53-C , 79-H ) :   1.0177
B( 54-C , 55-C ) :   1.3743 B( 54-C , 62-C ) :   1.1306 B( 55-C , 56-C ) :   1.1816
B( 55-C , 80-H ) :   1.0041 B( 56-C , 57-C ) :   1.3839 B( 56-C , 60-C ) :   1.1230
B( 57-C , 58-C ) :   1.1850 B( 57-C , 81-H ) :   1.0084 B( 58-C , 59-C ) :   1.4649
B( 58-C , 64-C ) :   1.0816 B( 59-C , 60-C ) :   1.1096 B( 59-C , 82-H ) :   1.0169
B( 60-C , 61-C ) :   1.4375 B( 61-C , 62-C ) :   1.1401 B( 61-C , 83-H ) :   1.0055
B( 62-C , 63-C ) :   1.4588 B( 63-C , 84-H ) :   0.9862 B( 64-C , 65-C ) :   1.9359
B( 64-C , 85-H ) :   0.9669 B( 65-C , 86-H ) :   0.9531 B( 65-C , 87-H ) :   0.9496

-----------------------------------------------------------------------------
         ABSORPTION SPECTRUM VIA TRANSITION ELECTRIC DIPOLE MOMENTS
-----------------------------------------------------------------------------
State   Energy  Wavelength   fosc         T2         TX        TY        TZ
        (cm-1)    (nm)                  (au**2)     (au)      (au)      (au)
-----------------------------------------------------------------------------
   0    5303.6   1885.5   0.151116206   9.38020   1.34684   0.90635   2.59707
   1    6562.6   1523.8   0.208910207  10.47995   1.67576   1.40535   2.38679
   2    7320.5   1366.0   0.007889336   0.35479   0.36443  -0.19578  -0.42855
   3   12838.9    778.9   0.014138331   0.36253  -0.26740  -0.12238  -0.52541
   4   13033.7    767.2   0.025149192   0.63523  -0.36084  -0.67553  -0.22063
   5   16789.7    595.6   0.303599484   5.95297   0.50173  -0.47980   2.33902
   6   16991.0    588.5   0.346524017   6.71414   0.11134   1.24110  -2.27187
   7   18841.5    530.7   0.029112502   0.50867   0.06942  -0.14687  -0.69447
   8   19801.5    505.0   0.170530231   2.83516   0.51001   0.51415  -1.52010
   9   21504.2    465.0   0.071203864   1.09008  -0.05572  -0.26904   1.00727
  10   22246.6    449.5   0.085667766   1.26774   0.03627  -1.07672   0.32727
  11   22831.3    438.0   0.045668317   0.65851   0.03262   0.74275  -0.32522
  12   23554.6    424.5   0.007858963   0.10984  -0.21974  -0.07304  -0.23711
  13   23722.0    421.5   0.112856470   1.56621   0.06629   0.71730  -1.02338
  14   24479.8    408.5   0.075330974   1.01307  -0.22448  -0.31398   0.92957
  15   24503.2    408.1   0.263315291   3.53777  -0.21512   1.25325  -1.38595
  16   24734.0    404.3   0.101327279   1.34868  -0.12127  -0.04569  -1.15407
  17   25388.0    393.9   0.020341564   0.26377   0.12333   0.43182   0.24918
  18   26478.4    377.7   0.014875449   0.18495  -0.20371   0.22957  -0.30125
  19   26613.0    375.8   0.003956453   0.04894  -0.01132  -0.13611   0.17404
  20   26987.6    370.5   0.110401805   1.34675  -0.02206   1.00908  -0.57273
  21   27303.4    366.3   0.036392060   0.43880   0.31486  -0.16223   0.55977
  22   27553.1    362.9   0.011912921   0.14234   0.07719   0.27695   0.24429
  23   27591.8    362.4   0.378516842   4.51627   0.07004  -1.35916   1.63219
  24   27972.4    357.5   0.275841643   3.24643   0.91756   1.54993  -0.04705
  25   28425.1    351.8   0.081531442   0.94427   0.33345   0.25967   0.87502
  26   28745.9    347.9   0.025016771   0.28650  -0.22938   0.24933  -0.41440
  27   29077.2    343.9   0.157074559   1.77840   0.32572   1.10195  -0.67676
  28   29837.5    335.1   0.021713789   0.23958   0.20209   0.42483  -0.13511
  29   30008.4    333.2   0.048516513   0.53226   0.19928   0.27666  -0.64498
  30   30141.2    331.8   0.016641841   0.18177  -0.22661  -0.23051  -0.27799
  31   30481.4    328.1   0.159643251   1.72422  -0.12843  -1.20895   0.49616
  32   30704.0    325.7   0.082753587   0.88729  -0.40013  -0.17894  -0.83377
  33   31165.3    320.9   0.258709182   2.73285   0.72664  -0.25632   1.46258
  34   31584.1    316.6   0.042105751   0.43888   0.09791  -0.59506   0.27422
  35   31879.7    313.7   0.075675845   0.78148   0.21415   0.84351  -0.15529
  36   32015.7    312.3   0.037671756   0.38737  -0.18566  -0.44468  -0.39390
  37   32172.2    310.8   0.003079821   0.03152   0.02991  -0.10644  -0.13889
  38   32295.8    309.6   0.038410665   0.39154   0.11176   0.09873  -0.60771
  39   32410.8    308.5   0.028603771   0.29054   0.09931   0.39119   0.35728
  40   32467.8    308.0   0.020236344   0.20519  -0.23161  -0.28845  -0.26142
  41   32624.1    306.5   0.124299280   1.25431  -0.12337   0.77000  -0.80386
  42   33004.2    303.0   0.019266188   0.19218  -0.08373   0.36367  -0.23002
  43   33063.5    302.4   0.025157832   0.25050  -0.16440  -0.47241   0.01737
  44   33287.9    300.4   0.164561824   1.62749  -0.07350   0.73987  -1.03667
  45   33356.4    299.8   0.040609426   0.40080   0.22956   0.08616   0.58367
  46   33500.8    298.5   0.016419501   0.16135  -0.10569  -0.38694  -0.02139
  47   33787.0    296.0   0.012564496   0.12243   0.18574   0.26767   0.12758
  48   34054.4    293.6   0.104933066   1.01441  -0.12259   0.88736  -0.46040
  49   34485.6    290.0   0.275003139   2.62528   0.23062   1.16845  -1.09856
  50   34528.4    289.6   0.018324048   0.17471  -0.09176  -0.40194  -0.06879
  51   34811.5    287.3   0.078246452   0.73998  -0.25396  -0.76133   0.30961
  52   34974.0    285.9   0.012948879   0.12189   0.23101   0.22218   0.13842
  53   35037.8    285.4   0.008658502   0.08135  -0.19567  -0.20680   0.01742
  54   35171.8    284.3   0.010953327   0.10252   0.01263   0.29532  -0.12308
  55   35283.1    283.4   0.023317780   0.21757   0.20856  -0.25735   0.32839
  56   35394.0    282.5   0.025300215   0.23533  -0.03767  -0.22147   0.42995
  57   35440.3    282.2   0.024985178   0.23209  -0.37192   0.05122  -0.30190
  58   35734.9    279.8   0.081691449   0.75259  -0.15281  -0.72174  -0.45644
  59   35970.9    278.0   0.064966724   0.59459   0.03895  -0.48137   0.60113
  60   36130.3    276.8   0.028348897   0.25831   0.10489   0.27038   0.41737
  61   36224.9    276.1   0.080196503   0.72883  -0.06113   0.76398   0.37607
  62   36365.1    275.0   0.176890890   1.60139  -0.45785   0.41921  -1.10273
  63   36529.5    273.8   0.163104667   1.46994   0.78390   0.91346  -0.14499
  64   36873.3    271.2   0.046955220   0.41922   0.58244   0.27920  -0.04509
  65   37035.2    270.0   0.087390309   0.77683  -0.32160   0.28197  -0.77065
  66   37097.8    269.6   0.063108838   0.56004  -0.35025   0.03613  -0.66035
  67   37190.6    268.9   0.063329951   0.56060  -0.15057   0.24985  -0.68957
  68   37511.9    266.6   0.011834539   0.10386   0.05413  -0.23091   0.21820
  69   37668.0    265.5   0.100757024   0.88060  -0.11790   0.33632  -0.86809
  70   37932.6    263.6   0.010219804   0.08870  -0.21893  -0.03431  -0.19897
  71   38205.4    261.7   0.091082490   0.78485   0.09794  -0.30108   0.82741
  72   38231.0    261.6   0.023619644   0.20339  -0.03873   0.37967  -0.24029
  73   38565.5    259.3   0.043806084   0.37395  -0.24206  -0.12553  -0.54735
  74   38699.4    258.4   0.039727814   0.33796  -0.33302  -0.21468  -0.42540
  75   38900.2    257.1   0.042355598   0.35845  -0.36245  -0.27781   0.38718
  76   39137.4    255.5   0.180790787   1.52076   0.62935   0.91072   0.54338
  77   39360.0    254.1   0.125616230   1.05067  -0.25376   0.78283  -0.61111
  78   39468.0    253.4   0.077157114   0.64359   0.13084  -0.62173   0.48982
  79   39599.2    252.5   0.031851161   0.26480  -0.12214   0.42213   0.26774
  80   39746.8    251.6   0.037269223   0.30869  -0.26819  -0.26223  -0.40987
  81   39807.3    251.2   0.106012233   0.87674   0.01435   0.36581  -0.86181
  82   39856.5    250.9   0.015180444   0.12539  -0.21528  -0.09375   0.26506
  83   40115.9    249.3   0.006629958   0.05441  -0.19112  -0.08368  -0.10430

FINAL SINGLE POINT ENERGY     -4168.135218459458

DIPOLE MOMENT
-------------
                                X             Y             Z
Electronic contribution:    -13.62041       2.38162     -45.18329
Nuclear contribution   :     15.74186       0.10701      51.15306
                        -----------------------------------------
Total Dipole Moment    :      2.12144       2.48863       5.96977
                        -----------------------------------------
Magnitude (a.u.)       :      6.80676
Magnitude (Debye)      :     17.30140

Rotational constants in cm-1:     0.001842     0.000779     0.000622
Rotational constants in MHz :    55.214764    23.355498    18.640697

                             ****ORCA TERMINATED NORMALLY****
TOTAL RUN TIME: 0 days 0 hours 30 minutes 58 seconds 810 msec
