                         Program Version 4.2.0 -  RELEASE  -
|  1> # ORCA input file
|  2> # SCF done       -143.336039233618          0.000255631628
|  3> ! CAM-B3LYP def2-SVP def2/J RIJCOSX Grid4 TightSCF
|  4> %maxcore 5000
|  5> %tddft
|  6>     Mode sTDDFT
|  7>     Ethresh 5.0
|  8>     maxcore 5000
|  9> end
| 10>
| 11> %pal
| 12>   nprocs 6
| 13>   end
| 14> * xyz 0 1
| 15>    C        4.16041         1.91541        -0.74986
| 16>    C        3.10658         2.30259        -1.45245
| 17>    C        2.22469         1.38908        -2.18984
| 18>    C        2.78868         0.44244        -3.05462
| 19>    O        4.16124         0.32853        -3.16074
| 20>    C        4.77187         1.29978        -3.99618
| 21>    C        6.27747         1.19279        -3.82660
| 22>    C        1.97406        -0.40202        -3.80799
| 23>    C        2.56668        -1.42033        -4.74028
| 24>    C        2.37157        -1.01945        -6.20374
| 25>    C        0.59527        -0.28299        -3.70609
| 26>    C        0.00448         0.66285        -2.88157
| 27>    O       -1.32783         0.82896        -2.75562
| 28>    C       -2.21783         0.08481        -3.56601
| 29>    C       -3.62023         0.60761        -3.29660
| 30>    C        0.82897         1.50003        -2.09255
| 31>    C        0.21544         2.44301        -1.17791
| 32>    C        0.67136         3.03432        -0.01713
| 33>    C       -0.36497         3.87175         0.45416
| 34>    C       -0.24408         4.84549         1.52756
| 35>    O       -0.95753         5.80599         1.67562
| 36>    C       -1.41652         3.70735        -0.44959
| 37>    C       -2.71685         4.26800        -0.56429
| 38>    S       -3.41942         4.32165        -2.14085
| 39>    C       -4.81701         5.18086        -1.54108
| 40>    C       -5.86642         5.68941        -2.34964
| 41>    S       -6.92807         6.87261        -1.64403
| 42>    C       -7.84673         7.05310        -3.12353
| 43>    C       -8.92800         7.96180        -3.24471
| 44>    C       -9.35216         8.78984        -2.25692
| 45>    C      -10.40465         9.71446        -2.37224
| 46>    C      -10.82962        10.59609        -1.33652
| 47>    N      -10.38082        10.61201        -0.14763
| 48>    C      -10.54762        11.55309         0.81566
| 49>    O      -10.73510        11.32483         1.97736
| 50>    O      -11.88456        11.40029        -1.75985
| 51>    C      -12.25898        11.15579        -2.99207
| 52>    S      -11.37953         9.95986        -3.77307
| 53>    C       -7.35140         6.22370        -4.09548
| 54>    C       -6.24344         5.45806        -3.67784
| 55>    N       -5.65727         4.53983        -4.56475
| 56>    O       -4.68948         3.88654        -4.19006
| 57>    O       -6.14777         4.42669        -5.67154
| 58>    C       -4.72794         5.36511        -0.17344
| 59>    C       -3.56909         4.82208         0.38641
| 60>    N       -3.42235         4.71161         1.80409
| 61>    O       -2.73414         3.80591         2.22688
| 62>    O       -4.06018         5.47992         2.48568
| 63>    O       -1.04123         2.86220        -1.42250
| 64>    H        4.79595         2.62550        -0.24724
| 65>    H        4.41935         0.87559        -0.65113
| 66>    H        2.84981         3.35320        -1.52687
| 67>    H        4.42608         2.30509        -3.71863
| 68>    H        4.49025         1.11789        -5.04425
| 69>    H        6.54816         1.40917        -2.79696
| 70>    H        6.77548         1.89900        -4.48489
| 71>    H        6.60640         0.18563        -4.06709
| 72>    H        2.08659        -2.38637        -4.56835
| 73>    H        3.63039        -1.52322        -4.52511
| 74>    H        1.31409        -0.93655        -6.44356
| 75>    H        2.81756        -1.76346        -6.85942
| 76>    H        2.84010        -0.05820        -6.40361
| 77>    H       -0.01821        -0.95132        -4.28920
| 78>    H       -2.15076        -0.98334        -3.31473
| 79>    H       -1.96315         0.21703        -4.62564
| 80>    H       -3.84773         0.52125        -2.23756
| 81>    H       -4.34286         0.02896        -3.86483
| 82>    H       -3.69331         1.65275        -3.58592
| 83>    H        1.61828         2.88311         0.45666
| 84>    H        0.62584         4.66752         2.18496
| 85>    H       -9.41668         7.98056        -4.21093
| 86>    H       -8.87233         8.78068        -1.28736
| 87>    H      -10.39900        12.59560         0.44207
| 88>    H      -13.07928        11.70125        -3.41456
| 89>    H       -7.75204         6.15000        -5.09005
| 90>    H       -5.48570         5.84414         0.42175
| 91> *
| 92>
| 93>                          ****END OF INPUT****

CARTESIAN COORDINATES (ANGSTROEM)
---------------------------------
  C      4.160410    1.915410   -0.749860
  C      3.106580    2.302590   -1.452450
  C      2.224690    1.389080   -2.189840
  C      2.788680    0.442440   -3.054620
  O      4.161240    0.328530   -3.160740
  C      4.771870    1.299780   -3.996180
  C      6.277470    1.192790   -3.826600
  C      1.974060   -0.402020   -3.807990
  C      2.566680   -1.420330   -4.740280
  C      2.371570   -1.019450   -6.203740
  C      0.595270   -0.282990   -3.706090
  C      0.004480    0.662850   -2.881570
  O     -1.327830    0.828960   -2.755620
  C     -2.217830    0.084810   -3.566010
  C     -3.620230    0.607610   -3.296600
  C      0.828970    1.500030   -2.092550
  C      0.215440    2.443010   -1.177910
  C      0.671360    3.034320   -0.017130
  C     -0.364970    3.871750    0.454160
  C     -0.244080    4.845490    1.527560
  O     -0.957530    5.805990    1.675620
  C     -1.416520    3.707350   -0.449590
  C     -2.716850    4.268000   -0.564290
  S     -3.419420    4.321650   -2.140850
  C     -4.817010    5.180860   -1.541080
  C     -5.866420    5.689410   -2.349640
  S     -6.928070    6.872610   -1.644030
  C     -7.846730    7.053100   -3.123530
  C     -8.928000    7.961800   -3.244710
  C     -9.352160    8.789840   -2.256920
  C    -10.404650    9.714460   -2.372240
  C    -10.829620   10.596090   -1.336520
  N    -10.380820   10.612010   -0.147630
  C    -10.547620   11.553090    0.815660
  O    -10.735100   11.324830    1.977360
  O    -11.884560   11.400290   -1.759850
  C    -12.258980   11.155790   -2.992070
  S    -11.379530    9.959860   -3.773070
  C     -7.351400    6.223700   -4.095480
  C     -6.243440    5.458060   -3.677840
  N     -5.657270    4.539830   -4.564750
  O     -4.689480    3.886540   -4.190060
  O     -6.147770    4.426690   -5.671540
  C     -4.727940    5.365110   -0.173440
  C     -3.569090    4.822080    0.386410
  N     -3.422350    4.711610    1.804090
  O     -2.734140    3.805910    2.226880
  O     -4.060180    5.479920    2.485680
  O     -1.041230    2.862200   -1.422500
  H      4.795950    2.625500   -0.247240
  H      4.419350    0.875590   -0.651130
  H      2.849810    3.353200   -1.526870
  H      4.426080    2.305090   -3.718630
  H      4.490250    1.117890   -5.044250
  H      6.548160    1.409170   -2.796960
  H      6.775480    1.899000   -4.484890
  H      6.606400    0.185630   -4.067090
  H      2.086590   -2.386370   -4.568350
  H      3.630390   -1.523220   -4.525110
  H      1.314090   -0.936550   -6.443560
  H      2.817560   -1.763460   -6.859420
  H      2.840100   -0.058200   -6.403610
  H     -0.018210   -0.951320   -4.289200
  H     -2.150760   -0.983340   -3.314730
  H     -1.963150    0.217030   -4.625640
  H     -3.847730    0.521250   -2.237560
  H     -4.342860    0.028960   -3.864830
  H     -3.693310    1.652750   -3.585920
  H      1.618280    2.883110    0.456660
  H      0.625840    4.667520    2.184960
  H     -9.416680    7.980560   -4.210930
  H     -8.872330    8.780680   -1.287360
  H    -10.399000   12.595600    0.442070
  H    -13.079280   11.701250   -3.414560
  H     -7.752040    6.150000   -5.090050
  H     -5.485700    5.844140    0.421750

 Total Charge           Charge          ....    0
 Multiplicity           Mult            ....    1
 Number of Electrons    NEL             ....  374
 Basis Dimension        Dim             ....  833

ORBITAL ENERGIES
----------------

  NO   OCC          E(Eh)            E(eV)
   0   2.0000     -89.038532     -2422.8616
   1   2.0000     -88.979491     -2421.2550
   2   2.0000     -88.974469     -2421.1184
   3   2.0000     -19.351862      -526.5909
   4   2.0000     -19.293896      -525.0136
   5   2.0000     -19.247820      -523.7598
   6   2.0000     -19.246166      -523.7148
   7   2.0000     -19.235747      -523.4313
   8   2.0000     -19.229432      -523.2594
   9   2.0000     -19.225802      -523.1607
  10   2.0000     -19.219658      -522.9935
  11   2.0000     -19.203019      -522.5407
  12   2.0000     -19.171182      -521.6744
  13   2.0000     -14.654698      -398.7746
  14   2.0000     -14.635776      -398.2597
  15   2.0000     -14.384694      -391.4274
  16   2.0000     -10.423521      -283.6384
  17   2.0000     -10.403670      -283.0982
  18   2.0000     -10.352483      -281.7054
  19   2.0000     -10.350508      -281.6516
  20   2.0000     -10.349016      -281.6110
  21   2.0000     -10.344087      -281.4769
  22   2.0000     -10.335693      -281.2485
  23   2.0000     -10.335514      -281.2436
  24   2.0000     -10.331278      -281.1284
  25   2.0000     -10.327715      -281.0314
  26   2.0000     -10.325231      -280.9638
  27   2.0000     -10.324545      -280.9452
  28   2.0000     -10.323792      -280.9247
  29   2.0000     -10.322935      -280.9013
  30   2.0000     -10.316788      -280.7341
  31   2.0000     -10.311247      -280.5833
  32   2.0000     -10.311064      -280.5783
  33   2.0000     -10.304989      -280.4130
  34   2.0000     -10.297598      -280.2119
  35   2.0000     -10.297428      -280.2073
  36   2.0000     -10.294460      -280.1265
  37   2.0000     -10.280779      -279.7542
  38   2.0000     -10.280358      -279.7428
  39   2.0000     -10.277184      -279.6564
  40   2.0000     -10.272159      -279.5197
  41   2.0000     -10.272074      -279.5173
  42   2.0000     -10.270965      -279.4872
  43   2.0000     -10.261944      -279.2417
  44   2.0000     -10.260406      -279.1998
  45   2.0000     -10.260265      -279.1960
  46   2.0000     -10.254690      -279.0443
  47   2.0000     -10.253364      -279.0082
  48   2.0000     -10.247896      -278.8594
  49   2.0000      -8.133484      -221.3233
  50   2.0000      -8.074874      -219.7285
  51   2.0000      -8.067667      -219.5324
  52   2.0000      -6.101838      -166.0395
  53   2.0000      -6.097731      -165.9277
  54   2.0000      -6.097534      -165.9223
  55   2.0000      -6.044274      -164.4730
  56   2.0000      -6.040080      -164.3589
  57   2.0000      -6.037263      -164.2823
  58   2.0000      -6.036708      -164.2672
  59   2.0000      -6.032469      -164.1518
  60   2.0000      -6.029754      -164.0780
  61   2.0000      -1.325976       -36.0816
  62   2.0000      -1.309831       -35.6423
  63   2.0000      -1.268984       -34.5308
  64   2.0000      -1.219682       -33.1892
  65   2.0000      -1.145422       -31.1685
  66   2.0000      -1.142961       -31.1015
  67   2.0000      -1.129650       -30.7393
  68   2.0000      -1.125110       -30.6158
  69   2.0000      -1.115938       -30.3662
  70   2.0000      -1.101887       -29.9839
  71   2.0000      -1.021867       -27.8064
  72   2.0000      -1.013791       -27.5867
  73   2.0000      -1.000757       -27.2320
  74   2.0000      -0.995010       -27.0756
  75   2.0000      -0.954321       -25.9684
  76   2.0000      -0.928471       -25.2650
  77   2.0000      -0.910656       -24.7802
  78   2.0000      -0.906950       -24.6794
  79   2.0000      -0.899333       -24.4721
  80   2.0000      -0.894415       -24.3383
  81   2.0000      -0.885954       -24.1080
  82   2.0000      -0.873688       -23.7743
  83   2.0000      -0.864434       -23.5224
  84   2.0000      -0.847137       -23.0518
  85   2.0000      -0.842974       -22.9385
  86   2.0000      -0.835181       -22.7264
  87   2.0000      -0.823501       -22.4086
  88   2.0000      -0.798665       -21.7328
  89   2.0000      -0.791457       -21.5366
  90   2.0000      -0.784794       -21.3553
  91   2.0000      -0.782639       -21.2967
  92   2.0000      -0.757079       -20.6012
  93   2.0000      -0.748121       -20.3574
  94   2.0000      -0.742009       -20.1911
  95   2.0000      -0.724359       -19.7108
  96   2.0000      -0.718614       -19.5545
  97   2.0000      -0.710436       -19.3319
  98   2.0000      -0.696184       -18.9441
  99   2.0000      -0.691742       -18.8233
 100   2.0000      -0.685281       -18.6474
 101   2.0000      -0.683305       -18.5937
 102   2.0000      -0.673877       -18.3371
 103   2.0000      -0.664005       -18.0685
 104   2.0000      -0.655095       -17.8261
 105   2.0000      -0.646453       -17.5909
 106   2.0000      -0.642404       -17.4807
 107   2.0000      -0.640515       -17.4293
 108   2.0000      -0.636631       -17.3236
 109   2.0000      -0.631407       -17.1815
 110   2.0000      -0.625466       -17.0198
 111   2.0000      -0.619096       -16.8465
 112   2.0000      -0.611877       -16.6500
 113   2.0000      -0.610242       -16.6055
 114   2.0000      -0.601179       -16.3589
 115   2.0000      -0.599861       -16.3231
 116   2.0000      -0.594245       -16.1702
 117   2.0000      -0.589700       -16.0465
 118   2.0000      -0.588128       -16.0038
 119   2.0000      -0.584179       -15.8963
 120   2.0000      -0.575739       -15.6666
 121   2.0000      -0.574100       -15.6221
 122   2.0000      -0.566117       -15.4048
 123   2.0000      -0.559083       -15.2134
 124   2.0000      -0.556177       -15.1344
 125   2.0000      -0.552222       -15.0267
 126   2.0000      -0.545994       -14.8573
 127   2.0000      -0.541523       -14.7356
 128   2.0000      -0.534707       -14.5501
 129   2.0000      -0.525791       -14.3075
 130   2.0000      -0.520775       -14.1710
 131   2.0000      -0.519349       -14.1322
 132   2.0000      -0.515128       -14.0173
 133   2.0000      -0.511674       -13.9234
 134   2.0000      -0.506686       -13.7876
 135   2.0000      -0.506040       -13.7701
 136   2.0000      -0.502567       -13.6756
 137   2.0000      -0.500257       -13.6127
 138   2.0000      -0.496996       -13.5240
 139   2.0000      -0.493608       -13.4318
 140   2.0000      -0.492053       -13.3894
 141   2.0000      -0.489189       -13.3115
 142   2.0000      -0.483863       -13.1666
 143   2.0000      -0.481654       -13.1065
 144   2.0000      -0.477635       -12.9971
 145   2.0000      -0.476475       -12.9655
 146   2.0000      -0.472356       -12.8535
 147   2.0000      -0.469162       -12.7666
 148   2.0000      -0.465677       -12.6717
 149   2.0000      -0.462484       -12.5848
 150   2.0000      -0.461353       -12.5541
 151   2.0000      -0.457178       -12.4405
 152   2.0000      -0.453064       -12.3285
 153   2.0000      -0.450147       -12.2491
 154   2.0000      -0.448461       -12.2033
 155   2.0000      -0.438624       -11.9356
 156   2.0000      -0.437812       -11.9135
 157   2.0000      -0.434200       -11.8152
 158   2.0000      -0.431247       -11.7348
 159   2.0000      -0.429474       -11.6866
 160   2.0000      -0.423986       -11.5373
 161   2.0000      -0.419014       -11.4020
 162   2.0000      -0.410868       -11.1803
 163   2.0000      -0.406080       -11.0500
 164   2.0000      -0.400601       -10.9009
 165   2.0000      -0.393676       -10.7125
 166   2.0000      -0.388496       -10.5715
 167   2.0000      -0.387205       -10.5364
 168   2.0000      -0.381207       -10.3732
 169   2.0000      -0.376857       -10.2548
 170   2.0000      -0.372005       -10.1228
 171   2.0000      -0.364575        -9.9206
 172   2.0000      -0.361400        -9.8342
 173   2.0000      -0.357248        -9.7212
 174   2.0000      -0.353559        -9.6208
 175   2.0000      -0.348519        -9.4837
 176   2.0000      -0.346647        -9.4327
 177   2.0000      -0.344433        -9.3725
 178   2.0000      -0.339891        -9.2489
 179   2.0000      -0.336229        -9.1493
 180   2.0000      -0.328417        -8.9367
 181   2.0000      -0.323713        -8.8087
 182   2.0000      -0.308437        -8.3930
 183   2.0000      -0.300189        -8.1686
 184   2.0000      -0.278855        -7.5880
 185   2.0000      -0.257034        -6.9943
 186   2.0000      -0.239096        -6.5061
 187   0.0000      -0.090248        -2.4558
 188   0.0000      -0.072553        -1.9743
 189   0.0000      -0.049895        -1.3577
 190   0.0000      -0.023262        -0.6330
 191   0.0000      -0.001369        -0.0373

MULLIKEN ATOMIC CHARGES
-----------------------
   0 C :    0.020159
   1 C :   -0.121021
   2 C :    0.061918
   3 C :    0.048641
   4 O :   -0.350576
   5 C :    0.195733
   6 C :    0.014960
   7 C :   -0.018037
   8 C :    0.076583
   9 C :    0.012673
  10 C :   -0.179872
  11 C :    0.228700
  12 O :   -0.294721
  13 C :    0.129131
  14 C :    0.020940
  15 C :    0.011351
  16 C :    0.125653
  17 C :   -0.091205
  18 C :   -0.015014
  19 C :    0.154758
  20 O :   -0.191851
  21 C :    0.153350
  22 C :   -0.178435
  23 S :    0.259115
  24 C :   -0.053985
  25 C :   -0.116634
  26 S :    0.153413
  27 C :   -0.007941
  28 C :   -0.000313
  29 C :    0.020974
  30 C :   -0.175341
  31 C :    0.103546
  32 N :   -0.099674
  33 C :    0.134264
  34 O :   -0.203707
  35 O :   -0.158533
  36 C :    0.122978
  37 S :    0.245277
  38 C :   -0.054357
  39 C :    0.150670
  40 N :    0.290510
  41 O :   -0.274765
  42 O :   -0.238182
  43 C :   -0.066949
  44 C :    0.224578
  45 N :    0.265479
  46 O :   -0.246828
  47 O :   -0.231323
  48 O :   -0.165251
  49 H :    0.019643
  50 H :    0.033497
  51 H :    0.025730
  52 H :    0.006333
  53 H :   -0.006479
  54 H :    0.018475
  55 H :    0.013196
  56 H :    0.020925
  57 H :    0.006451
  58 H :    0.013802
  59 H :    0.007583
  60 H :    0.015768
  61 H :    0.009964
  62 H :   -0.038045
  63 H :    0.013634
  64 H :    0.016437
  65 H :    0.020983
  66 H :    0.010049
  67 H :    0.039723
  68 H :   -0.008328
  69 H :   -0.016725
  70 H :   -0.020004
  71 H :    0.031744
  72 H :   -0.030706
  73 H :    0.089167
  74 H :   -0.001416
  75 H :    0.017760
Sum of atomic charges:   -0.0000000

LOEWDIN ATOMIC CHARGES
----------------------
   0 C :   -0.033672
   1 C :   -0.026088
   2 C :   -0.021444
   3 C :    0.026248
   4 O :   -0.134333
   5 C :    0.084788
   6 C :   -0.061297
   7 C :   -0.015949
   8 C :   -0.027276
   9 C :   -0.048676
  10 C :   -0.073843
  11 C :    0.066233
  12 O :   -0.090718
  13 C :    0.082187
  14 C :   -0.063585
  15 C :   -0.068107
  16 C :    0.051037
  17 C :   -0.050444
  18 C :   -0.102494
  19 C :    0.111852
  20 O :   -0.140886
  21 C :    0.029390
  22 C :   -0.161857
  23 S :    0.547950
  24 C :   -0.205760
  25 C :   -0.139540
  26 S :    0.475300
  27 C :   -0.154195
  28 C :   -0.068459
  29 C :   -0.020795
  30 C :   -0.267198
  31 C :    0.059034
  32 N :   -0.176577
  33 C :    0.073136
  34 O :   -0.163662
  35 O :    0.021034
  36 C :   -0.077107
  37 S :    0.572769
  38 C :   -0.050353
  39 C :   -0.086908
  40 N :    0.292860
  41 O :   -0.234488
  42 O :   -0.201942
  43 C :   -0.028321
  44 C :   -0.061783
  45 N :    0.290418
  46 O :   -0.203149
  47 O :   -0.192360
  48 O :    0.045108
  49 H :    0.023070
  50 H :    0.026920
  51 H :    0.030992
  52 H :    0.009264
  53 H :    0.005505
  54 H :    0.027386
  55 H :    0.028958
  56 H :    0.027583
  57 H :    0.029740
  58 H :    0.027755
  59 H :    0.020160
  60 H :    0.024307
  61 H :    0.020599
  62 H :    0.026677
  63 H :    0.010978
  64 H :    0.013362
  65 H :    0.027874
  66 H :    0.029010
  67 H :    0.025376
  68 H :    0.034271
  69 H :   -0.000863
  70 H :    0.024305
  71 H :    0.044185
  72 H :   -0.027105
  73 H :    0.037117
  74 H :    0.039208
  75 H :    0.037289

  Mayer bond orders larger than 0.100000
B(  0-C ,  1-C ) :   1.9783 B(  0-C , 49-H ) :   0.9513 B(  0-C , 50-H ) :   0.9538
B(  1-C ,  2-C ) :   1.0057 B(  1-C , 51-H ) :   0.9403 B(  2-C ,  3-C ) :   1.3556
B(  2-C , 15-C ) :   1.4098 B(  3-C ,  4-O ) :   1.0994 B(  3-C ,  7-C ) :   1.4237
B(  4-O ,  5-C ) :   0.9246 B(  5-C ,  6-C ) :   1.1095 B(  5-C , 52-H ) :   0.9390
B(  5-C , 53-H ) :   0.9440 B(  6-C , 54-H ) :   0.9688 B(  6-C , 55-H ) :   0.9606
B(  6-C , 56-H ) :   0.9687 B(  7-C ,  8-C ) :   1.0458 B(  7-C , 10-C ) :   1.2867
B(  8-C ,  9-C ) :   1.0993 B(  8-C , 57-H ) :   0.9267 B(  8-C , 58-H ) :   0.9287
B(  9-C , 59-H ) :   0.9698 B(  9-C , 60-H ) :   0.9674 B(  9-C , 61-H ) :   0.9679
B( 10-C , 11-C ) :   1.2902 B( 10-C , 62-H ) :   1.0050 B( 11-C , 12-O ) :   1.2124
B( 11-C , 15-C ) :   1.2931 B( 12-O , 13-C ) :   0.9410 B( 13-C , 14-C ) :   1.0969
B( 13-C , 63-H ) :   0.9512 B( 13-C , 64-H ) :   0.9490 B( 14-C , 65-H ) :   0.9664
B( 14-C , 66-H ) :   0.9562 B( 14-C , 67-H ) :   0.9622 B( 15-C , 16-C ) :   0.9895
B( 16-C , 17-C ) :   1.4885 B( 16-C , 21-C ) :   0.1217 B( 16-C , 48-O ) :   1.1607
B( 17-C , 18-C ) :   1.1846 B( 17-C , 68-H ) :   1.0030 B( 18-C , 19-C ) :   0.9831
B( 18-C , 21-C ) :   1.4310 B( 19-C , 20-O ) :   2.1555 B( 19-C , 69-H ) :   0.9573
B( 21-C , 22-C ) :   1.0863 B( 21-C , 48-O ) :   1.2037 B( 22-C , 23-S ) :   1.1726
B( 22-C , 44-C ) :   1.4550 B( 23-S , 24-C ) :   1.0955 B( 24-C , 25-C ) :   1.1895
B( 24-C , 43-C ) :   1.4186 B( 25-C , 26-S ) :   1.1777 B( 25-C , 39-C ) :   1.4309
B( 26-S , 27-C ) :   1.0695 B( 27-C , 28-C ) :   1.1885 B( 27-C , 38-C ) :   1.4760
B( 28-C , 29-C ) :   1.6118 B( 28-C , 70-H ) :   0.9681 B( 29-C , 30-C ) :   1.2509
B( 29-C , 71-H ) :   0.9589 B( 30-C , 31-C ) :   1.1482 B( 30-C , 36-C ) :   0.1323
B( 30-C , 37-S ) :   1.1205 B( 31-C , 32-N ) :   1.8334 B( 31-C , 35-O ) :   0.9928
B( 32-N , 33-C ) :   1.1122 B( 33-C , 34-O ) :   2.1309 B( 33-C , 72-H ) :   0.9395
B( 35-O , 36-C ) :   1.2256 B( 36-C , 37-S ) :   1.4000 B( 36-C , 73-H ) :   0.9747
B( 38-C , 39-C ) :   1.2132 B( 38-C , 74-H ) :   1.0059 B( 39-C , 40-N ) :   0.9705
B( 40-N , 41-O ) :   1.4253 B( 40-N , 42-O ) :   1.5567 B( 41-O , 42-O ) :   0.2440
B( 43-C , 44-C ) :   1.3052 B( 43-C , 75-H ) :   0.9887 B( 44-C , 45-N ) :   0.9059
B( 45-N , 46-O ) :   1.5280 B( 45-N , 47-O ) :   1.5533 B( 46-O , 47-O ) :   0.2673

-----------------------------------------------------------------------------
         ABSORPTION SPECTRUM VIA TRANSITION ELECTRIC DIPOLE MOMENTS
-----------------------------------------------------------------------------
State   Energy  Wavelength   fosc         T2         TX        TY        TZ
        (cm-1)    (nm)                  (au**2)     (au)      (au)      (au)
-----------------------------------------------------------------------------
   0   17379.4    575.4   1.072236142  20.31096  -3.67730   2.51894  -0.66587
   1   20372.3    490.9   0.041748232   0.67464   0.61376   0.22688   0.49646
   2   23040.1    434.0   0.085187693   1.21722   0.80837  -0.52412  -0.53765
   3   24348.2    410.7   0.083356121   1.12706  -0.58646   0.39271   0.79304
   4   26304.5    380.2   0.002804485   0.03510  -0.16779   0.07068   0.04415
   5   27547.3    363.0   0.000193422   0.00231   0.03012  -0.03679  -0.00712
   6   28531.9    350.5   0.095881977   1.10632   0.69642   0.17577   0.76839
   7   29364.3    340.5   0.020755325   0.23269  -0.33847  -0.16714  -0.30032
   8   29742.5    336.2   0.139518950   1.54430  -0.68422   0.82562   0.62809
   9   30706.5    325.7   0.136709190   1.46569  -0.62484   0.70477   0.76064
  10   31478.2    317.7   0.342015543   3.57693  -1.22231   1.36079   0.48078
  11   32752.4    305.3   0.034272438   0.34449   0.29649   0.01509   0.50631
  12   33978.9    294.3   0.017244928   0.16708   0.32125  -0.25026  -0.03533
  13   34186.4    292.5   0.020164409   0.19418  -0.14665   0.03258  -0.41426
  14   34278.1    291.7   0.009322952   0.08954  -0.13717   0.03788   0.26323
  15   34718.3    288.0   0.008982339   0.08517  -0.20023  -0.19573   0.08229
  16   35025.0    285.5   0.003864755   0.03633  -0.05974   0.05059  -0.17378
  17   35501.5    281.7   0.031269029   0.28996   0.34971  -0.40241  -0.07573
  18   35950.2    278.2   0.165793370   1.51824  -0.75535   0.75240   0.61772
  19   36520.7    273.8   0.145637367   1.31283  -0.30606  -0.40402  -1.02759
  20   36923.8    270.8   0.147299617   1.31332   0.46071  -0.61502  -0.85019
  21   37842.8    264.3   0.026276029   0.22859   0.30483  -0.36341   0.05998
  22   38364.2    260.7   0.001524647   0.01308  -0.01986  -0.01440  -0.11172
  23   38640.7    258.8   0.003971640   0.03384  -0.14697   0.07076  -0.08504
  24   38921.6    256.9   0.021637157   0.18301  -0.02444  -0.36332  -0.22453
  25   39205.2    255.1   0.002685653   0.02255  -0.10460   0.10536  -0.02257
  26   39514.2    253.1   0.108336166   0.90260   0.24411   0.40806   0.82250
  27   39923.7    250.5   0.061002954   0.50303   0.64165  -0.29718   0.05480
  28   40313.7    248.1   0.008714516   0.07116   0.09688   0.11051   0.22263

FINAL SINGLE POINT ENERGY     -3381.482164871061

DIPOLE MOMENT
-------------
                                X             Y             Z
Electronic contribution:    -77.87066      55.46947      24.70574
Nuclear contribution   :     76.70515     -55.08851     -29.28688
                        -----------------------------------------
Total Dipole Moment    :     -1.16551       0.38096      -4.58114
                        -----------------------------------------
Magnitude (a.u.)       :      4.74241
Magnitude (Debye)      :     12.05424

Rotational constants in cm-1:     0.003846     0.000616     0.000558
Rotational constants in MHz :   115.298496    18.475397    16.739376

                             ****ORCA TERMINATED NORMALLY****
TOTAL RUN TIME: 0 days 0 hours 7 minutes 0 seconds 935 msec
