                         Program Version 4.2.0 -  RELEASE  -
|  1> # ORCA input file
|  2> # SCF done       -151.497478776137          0.000839971352
|  3> ! CAM-B3LYP def2-SVP def2/J RIJCOSX Grid4 TightSCF
|  4> %maxcore 5000
|  5> %tddft
|  6>     Mode sTDDFT
|  7>     Ethresh 5.0
|  8>     maxcore 5000
|  9> end
| 10>
| 11> %pal
| 12>   nprocs 6
| 13>   end
| 14> * xyz 0 1
| 15>    C       -0.79194         0.81279         5.23651
| 16>    C       -0.48136         0.76540         3.88241
| 17>    C        0.84029         0.47463         3.47896
| 18>    C        1.83925         0.23400         4.40301
| 19>    C        1.50906         0.28707         5.74497
| 20>    C        0.20956         0.57293         6.15468
| 21>    S        0.94936         0.48352         1.73377
| 22>    C       -0.77377         0.87634         1.71019
| 23>    N       -1.34989         0.98183         2.85198
| 24>    N       -1.43031         1.04692         0.53744
| 25>    C       -2.74774         1.40280         0.50224
| 26>    S       -3.58940         1.68394         1.97915
| 27>    C       -4.98862         2.16057         1.05216
| 28>    N       -6.14271         2.53821         1.74873
| 29>    O       -7.11583         2.87693         1.10082
| 30>    O       -6.08444         2.50159         2.96557
| 31>    C       -4.79832         2.10964        -0.29882
| 32>    C       -3.50946         1.64761        -0.64952
| 33>    C       -3.11484         1.47837        -2.01436
| 34>    C       -2.11484         0.69525        -2.50110
| 35>    C       -1.80272         0.60382        -3.87003
| 36>    C       -0.81096        -0.19610        -4.37931
| 37>    C       -0.44846        -0.35036        -5.73855
| 38>    C        0.57750        -1.22260        -5.94837
| 39>    C        1.08556        -1.80464        -4.76720
| 40>    S        0.21907        -1.21125        -3.37481
| 41>    C        2.11632        -2.72565        -4.65568
| 42>    C        2.90109        -3.26445        -5.69455
| 43>    C        3.82835        -4.17451        -5.27521
| 44>    C        3.82616        -4.40937        -3.88489
| 45>    S        2.62119        -3.38611        -3.12158
| 46>    C        4.61284        -5.20561        -3.07305
| 47>    C        5.48997        -6.25363        -3.38590
| 48>    C        5.51586        -7.02826        -4.58592
| 49>    C        6.48777        -8.07642        -4.80353
| 50>    N        6.55816        -8.65477        -6.01039
| 51>    C        5.66379        -8.38025        -6.92172
| 52>    C        4.56553        -7.51264        -6.61929
| 53>    N        4.55671        -6.83839        -5.48954
| 54>    C        3.50009        -7.32407        -7.52843
| 55>    N        2.65549        -7.16118        -8.28702
| 56>    C        5.78669        -8.94238        -8.21744
| 57>    N        5.83498        -9.37138        -9.27832
| 58>    C        7.38715        -8.48726        -3.79445
| 59>    C        7.31293        -7.78331        -2.57592
| 60>    C        6.39032        -6.69505        -2.37675
| 61>    N        6.50211        -6.16761        -1.16059
| 62>    S        7.64143        -6.95876        -0.34527
| 63>    N        8.05577        -8.00514        -1.49244
| 64>    C        8.31468        -9.55161        -3.99267
| 65>    N        8.37529       -10.30117        -5.03759
| 66>    C        9.35573       -11.22552        -4.96344
| 67>    C        9.66111       -12.17077        -5.94485
| 68>    C       10.69627       -13.04832        -5.71968
| 69>    C       11.43467       -13.00518        -4.53454
| 70>    C       11.15172       -12.08104        -3.54901
| 71>    C       10.11238       -11.19027        -3.76301
| 72>    S        9.51771        -9.93283        -2.72920
| 73>    H       -1.80250         1.03605         5.53695
| 74>    H        2.84494         0.01318         4.08200
| 75>    H        2.27343         0.10314         6.48414
| 76>    H       -0.01697         0.60669         7.20924
| 77>    H       -0.90749         1.02308        -0.32765
| 78>    H       -5.56054         2.37047        -1.01095
| 79>    H       -3.72893         2.01136        -2.72879
| 80>    H       -1.54019         0.05246        -1.84676
| 81>    H       -2.37395         1.19903        -4.56940
| 82>    H       -0.96013         0.18590        -6.51781
| 83>    H        0.97659        -1.46415        -6.91658
| 84>    H        2.77171        -2.97357        -6.72118
| 85>    H        4.52624        -4.65445        -5.93279
| 86>    H        4.56260        -4.98988        -2.01193
| 87>    H        9.08134       -12.18838        -6.85352
| 88>    H       10.94596       -13.78475        -6.46872
| 89>    H       12.24159       -13.70728        -4.38724
| 90>    H       11.72185       -12.04704        -2.63367
| 91> *
| 92>
| 93>                          ****END OF INPUT****

CARTESIAN COORDINATES (ANGSTROEM)
---------------------------------
  C     -0.791940    0.812790    5.236510
  C     -0.481360    0.765400    3.882410
  C      0.840290    0.474630    3.478960
  C      1.839250    0.234000    4.403010
  C      1.509060    0.287070    5.744970
  C      0.209560    0.572930    6.154680
  S      0.949360    0.483520    1.733770
  C     -0.773770    0.876340    1.710190
  N     -1.349890    0.981830    2.851980
  N     -1.430310    1.046920    0.537440
  C     -2.747740    1.402800    0.502240
  S     -3.589400    1.683940    1.979150
  C     -4.988620    2.160570    1.052160
  N     -6.142710    2.538210    1.748730
  O     -7.115830    2.876930    1.100820
  O     -6.084440    2.501590    2.965570
  C     -4.798320    2.109640   -0.298820
  C     -3.509460    1.647610   -0.649520
  C     -3.114840    1.478370   -2.014360
  C     -2.114840    0.695250   -2.501100
  C     -1.802720    0.603820   -3.870030
  C     -0.810960   -0.196100   -4.379310
  C     -0.448460   -0.350360   -5.738550
  C      0.577500   -1.222600   -5.948370
  C      1.085560   -1.804640   -4.767200
  S      0.219070   -1.211250   -3.374810
  C      2.116320   -2.725650   -4.655680
  C      2.901090   -3.264450   -5.694550
  C      3.828350   -4.174510   -5.275210
  C      3.826160   -4.409370   -3.884890
  S      2.621190   -3.386110   -3.121580
  C      4.612840   -5.205610   -3.073050
  C      5.489970   -6.253630   -3.385900
  C      5.515860   -7.028260   -4.585920
  C      6.487770   -8.076420   -4.803530
  N      6.558160   -8.654770   -6.010390
  C      5.663790   -8.380250   -6.921720
  C      4.565530   -7.512640   -6.619290
  N      4.556710   -6.838390   -5.489540
  C      3.500090   -7.324070   -7.528430
  N      2.655490   -7.161180   -8.287020
  C      5.786690   -8.942380   -8.217440
  N      5.834980   -9.371380   -9.278320
  C      7.387150   -8.487260   -3.794450
  C      7.312930   -7.783310   -2.575920
  C      6.390320   -6.695050   -2.376750
  N      6.502110   -6.167610   -1.160590
  S      7.641430   -6.958760   -0.345270
  N      8.055770   -8.005140   -1.492440
  C      8.314680   -9.551610   -3.992670
  N      8.375290  -10.301170   -5.037590
  C      9.355730  -11.225520   -4.963440
  C      9.661110  -12.170770   -5.944850
  C     10.696270  -13.048320   -5.719680
  C     11.434670  -13.005180   -4.534540
  C     11.151720  -12.081040   -3.549010
  C     10.112380  -11.190270   -3.763010
  S      9.517710   -9.932830   -2.729200
  H     -1.802500    1.036050    5.536950
  H      2.844940    0.013180    4.082000
  H      2.273430    0.103140    6.484140
  H     -0.016970    0.606690    7.209240
  H     -0.907490    1.023080   -0.327650
  H     -5.560540    2.370470   -1.010950
  H     -3.728930    2.011360   -2.728790
  H     -1.540190    0.052460   -1.846760
  H     -2.373950    1.199030   -4.569400
  H     -0.960130    0.185900   -6.517810
  H      0.976590   -1.464150   -6.916580
  H      2.771710   -2.973570   -6.721180
  H      4.526240   -4.654450   -5.932790
  H      4.562600   -4.989880   -2.011930
  H      9.081340  -12.188380   -6.853520
  H     10.945960  -13.784750   -6.468720
  H     12.241590  -13.707280   -4.387240
  H     11.721850  -12.047040   -2.633670

 Total Charge           Charge          ....    0
 Multiplicity           Mult            ....    1
 Number of Electrons    NEL             ....  440
 Basis Dimension        Dim             ....  926

ORBITAL ENERGIES
----------------

  NO   OCC          E(Eh)            E(eV)
   0   2.0000     -89.034769     -2422.7592
   1   2.0000     -88.983862     -2421.3740
   2   2.0000     -88.981239     -2421.3026
   3   2.0000     -88.971747     -2421.0443
   4   2.0000     -88.965425     -2420.8723
   5   2.0000     -88.935397     -2420.0552
   6   2.0000     -19.232519      -523.3435
   7   2.0000     -19.231839      -523.3249
   8   2.0000     -14.643565      -398.4717
   9   2.0000     -14.503995      -394.6738
  10   2.0000     -14.450302      -393.2127
  11   2.0000     -14.449426      -393.1889
  12   2.0000     -14.442250      -392.9936
  13   2.0000     -14.437161      -392.8551
  14   2.0000     -14.427015      -392.5790
  15   2.0000     -14.418722      -392.3534
  16   2.0000     -14.417430      -392.3182
  17   2.0000     -14.384799      -391.4303
  18   2.0000     -10.400156      -283.0026
  19   2.0000     -10.376188      -282.3504
  20   2.0000     -10.367470      -282.1132
  21   2.0000     -10.363438      -282.0035
  22   2.0000     -10.341438      -281.4048
  23   2.0000     -10.338011      -281.3116
  24   2.0000     -10.337752      -281.3045
  25   2.0000     -10.334527      -281.2168
  26   2.0000     -10.334173      -281.2071
  27   2.0000     -10.332865      -281.1716
  28   2.0000     -10.330312      -281.1021
  29   2.0000     -10.329755      -281.0869
  30   2.0000     -10.327265      -281.0192
  31   2.0000     -10.326145      -280.9887
  32   2.0000     -10.321844      -280.8717
  33   2.0000     -10.317907      -280.7645
  34   2.0000     -10.317417      -280.7512
  35   2.0000     -10.315347      -280.6949
  36   2.0000     -10.313898      -280.6554
  37   2.0000     -10.312047      -280.6051
  38   2.0000     -10.311192      -280.5818
  39   2.0000     -10.310793      -280.5709
  40   2.0000     -10.308163      -280.4994
  41   2.0000     -10.306840      -280.4634
  42   2.0000     -10.305772      -280.4343
  43   2.0000     -10.305019      -280.4138
  44   2.0000     -10.304897      -280.4105
  45   2.0000     -10.295238      -280.1477
  46   2.0000     -10.293372      -280.0969
  47   2.0000     -10.293337      -280.0959
  48   2.0000     -10.292997      -280.0867
  49   2.0000     -10.283731      -279.8346
  50   2.0000     -10.283497      -279.8282
  51   2.0000     -10.283136      -279.8184
  52   2.0000     -10.282370      -279.7975
  53   2.0000     -10.279634      -279.7231
  54   2.0000     -10.263647      -279.2880
  55   2.0000     -10.259377      -279.1718
  56   2.0000     -10.255752      -279.0732
  57   2.0000     -10.255217      -279.0586
  58   2.0000      -8.126200      -221.1251
  59   2.0000      -8.077643      -219.8038
  60   2.0000      -8.077204      -219.7919
  61   2.0000      -8.067986      -219.5411
  62   2.0000      -8.061851      -219.3741
  63   2.0000      -8.030555      -218.5225
  64   2.0000      -6.097358      -165.9176
  65   2.0000      -6.089675      -165.7085
  66   2.0000      -6.088691      -165.6817
  67   2.0000      -6.047388      -164.5578
  68   2.0000      -6.046967      -164.5463
  69   2.0000      -6.043425      -164.4500
  70   2.0000      -6.042177      -164.4160
  71   2.0000      -6.038854      -164.3256
  72   2.0000      -6.038432      -164.3141
  73   2.0000      -6.037602      -164.2915
  74   2.0000      -6.033732      -164.1862
  75   2.0000      -6.031406      -164.1229
  76   2.0000      -6.029014      -164.0578
  77   2.0000      -6.027429      -164.0147
  78   2.0000      -6.023052      -163.8956
  79   2.0000      -5.999967      -163.2674
  80   2.0000      -5.995972      -163.1587
  81   2.0000      -5.992125      -163.0540
  82   2.0000      -1.313386       -35.7391
  83   2.0000      -1.133753       -30.8510
  84   2.0000      -1.132762       -30.8240
  85   2.0000      -1.131856       -30.7994
  86   2.0000      -1.107409       -30.1341
  87   2.0000      -1.063276       -28.9332
  88   2.0000      -1.047332       -28.4994
  89   2.0000      -1.030587       -28.0437
  90   2.0000      -1.017676       -27.6924
  91   2.0000      -1.002832       -27.2885
  92   2.0000      -1.002440       -27.2778
  93   2.0000      -0.995254       -27.0822
  94   2.0000      -0.992030       -26.9945
  95   2.0000      -0.988539       -26.8995
  96   2.0000      -0.966304       -26.2945
  97   2.0000      -0.957255       -26.0482
  98   2.0000      -0.939580       -25.5673
  99   2.0000      -0.927185       -25.2300
 100   2.0000      -0.917753       -24.9733
 101   2.0000      -0.909666       -24.7533
 102   2.0000      -0.898413       -24.4471
 103   2.0000      -0.896473       -24.3943
 104   2.0000      -0.881289       -23.9811
 105   2.0000      -0.873024       -23.7562
 106   2.0000      -0.869691       -23.6655
 107   2.0000      -0.861823       -23.4514
 108   2.0000      -0.849104       -23.1053
 109   2.0000      -0.846354       -23.0305
 110   2.0000      -0.838422       -22.8146
 111   2.0000      -0.834666       -22.7124
 112   2.0000      -0.824022       -22.4228
 113   2.0000      -0.811312       -22.0769
 114   2.0000      -0.805856       -21.9285
 115   2.0000      -0.802884       -21.8476
 116   2.0000      -0.787249       -21.4221
 117   2.0000      -0.777282       -21.1509
 118   2.0000      -0.758919       -20.6512
 119   2.0000      -0.742051       -20.1922
 120   2.0000      -0.732824       -19.9412
 121   2.0000      -0.721284       -19.6271
 122   2.0000      -0.712257       -19.3815
 123   2.0000      -0.705843       -19.2070
 124   2.0000      -0.695793       -18.9335
 125   2.0000      -0.692191       -18.8355
 126   2.0000      -0.687227       -18.7004
 127   2.0000      -0.681687       -18.5496
 128   2.0000      -0.677881       -18.4461
 129   2.0000      -0.674994       -18.3675
 130   2.0000      -0.661759       -18.0074
 131   2.0000      -0.656216       -17.8565
 132   2.0000      -0.648330       -17.6420
 133   2.0000      -0.643086       -17.4993
 134   2.0000      -0.638322       -17.3696
 135   2.0000      -0.635687       -17.2979
 136   2.0000      -0.633541       -17.2395
 137   2.0000      -0.625125       -17.0105
 138   2.0000      -0.620150       -16.8751
 139   2.0000      -0.614747       -16.7281
 140   2.0000      -0.613291       -16.6885
 141   2.0000      -0.599459       -16.3121
 142   2.0000      -0.597706       -16.2644
 143   2.0000      -0.591220       -16.0879
 144   2.0000      -0.587144       -15.9770
 145   2.0000      -0.583080       -15.8664
 146   2.0000      -0.574500       -15.6329
 147   2.0000      -0.571879       -15.5616
 148   2.0000      -0.567823       -15.4512
 149   2.0000      -0.565308       -15.3828
 150   2.0000      -0.558133       -15.1876
 151   2.0000      -0.555332       -15.1114
 152   2.0000      -0.554184       -15.0801
 153   2.0000      -0.547450       -14.8969
 154   2.0000      -0.544978       -14.8296
 155   2.0000      -0.538620       -14.6566
 156   2.0000      -0.532257       -14.4834
 157   2.0000      -0.531364       -14.4591
 158   2.0000      -0.528640       -14.3850
 159   2.0000      -0.519950       -14.1486
 160   2.0000      -0.517789       -14.0898
 161   2.0000      -0.515361       -14.0237
 162   2.0000      -0.513931       -13.9848
 163   2.0000      -0.510720       -13.8974
 164   2.0000      -0.502354       -13.6698
 165   2.0000      -0.500860       -13.6291
 166   2.0000      -0.499139       -13.5823
 167   2.0000      -0.493876       -13.4390
 168   2.0000      -0.492087       -13.3904
 169   2.0000      -0.488147       -13.2832
 170   2.0000      -0.482597       -13.1321
 171   2.0000      -0.480121       -13.0648
 172   2.0000      -0.476534       -12.9671
 173   2.0000      -0.473684       -12.8896
 174   2.0000      -0.470749       -12.8097
 175   2.0000      -0.467593       -12.7239
 176   2.0000      -0.465863       -12.6768
 177   2.0000      -0.459464       -12.5026
 178   2.0000      -0.456215       -12.4142
 179   2.0000      -0.455261       -12.3883
 180   2.0000      -0.452278       -12.3071
 181   2.0000      -0.446287       -12.1441
 182   2.0000      -0.445348       -12.1185
 183   2.0000      -0.443377       -12.0649
 184   2.0000      -0.442026       -12.0281
 185   2.0000      -0.433444       -11.7946
 186   2.0000      -0.431807       -11.7501
 187   2.0000      -0.431094       -11.7307
 188   2.0000      -0.427789       -11.6407
 189   2.0000      -0.424767       -11.5585
 190   2.0000      -0.423213       -11.5162
 191   2.0000      -0.417089       -11.3496
 192   2.0000      -0.416322       -11.3287
 193   2.0000      -0.413640       -11.2557
 194   2.0000      -0.404002       -10.9935
 195   2.0000      -0.401293       -10.9197
 196   2.0000      -0.398357       -10.8398
 197   2.0000      -0.397403       -10.8139
 198   2.0000      -0.396690       -10.7945
 199   2.0000      -0.388635       -10.5753
 200   2.0000      -0.384394       -10.4599
 201   2.0000      -0.373026       -10.1506
 202   2.0000      -0.362324        -9.8593
 203   2.0000      -0.361819        -9.8456
 204   2.0000      -0.361024        -9.8240
 205   2.0000      -0.357798        -9.7362
 206   2.0000      -0.356796        -9.7089
 207   2.0000      -0.355899        -9.6845
 208   2.0000      -0.354749        -9.6532
 209   2.0000      -0.339162        -9.2291
 210   2.0000      -0.338819        -9.2197
 211   2.0000      -0.334887        -9.1127
 212   2.0000      -0.325732        -8.8636
 213   2.0000      -0.315377        -8.5818
 214   2.0000      -0.307305        -8.3622
 215   2.0000      -0.304677        -8.2907
 216   2.0000      -0.286976        -7.8090
 217   2.0000      -0.280815        -7.6414
 218   2.0000      -0.266387        -7.2488
 219   2.0000      -0.221587        -6.0297
 220   0.0000      -0.126297        -3.4367
 221   0.0000      -0.080854        -2.2002
 222   0.0000      -0.052672        -1.4333
 223   0.0000      -0.042824        -1.1653
 224   0.0000      -0.032518        -0.8849

MULLIKEN ATOMIC CHARGES
-----------------------
   0 C :   -0.028740
   1 C :    0.098811
   2 C :   -0.037006
   3 C :   -0.042816
   4 C :    0.029310
   5 C :    0.021636
   6 S :    0.105133
   7 C :   -0.000574
   8 N :   -0.129149
   9 N :   -0.003176
  10 C :   -0.105637
  11 S :    0.228588
  12 C :   -0.000098
  13 N :    0.268709
  14 O :   -0.255208
  15 O :   -0.263192
  16 C :    0.006068
  17 C :    0.116682
  18 C :   -0.007154
  19 C :   -0.040924
  20 C :    0.004115
  21 C :   -0.031258
  22 C :    0.052102
  23 C :    0.024454
  24 C :   -0.021454
  25 S :    0.074045
  26 C :   -0.057423
  27 C :    0.016982
  28 C :    0.079097
  29 C :   -0.033515
  30 S :    0.111022
  31 C :   -0.063120
  32 C :    0.109264
  33 C :   -0.077005
  34 C :   -0.072549
  35 N :    0.108242
  36 C :   -0.145793
  37 C :   -0.153578
  38 N :    0.016562
  39 C :   -0.203567
  40 N :    0.215188
  41 C :   -0.184643
  42 N :    0.220064
  43 C :    0.180169
  44 C :    0.021639
  45 C :   -0.011092
  46 N :   -0.274595
  47 S :    0.530202
  48 N :   -0.309853
  49 C :   -0.269649
  50 N :    0.018037
  51 C :    0.051954
  52 C :   -0.016779
  53 C :    0.016573
  54 C :    0.030971
  55 C :   -0.055451
  56 C :    0.005880
  57 S :    0.105737
  58 H :   -0.011857
  59 H :   -0.014963
  60 H :   -0.004801
  61 H :   -0.003901
  62 H :    0.144158
  63 H :    0.003853
  64 H :    0.001420
  65 H :   -0.001725
  66 H :   -0.001913
  67 H :   -0.001101
  68 H :   -0.000401
  69 H :   -0.002159
  70 H :   -0.006880
  71 H :    0.006619
  72 H :   -0.020713
  73 H :   -0.015593
  74 H :   -0.015626
  75 H :   -0.026657
Sum of atomic charges:   -0.0000000

LOEWDIN ATOMIC CHARGES
----------------------
   0 C :   -0.018972
   1 C :   -0.022306
   2 C :   -0.167294
   3 C :   -0.037195
   4 C :   -0.024215
   5 C :   -0.018493
   6 S :    0.364940
   7 C :   -0.085449
   8 N :   -0.147633
   9 N :    0.030422
  10 C :   -0.091114
  11 S :    0.525128
  12 C :   -0.224384
  13 N :    0.273441
  14 O :   -0.220816
  15 O :   -0.230229
  16 C :   -0.002433
  17 C :   -0.111375
  18 C :    0.010994
  19 C :   -0.067799
  20 C :   -0.024084
  21 C :   -0.155976
  22 C :   -0.012731
  23 C :   -0.033886
  24 C :   -0.149778
  25 S :    0.376165
  26 C :   -0.192377
  27 C :   -0.012194
  28 C :   -0.029362
  29 C :   -0.105956
  30 S :    0.402119
  31 C :   -0.057860
  32 C :   -0.009439
  33 C :   -0.021458
  34 C :    0.010362
  35 N :    0.020362
  36 C :   -0.023917
  37 C :   -0.051196
  38 N :    0.003305
  39 C :   -0.039430
  40 N :   -0.026044
  41 C :   -0.030175
  42 N :   -0.012320
  43 C :   -0.084020
  44 C :   -0.041025
  45 C :   -0.047457
  46 N :   -0.277804
  47 S :    0.657854
  48 N :   -0.304030
  49 C :   -0.110953
  50 N :   -0.075025
  51 C :   -0.037334
  52 C :   -0.016456
  53 C :   -0.032349
  54 C :   -0.026231
  55 C :   -0.045876
  56 C :   -0.176072
  57 S :    0.395774
  58 H :    0.038879
  59 H :    0.032278
  60 H :    0.031928
  61 H :    0.032770
  62 H :    0.093123
  63 H :    0.042364
  64 H :    0.037847
  65 H :    0.013714
  66 H :    0.038750
  67 H :    0.038797
  68 H :    0.037334
  69 H :    0.037158
  70 H :    0.033001
  71 H :    0.037094
  72 H :    0.034960
  73 H :    0.027597
  74 H :    0.027082
  75 H :    0.026980

  Mayer bond orders larger than 0.100000
B(  0-C ,  1-C ) :   1.3591 B(  0-C ,  5-C ) :   1.3858 B(  0-C , 58-H ) :   1.0085
B(  1-C ,  2-C ) :   1.3217 B(  1-C ,  8-N ) :   1.2502 B(  2-C ,  3-C ) :   1.3838
B(  2-C ,  6-S ) :   1.0230 B(  3-C ,  4-C ) :   1.4153 B(  3-C , 59-H ) :   1.0006
B(  4-C ,  5-C ) :   1.3579 B(  4-C , 60-H ) :   0.9901 B(  5-C , 61-H ) :   0.9889
B(  6-S ,  7-C ) :   1.0760 B(  7-C ,  8-N ) :   1.6499 B(  7-C ,  9-N ) :   1.1528
B(  9-N , 10-C ) :   1.1876 B(  9-N , 62-H ) :   0.8917 B( 10-C , 11-S ) :   1.1939
B( 10-C , 17-C ) :   1.3478 B( 11-S , 12-C ) :   1.0327 B( 12-C , 13-N ) :   0.9725
B( 12-C , 16-C ) :   1.4970 B( 13-N , 14-O ) :   1.5362 B( 13-N , 15-O ) :   1.5178
B( 14-O , 15-O ) :   0.2588 B( 16-C , 17-C ) :   1.2087 B( 16-C , 63-H ) :   1.0075
B( 17-C , 18-C ) :   1.0968 B( 18-C , 19-C ) :   1.6245 B( 18-C , 64-H ) :   0.9742
B( 19-C , 20-C ) :   1.1657 B( 19-C , 65-H ) :   0.9567 B( 20-C , 21-C ) :   1.5568
B( 20-C , 66-H ) :   0.9872 B( 21-C , 22-C ) :   1.1519 B( 21-C , 25-S ) :   1.0182
B( 22-C , 23-C ) :   1.5726 B( 22-C , 67-H ) :   0.9998 B( 23-C , 24-C ) :   1.2065
B( 23-C , 68-H ) :   0.9950 B( 24-C , 25-S ) :   1.0742 B( 24-C , 26-C ) :   1.4492
B( 26-C , 27-C ) :   1.2201 B( 26-C , 30-S ) :   1.0521 B( 27-C , 28-C ) :   1.5510
B( 27-C , 69-H ) :   0.9944 B( 28-C , 29-C ) :   1.2147 B( 28-C , 70-H ) :   0.9830
B( 29-C , 30-S ) :   1.0900 B( 29-C , 31-C ) :   1.3920 B( 31-C , 32-C ) :   1.3694
B( 31-C , 71-H ) :   0.9329 B( 32-C , 33-C ) :   1.1551 B( 32-C , 43-C ) :   0.1111
B( 32-C , 45-C ) :   1.1554 B( 33-C , 34-C ) :   1.0993 B( 33-C , 38-N ) :   1.4844
B( 34-C , 35-N ) :   1.4734 B( 34-C , 43-C ) :   1.2645 B( 35-N , 36-C ) :   1.7613
B( 36-C , 37-C ) :   1.2015 B( 36-C , 41-C ) :   1.1346 B( 37-C , 38-N ) :   1.6690
B( 37-C , 39-C ) :   1.1510 B( 39-C , 40-N ) :   3.0471 B( 41-C , 42-N ) :   3.0532
B( 43-C , 44-C ) :   1.2049 B( 43-C , 49-C ) :   1.0630 B( 44-C , 45-C ) :   1.1217
B( 44-C , 48-N ) :   1.4988 B( 45-C , 46-N ) :   1.5609 B( 46-N , 47-S ) :   1.2753
B( 46-N , 48-N ) :   0.1462 B( 47-S , 48-N ) :   1.2501 B( 49-C , 50-N ) :   1.7974
B( 49-C , 57-S ) :   1.0786 B( 50-N , 51-C ) :   1.3085 B( 50-N , 57-S ) :   0.1099
B( 51-C , 52-C ) :   1.3202 B( 51-C , 56-C ) :   1.2798 B( 52-C , 53-C ) :   1.4106
B( 52-C , 72-H ) :   1.0052 B( 53-C , 54-C ) :   1.3289 B( 53-C , 73-H ) :   0.9880
B( 54-C , 55-C ) :   1.4293 B( 54-C , 74-H ) :   0.9898 B( 55-C , 56-C ) :   1.3449
B( 55-C , 75-H ) :   1.0017 B( 56-C , 57-S ) :   1.0329

-----------------------------------------------------------------------------
         ABSORPTION SPECTRUM VIA TRANSITION ELECTRIC DIPOLE MOMENTS
-----------------------------------------------------------------------------
State   Energy  Wavelength   fosc         T2         TX        TY        TZ
        (cm-1)    (nm)                  (au**2)     (au)      (au)      (au)
-----------------------------------------------------------------------------
   0    7318.8   1366.3   0.831935930  37.42190  -4.15890   4.39976   0.87612
   1   16774.9    596.1   0.286948688   5.63144   1.61345  -1.60025  -0.68369
   2   16953.0    589.9   0.238580564   4.63302   1.35777  -1.05432  -1.29533
   3   19423.9    514.8   0.004319186   0.07321  -0.07964  -0.13264  -0.22196
   4   19820.3    504.5   0.001383790   0.02298  -0.03869   0.02986  -0.14351
   5   22054.5    453.4   0.098282356   1.46708   0.22746  -0.10132  -1.18536
   6   23142.2    432.1   0.101077398   1.43789  -1.03050   0.54968  -0.27166
   7   24775.1    403.6   0.301442244   4.00557  -1.22833   0.84885  -1.33276
   8   25461.2    392.8   0.009684914   0.12523  -0.33027  -0.04033   0.12051
   9   26116.1    382.9   0.216552703   2.72981  -1.38287   0.86018  -0.27850
  10   26913.9    371.6   0.070200956   0.85870   0.47296  -0.03023  -0.79630
  11   27375.6    365.3   0.031242895   0.37572  -0.07910   0.48645  -0.36445
  12   28002.5    357.1   0.018109871   0.21291   0.39709  -0.16796   0.16437
  13   29964.5    333.7   0.020633327   0.22669   0.14228  -0.07062   0.44885
  14   30266.1    330.4   0.198427203   2.15834   1.00400   0.22521   1.04862
  15   30442.7    328.5   0.241709957   2.61389   0.39139  -0.18652   1.55754
  16   30707.7    325.7   0.007149615   0.07665  -0.01580   0.04188  -0.27321
  17   30879.7    323.8   0.043822374   0.46719   0.12226  -0.22599   0.63339
  18   31582.1    316.6   0.390613441   4.07175  -1.68273   0.53927  -0.97435
  19   32157.6    311.0   0.019572059   0.20037  -0.43130   0.01484   0.11885
  20   32511.4    307.6   0.166180844   1.68276  -1.18673   0.50585   0.13619
  21   32631.4    306.5   0.006126081   0.06180  -0.05119  -0.09488   0.22401
  22   33320.7    300.1   0.028560430   0.28218  -0.12176   0.37758   0.35326
  23   33451.1    298.9   0.122875889   1.20929   0.64840  -0.69922   0.54768
  24   33574.1    297.8   0.188318175   1.84656   0.55008  -0.76732  -0.97734
  25   33734.8    296.4   0.015531633   0.15157  -0.26846   0.21842   0.17831
  26   34120.6    293.1   0.270799599   2.61280   0.36501   0.18691   1.56353
  27   34247.3    292.0   0.044728021   0.42996   0.64753  -0.09141   0.04809
  28   34690.1    288.3   0.104097768   0.98790   0.28900  -0.09406   0.94632
  29   35785.9    279.4   0.038495217   0.35414  -0.18467   0.25627   0.50434
  30   36056.7    277.3   0.203013098   1.85359   0.86311  -0.92389  -0.50504
  31   36118.6    276.9   0.026848455   0.24472   0.39003  -0.14565  -0.26716
  32   36499.3    274.0   0.117121244   1.05640  -0.04387  -0.16836  -1.01298
  33   36816.7    271.6   0.116337825   1.04028  -0.11610   0.46284   0.90144
  34   37314.2    268.0   0.086521416   0.76335   0.59365  -0.18829   0.61276
  35   37853.0    264.2   0.029719855   0.25848   0.28546  -0.33034  -0.26051
  36   38161.8    262.0   0.066318916   0.57212   0.71269  -0.23899  -0.08411
  37   38309.8    261.0   0.004875041   0.04189  -0.19274  -0.01122   0.06796
  38   38592.2    259.1   0.008769466   0.07481  -0.05496   0.22901   0.13907
  39   38818.8    257.6   0.015587880   0.13220   0.09423   0.23724   0.25891
  40   39272.6    254.6   0.006529834   0.05474   0.18287  -0.09930   0.10694
  41   39424.3    253.7   0.016183539   0.13514   0.31965  -0.18115  -0.01229
  42   39561.2    252.8   0.055468113   0.46158  -0.35608   0.06502   0.57495
  43   39645.5    252.2   0.002077108   0.01725   0.11233   0.06360  -0.02422
  44   40168.2    249.0   0.004232275   0.03469  -0.07721  -0.00375  -0.16945
  45   40269.1    248.3   0.001184877   0.00969   0.03614  -0.08490  -0.03424

FINAL SINGLE POINT ENERGY     -4618.504182633658

DIPOLE MOMENT
-------------
                                X             Y             Z
Electronic contribution:      5.25586      -8.68952      -1.05069
Nuclear contribution   :     -4.42179      11.61891       2.63278
                        -----------------------------------------
Total Dipole Moment    :      0.83408       2.92939       1.58209
                        -----------------------------------------
Magnitude (a.u.)       :      3.43220
Magnitude (Debye)      :      8.72396

Rotational constants in cm-1:     0.002210     0.000375     0.000328
Rotational constants in MHz :    66.264575    11.247088     9.828227

                             ****ORCA TERMINATED NORMALLY****
TOTAL RUN TIME: 0 days 0 hours 6 minutes 44 seconds 289 msec
