                         Program Version 4.2.0 -  RELEASE  -
|  1> # ORCA input file
|  2> # SCF done       -181.124754878927          0.000666560278
|  3> ! CAM-B3LYP def2-SVP def2/J RIJCOSX Grid4 TightSCF
|  4> %maxcore 5000
|  5> %tddft
|  6>     Mode sTDDFT
|  7>     Ethresh 5.0
|  8>     maxcore 5000
|  9> end
| 10>
| 11> %pal
| 12>   nprocs 6
| 13>   end
| 14> * xyz 0 1
| 15>    C       -3.49109         0.35579         4.08649
| 16>    C       -3.31589        -0.89605         3.55272
| 17>    C       -2.67364        -1.95805         4.22049
| 18>    N       -2.17220        -2.86604         4.71367
| 19>    C       -3.73391        -1.29090         2.26513
| 20>    N       -4.02236        -1.69256         1.22844
| 21>    C       -2.98433         0.81282         5.37420
| 22>    C       -3.29229         2.18854         5.51908
| 23>    C       -2.93997         2.91275         6.63222
| 24>    C       -2.24588         2.25076         7.64919
| 25>    C       -1.94427         0.87671         7.49669
| 26>    C       -2.30324         0.14257         6.37197
| 27>    S       -1.09153         0.26457         8.87870
| 28>    C       -1.14361         1.82122         9.63195
| 29>    C       -1.76845         2.76069         8.88960
| 30>    C       -4.03167         2.65603         4.33545
| 31>    O       -4.54392         3.75199         4.20316
| 32>    C       -4.13241         1.47776         3.43599
| 33>    C       -4.88152         1.43974         2.29257
| 34>    C       -5.29277         2.59698         1.58475
| 35>    C       -4.49985         3.76774         1.53407
| 36>    C       -5.02793         5.00881         1.03558
| 37>    N       -4.25164         6.10151         1.02720
| 38>    C       -3.03048         6.02757         1.49898
| 39>    C       -2.48577         4.77534         1.92624
| 40>    N       -3.21691         3.68869         1.91047
| 41>    C       -1.13781         4.69056         2.35195
| 42>    N       -0.05411         4.66113         2.72308
| 43>    C       -2.24644         7.20544         1.54377
| 44>    N       -1.60111         8.15030         1.61059
| 45>    C       -6.34528         5.11326         0.52288
| 46>    C       -7.02219         3.89062         0.33024
| 47>    C       -6.50740         2.65000         0.87097
| 48>    N       -7.34663         1.63572         0.67869
| 49>    S       -8.63579         2.16731        -0.12171
| 50>    N       -8.21580         3.71400        -0.24137
| 51>    C       -6.95323         6.39130         0.25542
| 52>    C       -6.73134         7.51926         1.12068
| 53>    C       -6.17456         7.55416         2.37244
| 54>    S       -6.16763         9.12630         3.03890
| 55>    C       -6.92958         9.78063         1.66295
| 56>    C       -7.20575         8.81492         0.71861
| 57>    C       -7.93934         8.97664        -0.49387
| 58>    N       -8.13322        10.21140        -0.99346
| 59>    C       -8.36493         7.81566        -1.17282
| 60>    C       -7.80410         6.57125        -0.81169
| 61>    C       -9.32392         7.83215        -2.23909
| 62>    C      -10.44663         8.60564        -2.34139
| 63>    C      -11.41738         8.53703        -3.37868
| 64>    C      -12.50887         9.32770        -3.19150
| 65>    C      -12.48273        10.07119        -1.99135
| 66>    S      -11.00413         9.74104        -1.10843
| 67>    C      -13.42277        10.94404        -1.48359
| 68>    C      -14.66543        11.32924        -2.03416
| 69>    C      -15.36014        12.20659        -1.25906
| 70>    C      -14.71725        12.56751        -0.04675
| 71>    S      -13.17091        11.73995         0.05454
| 72>    C      -15.21832        13.41551         0.90617
| 73>    C      -14.63605        13.79012         2.13636
| 74>    C      -13.41631        13.41713         2.70202
| 75>    C      -13.29016        14.04846         3.96617
| 76>    C      -12.29374        14.00034         4.91303
| 77>    C      -12.47443        14.74643         6.09069
| 78>    C      -11.67813        14.89821         7.21356
| 79>    C      -12.33473        15.77494         8.13831
| 80>    C      -13.53684        16.16254         7.58023
| 81>    C      -13.67269        15.54314         6.29629
| 82>    C      -14.66530        15.59501         5.35817
| 83>    C      -14.48884        14.84312         4.17338
| 84>    C      -15.28927        14.67955         3.06358
| 85>    C      -11.84422        16.18948         9.43046
| 86>    C      -10.68988        15.81590         9.97621
| 87>    H       -3.18884         3.95963         6.71365
| 88>    H       -2.05479        -0.90353         6.30463
| 89>    H       -0.69552         1.93711        10.59964
| 90>    H       -1.89575         3.78358         9.19497
| 91>    H       -5.23636         0.49445         1.90304
| 92>    H       -5.78814         6.74439         2.95762
| 93>    H       -7.18290        10.82211         1.65292
| 94>    H       -7.84405        11.02028        -0.47583
| 95>    H       -8.63989        10.33997        -1.85069
| 96>    H       -8.04957         5.71669        -1.42224
| 97>    H       -9.22669         7.04491        -2.97622
| 98>    H      -11.27091         7.89668        -4.23063
| 99>    H      -13.33410         9.39273        -3.87782
|100>    H      -15.00943        10.94971        -2.97961
|101>    H      -16.32468        12.60889        -1.51563
|102>    H      -16.18985        13.84402         0.69051
|103>    H      -12.68097        12.76274         2.27599
|104>    H      -11.40135        13.40855         4.76654
|105>    H      -10.72172        14.43433         7.37060
|106>    H      -14.26102        16.81935         8.02659
|107>    H      -15.56022        16.18389         5.50356
|108>    H      -16.25171        15.13033         2.89695
|109>    H      -12.49957        16.86036         9.97219
|110>    H      -10.00602        15.15069         9.47759
|111>    H      -10.38827        16.16504        10.94844
|112> *
|113>
|114>                          ****END OF INPUT****

CARTESIAN COORDINATES (ANGSTROEM)
---------------------------------
  C     -3.491090    0.355790    4.086490
  C     -3.315890   -0.896050    3.552720
  C     -2.673640   -1.958050    4.220490
  N     -2.172200   -2.866040    4.713670
  C     -3.733910   -1.290900    2.265130
  N     -4.022360   -1.692560    1.228440
  C     -2.984330    0.812820    5.374200
  C     -3.292290    2.188540    5.519080
  C     -2.939970    2.912750    6.632220
  C     -2.245880    2.250760    7.649190
  C     -1.944270    0.876710    7.496690
  C     -2.303240    0.142570    6.371970
  S     -1.091530    0.264570    8.878700
  C     -1.143610    1.821220    9.631950
  C     -1.768450    2.760690    8.889600
  C     -4.031670    2.656030    4.335450
  O     -4.543920    3.751990    4.203160
  C     -4.132410    1.477760    3.435990
  C     -4.881520    1.439740    2.292570
  C     -5.292770    2.596980    1.584750
  C     -4.499850    3.767740    1.534070
  C     -5.027930    5.008810    1.035580
  N     -4.251640    6.101510    1.027200
  C     -3.030480    6.027570    1.498980
  C     -2.485770    4.775340    1.926240
  N     -3.216910    3.688690    1.910470
  C     -1.137810    4.690560    2.351950
  N     -0.054110    4.661130    2.723080
  C     -2.246440    7.205440    1.543770
  N     -1.601110    8.150300    1.610590
  C     -6.345280    5.113260    0.522880
  C     -7.022190    3.890620    0.330240
  C     -6.507400    2.650000    0.870970
  N     -7.346630    1.635720    0.678690
  S     -8.635790    2.167310   -0.121710
  N     -8.215800    3.714000   -0.241370
  C     -6.953230    6.391300    0.255420
  C     -6.731340    7.519260    1.120680
  C     -6.174560    7.554160    2.372440
  S     -6.167630    9.126300    3.038900
  C     -6.929580    9.780630    1.662950
  C     -7.205750    8.814920    0.718610
  C     -7.939340    8.976640   -0.493870
  N     -8.133220   10.211400   -0.993460
  C     -8.364930    7.815660   -1.172820
  C     -7.804100    6.571250   -0.811690
  C     -9.323920    7.832150   -2.239090
  C    -10.446630    8.605640   -2.341390
  C    -11.417380    8.537030   -3.378680
  C    -12.508870    9.327700   -3.191500
  C    -12.482730   10.071190   -1.991350
  S    -11.004130    9.741040   -1.108430
  C    -13.422770   10.944040   -1.483590
  C    -14.665430   11.329240   -2.034160
  C    -15.360140   12.206590   -1.259060
  C    -14.717250   12.567510   -0.046750
  S    -13.170910   11.739950    0.054540
  C    -15.218320   13.415510    0.906170
  C    -14.636050   13.790120    2.136360
  C    -13.416310   13.417130    2.702020
  C    -13.290160   14.048460    3.966170
  C    -12.293740   14.000340    4.913030
  C    -12.474430   14.746430    6.090690
  C    -11.678130   14.898210    7.213560
  C    -12.334730   15.774940    8.138310
  C    -13.536840   16.162540    7.580230
  C    -13.672690   15.543140    6.296290
  C    -14.665300   15.595010    5.358170
  C    -14.488840   14.843120    4.173380
  C    -15.289270   14.679550    3.063580
  C    -11.844220   16.189480    9.430460
  C    -10.689880   15.815900    9.976210
  H     -3.188840    3.959630    6.713650
  H     -2.054790   -0.903530    6.304630
  H     -0.695520    1.937110   10.599640
  H     -1.895750    3.783580    9.194970
  H     -5.236360    0.494450    1.903040
  H     -5.788140    6.744390    2.957620
  H     -7.182900   10.822110    1.652920
  H     -7.844050   11.020280   -0.475830
  H     -8.639890   10.339970   -1.850690
  H     -8.049570    5.716690   -1.422240
  H     -9.226690    7.044910   -2.976220
  H    -11.270910    7.896680   -4.230630
  H    -13.334100    9.392730   -3.877820
  H    -15.009430   10.949710   -2.979610
  H    -16.324680   12.608890   -1.515630
  H    -16.189850   13.844020    0.690510
  H    -12.680970   12.762740    2.275990
  H    -11.401350   13.408550    4.766540
  H    -10.721720   14.434330    7.370600
  H    -14.261020   16.819350    8.026590
  H    -15.560220   16.183890    5.503560
  H    -16.251710   15.130330    2.896950
  H    -12.499570   16.860360    9.972190
  H    -10.006020   15.150690    9.477590
  H    -10.388270   16.165040   10.948440

 Total Charge           Charge          ....    0
 Multiplicity           Mult            ....    1
 Number of Electrons    NEL             ....  518
 Basis Dimension        Dim             .... 1153

ORBITAL ENERGIES
----------------

  NO   OCC          E(Eh)            E(eV)
   0   2.0000     -89.040570     -2422.9171
   1   2.0000     -88.970944     -2421.0225
   2   2.0000     -88.960753     -2420.7452
   3   2.0000     -88.946012     -2420.3440
   4   2.0000     -88.945162     -2420.3209
   5   2.0000     -19.211403      -522.7689
   6   2.0000     -14.453001      -393.2861
   7   2.0000     -14.452526      -393.2732
   8   2.0000     -14.451847      -393.2547
   9   2.0000     -14.450617      -393.2213
  10   2.0000     -14.446797      -393.1173
  11   2.0000     -14.424974      -392.5235
  12   2.0000     -14.420879      -392.4121
  13   2.0000     -14.406999      -392.0344
  14   2.0000     -14.405665      -391.9981
  15   2.0000     -10.375056      -282.3196
  16   2.0000     -10.369653      -282.1726
  17   2.0000     -10.362634      -281.9816
  18   2.0000     -10.346713      -281.5484
  19   2.0000     -10.344713      -281.4940
  20   2.0000     -10.339803      -281.3604
  21   2.0000     -10.339194      -281.3438
  22   2.0000     -10.338085      -281.3136
  23   2.0000     -10.333410      -281.1864
  24   2.0000     -10.331637      -281.1381
  25   2.0000     -10.323748      -280.9235
  26   2.0000     -10.317937      -280.7653
  27   2.0000     -10.315256      -280.6924
  28   2.0000     -10.314643      -280.6757
  29   2.0000     -10.310565      -280.5647
  30   2.0000     -10.309842      -280.5451
  31   2.0000     -10.308748      -280.5153
  32   2.0000     -10.308637      -280.5123
  33   2.0000     -10.308507      -280.5087
  34   2.0000     -10.308456      -280.5074
  35   2.0000     -10.308262      -280.5021
  36   2.0000     -10.305001      -280.4133
  37   2.0000     -10.303234      -280.3652
  38   2.0000     -10.299487      -280.2633
  39   2.0000     -10.299101      -280.2528
  40   2.0000     -10.298633      -280.2400
  41   2.0000     -10.298449      -280.2351
  42   2.0000     -10.296453      -280.1807
  43   2.0000     -10.295657      -280.1591
  44   2.0000     -10.293853      -280.1100
  45   2.0000     -10.293211      -280.0925
  46   2.0000     -10.291783      -280.0537
  47   2.0000     -10.289711      -279.9973
  48   2.0000     -10.287654      -279.9413
  49   2.0000     -10.287189      -279.9286
  50   2.0000     -10.286509      -279.9101
  51   2.0000     -10.285842      -279.8920
  52   2.0000     -10.285685      -279.8877
  53   2.0000     -10.285432      -279.8808
  54   2.0000     -10.284890      -279.8661
  55   2.0000     -10.284826      -279.8643
  56   2.0000     -10.284524      -279.8561
  57   2.0000     -10.284300      -279.8500
  58   2.0000     -10.283970      -279.8410
  59   2.0000     -10.283617      -279.8314
  60   2.0000     -10.281572      -279.7758
  61   2.0000     -10.280645      -279.7506
  62   2.0000     -10.272998      -279.5425
  63   2.0000     -10.271935      -279.5136
  64   2.0000     -10.270407      -279.4720
  65   2.0000     -10.269895      -279.4581
  66   2.0000     -10.269018      -279.4342
  67   2.0000     -10.266742      -279.3723
  68   2.0000     -10.266248      -279.3588
  69   2.0000     -10.265976      -279.3514
  70   2.0000     -10.265746      -279.3451
  71   2.0000     -10.258896      -279.1588
  72   2.0000      -8.131960      -221.2819
  73   2.0000      -8.066708      -219.5063
  74   2.0000      -8.057060      -219.2437
  75   2.0000      -8.042057      -218.8355
  76   2.0000      -8.041060      -218.8084
  77   2.0000      -6.103047      -166.0724
  78   2.0000      -6.095249      -165.8602
  79   2.0000      -6.094711      -165.8455
  80   2.0000      -6.035655      -164.2385
  81   2.0000      -6.031252      -164.1187
  82   2.0000      -6.029818      -164.0797
  83   2.0000      -6.026572      -163.9914
  84   2.0000      -6.022266      -163.8742
  85   2.0000      -6.018714      -163.7775
  86   2.0000      -6.011842      -163.5905
  87   2.0000      -6.010795      -163.5620
  88   2.0000      -6.007714      -163.4782
  89   2.0000      -6.006751      -163.4520
  90   2.0000      -6.002941      -163.3483
  91   2.0000      -6.002044      -163.3239
  92   2.0000      -1.137294       -30.9474
  93   2.0000      -1.126991       -30.6670
  94   2.0000      -1.111120       -30.2351
  95   2.0000      -1.046971       -28.4895
  96   2.0000      -1.038867       -28.2690
  97   2.0000      -1.012325       -27.5468
  98   2.0000      -1.007555       -27.4170
  99   2.0000      -1.000924       -27.2365
 100   2.0000      -0.998447       -27.1691
 101   2.0000      -0.994801       -27.0699
 102   2.0000      -0.993339       -27.0301
 103   2.0000      -0.990461       -26.9518
 104   2.0000      -0.986922       -26.8555
 105   2.0000      -0.984664       -26.7941
 106   2.0000      -0.978726       -26.6325
 107   2.0000      -0.972875       -26.4733
 108   2.0000      -0.971831       -26.4449
 109   2.0000      -0.960099       -26.1256
 110   2.0000      -0.936874       -25.4936
 111   2.0000      -0.923808       -25.1381
 112   2.0000      -0.905763       -24.6471
 113   2.0000      -0.901817       -24.5397
 114   2.0000      -0.900466       -24.5029
 115   2.0000      -0.889010       -24.1912
 116   2.0000      -0.880312       -23.9545
 117   2.0000      -0.874713       -23.8022
 118   2.0000      -0.867649       -23.6099
 119   2.0000      -0.863748       -23.5038
 120   2.0000      -0.857134       -23.3238
 121   2.0000      -0.851577       -23.1726
 122   2.0000      -0.841726       -22.9045
 123   2.0000      -0.833535       -22.6816
 124   2.0000      -0.830230       -22.5917
 125   2.0000      -0.824456       -22.4346
 126   2.0000      -0.820559       -22.3285
 127   2.0000      -0.816819       -22.2268
 128   2.0000      -0.808430       -21.9985
 129   2.0000      -0.798182       -21.7196
 130   2.0000      -0.793789       -21.6001
 131   2.0000      -0.789076       -21.4719
 132   2.0000      -0.769603       -20.9420
 133   2.0000      -0.762625       -20.7521
 134   2.0000      -0.749966       -20.4076
 135   2.0000      -0.748240       -20.3607
 136   2.0000      -0.739344       -20.1186
 137   2.0000      -0.732953       -19.9447
 138   2.0000      -0.722808       -19.6686
 139   2.0000      -0.708572       -19.2812
 140   2.0000      -0.703504       -19.1433
 141   2.0000      -0.692613       -18.8470
 142   2.0000      -0.689694       -18.7675
 143   2.0000      -0.686882       -18.6910
 144   2.0000      -0.679903       -18.5011
 145   2.0000      -0.679639       -18.4939
 146   2.0000      -0.672975       -18.3126
 147   2.0000      -0.668957       -18.2032
 148   2.0000      -0.665917       -18.1205
 149   2.0000      -0.656673       -17.8690
 150   2.0000      -0.654250       -17.8031
 151   2.0000      -0.651400       -17.7255
 152   2.0000      -0.644305       -17.5324
 153   2.0000      -0.640353       -17.4249
 154   2.0000      -0.636060       -17.3081
 155   2.0000      -0.626229       -17.0406
 156   2.0000      -0.624773       -17.0009
 157   2.0000      -0.622499       -16.9391
 158   2.0000      -0.620237       -16.8775
 159   2.0000      -0.613429       -16.6922
 160   2.0000      -0.611736       -16.6462
 161   2.0000      -0.605998       -16.4901
 162   2.0000      -0.601106       -16.3569
 163   2.0000      -0.593089       -16.1388
 164   2.0000      -0.590463       -16.0673
 165   2.0000      -0.587121       -15.9764
 166   2.0000      -0.579444       -15.7675
 167   2.0000      -0.578256       -15.7351
 168   2.0000      -0.575824       -15.6690
 169   2.0000      -0.570959       -15.5366
 170   2.0000      -0.562208       -15.2984
 171   2.0000      -0.554002       -15.0752
 172   2.0000      -0.552763       -15.0415
 173   2.0000      -0.550462       -14.9788
 174   2.0000      -0.542723       -14.7682
 175   2.0000      -0.538817       -14.6620
 176   2.0000      -0.537878       -14.6364
 177   2.0000      -0.534752       -14.5513
 178   2.0000      -0.530452       -14.4343
 179   2.0000      -0.527171       -14.3451
 180   2.0000      -0.525144       -14.2899
 181   2.0000      -0.522056       -14.2059
 182   2.0000      -0.514984       -14.0134
 183   2.0000      -0.513770       -13.9804
 184   2.0000      -0.511993       -13.9320
 185   2.0000      -0.510662       -13.8958
 186   2.0000      -0.505853       -13.7650
 187   2.0000      -0.500583       -13.6216
 188   2.0000      -0.498943       -13.5769
 189   2.0000      -0.497941       -13.5497
 190   2.0000      -0.493666       -13.4333
 191   2.0000      -0.493300       -13.4234
 192   2.0000      -0.492849       -13.4111
 193   2.0000      -0.489749       -13.3268
 194   2.0000      -0.487097       -13.2546
 195   2.0000      -0.485804       -13.2194
 196   2.0000      -0.483876       -13.1669
 197   2.0000      -0.483318       -13.1518
 198   2.0000      -0.478908       -13.0317
 199   2.0000      -0.472229       -12.8500
 200   2.0000      -0.471690       -12.8353
 201   2.0000      -0.469728       -12.7819
 202   2.0000      -0.468617       -12.7517
 203   2.0000      -0.465485       -12.6665
 204   2.0000      -0.463558       -12.6141
 205   2.0000      -0.461270       -12.5518
 206   2.0000      -0.458267       -12.4701
 207   2.0000      -0.457506       -12.4494
 208   2.0000      -0.454523       -12.3682
 209   2.0000      -0.450756       -12.2657
 210   2.0000      -0.450259       -12.2522
 211   2.0000      -0.447691       -12.1823
 212   2.0000      -0.447168       -12.1680
 213   2.0000      -0.446861       -12.1597
 214   2.0000      -0.440311       -11.9815
 215   2.0000      -0.439758       -11.9664
 216   2.0000      -0.437632       -11.9086
 217   2.0000      -0.436746       -11.8845
 218   2.0000      -0.434752       -11.8302
 219   2.0000      -0.431988       -11.7550
 220   2.0000      -0.431303       -11.7363
 221   2.0000      -0.428015       -11.6469
 222   2.0000      -0.427284       -11.6270
 223   2.0000      -0.426135       -11.5957
 224   2.0000      -0.422823       -11.5056
 225   2.0000      -0.420059       -11.4304
 226   2.0000      -0.418658       -11.3923
 227   2.0000      -0.416593       -11.3361
 228   2.0000      -0.414525       -11.2798
 229   2.0000      -0.410020       -11.1572
 230   2.0000      -0.407062       -11.0767
 231   2.0000      -0.406676       -11.0662
 232   2.0000      -0.405126       -11.0240
 233   2.0000      -0.403130       -10.9697
 234   2.0000      -0.400288       -10.8924
 235   2.0000      -0.394716       -10.7408
 236   2.0000      -0.390880       -10.6364
 237   2.0000      -0.389888       -10.6094
 238   2.0000      -0.379329       -10.3221
 239   2.0000      -0.376942       -10.2571
 240   2.0000      -0.369807       -10.0630
 241   2.0000      -0.367101        -9.9893
 242   2.0000      -0.357023        -9.7151
 243   2.0000      -0.350607        -9.5405
 244   2.0000      -0.345791        -9.4094
 245   2.0000      -0.342213        -9.3121
 246   2.0000      -0.335792        -9.1374
 247   2.0000      -0.330144        -8.9837
 248   2.0000      -0.327205        -8.9037
 249   2.0000      -0.321348        -8.7443
 250   2.0000      -0.316514        -8.6128
 251   2.0000      -0.307299        -8.3620
 252   2.0000      -0.298233        -8.1153
 253   2.0000      -0.290928        -7.9166
 254   2.0000      -0.282558        -7.6888
 255   2.0000      -0.269790        -7.3414
 256   2.0000      -0.257185        -6.9984
 257   2.0000      -0.239613        -6.5202
 258   2.0000      -0.207925        -5.6579
 259   0.0000      -0.120913        -3.2902
 260   0.0000      -0.097800        -2.6613
 261   0.0000      -0.073244        -1.9931
 262   0.0000      -0.067654        -1.8410
 263   0.0000      -0.052300        -1.4232

MULLIKEN ATOMIC CHARGES
-----------------------
   0 C :    0.300098
   1 C :   -0.347143
   2 C :   -0.188669
   3 N :    0.149161
   4 C :   -0.203682
   5 N :    0.165785
   6 C :    0.022066
   7 C :   -0.011352
   8 C :   -0.065932
   9 C :    0.112932
  10 C :   -0.092609
  11 C :   -0.024908
  12 S :    0.139573
  13 C :   -0.048710
  14 C :    0.027179
  15 C :    0.152512
  16 O :   -0.179975
  17 C :   -0.060721
  18 C :   -0.050825
  19 C :    0.065397
  20 C :   -0.031402
  21 C :   -0.108211
  22 N :    0.071045
  23 C :   -0.154019
  24 C :   -0.113717
  25 N :    0.045633
  26 C :   -0.213164
  27 N :    0.239246
  28 C :   -0.206531
  29 N :    0.229950
  30 C :    0.110597
  31 C :    0.005079
  32 C :    0.003114
  33 N :   -0.271698
  34 S :    0.539939
  35 N :   -0.280279
  36 C :    0.019239
  37 C :    0.117016
  38 C :   -0.167339
  39 S :    0.164482
  40 C :   -0.200006
  41 C :    0.083556
  42 C :   -0.018163
  43 N :    0.011831
  44 C :    0.055253
  45 C :   -0.043988
  46 C :   -0.081154
  47 C :   -0.057663
  48 C :    0.038301
  49 C :    0.028926
  50 C :   -0.058292
  51 S :    0.051390
  52 C :   -0.027710
  53 C :    0.023564
  54 C :    0.038202
  55 C :   -0.019690
  56 S :    0.042873
  57 C :   -0.011510
  58 C :    0.060294
  59 C :   -0.048492
  60 C :    0.053870
  61 C :   -0.002342
  62 C :    0.049303
  63 C :   -0.023559
  64 C :    0.065982
  65 C :   -0.031253
  66 C :    0.061571
  67 C :   -0.005308
  68 C :    0.060974
  69 C :   -0.036578
  70 C :    0.008966
  71 C :   -0.024586
  72 H :   -0.017125
  73 H :   -0.007539
  74 H :    0.036800
  75 H :   -0.008015
  76 H :    0.039660
  77 H :    0.033374
  78 H :    0.016716
  79 H :    0.118578
  80 H :    0.137156
  81 H :   -0.017935
  82 H :   -0.007683
  83 H :   -0.011818
  84 H :   -0.014730
  85 H :   -0.016778
  86 H :   -0.014465
  87 H :   -0.026955
  88 H :   -0.016305
  89 H :   -0.028285
  90 H :   -0.025914
  91 H :   -0.028981
  92 H :   -0.027126
  93 H :   -0.025776
  94 H :   -0.018804
  95 H :    0.008290
  96 H :    0.019946
Sum of atomic charges:   -0.0000000

LOEWDIN ATOMIC CHARGES
----------------------
   0 C :    0.074644
   1 C :   -0.137705
   2 C :   -0.017642
   3 N :   -0.055635
   4 C :   -0.023170
   5 N :   -0.050763
   6 C :   -0.019283
   7 C :   -0.051273
   8 C :    0.023555
   9 C :   -0.035202
  10 C :   -0.143887
  11 C :   -0.009069
  12 S :    0.428870
  13 C :   -0.149857
  14 C :   -0.057537
  15 C :    0.088094
  16 O :   -0.168667
  17 C :   -0.079801
  18 C :    0.081985
  19 C :   -0.062764
  20 C :    0.027853
  21 C :   -0.024954
  22 N :    0.017254
  23 C :   -0.039474
  24 C :   -0.018256
  25 N :    0.005503
  26 C :   -0.033861
  27 N :   -0.006638
  28 C :   -0.036003
  29 N :   -0.017094
  30 C :    0.029116
  31 C :   -0.049658
  32 C :   -0.028661
  33 N :   -0.285917
  34 S :    0.674022
  35 N :   -0.274448
  36 C :   -0.054705
  37 C :   -0.033285
  38 C :   -0.192765
  39 S :    0.502171
  40 C :   -0.206470
  41 C :   -0.071118
  42 C :    0.069709
  43 N :    0.045846
  44 C :   -0.100681
  45 C :    0.043964
  46 C :   -0.061655
  47 C :   -0.164786
  48 C :   -0.035212
  49 C :   -0.038790
  50 C :   -0.185994
  51 S :    0.361643
  52 C :   -0.175572
  53 C :   -0.044762
  54 C :   -0.025996
  55 C :   -0.152729
  56 S :    0.377254
  57 C :   -0.046328
  58 C :   -0.065520
  59 C :   -0.010429
  60 C :   -0.052802
  61 C :    0.064677
  62 C :   -0.059989
  63 C :    0.042895
  64 C :   -0.056631
  65 C :    0.009329
  66 C :   -0.055440
  67 C :    0.065528
  68 C :   -0.063271
  69 C :    0.038551
  70 C :   -0.020922
  71 C :   -0.054242
  72 H :    0.038559
  73 H :    0.040628
  74 H :    0.028894
  75 H :    0.034864
  76 H :    0.048274
  77 H :    0.023955
  78 H :    0.017760
  79 H :    0.081551
  80 H :    0.073332
  81 H :    0.031661
  82 H :    0.033959
  83 H :    0.032753
  84 H :    0.031578
  85 H :    0.030641
  86 H :    0.032744
  87 H :    0.032630
  88 H :    0.010044
  89 H :    0.033521
  90 H :    0.024341
  91 H :    0.023493
  92 H :    0.034038
  93 H :    0.024253
  94 H :    0.029310
  95 H :    0.017710
  96 H :    0.024358

  Mayer bond orders larger than 0.100000
B(  0-C ,  1-C ) :   1.6346 B(  0-C ,  6-C ) :   1.0025 B(  0-C , 17-C ) :   1.0781
B(  1-C ,  2-C ) :   1.1439 B(  1-C ,  4-C ) :   1.1480 B(  2-C ,  3-N ) :   2.9699
B(  4-C ,  5-N ) :   2.9882 B(  6-C ,  7-C ) :   1.2687 B(  6-C , 11-C ) :   1.4132
B(  7-C ,  8-C ) :   1.4204 B(  7-C , 15-C ) :   0.9589 B(  8-C ,  9-C ) :   1.2471
B(  8-C , 72-H ) :   1.0159 B(  9-C , 10-C ) :   1.3045 B(  9-C , 14-C ) :   1.1714
B( 10-C , 11-C ) :   1.3203 B( 10-C , 12-S ) :   1.0994 B( 11-C , 73-H ) :   0.9826
B( 12-S , 13-C ) :   1.1263 B( 13-C , 14-C ) :   1.6283 B( 13-C , 74-H ) :   0.9687
B( 14-C , 75-H ) :   0.9991 B( 15-C , 16-O ) :   2.1644 B( 15-C , 17-C ) :   0.9478
B( 17-C , 18-C ) :   1.5691 B( 18-C , 19-C ) :   1.1912 B( 18-C , 76-H ) :   0.9381
B( 19-C , 20-C ) :   1.2402 B( 19-C , 30-C ) :   0.1159 B( 19-C , 32-C ) :   1.1859
B( 20-C , 21-C ) :   1.1037 B( 20-C , 25-N ) :   1.4236 B( 21-C , 22-N ) :   1.4705
B( 21-C , 30-C ) :   1.2383 B( 22-N , 23-C ) :   1.7187 B( 23-C , 24-C ) :   1.2041
B( 23-C , 28-C ) :   1.1578 B( 24-C , 25-N ) :   1.7151 B( 24-C , 26-C ) :   1.1546
B( 26-C , 27-N ) :   3.0492 B( 28-C , 29-N ) :   3.0504 B( 30-C , 31-C ) :   1.2417
B( 30-C , 36-C ) :   1.0984 B( 31-C , 32-C ) :   1.1047 B( 31-C , 35-N ) :   1.5020
B( 32-C , 33-N ) :   1.5509 B( 33-N , 34-S ) :   1.2633 B( 33-N , 35-N ) :   0.1506
B( 34-S , 35-N ) :   1.2895 B( 36-C , 37-C ) :   1.1182 B( 36-C , 45-C ) :   1.4410
B( 37-C , 38-C ) :   1.4892 B( 37-C , 41-C ) :   1.2465 B( 38-C , 39-S ) :   1.1994
B( 38-C , 77-H ) :   0.9522 B( 39-S , 40-C ) :   1.2308 B( 40-C , 41-C ) :   1.4144
B( 40-C , 78-H ) :   0.9719 B( 41-C , 42-C ) :   1.1010 B( 42-C , 43-N ) :   1.4238
B( 42-C , 44-C ) :   1.3009 B( 43-N , 79-H ) :   0.9350 B( 43-N , 80-H ) :   0.9211
B( 44-C , 45-C ) :   1.2293 B( 44-C , 46-C ) :   1.0470 B( 45-C , 81-H ) :   0.9856
B( 46-C , 47-C ) :   1.6361 B( 46-C , 82-H ) :   0.9599 B( 47-C , 48-C ) :   1.1236
B( 47-C , 51-S ) :   1.0227 B( 48-C , 49-C ) :   1.6092 B( 48-C , 83-H ) :   0.9980
B( 49-C , 50-C ) :   1.1773 B( 49-C , 84-H ) :   0.9937 B( 50-C , 51-S ) :   1.0233
B( 50-C , 52-C ) :   1.5262 B( 52-C , 53-C ) :   1.1811 B( 52-C , 56-S ) :   1.0400
B( 53-C , 54-C ) :   1.5934 B( 53-C , 85-H ) :   0.9936 B( 54-C , 55-C ) :   1.1414
B( 54-C , 86-H ) :   0.9985 B( 55-C , 56-S ) :   1.0273 B( 55-C , 57-C ) :   1.5776
B( 57-C , 58-C ) :   1.1359 B( 57-C , 87-H ) :   0.9692 B( 58-C , 59-C ) :   1.4513
B( 58-C , 69-C ) :   1.1151 B( 59-C , 60-C ) :   1.1311 B( 59-C , 88-H ) :   0.9943
B( 60-C , 61-C ) :   1.4426 B( 60-C , 68-C ) :   1.1281 B( 61-C , 62-C ) :   1.1337
B( 61-C , 89-H ) :   1.0027 B( 62-C , 63-C ) :   1.4412 B( 62-C , 66-C ) :   1.1232
B( 63-C , 64-C ) :   1.1391 B( 63-C , 90-H ) :   1.0075 B( 64-C , 65-C ) :   1.5146
B( 64-C , 70-C ) :   1.0851 B( 65-C , 66-C ) :   1.0794 B( 65-C , 91-H ) :   1.0172
B( 66-C , 67-C ) :   1.4819 B( 67-C , 68-C ) :   1.1121 B( 67-C , 92-H ) :   1.0044
B( 68-C , 69-C ) :   1.4506 B( 69-C , 93-H ) :   1.0150 B( 70-C , 71-C ) :   1.9326
B( 70-C , 94-H ) :   0.9664 B( 71-C , 95-H ) :   0.9530 B( 71-C , 96-H ) :   0.9494

-----------------------------------------------------------------------------
         ABSORPTION SPECTRUM VIA TRANSITION ELECTRIC DIPOLE MOMENTS
-----------------------------------------------------------------------------
State   Energy  Wavelength   fosc         T2         TX        TY        TZ
        (cm-1)    (nm)                  (au**2)     (au)      (au)      (au)
-----------------------------------------------------------------------------
   0    6809.4   1468.6   0.246049695  11.89565   1.82609  -2.91807   0.21425
   1    7438.2   1344.4   0.028491222   1.26101  -0.18405   0.07685  -1.10509
   2   10631.2    940.6   0.214567173   6.64439  -1.23412   2.12369  -0.78184
   3   15231.2    656.5   0.362657415   7.83858  -1.47619   1.69152   1.67279
   4   16401.7    609.7   0.594122981  11.92514  -2.03487   2.18438   1.73578
   5   18311.1    546.1   0.075670185   1.36046  -0.12625   0.83265  -0.80698
   6   18968.8    527.2   0.194214558   3.37068  -0.44960   1.40892  -1.08788
   7   19622.1    509.6   0.024550092   0.41189  -0.23708   0.49215  -0.33685
   8   20906.7    478.3   0.120427203   1.89633  -0.27775  -0.68669  -1.16088
   9   22293.4    448.6   0.111011623   1.63933   0.41298  -0.63106   1.03467
  10   22437.7    445.7   0.118324203   1.73609  -0.25798  -0.31536  -1.25303
  11   22474.7    444.9   0.043798633   0.64157  -0.01822  -0.79269  -0.11348
  12   23079.9    433.3   0.055013129   0.78471  -0.54658   0.64968  -0.25272
  13   23374.8    427.8   0.050677794   0.71375   0.10519  -0.63952  -0.54194
  14   23724.1    421.5   0.024312856   0.33738   0.30566  -0.48001  -0.11639
  15   24224.6    412.8   0.205493353   2.79265  -0.59810  -0.71669  -1.38610
  16   24442.8    409.1   0.009679600   0.13037   0.08412  -0.32440  -0.13438
  17   24809.6    403.1   0.009750450   0.12938  -0.04665   0.20512   0.29178
  18   25456.8    392.8   0.039203584   0.50699  -0.15044  -0.29462  -0.63052
  19   25811.6    387.4   0.288990078   3.68589   0.66612   0.50502   1.72833
  20   26091.8    383.3   0.065481178   0.82621   0.27623   0.32679   0.80194
  21   26523.8    377.0   0.205543000   2.55118   0.77987   0.37869   1.34149
  22   26913.9    371.6   0.045903482   0.56149   0.60747  -0.10749   0.42535
  23   27068.8    369.4   0.110512079   1.34405   0.90809  -0.50120   0.51791
  24   28018.9    356.9   0.005410366   0.06357  -0.23690   0.06059   0.06144
  25   28240.8    354.1   0.013008848   0.15165   0.30165  -0.15274   0.19320
  26   28501.4    350.9   0.012415629   0.14341   0.19515   0.13301  -0.29603
  27   28633.0    349.2   0.036708845   0.42206  -0.07183  -0.64548   0.01605
  28   29276.2    341.6   0.223178184   2.50964  -1.18436   0.26659  -1.01777
  29   29891.9    334.5   0.038617758   0.42531  -0.58401  -0.25946  -0.13010
  30   30431.3    328.6   0.209723747   2.26884   1.13162   0.14379   0.98366
  31   30570.8    327.1   0.741185428   7.98171   1.51923   0.24849   2.36894
  32   30622.3    326.6   0.174075428   1.87144  -1.19125   0.56436  -0.36589
  33   30847.2    324.2   0.341496997   3.64458  -0.88124   0.26606  -1.67249
  34   31205.5    320.5   0.281656844   2.97143   1.48819   0.52692   0.69216
  35   31522.8    317.2   0.005780417   0.06037   0.06134   0.22627  -0.07353
  36   31570.0    316.8   0.050660965   0.52829   0.55929  -0.43828   0.15296
  37   31657.9    315.9   0.018925256   0.19680  -0.14661  -0.41837  -0.01663
  38   32044.3    312.1   0.034702783   0.35652  -0.25816  -0.53008  -0.09428
  39   32174.5    310.8   0.047657075   0.48763   0.50282  -0.25623   0.41128
  40   32449.1    308.2   0.052363907   0.53126  -0.66232  -0.19433  -0.23416
  41   32610.1    306.7   0.033305294   0.33623  -0.47865  -0.31087   0.10238
  42   33394.7    299.4   0.193791305   1.91043  -0.76989  -0.15873  -1.13688
  43   33592.2    297.7   0.043526557   0.42657   0.37314  -0.13365  -0.51911
  44   33718.6    296.6   0.084717059   0.82714  -0.31288  -0.02350   0.85363
  45   33835.8    295.5   0.010330705   0.10051  -0.11370   0.07492  -0.28631
  46   34614.5    288.9   0.146634943   1.39462   0.38901  -0.88588  -0.67713
  47   34686.5    288.3   0.156529131   1.48563  -0.40220  -0.98396  -0.59639
  48   34850.0    286.9   0.125067965   1.18146   0.39803   0.36252   0.94425
  49   35145.6    284.5   0.349675574   3.27544   1.41190   1.06671   0.37963
  50   35484.3    281.8   0.005849340   0.05427   0.20222  -0.00831   0.11535
  51   35742.9    279.8   0.005477207   0.05045   0.04580  -0.20606  -0.07674
  52   35842.0    279.0   0.002786195   0.02559   0.03129  -0.01299  -0.15634
  53   36097.3    277.0   0.043663380   0.39822  -0.54262  -0.14980  -0.28520
  54   36328.2    275.3   0.007310802   0.06625   0.18647  -0.16333  -0.06931
  55   36520.7    273.8   0.055982009   0.50464   0.25614   0.53808   0.38665
  56   36639.7    272.9   0.016767245   0.15066   0.03704  -0.37380  -0.09774
  57   36742.9    272.2   0.071608966   0.64161   0.65087  -0.00848   0.46681
  58   36905.3    271.0   0.091160366   0.81319  -0.36615  -0.46260  -0.68200
  59   37166.3    269.1   0.104828489   0.92855   0.83546   0.14611   0.45740
  60   37278.6    268.3   0.164485346   1.45259  -1.01470  -0.11174  -0.64070
  61   37514.8    266.6   0.015679489   0.13760   0.06087  -0.00776   0.36583
  62   37962.0    263.4   0.009089251   0.07882   0.21274  -0.18255   0.01561
  63   38143.3    262.2   0.002677188   0.02311  -0.07601   0.12598  -0.03819
  64   38227.8    261.6   0.007586809   0.06534   0.14703   0.11819   0.17248
  65   38312.7    261.0   0.075527094   0.64899   0.20367  -0.58588   0.51406
  66   38483.6    259.9   0.043844433   0.37507   0.24229   0.38836   0.40687
  67   39110.5    255.7   0.004723310   0.03976  -0.16165  -0.11673  -0.00097
  68   39278.0    254.6   0.018267162   0.15311  -0.16279   0.31348  -0.16834
  69   39303.2    254.4   0.019218797   0.16098   0.23121  -0.30411   0.12265
  70   39572.2    252.7   0.061231379   0.50940   0.34139  -0.52725   0.33891
  71   39676.2    252.0   0.029171405   0.24205  -0.33212  -0.18600  -0.31169
  72   39679.9    252.0   0.115321106   0.95678   0.43731  -0.83228   0.26993
  73   39953.2    250.3   0.007981140   0.06576   0.05913  -0.18428  -0.16825
  74   40149.0    249.1   0.105871328   0.86812  -0.81842   0.14178  -0.42214
  75   40259.2    248.4   0.003729221   0.03049   0.15506   0.00712  -0.08000

FINAL SINGLE POINT ENERGY     -4741.728546916725

DIPOLE MOMENT
-------------
                                X             Y             Z
Electronic contribution:     48.04472     -67.98605     -16.20219
Nuclear contribution   :    -52.23721      71.86665      16.08081
                        -----------------------------------------
Total Dipole Moment    :     -4.19248       3.88061      -0.12139
                        -----------------------------------------
Magnitude (a.u.)       :      5.71409
Magnitude (Debye)      :     14.52405

Rotational constants in cm-1:     0.001119     0.000345     0.000290
Rotational constants in MHz :    33.546619    10.342096     8.703141

                             ****ORCA TERMINATED NORMALLY****
TOTAL RUN TIME: 0 days 0 hours 12 minutes 33 seconds 852 msec
