                         Program Version 4.2.0 -  RELEASE  -
|  1> # ORCA input file
|  2> # SCF done       -204.845181975278          0.000628374399
|  3> ! CAM-B3LYP def2-SVP def2/J RIJCOSX Grid4 TightSCF
|  4> %maxcore 5000
|  5> %tddft
|  6>     Mode sTDDFT
|  7>     Ethresh 5.0
|  8>     maxcore 5000
|  9> end
| 10>
| 11> %pal
| 12>   nprocs 6
| 13>   end
| 14> * xyz 0 1
| 15>    C       -7.78625        10.26808        -6.63177
| 16>    C       -7.98034         9.67604        -7.85566
| 17>    C       -8.08225        10.38113        -9.07199
| 18>    N       -8.16994        10.88933       -10.09813
| 19>    C       -8.10905         8.29115        -8.07591
| 20>    N       -8.23123         7.17365        -8.31663
| 21>    C       -7.71174        11.70650        -6.39599
| 22>    C       -7.53260        11.93189        -5.00887
| 23>    C       -7.43368        13.19011        -4.46854
| 24>    C       -7.52757        14.28270        -5.33679
| 25>    C       -7.70709        14.04911        -6.72032
| 26>    C       -7.79862        12.77477        -7.26818
| 27>    S       -7.79581        15.54166        -7.60310
| 28>    C       -7.59836        16.44544        -6.14199
| 29>    C       -7.47019        15.67364        -5.04062
| 30>    C       -7.46564        10.63580        -4.30985
| 31>    O       -7.19244        10.45863        -3.13710
| 32>    C       -7.67831         9.61070        -5.34692
| 33>    C       -7.65676         8.25470        -5.13909
| 34>    N       -7.75714         7.61520        -3.96540
| 35>    C       -8.33315         8.09035        -2.78417
| 36>    C       -9.46028         8.85933        -2.73619
| 37>    S       -9.98319         9.15293        -1.13865
| 38>    C       -8.68383         8.22970        -0.50173
| 39>    C       -7.87104         7.72459        -1.47713
| 40>    N       -6.77575         6.92637        -1.21185
| 41>    C       -5.62829         6.84204        -1.95855
| 42>    C       -4.56348         6.12148        -1.57053
| 43>    C       -3.33180         5.94621        -2.30326
| 44>    C       -2.25066         5.34050        -1.64313
| 45>    C       -1.06064         5.14615        -2.29908
| 46>    C       -0.90947         5.57284        -3.63226
| 47>    C       -1.97352         6.16410        -4.30113
| 48>    C       -3.16993         6.34113        -3.63837
| 49>    C        0.45395         5.33612        -4.04192
| 50>    C        1.15471         4.78202        -2.95391
| 51>    C        0.22310         4.53501        -1.78730
| 52>    C        0.71606         5.20134        -0.49481
| 53>    C        0.97384         6.69344        -0.67037
| 54>    C        0.10600         2.99967        -1.63061
| 55>    C       -0.92327         2.51246        -0.61964
| 56>    C        2.49530         4.52291        -3.04849
| 57>    C        3.18346         4.79920        -4.24693
| 58>    C        2.46165         5.32102        -5.33461
| 59>    C        1.11460         5.59433        -5.23859
| 60>    C        4.59656         4.57930        -4.26797
| 61>    C        5.43460         4.62525        -5.34065
| 62>    C        6.83792         4.49956        -5.28591
| 63>    C        7.66679         4.60721        -4.19322
| 64>    C        9.08002         4.50006        -4.22068
| 65>    C        9.69364         4.74197        -3.02723
| 66>    C        8.79820         5.05801        -1.98388
| 67>    S        7.15488         5.00890        -2.56064
| 68>    C        9.07590         5.39240        -0.66751
| 69>    C       10.32346         5.49845        -0.02582
| 70>    C       10.23701         5.90281         1.27770
| 71>    C        8.91937         6.13384         1.72447
| 72>    S        7.78417         5.79870         0.44279
| 73>    C        8.52960         6.57683         2.97858
| 74>    C        7.20425         6.80569         3.31376
| 75>    C        6.66497         7.28854         4.49124
| 76>    C        7.21195         7.50656         5.79901
| 77>    C        8.27622         6.85879         6.38689
| 78>    C        8.73522         7.12345         7.69067
| 79>    N        9.16913         7.30641         8.73906
| 80>    C        8.97154         5.77570         5.81769
| 81>    N        9.55377         4.86001         5.43923
| 82>    C        6.30423         8.41412         6.50637
| 83>    C        5.13532         8.58333         5.72476
| 84>    C        5.29479         7.83702         4.45777
| 85>    O        4.48205         7.72804         3.56182
| 86>    C        4.07752         9.35609         6.13301
| 87>    C        4.18236        10.00590         7.36842
| 88>    C        5.35832         9.84243         8.13442
| 89>    C        6.42629         9.05078         7.72499
| 90>    S        5.28444        10.74415         9.61914
| 91>    C        3.69303        11.31680         9.19531
| 92>    C        3.23927        10.85965         8.00519
| 93>   Br        2.78024        12.46668        10.36458
| 94>    H       -7.29503        13.32684        -3.40723
| 95>    H       -7.93172        12.65107        -8.32981
| 96>    H       -7.59022        17.51658        -6.19961
| 97>    H       -7.33880        16.06048        -4.04622
| 98>    H       -7.52012         7.59693        -5.98847
| 99>    H       -7.51375         6.63261        -3.95290
|100>    H      -10.00923         9.25977        -3.56459
|101>    H       -8.57964         8.11648         0.55822
|102>    H       -6.70795         6.59118        -0.26027
|103>    H       -5.63153         7.41115        -2.87374
|104>    H       -4.60861         5.62271        -0.60946
|105>    H       -2.36576         5.05589        -0.60765
|106>    H       -1.86531         6.48861        -5.32562
|107>    H       -3.99492         6.79857        -4.16338
|108>    H        1.63616         4.71007        -0.17237
|109>    H       -0.03066         5.06050         0.28751
|110>    H        1.72925         6.86716        -1.43354
|111>    H        1.32611         7.12341         0.26405
|112>    H        0.06209         7.20772        -0.96752
|113>    H        1.09060         2.62017        -1.34829
|114>    H       -0.14038         2.58080        -2.61028
|115>    H       -0.72113         2.90671         0.37259
|116>    H       -0.88619         1.42644        -0.56411
|117>    H       -1.92711         2.80053        -0.91946
|118>    H        3.04322         4.11780        -2.20994
|119>    H        2.97886         5.53688        -6.25698
|120>    H        0.58128         6.01272        -6.07929
|121>    H        5.01808         4.32463        -3.30522
|122>    H        5.01723         4.74147        -6.33187
|123>    H        7.34506         4.34980        -6.23157
|124>    H        9.60212         4.25428        -5.12892
|125>    H       10.75773         4.71544        -2.87644
|126>    H       11.24728         5.28368        -0.53258
|127>    H       11.08059         6.03913         1.93051
|128>    H        9.31938         6.77474         3.68688
|129>    H        6.47255         6.68363         2.51889
|130>    H        3.19658         9.46019         5.51913
|131>    H        7.30357         8.96185         8.34379
|132>    H        2.28073        11.11286         7.59014
|133> *
|134>
|135>                          ****END OF INPUT****

CARTESIAN COORDINATES (ANGSTROEM)
---------------------------------
  C     -7.786250   10.268080   -6.631770
  C     -7.980340    9.676040   -7.855660
  C     -8.082250   10.381130   -9.071990
  N     -8.169940   10.889330  -10.098130
  C     -8.109050    8.291150   -8.075910
  N     -8.231230    7.173650   -8.316630
  C     -7.711740   11.706500   -6.395990
  C     -7.532600   11.931890   -5.008870
  C     -7.433680   13.190110   -4.468540
  C     -7.527570   14.282700   -5.336790
  C     -7.707090   14.049110   -6.720320
  C     -7.798620   12.774770   -7.268180
  S     -7.795810   15.541660   -7.603100
  C     -7.598360   16.445440   -6.141990
  C     -7.470190   15.673640   -5.040620
  C     -7.465640   10.635800   -4.309850
  O     -7.192440   10.458630   -3.137100
  C     -7.678310    9.610700   -5.346920
  C     -7.656760    8.254700   -5.139090
  N     -7.757140    7.615200   -3.965400
  C     -8.333150    8.090350   -2.784170
  C     -9.460280    8.859330   -2.736190
  S     -9.983190    9.152930   -1.138650
  C     -8.683830    8.229700   -0.501730
  C     -7.871040    7.724590   -1.477130
  N     -6.775750    6.926370   -1.211850
  C     -5.628290    6.842040   -1.958550
  C     -4.563480    6.121480   -1.570530
  C     -3.331800    5.946210   -2.303260
  C     -2.250660    5.340500   -1.643130
  C     -1.060640    5.146150   -2.299080
  C     -0.909470    5.572840   -3.632260
  C     -1.973520    6.164100   -4.301130
  C     -3.169930    6.341130   -3.638370
  C      0.453950    5.336120   -4.041920
  C      1.154710    4.782020   -2.953910
  C      0.223100    4.535010   -1.787300
  C      0.716060    5.201340   -0.494810
  C      0.973840    6.693440   -0.670370
  C      0.106000    2.999670   -1.630610
  C     -0.923270    2.512460   -0.619640
  C      2.495300    4.522910   -3.048490
  C      3.183460    4.799200   -4.246930
  C      2.461650    5.321020   -5.334610
  C      1.114600    5.594330   -5.238590
  C      4.596560    4.579300   -4.267970
  C      5.434600    4.625250   -5.340650
  C      6.837920    4.499560   -5.285910
  C      7.666790    4.607210   -4.193220
  C      9.080020    4.500060   -4.220680
  C      9.693640    4.741970   -3.027230
  C      8.798200    5.058010   -1.983880
  S      7.154880    5.008900   -2.560640
  C      9.075900    5.392400   -0.667510
  C     10.323460    5.498450   -0.025820
  C     10.237010    5.902810    1.277700
  C      8.919370    6.133840    1.724470
  S      7.784170    5.798700    0.442790
  C      8.529600    6.576830    2.978580
  C      7.204250    6.805690    3.313760
  C      6.664970    7.288540    4.491240
  C      7.211950    7.506560    5.799010
  C      8.276220    6.858790    6.386890
  C      8.735220    7.123450    7.690670
  N      9.169130    7.306410    8.739060
  C      8.971540    5.775700    5.817690
  N      9.553770    4.860010    5.439230
  C      6.304230    8.414120    6.506370
  C      5.135320    8.583330    5.724760
  C      5.294790    7.837020    4.457770
  O      4.482050    7.728040    3.561820
  C      4.077520    9.356090    6.133010
  C      4.182360   10.005900    7.368420
  C      5.358320    9.842430    8.134420
  C      6.426290    9.050780    7.724990
  S      5.284440   10.744150    9.619140
  C      3.693030   11.316800    9.195310
  C      3.239270   10.859650    8.005190
  Br     2.780240   12.466680   10.364580
  H     -7.295030   13.326840   -3.407230
  H     -7.931720   12.651070   -8.329810
  H     -7.590220   17.516580   -6.199610
  H     -7.338800   16.060480   -4.046220
  H     -7.520120    7.596930   -5.988470
  H     -7.513750    6.632610   -3.952900
  H    -10.009230    9.259770   -3.564590
  H     -8.579640    8.116480    0.558220
  H     -6.707950    6.591180   -0.260270
  H     -5.631530    7.411150   -2.873740
  H     -4.608610    5.622710   -0.609460
  H     -2.365760    5.055890   -0.607650
  H     -1.865310    6.488610   -5.325620
  H     -3.994920    6.798570   -4.163380
  H      1.636160    4.710070   -0.172370
  H     -0.030660    5.060500    0.287510
  H      1.729250    6.867160   -1.433540
  H      1.326110    7.123410    0.264050
  H      0.062090    7.207720   -0.967520
  H      1.090600    2.620170   -1.348290
  H     -0.140380    2.580800   -2.610280
  H     -0.721130    2.906710    0.372590
  H     -0.886190    1.426440   -0.564110
  H     -1.927110    2.800530   -0.919460
  H      3.043220    4.117800   -2.209940
  H      2.978860    5.536880   -6.256980
  H      0.581280    6.012720   -6.079290
  H      5.018080    4.324630   -3.305220
  H      5.017230    4.741470   -6.331870
  H      7.345060    4.349800   -6.231570
  H      9.602120    4.254280   -5.128920
  H     10.757730    4.715440   -2.876440
  H     11.247280    5.283680   -0.532580
  H     11.080590    6.039130    1.930510
  H      9.319380    6.774740    3.686880
  H      6.472550    6.683630    2.518890
  H      3.196580    9.460190    5.519130
  H      7.303570    8.961850    8.343790
  H      2.280730   11.112860    7.590140

 Total Charge           Charge          ....    0
 Multiplicity           Mult            ....    1
 Number of Electrons    NEL             ....  602
 Basis Dimension        Dim             .... 1339

ORBITAL ENERGIES
----------------

  NO   OCC          E(Eh)            E(eV)
   0   2.0000    -482.875386    -13139.7073
   1   2.0000     -88.963463     -2420.8189
   2   2.0000     -88.962881     -2420.8031
   3   2.0000     -88.962282     -2420.7868
   4   2.0000     -88.962253     -2420.7860
   5   2.0000     -88.956421     -2420.6273
   6   2.0000     -62.553091     -1702.1561
   7   2.0000     -56.387022     -1534.3689
   8   2.0000     -56.384342     -1534.2960
   9   2.0000     -56.384302     -1534.2949
  10   2.0000     -19.208242      -522.6828
  11   2.0000     -19.192708      -522.2601
  12   2.0000     -14.492025      -394.3480
  13   2.0000     -14.454305      -393.3216
  14   2.0000     -14.414240      -392.2314
  15   2.0000     -14.408169      -392.0662
  16   2.0000     -14.395856      -391.7312
  17   2.0000     -14.393813      -391.6756
  18   2.0000     -10.361960      -281.9633
  19   2.0000     -10.360094      -281.9125
  20   2.0000     -10.345816      -281.5240
  21   2.0000     -10.343339      -281.4566
  22   2.0000     -10.339361      -281.3483
  23   2.0000     -10.333199      -281.1806
  24   2.0000     -10.332959      -281.1741
  25   2.0000     -10.327267      -281.0192
  26   2.0000     -10.326927      -281.0100
  27   2.0000     -10.324322      -280.9391
  28   2.0000     -10.320688      -280.8402
  29   2.0000     -10.319040      -280.7954
  30   2.0000     -10.318359      -280.7768
  31   2.0000     -10.318030      -280.7679
  32   2.0000     -10.317976      -280.7664
  33   2.0000     -10.317714      -280.7593
  34   2.0000     -10.316123      -280.7160
  35   2.0000     -10.312300      -280.6120
  36   2.0000     -10.311292      -280.5845
  37   2.0000     -10.310341      -280.5586
  38   2.0000     -10.304522      -280.4003
  39   2.0000     -10.302662      -280.3497
  40   2.0000     -10.302434      -280.3435
  41   2.0000     -10.301218      -280.3104
  42   2.0000     -10.301054      -280.3059
  43   2.0000     -10.299950      -280.2759
  44   2.0000     -10.299444      -280.2621
  45   2.0000     -10.298266      -280.2301
  46   2.0000     -10.297857      -280.2189
  47   2.0000     -10.297559      -280.2108
  48   2.0000     -10.294378      -280.1243
  49   2.0000     -10.293812      -280.1089
  50   2.0000     -10.291793      -280.0539
  51   2.0000     -10.291694      -280.0512
  52   2.0000     -10.290904      -280.0297
  53   2.0000     -10.290585      -280.0210
  54   2.0000     -10.288594      -279.9669
  55   2.0000     -10.288192      -279.9559
  56   2.0000     -10.287843      -279.9464
  57   2.0000     -10.286316      -279.9049
  58   2.0000     -10.285463      -279.8817
  59   2.0000     -10.285116      -279.8722
  60   2.0000     -10.284445      -279.8540
  61   2.0000     -10.283236      -279.8211
  62   2.0000     -10.281495      -279.7737
  63   2.0000     -10.279642      -279.7233
  64   2.0000     -10.277526      -279.6657
  65   2.0000     -10.276075      -279.6262
  66   2.0000     -10.275434      -279.6088
  67   2.0000     -10.274543      -279.5845
  68   2.0000     -10.274293      -279.5777
  69   2.0000     -10.273984      -279.5693
  70   2.0000     -10.273637      -279.5599
  71   2.0000     -10.271442      -279.5001
  72   2.0000     -10.270020      -279.4615
  73   2.0000     -10.268409      -279.4176
  74   2.0000     -10.267689      -279.3980
  75   2.0000     -10.267229      -279.3855
  76   2.0000     -10.266392      -279.3627
  77   2.0000     -10.264322      -279.3064
  78   2.0000     -10.263328      -279.2793
  79   2.0000     -10.262752      -279.2637
  80   2.0000     -10.259915      -279.1865
  81   2.0000     -10.251164      -278.9484
  82   2.0000     -10.241778      -278.6930
  83   2.0000      -8.782509      -238.9842
  84   2.0000      -8.059717      -219.3161
  85   2.0000      -8.058717      -219.2888
  86   2.0000      -8.058253      -219.2762
  87   2.0000      -8.058162      -219.2737
  88   2.0000      -8.052793      -219.1276
  89   2.0000      -6.618714      -180.1044
  90   2.0000      -6.604272      -179.7114
  91   2.0000      -6.604124      -179.7073
  92   2.0000      -6.029218      -164.0634
  93   2.0000      -6.028401      -164.0411
  94   2.0000      -6.027946      -164.0287
  95   2.0000      -6.027528      -164.0174
  96   2.0000      -6.024936      -163.9469
  97   2.0000      -6.024222      -163.9274
  98   2.0000      -6.023692      -163.9130
  99   2.0000      -6.023260      -163.9012
 100   2.0000      -6.022380      -163.8773
 101   2.0000      -6.021390      -163.8503
 102   2.0000      -6.020276      -163.8200
 103   2.0000      -6.019881      -163.8093
 104   2.0000      -6.019473      -163.7982
 105   2.0000      -6.018360      -163.7679
 106   2.0000      -6.013931      -163.6474
 107   2.0000      -2.734622       -74.4129
 108   2.0000      -2.730520       -74.3012
 109   2.0000      -2.730430       -74.2988
 110   2.0000      -2.718938       -73.9861
 111   2.0000      -2.718920       -73.9856
 112   2.0000      -1.124158       -30.5899
 113   2.0000      -1.106427       -30.1074
 114   2.0000      -1.088322       -29.6148
 115   2.0000      -1.053278       -28.6612
 116   2.0000      -1.015654       -27.6373
 117   2.0000      -1.009862       -27.4797
 118   2.0000      -1.006412       -27.3859
 119   2.0000      -1.004947       -27.3460
 120   2.0000      -0.994815       -27.0703
 121   2.0000      -0.990177       -26.9441
 122   2.0000      -0.987492       -26.8710
 123   2.0000      -0.986434       -26.8422
 124   2.0000      -0.981718       -26.7139
 125   2.0000      -0.976567       -26.5737
 126   2.0000      -0.973744       -26.4969
 127   2.0000      -0.970775       -26.4161
 128   2.0000      -0.948082       -25.7986
 129   2.0000      -0.927696       -25.2439
 130   2.0000      -0.924952       -25.1692
 131   2.0000      -0.924919       -25.1683
 132   2.0000      -0.912316       -24.8254
 133   2.0000      -0.899995       -24.4901
 134   2.0000      -0.892610       -24.2891
 135   2.0000      -0.891772       -24.2664
 136   2.0000      -0.886987       -24.1361
 137   2.0000      -0.877230       -23.8706
 138   2.0000      -0.875334       -23.8191
 139   2.0000      -0.869999       -23.6739
 140   2.0000      -0.864885       -23.5347
 141   2.0000      -0.860990       -23.4287
 142   2.0000      -0.859281       -23.3822
 143   2.0000      -0.844950       -22.9923
 144   2.0000      -0.838100       -22.8059
 145   2.0000      -0.834401       -22.7052
 146   2.0000      -0.833350       -22.6766
 147   2.0000      -0.830676       -22.6038
 148   2.0000      -0.828357       -22.5407
 149   2.0000      -0.824770       -22.4431
 150   2.0000      -0.818986       -22.2857
 151   2.0000      -0.814495       -22.1635
 152   2.0000      -0.811614       -22.0851
 153   2.0000      -0.793715       -21.5981
 154   2.0000      -0.778004       -21.1706
 155   2.0000      -0.772412       -21.0184
 156   2.0000      -0.764164       -20.7940
 157   2.0000      -0.757395       -20.6098
 158   2.0000      -0.753375       -20.5004
 159   2.0000      -0.743107       -20.2210
 160   2.0000      -0.731772       -19.9125
 161   2.0000      -0.722979       -19.6733
 162   2.0000      -0.716667       -19.5015
 163   2.0000      -0.711918       -19.3723
 164   2.0000      -0.705532       -19.1985
 165   2.0000      -0.699517       -19.0348
 166   2.0000      -0.691677       -18.8215
 167   2.0000      -0.688835       -18.7442
 168   2.0000      -0.686080       -18.6692
 169   2.0000      -0.684166       -18.6171
 170   2.0000      -0.683273       -18.5928
 171   2.0000      -0.671640       -18.2762
 172   2.0000      -0.668133       -18.1808
 173   2.0000      -0.666194       -18.1281
 174   2.0000      -0.660023       -17.9602
 175   2.0000      -0.658343       -17.9144
 176   2.0000      -0.655752       -17.8439
 177   2.0000      -0.649910       -17.6849
 178   2.0000      -0.649676       -17.6786
 179   2.0000      -0.642372       -17.4798
 180   2.0000      -0.638676       -17.3792
 181   2.0000      -0.634571       -17.2676
 182   2.0000      -0.630529       -17.1576
 183   2.0000      -0.625503       -17.0208
 184   2.0000      -0.615284       -16.7427
 185   2.0000      -0.614712       -16.7272
 186   2.0000      -0.605979       -16.4895
 187   2.0000      -0.599021       -16.3002
 188   2.0000      -0.597044       -16.2464
 189   2.0000      -0.593018       -16.1368
 190   2.0000      -0.588794       -16.0219
 191   2.0000      -0.586801       -15.9677
 192   2.0000      -0.583811       -15.8863
 193   2.0000      -0.578877       -15.7520
 194   2.0000      -0.577363       -15.7108
 195   2.0000      -0.567866       -15.4524
 196   2.0000      -0.557210       -15.1624
 197   2.0000      -0.553644       -15.0654
 198   2.0000      -0.550480       -14.9793
 199   2.0000      -0.546865       -14.8809
 200   2.0000      -0.542623       -14.7655
 201   2.0000      -0.540640       -14.7116
 202   2.0000      -0.536569       -14.6008
 203   2.0000      -0.534990       -14.5578
 204   2.0000      -0.533122       -14.5070
 205   2.0000      -0.530923       -14.4472
 206   2.0000      -0.529796       -14.4165
 207   2.0000      -0.528983       -14.3943
 208   2.0000      -0.525216       -14.2919
 209   2.0000      -0.522781       -14.2256
 210   2.0000      -0.522039       -14.2054
 211   2.0000      -0.520312       -14.1584
 212   2.0000      -0.518261       -14.1026
 213   2.0000      -0.516652       -14.0588
 214   2.0000      -0.516169       -14.0457
 215   2.0000      -0.515428       -14.0255
 216   2.0000      -0.512019       -13.9327
 217   2.0000      -0.510572       -13.8934
 218   2.0000      -0.507116       -13.7993
 219   2.0000      -0.505991       -13.7687
 220   2.0000      -0.501010       -13.6332
 221   2.0000      -0.497843       -13.5470
 222   2.0000      -0.497374       -13.5342
 223   2.0000      -0.497194       -13.5293
 224   2.0000      -0.496337       -13.5060
 225   2.0000      -0.492235       -13.3944
 226   2.0000      -0.490712       -13.3530
 227   2.0000      -0.485532       -13.2120
 228   2.0000      -0.484703       -13.1894
 229   2.0000      -0.480332       -13.0705
 230   2.0000      -0.479536       -13.0488
 231   2.0000      -0.479086       -13.0366
 232   2.0000      -0.477005       -12.9800
 233   2.0000      -0.476635       -12.9699
 234   2.0000      -0.474627       -12.9152
 235   2.0000      -0.473180       -12.8759
 236   2.0000      -0.470815       -12.8115
 237   2.0000      -0.468298       -12.7430
 238   2.0000      -0.466563       -12.6958
 239   2.0000      -0.462313       -12.5802
 240   2.0000      -0.458592       -12.4789
 241   2.0000      -0.453696       -12.3457
 242   2.0000      -0.452819       -12.3218
 243   2.0000      -0.450155       -12.2493
 244   2.0000      -0.448207       -12.1963
 245   2.0000      -0.447057       -12.1650
 246   2.0000      -0.446980       -12.1629
 247   2.0000      -0.444021       -12.0824
 248   2.0000      -0.442781       -12.0487
 249   2.0000      -0.439423       -11.9573
 250   2.0000      -0.438814       -11.9407
 251   2.0000      -0.436585       -11.8801
 252   2.0000      -0.433658       -11.8004
 253   2.0000      -0.433056       -11.7841
 254   2.0000      -0.431603       -11.7445
 255   2.0000      -0.430946       -11.7266
 256   2.0000      -0.429936       -11.6992
 257   2.0000      -0.429655       -11.6915
 258   2.0000      -0.427775       -11.6404
 259   2.0000      -0.425939       -11.5904
 260   2.0000      -0.425085       -11.5671
 261   2.0000      -0.422910       -11.5080
 262   2.0000      -0.422146       -11.4872
 263   2.0000      -0.420571       -11.4443
 264   2.0000      -0.420164       -11.4332
 265   2.0000      -0.419813       -11.4237
 266   2.0000      -0.410451       -11.1689
 267   2.0000      -0.409682       -11.1480
 268   2.0000      -0.407403       -11.0860
 269   2.0000      -0.404782       -11.0147
 270   2.0000      -0.402169       -10.9436
 271   2.0000      -0.399960       -10.8835
 272   2.0000      -0.393699       -10.7131
 273   2.0000      -0.390668       -10.6306
 274   2.0000      -0.390428       -10.6241
 275   2.0000      -0.385658       -10.4943
 276   2.0000      -0.384169       -10.4538
 277   2.0000      -0.378379       -10.2962
 278   2.0000      -0.375818       -10.2265
 279   2.0000      -0.371078       -10.0976
 280   2.0000      -0.369804       -10.0629
 281   2.0000      -0.365005        -9.9323
 282   2.0000      -0.356913        -9.7121
 283   2.0000      -0.348647        -9.4872
 284   2.0000      -0.346123        -9.4185
 285   2.0000      -0.342076        -9.3084
 286   2.0000      -0.333219        -9.0674
 287   2.0000      -0.324411        -8.8277
 288   2.0000      -0.322355        -8.7717
 289   2.0000      -0.318975        -8.6798
 290   2.0000      -0.316343        -8.6081
 291   2.0000      -0.314421        -8.5558
 292   2.0000      -0.308007        -8.3813
 293   2.0000      -0.300836        -8.1862
 294   2.0000      -0.299244        -8.1428
 295   2.0000      -0.293644        -7.9904
 296   2.0000      -0.281260        -7.6535
 297   2.0000      -0.279299        -7.6001
 298   2.0000      -0.274082        -7.4581
 299   2.0000      -0.241680        -6.5764
 300   2.0000      -0.219814        -5.9814
 301   0.0000      -0.107057        -2.9132
 302   0.0000      -0.073390        -1.9970
 303   0.0000      -0.057324        -1.5599
 304   0.0000      -0.044372        -1.2074
 305   0.0000      -0.039906        -1.0859

MULLIKEN ATOMIC CHARGES
-----------------------
   0 C :    0.320805
   1 C :   -0.356477
   2 C :   -0.188540
   3 N :    0.143599
   4 C :   -0.209111
   5 N :    0.138545
   6 C :    0.007279
   7 C :   -0.001358
   8 C :   -0.073116
   9 C :    0.112684
  10 C :   -0.097635
  11 C :   -0.023875
  12 S :    0.137595
  13 C :   -0.052721
  14 C :    0.026348
  15 C :    0.133784
  16 O :   -0.160121
  17 C :   -0.157619
  18 C :    0.022189
  19 N :   -0.030352
  20 C :    0.103477
  21 C :   -0.133394
  22 S :    0.134101
  23 C :   -0.193716
  24 C :    0.136849
  25 N :   -0.047908
  26 C :    0.048754
  27 C :   -0.034473
  28 C :    0.137949
  29 C :   -0.121863
  30 C :    0.032365
  31 C :    0.093064
  32 C :   -0.042495
  33 C :   -0.025506
  34 C :    0.111202
  35 C :    0.013186
  36 C :   -0.132351
  37 C :    0.050879
  38 C :    0.023650
  39 C :    0.083281
  40 C :    0.028710
  41 C :   -0.102246
  42 C :    0.117490
  43 C :   -0.007059
  44 C :   -0.046508
  45 C :   -0.008500
  46 C :    0.003999
  47 C :    0.025661
  48 C :   -0.042697
  49 C :    0.055574
  50 C :    0.014895
  51 C :   -0.018164
  52 S :    0.083713
  53 C :   -0.059434
  54 C :    0.041735
  55 C :    0.029650
  56 C :   -0.017843
  57 S :    0.100057
  58 C :    0.001494
  59 C :    0.015028
  60 C :   -0.126960
  61 C :    0.296211
  62 C :   -0.354727
  63 C :   -0.181327
  64 N :    0.134488
  65 C :   -0.219262
  66 N :    0.156208
  67 C :    0.001996
  68 C :    0.000533
  69 C :    0.132826
  70 O :   -0.165205
  71 C :   -0.081889
  72 C :    0.114854
  73 C :   -0.088536
  74 C :   -0.027841
  75 S :    0.176810
  76 C :   -0.126236
  77 C :    0.039742
  78 Br:    0.010885
  79 H :   -0.014245
  80 H :   -0.007914
  81 H :    0.038442
  82 H :   -0.008694
  83 H :    0.038399
  84 H :    0.159845
  85 H :    0.022102
  86 H :    0.004634
  87 H :    0.121459
  88 H :    0.019091
  89 H :   -0.040446
  90 H :   -0.042961
  91 H :   -0.037803
  92 H :   -0.050601
  93 H :    0.001336
  94 H :    0.006882
  95 H :    0.018339
  96 H :    0.020325
  97 H :    0.018042
  98 H :   -0.004132
  99 H :    0.002507
 100 H :    0.004736
 101 H :    0.013496
 102 H :    0.017163
 103 H :   -0.033356
 104 H :   -0.030020
 105 H :   -0.034794
 106 H :    0.005091
 107 H :   -0.009217
 108 H :   -0.004701
 109 H :   -0.003830
 110 H :   -0.006469
 111 H :   -0.005754
 112 H :    0.002687
 113 H :    0.003875
 114 H :    0.012969
 115 H :   -0.017019
 116 H :   -0.007743
 117 H :   -0.008799
Sum of atomic charges:   -0.0000000

LOEWDIN ATOMIC CHARGES
----------------------
   0 C :    0.084615
   1 C :   -0.161864
   2 C :   -0.020242
   3 N :   -0.062666
   4 C :   -0.022691
   5 N :   -0.067141
   6 C :   -0.025860
   7 C :   -0.051292
   8 C :    0.018583
   9 C :   -0.036177
  10 C :   -0.148772
  11 C :   -0.008271
  12 S :    0.426930
  13 C :   -0.151560
  14 C :   -0.058720
  15 C :    0.073598
  16 O :   -0.153990
  17 C :   -0.161936
  18 C :    0.107612
  19 N :    0.080218
  20 C :   -0.044733
  21 C :   -0.188634
  22 S :    0.462070
  23 C :   -0.234297
  24 C :   -0.016525
  25 N :    0.018259
  26 C :    0.029700
  27 C :   -0.099477
  28 C :   -0.008842
  29 C :   -0.032853
  30 C :    0.009787
  31 C :   -0.031986
  32 C :   -0.012423
  33 C :   -0.031510
  34 C :   -0.001926
  35 C :    0.003114
  36 C :   -0.034688
  37 C :   -0.014963
  38 C :   -0.056259
  39 C :   -0.008412
  40 C :   -0.059506
  41 C :   -0.009553
  42 C :   -0.036782
  43 C :   -0.006182
  44 C :   -0.021070
  45 C :    0.010583
  46 C :   -0.053915
  47 C :   -0.017012
  48 C :   -0.160809
  49 C :   -0.005842
  50 C :   -0.049090
  51 C :   -0.146189
  52 S :    0.408207
  53 C :   -0.196882
  54 C :   -0.006081
  55 C :   -0.042432
  56 C :   -0.099025
  57 S :    0.402280
  58 C :   -0.075130
  59 C :    0.049741
  60 C :   -0.114310
  61 C :    0.069303
  62 C :   -0.158092
  63 C :   -0.019868
  64 N :   -0.069411
  65 C :   -0.023997
  66 N :   -0.066068
  67 C :   -0.014761
  68 C :   -0.050022
  69 C :    0.077815
  70 O :   -0.164660
  71 C :    0.016057
  72 C :   -0.038254
  73 C :   -0.145399
  74 C :   -0.017208
  75 S :    0.425176
  76 C :   -0.276447
  77 C :   -0.071143
  78 Br:    0.126738
  79 H :    0.039188
  80 H :    0.040381
  81 H :    0.028940
  82 H :    0.034476
  83 H :    0.043154
  84 H :    0.101478
  85 H :    0.026207
  86 H :    0.020418
  87 H :    0.089922
  88 H :    0.023781
  89 H :    0.020575
  90 H :    0.021837
  91 H :    0.026368
  92 H :    0.018704
  93 H :    0.021309
  94 H :    0.020191
  95 H :    0.024187
  96 H :    0.028371
  97 H :    0.024745
  98 H :    0.019961
  99 H :    0.025844
 100 H :    0.020462
 101 H :    0.027694
 102 H :    0.023275
 103 H :    0.026231
 104 H :    0.025652
 105 H :    0.027471
 106 H :    0.013831
 107 H :    0.029971
 108 H :    0.038623
 109 H :    0.037230
 110 H :    0.034231
 111 H :    0.035591
 112 H :    0.039942
 113 H :    0.037021
 114 H :    0.031860
 115 H :    0.038177
 116 H :    0.039527
 117 H :    0.036635

  Mayer bond orders larger than 0.100000
B(  0-C ,  1-C ) :   1.6056 B(  0-C ,  6-C ) :   1.0062 B(  0-C , 17-C ) :   1.1190
B(  1-C ,  2-C ) :   1.1446 B(  1-C ,  4-C ) :   1.1473 B(  2-C ,  3-N ) :   2.9683
B(  4-C ,  5-N ) :   2.9681 B(  6-C ,  7-C ) :   1.2736 B(  6-C , 11-C ) :   1.4143
B(  7-C ,  8-C ) :   1.4347 B(  7-C , 15-C ) :   0.9391 B(  8-C ,  9-C ) :   1.2367
B(  8-C , 79-H ) :   1.0179 B(  9-C , 10-C ) :   1.3093 B(  9-C , 14-C ) :   1.1732
B( 10-C , 11-C ) :   1.3208 B( 10-C , 12-S ) :   1.0959 B( 11-C , 80-H ) :   0.9822
B( 12-S , 13-C ) :   1.1279 B( 13-C , 14-C ) :   1.6254 B( 13-C , 81-H ) :   0.9691
B( 14-C , 82-H ) :   0.9997 B( 15-C , 16-O ) :   2.2043 B( 15-C , 17-C ) :   0.9567
B( 17-C , 18-C ) :   1.4825 B( 18-C , 19-N ) :   1.3488 B( 18-C , 83-H ) :   0.9299
B( 19-N , 20-C ) :   0.9990 B( 19-N , 84-H ) :   0.9119 B( 20-C , 21-C ) :   1.5439
B( 20-C , 24-C ) :   1.2774 B( 21-C , 22-S ) :   1.1960 B( 21-C , 85-H ) :   0.9651
B( 22-S , 23-C ) :   1.1473 B( 23-C , 24-C ) :   1.5097 B( 23-C , 86-H ) :   0.9745
B( 24-C , 25-N ) :   1.1199 B( 25-N , 26-C ) :   1.1343 B( 25-N , 87-H ) :   0.9200
B( 26-C , 27-C ) :   1.6834 B( 26-C , 88-H ) :   0.9549 B( 27-C , 28-C ) :   1.0938
B( 27-C , 89-H ) :   0.9728 B( 28-C , 29-C ) :   1.2913 B( 28-C , 33-C ) :   1.3434
B( 29-C , 30-C ) :   1.3881 B( 29-C , 90-H ) :   1.0041 B( 30-C , 31-C ) :   1.3803
B( 30-C , 36-C ) :   0.9189 B( 31-C , 32-C ) :   1.3247 B( 31-C , 34-C ) :   1.0076
B( 32-C , 33-C ) :   1.4056 B( 32-C , 91-H ) :   0.9879 B( 33-C , 92-H ) :   0.9805
B( 34-C , 35-C ) :   1.3683 B( 34-C , 44-C ) :   1.3184 B( 35-C , 36-C ) :   0.9225
B( 35-C , 41-C ) :   1.3961 B( 36-C , 37-C ) :   1.0354 B( 36-C , 39-C ) :   1.0112
B( 37-C , 38-C ) :   1.1048 B( 37-C , 93-H ) :   0.9384 B( 37-C , 94-H ) :   0.9376
B( 38-C , 95-H ) :   0.9627 B( 38-C , 96-H ) :   0.9650 B( 38-C , 97-H ) :   0.9651
B( 39-C , 40-C ) :   1.1134 B( 39-C , 98-H ) :   0.9375 B( 39-C , 99-H ) :   0.9387
B( 40-C ,100-H ) :   0.9634 B( 40-C ,101-H ) :   0.9599 B( 40-C ,102-H ) :   0.9610
B( 41-C , 42-C ) :   1.2572 B( 41-C ,103-H ) :   1.0099 B( 42-C , 43-C ) :   1.3303
B( 42-C , 45-C ) :   1.1281 B( 43-C , 44-C ) :   1.4116 B( 43-C ,104-H ) :   0.9837
B( 44-C ,105-H ) :   0.9891 B( 45-C , 46-C ) :   1.5896 B( 45-C ,106-H ) :   0.9555
B( 46-C , 47-C ) :   1.2057 B( 46-C ,107-H ) :   0.9658 B( 47-C , 48-C ) :   1.5587
B( 47-C ,108-H ) :   0.9625 B( 48-C , 49-C ) :   1.1631 B( 48-C , 52-S ) :   1.0268
B( 49-C , 50-C ) :   1.5676 B( 49-C ,109-H ) :   0.9977 B( 50-C , 51-C ) :   1.2045
B( 50-C ,110-H ) :   0.9954 B( 51-C , 52-S ) :   1.0794 B( 51-C , 53-C ) :   1.4498
B( 53-C , 54-C ) :   1.2336 B( 53-C , 57-S ) :   1.0407 B( 54-C , 55-C ) :   1.5254
B( 54-C ,111-H ) :   0.9953 B( 55-C , 56-C ) :   1.1962 B( 55-C ,112-H ) :   1.0014
B( 56-C , 57-S ) :   1.0917 B( 56-C , 58-C ) :   1.4696 B( 58-C , 59-C ) :   1.2461
B( 58-C ,113-H ) :   0.9648 B( 59-C , 60-C ) :   1.5038 B( 59-C ,114-H ) :   0.9352
B( 60-C , 61-C ) :   1.0931 B( 60-C , 69-C ) :   0.9771 B( 61-C , 62-C ) :   1.5907
B( 61-C , 67-C ) :   0.9995 B( 62-C , 63-C ) :   1.1332 B( 62-C , 65-C ) :   1.1738
B( 63-C , 64-N ) :   2.9733 B( 65-C , 66-N ) :   3.0045 B( 67-C , 68-C ) :   1.2756
B( 67-C , 74-C ) :   1.4257 B( 68-C , 69-C ) :   0.9199 B( 68-C , 71-C ) :   1.4370
B( 69-C , 70-O ) :   2.2284 B( 71-C , 72-C ) :   1.2405 B( 71-C ,115-H ) :   1.0160
B( 72-C , 73-C ) :   1.3203 B( 72-C , 77-C ) :   1.1595 B( 73-C , 74-C ) :   1.3168
B( 73-C , 75-S ) :   1.0811 B( 74-C ,116-H ) :   0.9807 B( 75-S , 76-C ) :   1.0862
B( 76-C , 77-C ) :   1.6217 B( 76-C , 78-Br) :   1.0117 B( 77-C ,117-H ) :   1.0002

-----------------------------------------------------------------------------
         ABSORPTION SPECTRUM VIA TRANSITION ELECTRIC DIPOLE MOMENTS
-----------------------------------------------------------------------------
State   Energy  Wavelength   fosc         T2         TX        TY        TZ
        (cm-1)    (nm)                  (au**2)     (au)      (au)      (au)
-----------------------------------------------------------------------------
   0   10949.8    913.3   1.071167787  32.20538   2.29504   1.24610   5.03839
   1   18851.4    530.5   0.673621410  11.76383  -2.62880   0.95496   1.98527
   2   20971.3    476.8   0.216415933   3.39734  -1.70865   0.35978   0.59026
   3   21441.2    466.4   0.038126855   0.58541  -0.10446  -0.29226   0.69934
   4   23374.3    427.8   0.057373003   0.80806   0.74037  -0.48537  -0.15597
   5   24367.1    410.4   0.132211386   1.78625   1.30136   0.21730  -0.21330
   6   25709.5    389.0   0.026022951   0.33323   0.05997  -0.39115   0.42028
   7   25974.6    385.0   0.830406203  10.52490   2.86631  -1.15181  -0.99120
   8   26170.6    382.1   0.120495182   1.51576  -0.28521  -0.23930   1.17352
   9   27046.4    369.7   0.100568560   1.22413   0.00267  -0.41082   1.02730
  10   27434.0    364.5   0.002983475   0.03580  -0.13544  -0.09896  -0.08754
  11   28627.0    349.3   0.021497999   0.24723   0.41281  -0.12223  -0.24875
  12   29081.1    343.9   0.109072189   1.23475   1.00543  -0.41517  -0.22693
  13   29434.7    339.7   0.265228145   2.96644  -1.52869   0.72175   0.32955
  14   29629.7    337.5   0.219375085   2.43745   0.84039  -1.04182  -0.80361
  15   30240.2    330.7   0.373606181   4.06728   0.61772   1.77455  -0.73258
  16   30664.0    326.1   0.073924403   0.79366   0.72517  -0.15887  -0.49249
  17   30755.3    325.1   0.119723779   1.28155   0.88880  -0.22663  -0.66350
  18   31312.7    319.4   0.063109565   0.66352  -0.37571  -0.23416  -0.68376
  19   31328.9    319.2   0.059720512   0.62756   0.09043  -0.53633  -0.57596
  20   31752.2    314.9   0.035608378   0.36919   0.47855  -0.16794  -0.33464
  21   31871.5    313.8   0.104151995   1.07582   0.24337   0.04114  -1.00742
  22   32259.7    310.0   0.004246095   0.04333  -0.05403  -0.02789   0.19909
  23   32446.0    308.2   0.121289269   1.23065   0.57347  -0.92843  -0.19952
  24   32822.5    304.7   0.032883342   0.32982   0.42955  -0.18034   0.33584
  25   33177.4    301.4   0.011783725   0.11693   0.05087  -0.28913   0.17533
  26   33456.0    298.9   0.316140645   3.11087   1.32846  -1.01726  -0.55789
  27   33757.6    296.2   0.119684237   1.16719  -0.22595  -1.03936  -0.18941
  28   34009.9    294.0   0.399921680   3.87119  -0.14800  -1.94296  -0.27238
  29   34122.5    293.1   0.241768327   2.33257  -1.32558   0.47629   0.59039
  30   34363.8    291.0   0.101436129   0.97178  -0.85895   0.18136   0.44844
  31   34551.4    289.4   0.001008194   0.00961  -0.08353  -0.03887   0.03343
  32   35225.0    283.9   0.002093570   0.01957   0.07378   0.06611  -0.09875
  33   35374.7    282.7   0.150165041   1.39750  -1.18198  -0.00991  -0.01795
  34   35489.2    281.8   0.375454791   3.48286   0.29382  -1.06479  -1.50425
  35   36037.8    277.5   0.064344840   0.58780  -0.43088   0.63058  -0.06712
  36   36552.3    273.6   0.166586443   1.50038  -1.14055   0.44669  -0.00079
  37   36693.5    272.5   0.029574931   0.26534   0.49866  -0.09167  -0.09099
  38   37158.9    269.1   0.000465006   0.00412   0.04276   0.03249   0.03516
  39   37459.6    267.0   0.001259153   0.01107  -0.09670  -0.03770   0.01716
  40   38181.3    261.9   0.025779883   0.22228  -0.27000   0.33422  -0.19411
  41   38403.3    260.4   0.004021655   0.03448  -0.01351  -0.13220  -0.12967
  42   38461.7    260.0   0.053904703   0.46140   0.22955  -0.12290   0.62738
  43   38953.4    256.7   0.008970196   0.07581  -0.02617   0.24354  -0.12576
  44   39009.5    256.3   0.070990455   0.59911  -0.46808  -0.03237  -0.61560
  45   39044.4    256.1   0.026568214   0.22402  -0.40985   0.20166   0.12397
  46   39339.5    254.2   0.105913008   0.88633   0.86237  -0.19983   0.32050
  47   39554.7    252.8   0.019842150   0.16515   0.07920   0.39247   0.06957
  48   39681.5    252.0   0.003068139   0.02545  -0.12409   0.05493  -0.08390
  49   39958.5    250.3   0.073833537   0.60830   0.69860  -0.28891   0.19181

FINAL SINGLE POINT ENERGY     -7539.757115332814

DIPOLE MOMENT
-------------
                                X             Y             Z
Electronic contribution:     27.00754      92.30363     147.48321
Nuclear contribution   :    -28.37635     -91.52386    -149.58336
                        -----------------------------------------
Total Dipole Moment    :     -1.36882       0.77976      -2.10015
                        -----------------------------------------
Magnitude (a.u.)       :      2.62532
Magnitude (Debye)      :      6.67303

Rotational constants in cm-1:     0.000577     0.000216     0.000175
Rotational constants in MHz :    17.283285     6.472745     5.246983

                             ****ORCA TERMINATED NORMALLY****
TOTAL RUN TIME: 0 days 0 hours 17 minutes 3 seconds 235 msec
