                         Program Version 4.2.0 -  RELEASE  -
|  1> # ORCA input file
|  2> # SCF done       -192.960952516948          0.000566604401
|  3> ! CAM-B3LYP def2-SVP def2/J RIJCOSX Grid4 TightSCF
|  4> %maxcore 5000
|  5> %tddft
|  6>     Mode sTDDFT
|  7>     Ethresh 5.0
|  8>     maxcore 5000
|  9> end
| 10>
| 11> %pal
| 12>   nprocs 6
| 13>   end
| 14> * xyz 0 1
| 15>    C      -10.15207        -7.86774        -8.77234
| 16>    C       -9.72013        -8.50702        -7.62920
| 17>    C       -8.84834        -9.61602        -7.61619
| 18>    N       -8.18548       -10.54942        -7.52068
| 19>    C      -10.07543        -8.19935        -6.31207
| 20>    N      -10.23005        -8.03203        -5.18116
| 21>    C       -9.71762        -8.20574       -10.12534
| 22>    C      -10.46010        -7.42646       -11.04632
| 23>    C      -10.27462        -7.51054       -12.40357
| 24>    C       -9.30521        -8.40226       -12.87651
| 25>    C       -8.56243        -9.16727       -11.94876
| 26>    C       -8.75187        -9.08437       -10.57317
| 27>    S       -7.41387       -10.18979       -12.75544
| 28>    C       -7.93028        -9.59636       -14.29673
| 29>    C       -8.91512        -8.67547       -14.21825
| 30>    C      -11.38941        -6.55240       -10.30187
| 31>    O      -12.19232        -5.77735       -10.78625
| 32>    C      -11.13077        -6.82242        -8.87234
| 33>    C      -11.73035        -6.14595        -7.82585
| 34>    C      -12.72236        -5.18204        -7.95959
| 35>    C      -13.26396        -4.51414        -6.87298
| 36>    C      -14.29773        -3.55298        -6.87003
| 37>    C      -14.61850        -3.07521        -5.62669
| 38>    C      -13.84300        -3.63261        -4.59659
| 39>    S      -12.70264        -4.79187        -5.24552
| 40>    C      -13.82209        -3.40529        -3.22537
| 41>    C      -14.58226        -2.58241        -2.37311
| 42>    C      -14.19968        -2.65551        -1.06023
| 43>    C      -13.11341        -3.52752        -0.81049
| 44>    S      -12.61767        -4.26959        -2.31316
| 45>    C      -12.48285        -3.79923         0.38824
| 46>    C      -11.36582        -4.63180         0.53178
| 47>    S      -10.60526        -5.33976        -0.86773
| 48>    C       -9.39839        -6.12975         0.09180
| 49>    C       -9.58285        -5.84217         1.44951
| 50>    C      -10.67655        -5.01221         1.69233
| 51>    C      -11.06529        -4.57790         3.06991
| 52>    C      -10.41601        -5.47011         4.12328
| 53>    C       -8.91748        -5.60604         3.85560
| 54>    N       -8.30286        -6.37713         4.92451
| 55>    C       -8.70271        -6.35890         2.53902
| 56>    C       -8.46664        -6.96731        -0.56175
| 57>    S       -7.45653        -8.08607         0.30561
| 58>    C       -6.80091        -8.77012        -1.15474
| 59>    C       -7.33200        -8.12342        -2.26468
| 60>    C       -8.25105        -7.11138        -1.93764
| 61>    S       -9.01946        -6.02334        -3.07954
| 62>    C       -8.39247        -6.28733        -4.70999
| 63>    O       -8.70441        -5.47185        -5.53718
| 64>    C       -7.51353        -7.44827        -5.07749
| 65>    O       -7.22190        -7.63809        -6.23018
| 66>    S       -6.86535        -8.58733        -3.90222
| 67>    C       -5.85778        -9.82480        -1.00281
| 68>    C       -5.40561       -10.65153        -1.96886
| 69>    C       -4.43957       -11.70705        -1.79602
| 70>    C       -3.67655       -11.86046        -0.62695
| 71>    C       -2.76274       -12.88057        -0.54440
| 72>    C       -2.58677       -13.77914        -1.61163
| 73>    C       -3.33464       -13.64045        -2.77201
| 74>    C       -4.24424       -12.60652        -2.85521
| 75>    C       -1.56170       -14.73355        -1.24574
| 76>    C       -1.10003       -14.42250         0.04429
| 77>    C       -1.82831       -13.21793         0.59457
| 78>    C       -0.85642       -12.05798         0.88088
| 79>    C       -0.04874       -11.64736        -0.34438
| 80>    C       -2.60629       -13.56732         1.87656
| 81>    C       -3.59220       -14.71171         1.67552
| 82>    C       -0.11268       -15.17126         0.63719
| 83>    C        0.44020       -16.25784        -0.05211
| 84>    C       -0.03507       -16.55799        -1.33325
| 85>    C       -1.02632       -15.80919        -1.93730
| 86>    C        1.49414       -17.09007         0.51084
| 87>    C        2.11370       -16.91587         1.67302
| 88>    H      -10.85532        -6.90372       -13.08103
| 89>    H       -8.15332        -9.68051        -9.90486
| 90>    H       -7.45522        -9.97989       -15.17869
| 91>    H       -9.36007        -8.19553       -15.07127
| 92>    H      -11.39740        -6.37375        -6.81925
| 93>    H      -13.09302        -4.94220        -8.94564
| 94>    H      -14.77535        -3.24198        -7.78221
| 95>    H      -15.38012        -2.33991        -5.43568
| 96>    H      -15.38514        -1.96520        -2.73562
| 97>    H      -14.66461        -2.09675        -0.26647
| 98>    H      -12.87508        -3.32571         1.27795
| 99>    H      -12.15159        -4.60441         3.17716
|100>    H      -10.74650        -3.54023         3.21815
|101>    H      -10.86190        -6.46492         4.10288
|102>    H      -10.57905        -5.04796         5.11638
|103>    H       -8.48774        -4.59012         3.75710
|104>    H       -7.31192        -6.50177         4.74928
|105>    H       -8.40587        -5.90209         5.81425
|106>    H       -8.91558        -7.41772         2.71569
|107>    H       -7.65453        -6.28769         2.23694
|108>    H       -5.52757        -9.96180         0.01843
|109>    H       -5.80262       -10.55786        -2.96834
|110>    H       -3.79569       -11.16903         0.19311
|111>    H       -3.20399       -14.32333        -3.59794
|112>    H       -4.82976       -12.48162        -3.75443
|113>    H       -0.17505       -12.36160         1.67859
|114>    H       -1.43025       -11.20096         1.24042
|115>    H        0.54737       -12.48146        -0.70779
|116>    H        0.62151       -10.82810        -0.09404
|117>    H       -0.70700       -11.32121        -1.14657
|118>    H       -3.14567       -12.67870         2.21200
|119>    H       -1.89154       -13.83794         2.65678
|120>    H       -4.32641       -14.45665         0.91454
|121>    H       -4.11730       -14.92126         2.60470
|122>    H       -3.07285       -15.61454         1.36200
|123>    H        0.23457       -14.92658         1.62908
|124>    H        0.39141       -17.39851        -1.86280
|125>    H       -1.37549       -16.05841        -2.92822
|126>    H        1.78367       -17.92845        -0.11165
|127>    H        1.88426       -16.10554         2.34347
|128>    H        2.88447       -17.59163         2.00176
|129> *
|130>
|131>                          ****END OF INPUT****

CARTESIAN COORDINATES (ANGSTROEM)
---------------------------------
  C    -10.152070   -7.867740   -8.772340
  C     -9.720130   -8.507020   -7.629200
  C     -8.848340   -9.616020   -7.616190
  N     -8.185480  -10.549420   -7.520680
  C    -10.075430   -8.199350   -6.312070
  N    -10.230050   -8.032030   -5.181160
  C     -9.717620   -8.205740  -10.125340
  C    -10.460100   -7.426460  -11.046320
  C    -10.274620   -7.510540  -12.403570
  C     -9.305210   -8.402260  -12.876510
  C     -8.562430   -9.167270  -11.948760
  C     -8.751870   -9.084370  -10.573170
  S     -7.413870  -10.189790  -12.755440
  C     -7.930280   -9.596360  -14.296730
  C     -8.915120   -8.675470  -14.218250
  C    -11.389410   -6.552400  -10.301870
  O    -12.192320   -5.777350  -10.786250
  C    -11.130770   -6.822420   -8.872340
  C    -11.730350   -6.145950   -7.825850
  C    -12.722360   -5.182040   -7.959590
  C    -13.263960   -4.514140   -6.872980
  C    -14.297730   -3.552980   -6.870030
  C    -14.618500   -3.075210   -5.626690
  C    -13.843000   -3.632610   -4.596590
  S    -12.702640   -4.791870   -5.245520
  C    -13.822090   -3.405290   -3.225370
  C    -14.582260   -2.582410   -2.373110
  C    -14.199680   -2.655510   -1.060230
  C    -13.113410   -3.527520   -0.810490
  S    -12.617670   -4.269590   -2.313160
  C    -12.482850   -3.799230    0.388240
  C    -11.365820   -4.631800    0.531780
  S    -10.605260   -5.339760   -0.867730
  C     -9.398390   -6.129750    0.091800
  C     -9.582850   -5.842170    1.449510
  C    -10.676550   -5.012210    1.692330
  C    -11.065290   -4.577900    3.069910
  C    -10.416010   -5.470110    4.123280
  C     -8.917480   -5.606040    3.855600
  N     -8.302860   -6.377130    4.924510
  C     -8.702710   -6.358900    2.539020
  C     -8.466640   -6.967310   -0.561750
  S     -7.456530   -8.086070    0.305610
  C     -6.800910   -8.770120   -1.154740
  C     -7.332000   -8.123420   -2.264680
  C     -8.251050   -7.111380   -1.937640
  S     -9.019460   -6.023340   -3.079540
  C     -8.392470   -6.287330   -4.709990
  O     -8.704410   -5.471850   -5.537180
  C     -7.513530   -7.448270   -5.077490
  O     -7.221900   -7.638090   -6.230180
  S     -6.865350   -8.587330   -3.902220
  C     -5.857780   -9.824800   -1.002810
  C     -5.405610  -10.651530   -1.968860
  C     -4.439570  -11.707050   -1.796020
  C     -3.676550  -11.860460   -0.626950
  C     -2.762740  -12.880570   -0.544400
  C     -2.586770  -13.779140   -1.611630
  C     -3.334640  -13.640450   -2.772010
  C     -4.244240  -12.606520   -2.855210
  C     -1.561700  -14.733550   -1.245740
  C     -1.100030  -14.422500    0.044290
  C     -1.828310  -13.217930    0.594570
  C     -0.856420  -12.057980    0.880880
  C     -0.048740  -11.647360   -0.344380
  C     -2.606290  -13.567320    1.876560
  C     -3.592200  -14.711710    1.675520
  C     -0.112680  -15.171260    0.637190
  C      0.440200  -16.257840   -0.052110
  C     -0.035070  -16.557990   -1.333250
  C     -1.026320  -15.809190   -1.937300
  C      1.494140  -17.090070    0.510840
  C      2.113700  -16.915870    1.673020
  H    -10.855320   -6.903720  -13.081030
  H     -8.153320   -9.680510   -9.904860
  H     -7.455220   -9.979890  -15.178690
  H     -9.360070   -8.195530  -15.071270
  H    -11.397400   -6.373750   -6.819250
  H    -13.093020   -4.942200   -8.945640
  H    -14.775350   -3.241980   -7.782210
  H    -15.380120   -2.339910   -5.435680
  H    -15.385140   -1.965200   -2.735620
  H    -14.664610   -2.096750   -0.266470
  H    -12.875080   -3.325710    1.277950
  H    -12.151590   -4.604410    3.177160
  H    -10.746500   -3.540230    3.218150
  H    -10.861900   -6.464920    4.102880
  H    -10.579050   -5.047960    5.116380
  H     -8.487740   -4.590120    3.757100
  H     -7.311920   -6.501770    4.749280
  H     -8.405870   -5.902090    5.814250
  H     -8.915580   -7.417720    2.715690
  H     -7.654530   -6.287690    2.236940
  H     -5.527570   -9.961800    0.018430
  H     -5.802620  -10.557860   -2.968340
  H     -3.795690  -11.169030    0.193110
  H     -3.203990  -14.323330   -3.597940
  H     -4.829760  -12.481620   -3.754430
  H     -0.175050  -12.361600    1.678590
  H     -1.430250  -11.200960    1.240420
  H      0.547370  -12.481460   -0.707790
  H      0.621510  -10.828100   -0.094040
  H     -0.707000  -11.321210   -1.146570
  H     -3.145670  -12.678700    2.212000
  H     -1.891540  -13.837940    2.656780
  H     -4.326410  -14.456650    0.914540
  H     -4.117300  -14.921260    2.604700
  H     -3.072850  -15.614540    1.362000
  H      0.234570  -14.926580    1.629080
  H      0.391410  -17.398510   -1.862800
  H     -1.375490  -16.058410   -2.928220
  H      1.783670  -17.928450   -0.111650
  H      1.884260  -16.105540    2.343470
  H      2.884470  -17.591630    2.001760

 Total Charge           Charge          ....    0
 Multiplicity           Mult            ....    1
 Number of Electrons    NEL             ....  558
 Basis Dimension        Dim             .... 1255

ORBITAL ENERGIES
----------------

  NO   OCC          E(Eh)            E(eV)
   0   2.0000     -88.967368     -2420.9252
   1   2.0000     -88.957888     -2420.6672
   2   2.0000     -88.955088     -2420.5910
   3   2.0000     -88.954015     -2420.5618
   4   2.0000     -88.951974     -2420.5063
   5   2.0000     -88.947253     -2420.3778
   6   2.0000     -88.947241     -2420.3775
   7   2.0000     -19.224094      -523.1142
   8   2.0000     -19.221742      -523.0502
   9   2.0000     -19.188849      -522.1551
  10   2.0000     -14.396808      -391.7571
  11   2.0000     -14.387804      -391.5121
  12   2.0000     -14.384686      -391.4272
  13   2.0000     -10.389084      -282.7014
  14   2.0000     -10.388940      -282.6974
  15   2.0000     -10.338961      -281.3374
  16   2.0000     -10.323883      -280.9271
  17   2.0000     -10.322199      -280.8813
  18   2.0000     -10.321460      -280.8612
  19   2.0000     -10.318278      -280.7746
  20   2.0000     -10.315640      -280.7028
  21   2.0000     -10.314924      -280.6833
  22   2.0000     -10.314796      -280.6799
  23   2.0000     -10.314123      -280.6615
  24   2.0000     -10.312395      -280.6145
  25   2.0000     -10.311685      -280.5952
  26   2.0000     -10.308899      -280.5194
  27   2.0000     -10.305697      -280.4323
  28   2.0000     -10.304603      -280.4025
  29   2.0000     -10.303920      -280.3839
  30   2.0000     -10.300199      -280.2827
  31   2.0000     -10.298902      -280.2474
  32   2.0000     -10.298398      -280.2336
  33   2.0000     -10.296235      -280.1748
  34   2.0000     -10.295121      -280.1445
  35   2.0000     -10.293791      -280.1083
  36   2.0000     -10.290289      -280.0130
  37   2.0000     -10.287519      -279.9376
  38   2.0000     -10.286550      -279.9113
  39   2.0000     -10.285141      -279.8729
  40   2.0000     -10.282998      -279.8146
  41   2.0000     -10.281859      -279.7836
  42   2.0000     -10.280896      -279.7574
  43   2.0000     -10.279940      -279.7314
  44   2.0000     -10.279551      -279.7208
  45   2.0000     -10.279235      -279.7122
  46   2.0000     -10.276254      -279.6311
  47   2.0000     -10.275838      -279.6198
  48   2.0000     -10.273497      -279.5561
  49   2.0000     -10.273327      -279.5514
  50   2.0000     -10.272248      -279.5221
  51   2.0000     -10.270625      -279.4779
  52   2.0000     -10.269691      -279.4525
  53   2.0000     -10.267612      -279.3959
  54   2.0000     -10.265838      -279.3476
  55   2.0000     -10.265805      -279.3468
  56   2.0000     -10.265394      -279.3356
  57   2.0000     -10.265201      -279.3303
  58   2.0000     -10.264939      -279.3232
  59   2.0000     -10.264538      -279.3123
  60   2.0000     -10.264336      -279.3068
  61   2.0000     -10.264071      -279.2996
  62   2.0000     -10.263514      -279.2844
  63   2.0000     -10.263331      -279.2794
  64   2.0000     -10.262978      -279.2698
  65   2.0000     -10.262379      -279.2535
  66   2.0000     -10.262196      -279.2485
  67   2.0000     -10.261712      -279.2354
  68   2.0000     -10.258753      -279.1549
  69   2.0000     -10.258476      -279.1473
  70   2.0000     -10.256374      -279.0901
  71   2.0000     -10.241351      -278.6813
  72   2.0000     -10.240829      -278.6671
  73   2.0000      -8.062249      -219.3850
  74   2.0000      -8.053284      -219.1410
  75   2.0000      -8.051110      -219.0818
  76   2.0000      -8.050541      -219.0664
  77   2.0000      -8.048412      -219.0084
  78   2.0000      -8.043369      -218.8712
  79   2.0000      -8.043352      -218.8707
  80   2.0000      -6.031659      -164.1298
  81   2.0000      -6.027559      -164.0182
  82   2.0000      -6.024120      -163.9246
  83   2.0000      -6.022577      -163.8827
  84   2.0000      -6.021047      -163.8410
  85   2.0000      -6.020251      -163.8194
  86   2.0000      -6.018317      -163.7667
  87   2.0000      -6.018294      -163.7661
  88   2.0000      -6.016294      -163.7117
  89   2.0000      -6.015820      -163.6988
  90   2.0000      -6.015212      -163.6822
  91   2.0000      -6.013653      -163.6398
  92   2.0000      -6.012942      -163.6205
  93   2.0000      -6.012892      -163.6191
  94   2.0000      -6.012034      -163.5958
  95   2.0000      -6.011631      -163.5848
  96   2.0000      -6.009127      -163.5167
  97   2.0000      -6.008879      -163.5099
  98   2.0000      -6.008580      -163.5018
  99   2.0000      -6.005065      -163.4061
 100   2.0000      -6.004594      -163.3933
 101   2.0000      -1.160646       -31.5828
 102   2.0000      -1.128192       -30.6997
 103   2.0000      -1.101936       -29.9852
 104   2.0000      -1.015541       -27.6343
 105   2.0000      -1.005984       -27.3742
 106   2.0000      -0.997060       -27.1314
 107   2.0000      -0.993413       -27.0321
 108   2.0000      -0.988227       -26.8910
 109   2.0000      -0.981788       -26.7158
 110   2.0000      -0.980674       -26.6855
 111   2.0000      -0.973923       -26.5018
 112   2.0000      -0.970180       -26.3999
 113   2.0000      -0.959475       -26.1086
 114   2.0000      -0.941138       -25.6097
 115   2.0000      -0.922973       -25.1154
 116   2.0000      -0.920168       -25.0390
 117   2.0000      -0.912039       -24.8178
 118   2.0000      -0.910100       -24.7651
 119   2.0000      -0.905480       -24.6394
 120   2.0000      -0.893691       -24.3186
 121   2.0000      -0.887044       -24.1377
 122   2.0000      -0.881177       -23.9780
 123   2.0000      -0.869375       -23.6569
 124   2.0000      -0.867854       -23.6155
 125   2.0000      -0.860101       -23.4045
 126   2.0000      -0.858128       -23.3508
 127   2.0000      -0.850501       -23.1433
 128   2.0000      -0.841510       -22.8986
 129   2.0000      -0.832282       -22.6475
 130   2.0000      -0.832013       -22.6402
 131   2.0000      -0.828739       -22.5511
 132   2.0000      -0.826417       -22.4879
 133   2.0000      -0.824524       -22.4364
 134   2.0000      -0.821727       -22.3603
 135   2.0000      -0.818178       -22.2637
 136   2.0000      -0.807985       -21.9864
 137   2.0000      -0.801352       -21.8059
 138   2.0000      -0.796970       -21.6867
 139   2.0000      -0.785760       -21.3816
 140   2.0000      -0.769292       -20.9335
 141   2.0000      -0.755632       -20.5618
 142   2.0000      -0.750424       -20.4201
 143   2.0000      -0.739639       -20.1266
 144   2.0000      -0.734451       -19.9854
 145   2.0000      -0.732515       -19.9327
 146   2.0000      -0.723000       -19.6738
 147   2.0000      -0.721774       -19.6405
 148   2.0000      -0.706761       -19.2319
 149   2.0000      -0.697191       -18.9715
 150   2.0000      -0.688796       -18.7431
 151   2.0000      -0.685995       -18.6669
 152   2.0000      -0.672012       -18.2864
 153   2.0000      -0.670105       -18.2345
 154   2.0000      -0.669375       -18.2146
 155   2.0000      -0.666126       -18.1262
 156   2.0000      -0.663428       -18.0528
 157   2.0000      -0.658164       -17.9095
 158   2.0000      -0.653323       -17.7778
 159   2.0000      -0.641649       -17.4602
 160   2.0000      -0.639964       -17.4143
 161   2.0000      -0.638664       -17.3789
 162   2.0000      -0.637225       -17.3398
 163   2.0000      -0.630016       -17.1436
 164   2.0000      -0.623279       -16.9603
 165   2.0000      -0.619041       -16.8450
 166   2.0000      -0.616971       -16.7886
 167   2.0000      -0.607494       -16.5308
 168   2.0000      -0.602642       -16.3987
 169   2.0000      -0.599431       -16.3113
 170   2.0000      -0.595791       -16.2123
 171   2.0000      -0.586947       -15.9716
 172   2.0000      -0.584763       -15.9122
 173   2.0000      -0.580571       -15.7981
 174   2.0000      -0.574741       -15.6395
 175   2.0000      -0.570690       -15.5293
 176   2.0000      -0.567225       -15.4350
 177   2.0000      -0.563108       -15.3229
 178   2.0000      -0.558328       -15.1929
 179   2.0000      -0.555083       -15.1046
 180   2.0000      -0.550608       -14.9828
 181   2.0000      -0.546701       -14.8765
 182   2.0000      -0.538957       -14.6658
 183   2.0000      -0.537773       -14.6335
 184   2.0000      -0.534351       -14.5404
 185   2.0000      -0.532825       -14.4989
 186   2.0000      -0.530516       -14.4361
 187   2.0000      -0.527387       -14.3509
 188   2.0000      -0.525430       -14.2977
 189   2.0000      -0.522177       -14.2092
 190   2.0000      -0.520917       -14.1749
 191   2.0000      -0.519385       -14.1332
 192   2.0000      -0.517922       -14.0934
 193   2.0000      -0.514974       -14.0132
 194   2.0000      -0.512521       -13.9464
 195   2.0000      -0.511430       -13.9167
 196   2.0000      -0.510949       -13.9036
 197   2.0000      -0.508167       -13.8279
 198   2.0000      -0.507027       -13.7969
 199   2.0000      -0.504825       -13.7370
 200   2.0000      -0.503493       -13.7007
 201   2.0000      -0.502308       -13.6685
 202   2.0000      -0.499714       -13.5979
 203   2.0000      -0.492946       -13.4137
 204   2.0000      -0.490764       -13.3544
 205   2.0000      -0.488249       -13.2859
 206   2.0000      -0.487028       -13.2527
 207   2.0000      -0.485470       -13.2103
 208   2.0000      -0.482169       -13.1205
 209   2.0000      -0.477386       -12.9903
 210   2.0000      -0.476013       -12.9530
 211   2.0000      -0.474047       -12.8995
 212   2.0000      -0.472073       -12.8458
 213   2.0000      -0.470659       -12.8073
 214   2.0000      -0.468998       -12.7621
 215   2.0000      -0.466532       -12.6950
 216   2.0000      -0.465540       -12.6680
 217   2.0000      -0.465128       -12.6568
 218   2.0000      -0.463553       -12.6139
 219   2.0000      -0.463434       -12.6107
 220   2.0000      -0.460151       -12.5213
 221   2.0000      -0.458959       -12.4889
 222   2.0000      -0.449837       -12.2407
 223   2.0000      -0.447318       -12.1721
 224   2.0000      -0.446904       -12.1609
 225   2.0000      -0.446411       -12.1475
 226   2.0000      -0.444515       -12.0959
 227   2.0000      -0.442519       -12.0416
 228   2.0000      -0.437818       -11.9136
 229   2.0000      -0.436384       -11.8746
 230   2.0000      -0.433557       -11.7977
 231   2.0000      -0.431874       -11.7519
 232   2.0000      -0.431032       -11.7290
 233   2.0000      -0.422980       -11.5099
 234   2.0000      -0.421342       -11.4653
 235   2.0000      -0.419843       -11.4245
 236   2.0000      -0.418391       -11.3850
 237   2.0000      -0.417497       -11.3607
 238   2.0000      -0.415145       -11.2967
 239   2.0000      -0.412748       -11.2314
 240   2.0000      -0.411893       -11.2082
 241   2.0000      -0.411409       -11.1950
 242   2.0000      -0.410979       -11.1833
 243   2.0000      -0.410380       -11.1670
 244   2.0000      -0.403776       -10.9873
 245   2.0000      -0.402968       -10.9653
 246   2.0000      -0.402041       -10.9401
 247   2.0000      -0.400829       -10.9071
 248   2.0000      -0.399405       -10.8684
 249   2.0000      -0.393504       -10.7078
 250   2.0000      -0.391962       -10.6658
 251   2.0000      -0.387788       -10.5523
 252   2.0000      -0.383538       -10.4366
 253   2.0000      -0.380848       -10.3634
 254   2.0000      -0.380640       -10.3577
 255   2.0000      -0.376695       -10.2504
 256   2.0000      -0.376190       -10.2366
 257   2.0000      -0.374925       -10.2022
 258   2.0000      -0.369457       -10.0534
 259   2.0000      -0.360056        -9.7976
 260   2.0000      -0.353058        -9.6072
 261   2.0000      -0.350264        -9.5312
 262   2.0000      -0.345637        -9.4053
 263   2.0000      -0.329241        -8.9591
 264   2.0000      -0.326341        -8.8802
 265   2.0000      -0.322407        -8.7731
 266   2.0000      -0.315600        -8.5879
 267   2.0000      -0.313951        -8.5430
 268   2.0000      -0.313568        -8.5326
 269   2.0000      -0.309100        -8.4110
 270   2.0000      -0.308477        -8.3941
 271   2.0000      -0.308018        -8.3816
 272   2.0000      -0.293028        -7.9737
 273   2.0000      -0.290061        -7.8930
 274   2.0000      -0.285959        -7.7813
 275   2.0000      -0.273652        -7.4464
 276   2.0000      -0.262743        -7.1496
 277   2.0000      -0.241091        -6.5604
 278   2.0000      -0.210015        -5.7148
 279   0.0000      -0.104643        -2.8475
 280   0.0000      -0.064293        -1.7495
 281   0.0000      -0.041499        -1.1292
 282   0.0000      -0.032813        -0.8929
 283   0.0000      -0.027165        -0.7392

MULLIKEN ATOMIC CHARGES
-----------------------
   0 C :    0.331049
   1 C :   -0.350682
   2 C :   -0.198957
   3 N :    0.137738
   4 C :   -0.139833
   5 N :    0.065172
   6 C :    0.012408
   7 C :   -0.008246
   8 C :   -0.074505
   9 C :    0.112270
  10 C :   -0.096469
  11 C :   -0.025333
  12 S :    0.127627
  13 C :   -0.054002
  14 C :    0.024852
  15 C :    0.134942
  16 O :   -0.168583
  17 C :   -0.090315
  18 C :   -0.036762
  19 C :   -0.020453
  20 C :    0.012133
  21 C :    0.022175
  22 C :    0.041926
  23 C :   -0.047758
  24 S :    0.093237
  25 C :    0.000942
  26 C :    0.025116
  27 C :    0.044477
  28 C :   -0.042363
  29 S :    0.058637
  30 C :    0.022773
  31 C :   -0.081460
  32 S :    0.058894
  33 C :   -0.057822
  34 C :   -0.075209
  35 C :   -0.096842
  36 C :    0.136865
  37 C :    0.058689
  38 C :   -0.051366
  39 N :   -0.170258
  40 C :    0.143136
  41 C :   -0.114373
  42 S :    0.118470
  43 C :   -0.104473
  44 C :   -0.027970
  45 C :   -0.025806
  46 S :    0.080713
  47 C :    0.099049
  48 O :   -0.144487
  49 C :    0.106445
  50 O :   -0.150052
  51 S :    0.081886
  52 C :    0.055147
  53 C :   -0.031262
  54 C :    0.112468
  55 C :   -0.089277
  56 C :    0.012297
  57 C :    0.104938
  58 C :   -0.044921
  59 C :   -0.018893
  60 C :    0.100576
  61 C :    0.008773
  62 C :   -0.141372
  63 C :    0.068273
  64 C :    0.025952
  65 C :    0.068479
  66 C :    0.029011
  67 C :   -0.080890
  68 C :    0.109862
  69 C :   -0.021011
  70 C :   -0.046552
  71 C :   -0.003089
  72 C :   -0.017785
  73 H :   -0.019797
  74 H :   -0.007903
  75 H :    0.030833
  76 H :   -0.013089
  77 H :    0.021970
  78 H :    0.013611
  79 H :   -0.003962
  80 H :   -0.007874
  81 H :   -0.011606
  82 H :   -0.007496
  83 H :   -0.009027
  84 H :    0.015644
  85 H :    0.015636
  86 H :    0.009694
  87 H :   -0.008409
  88 H :   -0.013541
  89 H :    0.090907
  90 H :    0.088949
  91 H :    0.026818
  92 H :    0.014168
  93 H :   -0.019368
  94 H :    0.010866
  95 H :   -0.045424
  96 H :   -0.032398
  97 H :   -0.013744
  98 H :   -0.004460
  99 H :   -0.006231
 100 H :    0.022872
 101 H :    0.007199
 102 H :    0.022916
 103 H :   -0.007127
 104 H :   -0.004132
 105 H :    0.021974
 106 H :    0.005801
 107 H :    0.022732
 108 H :   -0.051158
 109 H :   -0.029927
 110 H :   -0.036209
 111 H :   -0.018979
 112 H :    0.010771
 113 H :    0.020536
Sum of atomic charges:   -0.0000000

LOEWDIN ATOMIC CHARGES
----------------------
   0 C :    0.079484
   1 C :   -0.158112
   2 C :   -0.019080
   3 N :   -0.076838
   4 C :    0.007093
   5 N :   -0.099433
   6 C :   -0.017516
   7 C :   -0.050137
   8 C :    0.016449
   9 C :   -0.039574
  10 C :   -0.147958
  11 C :   -0.010775
  12 S :    0.419662
  13 C :   -0.157172
  14 C :   -0.059758
  15 C :    0.082753
  16 O :   -0.161552
  17 C :   -0.107487
  18 C :    0.049368
  19 C :   -0.070711
  20 C :   -0.106455
  21 C :   -0.045200
  22 C :   -0.011869
  23 C :   -0.193442
  24 S :    0.413878
  25 C :   -0.151202
  26 C :   -0.050501
  27 C :   -0.012937
  28 C :   -0.171780
  29 S :    0.403138
  30 C :   -0.036574
  31 C :   -0.188790
  32 S :    0.450520
  33 C :   -0.180327
  34 C :   -0.060195
  35 C :   -0.039433
  36 C :   -0.026635
  37 C :   -0.026294
  38 C :    0.018404
  39 N :   -0.109674
  40 C :   -0.041632
  41 C :   -0.210079
  42 S :    0.467671
  43 C :   -0.176170
  44 C :   -0.216042
  45 C :   -0.208536
  46 S :    0.399701
  47 C :   -0.108532
  48 O :   -0.120172
  49 C :   -0.108050
  50 O :   -0.111981
  51 S :    0.411959
  52 C :   -0.061497
  53 C :   -0.005998
  54 C :   -0.028121
  55 C :   -0.017143
  56 C :    0.003919
  57 C :   -0.012952
  58 C :   -0.018134
  59 C :   -0.010497
  60 C :   -0.019471
  61 C :    0.004739
  62 C :   -0.035829
  63 C :   -0.012054
  64 C :   -0.057573
  65 C :   -0.012213
  66 C :   -0.057287
  67 C :   -0.016499
  68 C :   -0.024807
  69 C :   -0.019664
  70 C :   -0.018226
  71 C :   -0.018890
  72 C :   -0.048359
  73 H :    0.036845
  74 H :    0.040316
  75 H :    0.025980
  76 H :    0.032583
  77 H :    0.030032
  78 H :    0.037796
  79 H :    0.036768
  80 H :    0.034901
  81 H :    0.033322
  82 H :    0.035228
  83 H :    0.039711
  84 H :    0.032258
  85 H :    0.033935
  86 H :    0.027013
  87 H :    0.021239
  88 H :    0.001869
  89 H :    0.054146
  90 H :    0.053894
  91 H :    0.032790
  92 H :    0.020926
  93 H :    0.024429
  94 H :    0.017951
  95 H :    0.021189
  96 H :    0.028272
  97 H :    0.031649
  98 H :    0.019089
  99 H :    0.018190
 100 H :    0.026188
 101 H :    0.023276
 102 H :    0.026042
 103 H :    0.017981
 104 H :    0.019245
 105 H :    0.025686
 106 H :    0.022965
 107 H :    0.026204
 108 H :    0.022130
 109 H :    0.025495
 110 H :    0.026646
 111 H :    0.027516
 112 H :    0.018225
 113 H :    0.025158

  Mayer bond orders larger than 0.100000
B(  0-C ,  1-C ) :   1.5506 B(  0-C ,  6-C ) :   0.9898 B(  0-C , 17-C ) :   1.1355
B(  1-C ,  2-C ) :   1.1453 B(  1-C ,  4-C ) :   1.1946 B(  2-C ,  3-N ) :   2.9700
B(  4-C ,  5-N ) :   2.8199 B(  6-C ,  7-C ) :   1.2696 B(  6-C , 11-C ) :   1.4274
B(  7-C ,  8-C ) :   1.4391 B(  7-C , 15-C ) :   0.9362 B(  8-C ,  9-C ) :   1.2381
B(  8-C , 73-H ) :   1.0150 B(  9-C , 10-C ) :   1.3158 B(  9-C , 14-C ) :   1.1712
B( 10-C , 11-C ) :   1.3145 B( 10-C , 12-S ) :   1.0919 B( 11-C , 74-H ) :   0.9813
B( 12-S , 13-C ) :   1.1254 B( 13-C , 14-C ) :   1.6261 B( 13-C , 75-H ) :   0.9696
B( 14-C , 76-H ) :   0.9990 B( 15-C , 16-O ) :   2.1838 B( 15-C , 17-C ) :   0.9674
B( 17-C , 18-C ) :   1.4557 B( 18-C , 19-C ) :   1.2872 B( 18-C , 77-H ) :   0.9424
B( 19-C , 20-C ) :   1.3872 B( 19-C , 78-H ) :   0.9799 B( 20-C , 21-C ) :   1.2011
B( 20-C , 24-S ) :   1.0947 B( 21-C , 22-C ) :   1.5110 B( 21-C , 79-H ) :   1.0010
B( 22-C , 23-C ) :   1.2452 B( 22-C , 80-H ) :   0.9980 B( 23-C , 24-S ) :   1.0539
B( 23-C , 25-C ) :   1.4220 B( 25-C , 26-C ) :   1.2203 B( 25-C , 29-S ) :   1.0775
B( 26-C , 27-C ) :   1.5483 B( 26-C , 81-H ) :   0.9953 B( 27-C , 28-C ) :   1.1780
B( 27-C , 82-H ) :   0.9977 B( 28-C , 29-S ) :   1.0384 B( 28-C , 30-C ) :   1.4973
B( 30-C , 31-C ) :   1.2504 B( 30-C , 83-H ) :   0.9683 B( 31-C , 32-S ) :   1.0733
B( 31-C , 35-C ) :   1.3822 B( 32-S , 33-C ) :   1.1345 B( 33-C , 34-C ) :   1.4092
B( 33-C , 41-C ) :   1.1864 B( 34-C , 35-C ) :   1.4151 B( 34-C , 40-C ) :   1.0442
B( 35-C , 36-C ) :   1.0497 B( 36-C , 37-C ) :   1.0854 B( 36-C , 84-H ) :   0.9133
B( 36-C , 85-H ) :   0.9009 B( 37-C , 38-C ) :   1.0402 B( 37-C , 86-H ) :   0.9347
B( 37-C , 87-H ) :   0.9319 B( 38-C , 39-N ) :   1.0824 B( 38-C , 40-C ) :   1.0336
B( 38-C , 88-H ) :   0.9315 B( 39-N , 89-H ) :   0.9603 B( 39-N , 90-H ) :   0.9610
B( 40-C , 91-H ) :   0.8942 B( 40-C , 92-H ) :   0.9048 B( 41-C , 42-S ) :   1.1112
B( 41-C , 43-C ) :   0.1072 B( 41-C , 45-C ) :   1.5074 B( 42-S , 43-C ) :   1.1149
B( 43-C , 44-C ) :   1.5403 B( 43-C , 52-C ) :   1.1285 B( 44-C , 45-C ) :   1.3061
B( 44-C , 51-S ) :   0.9685 B( 45-C , 46-S ) :   0.9870 B( 46-S , 47-C ) :   1.0434
B( 46-S , 48-O ) :   0.1235 B( 47-C , 48-O ) :   2.1597 B( 47-C , 49-C ) :   0.7700
B( 49-C , 50-O ) :   2.1051 B( 49-C , 51-S ) :   1.0637 B( 50-O , 51-S ) :   0.1330
B( 52-C , 53-C ) :   1.6747 B( 52-C , 93-H ) :   0.9427 B( 53-C , 54-C ) :   1.0857
B( 53-C , 94-H ) :   0.9719 B( 54-C , 55-C ) :   1.2956 B( 54-C , 59-C ) :   1.3347
B( 55-C , 56-C ) :   1.4146 B( 55-C , 95-H ) :   0.9970 B( 56-C , 57-C ) :   1.3567
B( 56-C , 62-C ) :   0.9158 B( 57-C , 58-C ) :   1.3463 B( 57-C , 60-C ) :   0.9926
B( 58-C , 59-C ) :   1.3747 B( 58-C , 96-H ) :   0.9914 B( 59-C , 97-H ) :   0.9938
B( 60-C , 61-C ) :   1.3568 B( 60-C , 70-C ) :   1.3538 B( 61-C , 62-C ) :   0.9166
B( 61-C , 67-C ) :   1.4183 B( 62-C , 63-C ) :   1.0383 B( 62-C , 65-C ) :   1.0373
B( 63-C , 64-C ) :   1.1014 B( 63-C , 98-H ) :   0.9388 B( 63-C , 99-H ) :   0.9388
B( 64-C ,100-H ) :   0.9645 B( 64-C ,101-H ) :   0.9639 B( 64-C ,102-H ) :   0.9642
B( 65-C , 66-C ) :   1.1021 B( 65-C ,103-H ) :   0.9386 B( 65-C ,104-H ) :   0.9390
B( 66-C ,105-H ) :   0.9643 B( 66-C ,106-H ) :   0.9636 B( 66-C ,107-H ) :   0.9640
B( 67-C , 68-C ) :   1.3091 B( 67-C ,108-H ) :   0.9981 B( 68-C , 69-C ) :   1.3518
B( 68-C , 71-C ) :   1.0626 B( 69-C , 70-C ) :   1.3704 B( 69-C ,109-H ) :   0.9917
B( 70-C ,110-H ) :   0.9904 B( 71-C , 72-C ) :   1.9496 B( 71-C ,111-H ) :   0.9683
B( 72-C ,112-H ) :   0.9474 B( 72-C ,113-H ) :   0.9496

-----------------------------------------------------------------------------
         ABSORPTION SPECTRUM VIA TRANSITION ELECTRIC DIPOLE MOMENTS
-----------------------------------------------------------------------------
State   Energy  Wavelength   fosc         T2         TX        TY        TZ
        (cm-1)    (nm)                  (au**2)     (au)      (au)      (au)
-----------------------------------------------------------------------------
   0    8729.1   1145.6   0.465102749  17.54108   1.00139   0.19347   4.06213
   1   16288.6    613.9   0.094275530   1.90542   0.69475  -0.30282   1.15371
   2   17766.4    562.9   1.276157363  23.64728  -3.49198   3.24140   0.97299
   3   21581.9    463.4   0.153005106   2.33395  -0.75620   1.02536   0.84305
   4   22648.5    441.5   0.538864728   7.83279  -1.83379   1.86373   0.99826
   5   23121.3    432.5   0.197058861   2.80582   1.21638  -1.14275  -0.14269
   6   24177.4    413.6   0.354396582   4.82564   0.83014  -1.22920  -1.62036
   7   24573.9    406.9   0.187887548   2.51709   0.01879  -0.31096   1.55565
   8   24894.0    401.7   0.343906233   4.54801  -1.47983   1.53498   0.04427
   9   25950.7    385.3   0.013762436   0.17459  -0.11070  -0.21932   0.33798
  10   26577.1    376.3   0.001081236   0.01339   0.08487  -0.07694  -0.01642
  11   26952.6    371.0   0.022292769   0.27229   0.26256  -0.43302   0.12589
  12   27374.2    365.3   0.009489559   0.11412   0.16705  -0.29360  -0.00450
  13   27644.0    361.7   0.599535257   7.13987  -0.67244   0.61126  -2.51278
  14   28954.9    345.4   0.021667661   0.24636  -0.45844   0.19023  -0.00144
  15   29711.2    336.6   0.166777665   1.84796  -0.79597   0.84064  -0.71255
  16   29821.3    335.3   0.210533877   2.32419   0.86274  -0.79287  -0.97531
  17   30066.6    332.6   0.021766354   0.23833   0.00663   0.01932  -0.48776
  18   30216.0    331.0   0.107847992   1.17503   0.13921  -0.19598  -1.05700
  19   30546.8    327.4   0.170327091   1.83566   0.71015  -0.74063  -0.88477
  20   30658.3    326.2   0.006433620   0.06908   0.09145  -0.13033   0.20913
  21   31100.7    321.5   0.118527951   1.25466  -0.52457   0.67354  -0.72514
  22   31640.2    316.1   0.066626059   0.69323   0.61989  -0.54218   0.12250
  23   32081.5    311.7   0.001523160   0.01563  -0.06034   0.04779  -0.09851
  24   32372.9    308.9   0.096726731   0.98365   0.21940  -0.41475   0.87378
  25   32694.0    305.9   0.075921429   0.76449   0.10393   0.02051  -0.86791
  26   33101.0    302.1   0.000044971   0.00045   0.00778  -0.00887  -0.01755
  27   33436.3    299.1   0.014332900   0.14112   0.25718  -0.16152   0.22111
  28   33682.9    296.9   0.190871336   1.86555   1.05820  -0.84890  -0.15852
  29   34547.1    289.5   0.092205630   0.87866  -0.18368   0.09843  -0.91391
  30   35016.5    285.6   0.015786250   0.14842  -0.24971   0.28724  -0.05964
  31   35139.3    284.6   0.040291110   0.37748   0.29487  -0.10578   0.52853
  32   35188.7    284.2   0.016170528   0.15129   0.17197  -0.06199   0.34332
  33   35597.5    280.9   0.003617034   0.03345  -0.16151  -0.03834  -0.07678
  34   35854.8    278.9   0.059692727   0.54809  -0.00586  -0.17772   0.71866
  35   36151.9    276.6   0.230803729   2.10178   0.20122  -0.07965   1.43351
  36   36665.1    272.7   0.200463943   1.79994  -0.78793   0.70737  -0.82385
  37   37334.5    267.8   0.007384314   0.06511  -0.19409  -0.09784   0.13368
  38   37485.7    266.8   0.007198668   0.06322   0.20708  -0.08089  -0.11745
  39   37875.6    264.0   0.020358686   0.17696  -0.31388  -0.04611   0.27624
  40   38081.7    262.6   0.133582041   1.15480  -0.78267   0.57510  -0.45988
  41   38426.2    260.2   0.036654132   0.31403  -0.03027   0.23092  -0.50969
  42   38743.0    258.1   0.141407664   1.20159   0.17614   0.05894  -1.08032
  43   38997.7    256.4   0.003153453   0.02662   0.12591  -0.01827  -0.10215
  44   39085.4    255.8   0.024115859   0.20313   0.20089  -0.25402   0.31344
  45   39279.5    254.6   0.026708356   0.22385  -0.14056   0.10330  -0.43980
  46   39559.7    252.8   0.000827922   0.00689  -0.07917   0.02269   0.01038
  47   39687.4    252.0   0.051363277   0.42606   0.19257  -0.03973  -0.62242
  48   39714.9    251.8   0.014474081   0.11998  -0.22965   0.04557  -0.25527
  49   39767.4    251.5   0.033136628   0.27432   0.40833   0.01313   0.32774
  50   40132.0    249.2   0.008272483   0.06786  -0.02177   0.09214  -0.24269
  51   40277.4    248.3   0.034763905   0.28415   0.25894  -0.31490   0.34341

FINAL SINGLE POINT ENERGY     -5483.962346552195

DIPOLE MOMENT
-------------
                                X             Y             Z
Electronic contribution:    -71.75729      53.58594     -89.38803
Nuclear contribution   :     71.23876     -51.78113      92.75015
                        -----------------------------------------
Total Dipole Moment    :     -0.51854       1.80481       3.36212
                        -----------------------------------------
Magnitude (a.u.)       :      3.85098
Magnitude (Debye)      :      9.78843

Rotational constants in cm-1:     0.000794     0.000449     0.000293
Rotational constants in MHz :    23.792133    13.471851     8.775207

                             ****ORCA TERMINATED NORMALLY****
TOTAL RUN TIME: 0 days 0 hours 13 minutes 23 seconds 603 msec
