                         Program Version 4.2.0 -  RELEASE  -
|  1> # ORCA input file
|  2> # SCF done       -185.911808420280          0.000452876325
|  3> ! CAM-B3LYP def2-SVP def2/J RIJCOSX Grid4 TightSCF
|  4> %maxcore 5000
|  5> %tddft
|  6>     Mode sTDDFT
|  7>     Ethresh 5.0
|  8>     maxcore 5000
|  9> end
| 10>
| 11> %pal
| 12>   nprocs 6
| 13>   end
| 14> * xyz 0 1
| 15>    C       -0.58368         1.44676        -4.58509
| 16>    C       -0.82190         0.10869        -4.39472
| 17>    C        0.03908        -0.91704        -4.83670
| 18>    N        0.69510        -1.79895        -5.16888
| 19>    C       -1.95643        -0.44558        -3.76647
| 20>    N       -2.85014        -0.98145        -3.28315
| 21>    C        0.56356         2.00576        -5.29418
| 22>    C        0.41330         3.41432        -5.36188
| 23>    C        1.33270         4.23076        -5.97470
| 24>    C        2.45840         3.63036        -6.54706
| 25>    C        2.60220         2.22456        -6.47319
| 26>    C        1.67003         1.39825        -5.85476
| 27>    S        4.06655         1.70159        -7.24280
| 28>    C        4.46561         3.33480        -7.64901
| 29>    C        3.54997         4.23586        -7.23113
| 30>    C       -0.83517         3.79616        -4.68670
| 31>    O       -1.28279         4.92663        -4.57654
| 32>    C       -1.42056         2.55493        -4.17195
| 33>    C       -2.53885         2.46978        -3.37828
| 34>    C       -3.40520         3.47583        -2.93992
| 35>    S       -3.35771         5.16296        -3.36274
| 36>    C       -4.78058         5.50901        -2.41899
| 37>    C       -5.25716         4.34718        -1.78168
| 38>    C       -4.49696         3.22453        -2.07945
| 39>    S       -4.76322         1.58329        -1.50536
| 40>    C       -6.24418         1.51909        -0.53954
| 41>    O       -6.57574         0.44113        -0.13231
| 42>    C       -7.06799         2.73581        -0.19777
| 43>    O       -8.04152         2.62373         0.49665
| 44>    S       -6.68061         4.36810        -0.74853
| 45>    C       -5.24556         6.83322        -2.43350
| 46>    C       -6.28571         7.36713        -1.71711
| 47>    C       -6.72552         8.68451        -1.84863
| 48>    C       -7.77867         9.20452        -1.12418
| 49>    C       -8.34820        10.49320        -1.23850
| 50>    C       -9.40830        10.71230        -0.40820
| 51>    C       -9.71908         9.61167         0.41853
| 52>    S       -8.62727         8.28316         0.09969
| 53>    C      -10.71735         9.50631         1.36984
| 54>    C      -11.72050        10.44775         1.69705
| 55>    C      -12.56567        10.02850         2.67497
| 56>    C      -12.27648         8.73581         3.19980
| 57>    S      -10.87599         8.08006         2.36428
| 58>    C      -13.01103         8.11939         4.17368
| 59>    C      -12.81612         6.85987         4.82033
| 60>    C      -13.86496         6.38704         5.65412
| 61>    C      -13.80531         5.19974         6.33400
| 62>    C      -12.63788         4.44672         6.20334
| 63>    C      -11.57870         4.92000         5.38681
| 64>    C      -11.64451         6.10237         4.68842
| 65>    O      -10.57585         4.02162         5.46644
| 66>    C      -11.03578         3.06105         6.31624
| 67>    N      -12.24702         3.27434         6.76025
| 68>    C      -10.20604         1.93655         6.58085
| 69>    C      -10.44235         0.93567         7.45970
| 70>    C      -11.47817         0.75056         8.46080
| 71>    C      -12.04433         1.72718         9.23010
| 72>    C      -13.01124         1.47627        10.22542
| 73>    N      -13.81093         1.32270        11.03431
| 74>    C      -11.63778         3.07973         9.21246
| 75>    N      -11.28285         4.16380         9.34071
| 76>    C      -11.61766        -0.68652         8.66224
| 77>    C      -10.53044        -1.34539         8.02824
| 78>    C       -9.69138        -0.35330         7.33496
| 79>    O       -8.64984        -0.52728         6.75052
| 80>    C      -10.36364        -2.70908         8.08316
| 81>    C      -11.31609        -3.45643         8.78160
| 82>    C      -12.40464        -2.79077         9.39718
| 83>    C      -12.57001        -1.41138         9.35187
| 84>    S      -13.46048        -3.91538        10.19037
| 85>    C      -12.45620        -5.23853         9.70660
| 86>    C      -11.37902        -4.86442         8.98286
| 87>    H        1.18756         5.29934        -6.00962
| 88>    H        1.82830         0.33337        -5.82424
| 89>    H        5.37627         3.52148        -8.18423
| 90>    H        3.63011         5.29552        -7.39330
| 91>    H       -2.80296         1.48365        -3.01548
| 92>    H       -4.69898         7.48919        -3.10023
| 93>    H       -6.81880         6.75166        -1.00786
| 94>    H       -6.24082         9.33269        -2.56640
| 95>    H       -7.96362        11.21585        -1.93634
| 96>    H       -9.96373        11.63191        -0.36522
| 97>    H      -11.79606        11.39549         1.19521
| 98>    H      -13.39267        10.60532         3.04983
| 99>    H      -13.88392         8.67208         4.50064
|100>    H      -14.75116         6.99815         5.74378
|101>    H      -14.61146         4.85625         6.96071
|102>    H      -10.80809         6.42954         4.09599
|103>    H       -9.33377         1.84420         5.94482
|104>    H       -9.52410        -3.18340         7.59922
|105>    H      -13.41660        -0.94597         9.82920
|106>    H      -12.74079        -6.23072         9.99852
|107>    H      -10.64552        -5.54854         8.59644
|108> *
|109>
|110>                          ****END OF INPUT****

CARTESIAN COORDINATES (ANGSTROEM)
---------------------------------
  C     -0.583680    1.446760   -4.585090
  C     -0.821900    0.108690   -4.394720
  C      0.039080   -0.917040   -4.836700
  N      0.695100   -1.798950   -5.168880
  C     -1.956430   -0.445580   -3.766470
  N     -2.850140   -0.981450   -3.283150
  C      0.563560    2.005760   -5.294180
  C      0.413300    3.414320   -5.361880
  C      1.332700    4.230760   -5.974700
  C      2.458400    3.630360   -6.547060
  C      2.602200    2.224560   -6.473190
  C      1.670030    1.398250   -5.854760
  S      4.066550    1.701590   -7.242800
  C      4.465610    3.334800   -7.649010
  C      3.549970    4.235860   -7.231130
  C     -0.835170    3.796160   -4.686700
  O     -1.282790    4.926630   -4.576540
  C     -1.420560    2.554930   -4.171950
  C     -2.538850    2.469780   -3.378280
  C     -3.405200    3.475830   -2.939920
  S     -3.357710    5.162960   -3.362740
  C     -4.780580    5.509010   -2.418990
  C     -5.257160    4.347180   -1.781680
  C     -4.496960    3.224530   -2.079450
  S     -4.763220    1.583290   -1.505360
  C     -6.244180    1.519090   -0.539540
  O     -6.575740    0.441130   -0.132310
  C     -7.067990    2.735810   -0.197770
  O     -8.041520    2.623730    0.496650
  S     -6.680610    4.368100   -0.748530
  C     -5.245560    6.833220   -2.433500
  C     -6.285710    7.367130   -1.717110
  C     -6.725520    8.684510   -1.848630
  C     -7.778670    9.204520   -1.124180
  C     -8.348200   10.493200   -1.238500
  C     -9.408300   10.712300   -0.408200
  C     -9.719080    9.611670    0.418530
  S     -8.627270    8.283160    0.099690
  C    -10.717350    9.506310    1.369840
  C    -11.720500   10.447750    1.697050
  C    -12.565670   10.028500    2.674970
  C    -12.276480    8.735810    3.199800
  S    -10.875990    8.080060    2.364280
  C    -13.011030    8.119390    4.173680
  C    -12.816120    6.859870    4.820330
  C    -13.864960    6.387040    5.654120
  C    -13.805310    5.199740    6.334000
  C    -12.637880    4.446720    6.203340
  C    -11.578700    4.920000    5.386810
  C    -11.644510    6.102370    4.688420
  O    -10.575850    4.021620    5.466440
  C    -11.035780    3.061050    6.316240
  N    -12.247020    3.274340    6.760250
  C    -10.206040    1.936550    6.580850
  C    -10.442350    0.935670    7.459700
  C    -11.478170    0.750560    8.460800
  C    -12.044330    1.727180    9.230100
  C    -13.011240    1.476270   10.225420
  N    -13.810930    1.322700   11.034310
  C    -11.637780    3.079730    9.212460
  N    -11.282850    4.163800    9.340710
  C    -11.617660   -0.686520    8.662240
  C    -10.530440   -1.345390    8.028240
  C     -9.691380   -0.353300    7.334960
  O     -8.649840   -0.527280    6.750520
  C    -10.363640   -2.709080    8.083160
  C    -11.316090   -3.456430    8.781600
  C    -12.404640   -2.790770    9.397180
  C    -12.570010   -1.411380    9.351870
  S    -13.460480   -3.915380   10.190370
  C    -12.456200   -5.238530    9.706600
  C    -11.379020   -4.864420    8.982860
  H      1.187560    5.299340   -6.009620
  H      1.828300    0.333370   -5.824240
  H      5.376270    3.521480   -8.184230
  H      3.630110    5.295520   -7.393300
  H     -2.802960    1.483650   -3.015480
  H     -4.698980    7.489190   -3.100230
  H     -6.818800    6.751660   -1.007860
  H     -6.240820    9.332690   -2.566400
  H     -7.963620   11.215850   -1.936340
  H     -9.963730   11.631910   -0.365220
  H    -11.796060   11.395490    1.195210
  H    -13.392670   10.605320    3.049830
  H    -13.883920    8.672080    4.500640
  H    -14.751160    6.998150    5.743780
  H    -14.611460    4.856250    6.960710
  H    -10.808090    6.429540    4.095990
  H     -9.333770    1.844200    5.944820
  H     -9.524100   -3.183400    7.599220
  H    -13.416600   -0.945970    9.829200
  H    -12.740790   -6.230720    9.998520
  H    -10.645520   -5.548540    8.596440

 Total Charge           Charge          ....    0
 Multiplicity           Mult            ....    1
 Number of Electrons    NEL             ....  538
 Basis Dimension        Dim             .... 1141

ORBITAL ENERGIES
----------------

  NO   OCC          E(Eh)            E(eV)
   0   2.0000     -88.969689     -2420.9883
   1   2.0000     -88.969553     -2420.9846
   2   2.0000     -88.969299     -2420.9777
   3   2.0000     -88.965036     -2420.8617
   4   2.0000     -88.964068     -2420.8354
   5   2.0000     -88.959693     -2420.7163
   6   2.0000     -88.956722     -2420.6355
   7   2.0000     -19.305647      -525.3334
   8   2.0000     -19.239419      -523.5312
   9   2.0000     -19.239111      -523.5228
  10   2.0000     -19.218485      -522.9616
  11   2.0000     -19.216623      -522.9109
  12   2.0000     -14.421636      -392.4327
  13   2.0000     -14.415138      -392.2559
  14   2.0000     -14.410073      -392.1180
  15   2.0000     -14.408202      -392.0671
  16   2.0000     -14.406517      -392.0212
  17   2.0000     -10.404060      -283.1089
  18   2.0000     -10.403729      -283.0998
  19   2.0000     -10.379382      -282.4373
  20   2.0000     -10.367514      -282.1144
  21   2.0000     -10.366155      -282.0774
  22   2.0000     -10.342665      -281.4382
  23   2.0000     -10.342072      -281.4221
  24   2.0000     -10.338412      -281.3225
  25   2.0000     -10.337393      -281.2948
  26   2.0000     -10.335788      -281.2511
  27   2.0000     -10.334961      -281.2286
  28   2.0000     -10.328003      -281.0392
  29   2.0000     -10.326961      -281.0109
  30   2.0000     -10.324913      -280.9552
  31   2.0000     -10.322919      -280.9009
  32   2.0000     -10.322030      -280.8767
  33   2.0000     -10.321580      -280.8645
  34   2.0000     -10.320641      -280.8389
  35   2.0000     -10.319982      -280.8210
  36   2.0000     -10.319831      -280.8169
  37   2.0000     -10.317993      -280.7669
  38   2.0000     -10.317257      -280.7468
  39   2.0000     -10.316757      -280.7332
  40   2.0000     -10.312492      -280.6172
  41   2.0000     -10.312256      -280.6108
  42   2.0000     -10.311619      -280.5934
  43   2.0000     -10.311596      -280.5928
  44   2.0000     -10.310811      -280.5714
  45   2.0000     -10.310430      -280.5611
  46   2.0000     -10.308538      -280.5096
  47   2.0000     -10.306674      -280.4589
  48   2.0000     -10.302669      -280.3499
  49   2.0000     -10.302448      -280.3439
  50   2.0000     -10.301488      -280.3177
  51   2.0000     -10.300094      -280.2798
  52   2.0000     -10.299647      -280.2676
  53   2.0000     -10.299187      -280.2551
  54   2.0000     -10.298773      -280.2439
  55   2.0000     -10.298538      -280.2375
  56   2.0000     -10.298476      -280.2358
  57   2.0000     -10.298351      -280.2324
  58   2.0000     -10.296492      -280.1818
  59   2.0000     -10.295552      -280.1562
  60   2.0000     -10.295489      -280.1545
  61   2.0000     -10.295223      -280.1473
  62   2.0000     -10.293252      -280.0936
  63   2.0000     -10.291592      -280.0485
  64   2.0000     -10.290570      -280.0206
  65   2.0000     -10.289035      -279.9789
  66   2.0000     -10.287476      -279.9365
  67   2.0000     -10.287280      -279.9311
  68   2.0000     -10.287215      -279.9293
  69   2.0000     -10.286838      -279.9191
  70   2.0000     -10.284430      -279.8536
  71   2.0000     -10.283829      -279.8372
  72   2.0000      -8.065875      -219.4836
  73   2.0000      -8.065571      -219.4754
  74   2.0000      -8.062595      -219.3944
  75   2.0000      -8.061331      -219.3600
  76   2.0000      -8.060239      -219.3303
  77   2.0000      -8.055670      -219.2059
  78   2.0000      -8.053026      -219.1340
  79   2.0000      -6.035760      -164.2414
  80   2.0000      -6.035483      -164.2338
  81   2.0000      -6.032114      -164.1422
  82   2.0000      -6.030980      -164.1113
  83   2.0000      -6.030842      -164.1076
  84   2.0000      -6.030734      -164.1046
  85   2.0000      -6.029760      -164.0781
  86   2.0000      -6.027671      -164.0213
  87   2.0000      -6.026854      -163.9990
  88   2.0000      -6.026603      -163.9922
  89   2.0000      -6.026548      -163.9907
  90   2.0000      -6.025431      -163.9603
  91   2.0000      -6.025416      -163.9599
  92   2.0000      -6.024440      -163.9333
  93   2.0000      -6.022986      -163.8938
  94   2.0000      -6.022733      -163.8869
  95   2.0000      -6.021951      -163.8656
  96   2.0000      -6.021301      -163.8479
  97   2.0000      -6.018692      -163.7769
  98   2.0000      -6.016622      -163.7206
  99   2.0000      -6.013961      -163.6482
 100   2.0000      -1.236070       -33.6352
 101   2.0000      -1.177023       -32.0284
 102   2.0000      -1.144873       -31.1536
 103   2.0000      -1.133312       -30.8390
 104   2.0000      -1.132263       -30.8104
 105   2.0000      -1.033469       -28.1221
 106   2.0000      -1.017849       -27.6971
 107   2.0000      -1.016890       -27.6710
 108   2.0000      -1.014737       -27.6124
 109   2.0000      -1.008775       -27.4502
 110   2.0000      -1.005236       -27.3539
 111   2.0000      -1.004107       -27.3231
 112   2.0000      -0.989122       -26.9154
 113   2.0000      -0.987873       -26.8814
 114   2.0000      -0.987148       -26.8617
 115   2.0000      -0.983574       -26.7644
 116   2.0000      -0.981416       -26.7057
 117   2.0000      -0.964468       -26.2445
 118   2.0000      -0.936586       -25.4858
 119   2.0000      -0.934292       -25.4234
 120   2.0000      -0.930711       -25.3259
 121   2.0000      -0.922230       -25.0951
 122   2.0000      -0.912657       -24.8347
 123   2.0000      -0.907355       -24.6904
 124   2.0000      -0.894230       -24.3332
 125   2.0000      -0.891921       -24.2704
 126   2.0000      -0.880220       -23.9520
 127   2.0000      -0.878108       -23.8945
 128   2.0000      -0.877830       -23.8870
 129   2.0000      -0.869271       -23.6541
 130   2.0000      -0.863796       -23.5051
 131   2.0000      -0.855726       -23.2855
 132   2.0000      -0.851341       -23.1662
 133   2.0000      -0.838114       -22.8063
 134   2.0000      -0.834417       -22.7057
 135   2.0000      -0.828681       -22.5496
 136   2.0000      -0.821530       -22.3550
 137   2.0000      -0.819995       -22.3132
 138   2.0000      -0.813912       -22.1477
 139   2.0000      -0.799236       -21.7483
 140   2.0000      -0.785896       -21.3853
 141   2.0000      -0.766436       -20.8558
 142   2.0000      -0.757656       -20.6169
 143   2.0000      -0.755057       -20.5461
 144   2.0000      -0.750398       -20.4194
 145   2.0000      -0.745786       -20.2939
 146   2.0000      -0.739554       -20.1243
 147   2.0000      -0.722142       -19.6505
 148   2.0000      -0.707381       -19.2488
 149   2.0000      -0.705233       -19.1904
 150   2.0000      -0.700184       -19.0530
 151   2.0000      -0.693476       -18.8704
 152   2.0000      -0.687700       -18.7133
 153   2.0000      -0.685699       -18.6588
 154   2.0000      -0.683174       -18.5901
 155   2.0000      -0.679008       -18.4767
 156   2.0000      -0.668204       -18.1828
 157   2.0000      -0.659737       -17.9524
 158   2.0000      -0.659430       -17.9440
 159   2.0000      -0.654351       -17.8058
 160   2.0000      -0.647094       -17.6083
 161   2.0000      -0.643324       -17.5057
 162   2.0000      -0.635167       -17.2838
 163   2.0000      -0.630138       -17.1469
 164   2.0000      -0.627374       -17.0717
 165   2.0000      -0.623169       -16.9573
 166   2.0000      -0.618887       -16.8408
 167   2.0000      -0.617488       -16.8027
 168   2.0000      -0.616910       -16.7870
 169   2.0000      -0.606064       -16.4918
 170   2.0000      -0.598468       -16.2851
 171   2.0000      -0.596260       -16.2251
 172   2.0000      -0.593366       -16.1463
 173   2.0000      -0.591373       -16.0921
 174   2.0000      -0.584432       -15.9032
 175   2.0000      -0.579879       -15.7793
 176   2.0000      -0.574288       -15.6272
 177   2.0000      -0.571802       -15.5595
 178   2.0000      -0.567885       -15.4529
 179   2.0000      -0.553702       -15.0670
 180   2.0000      -0.550423       -14.9778
 181   2.0000      -0.548376       -14.9221
 182   2.0000      -0.546627       -14.8745
 183   2.0000      -0.545411       -14.8414
 184   2.0000      -0.540213       -14.6999
 185   2.0000      -0.538100       -14.6424
 186   2.0000      -0.537948       -14.6383
 187   2.0000      -0.536958       -14.6114
 188   2.0000      -0.534180       -14.5358
 189   2.0000      -0.533405       -14.5147
 190   2.0000      -0.530873       -14.4458
 191   2.0000      -0.528760       -14.3883
 192   2.0000      -0.523357       -14.2413
 193   2.0000      -0.516283       -14.0488
 194   2.0000      -0.515684       -14.0325
 195   2.0000      -0.513843       -13.9824
 196   2.0000      -0.512828       -13.9548
 197   2.0000      -0.512213       -13.9380
 198   2.0000      -0.509757       -13.8712
 199   2.0000      -0.508614       -13.8401
 200   2.0000      -0.501325       -13.6417
 201   2.0000      -0.499003       -13.5786
 202   2.0000      -0.498672       -13.5695
 203   2.0000      -0.496669       -13.5150
 204   2.0000      -0.492376       -13.3982
 205   2.0000      -0.490886       -13.3577
 206   2.0000      -0.489478       -13.3194
 207   2.0000      -0.488528       -13.2935
 208   2.0000      -0.487857       -13.2753
 209   2.0000      -0.484901       -13.1948
 210   2.0000      -0.481548       -13.1036
 211   2.0000      -0.478767       -13.0279
 212   2.0000      -0.475838       -12.9482
 213   2.0000      -0.471560       -12.8318
 214   2.0000      -0.469499       -12.7757
 215   2.0000      -0.467943       -12.7334
 216   2.0000      -0.464373       -12.6362
 217   2.0000      -0.460389       -12.5278
 218   2.0000      -0.453831       -12.3494
 219   2.0000      -0.451138       -12.2761
 220   2.0000      -0.449220       -12.2239
 221   2.0000      -0.448667       -12.2088
 222   2.0000      -0.447831       -12.1861
 223   2.0000      -0.443656       -12.0725
 224   2.0000      -0.442604       -12.0439
 225   2.0000      -0.441473       -12.0131
 226   2.0000      -0.438626       -11.9356
 227   2.0000      -0.437379       -11.9017
 228   2.0000      -0.436672       -11.8825
 229   2.0000      -0.434687       -11.8284
 230   2.0000      -0.432706       -11.7745
 231   2.0000      -0.430345       -11.7103
 232   2.0000      -0.430259       -11.7080
 233   2.0000      -0.429165       -11.6782
 234   2.0000      -0.427646       -11.6368
 235   2.0000      -0.423303       -11.5187
 236   2.0000      -0.421071       -11.4579
 237   2.0000      -0.420642       -11.4463
 238   2.0000      -0.417925       -11.3723
 239   2.0000      -0.415355       -11.3024
 240   2.0000      -0.409338       -11.1386
 241   2.0000      -0.407223       -11.0811
 242   2.0000      -0.405365       -11.0305
 243   2.0000      -0.403277       -10.9737
 244   2.0000      -0.401174       -10.9165
 245   2.0000      -0.392631       -10.6840
 246   2.0000      -0.388416       -10.5693
 247   2.0000      -0.388256       -10.5650
 248   2.0000      -0.379223       -10.3192
 249   2.0000      -0.373809       -10.1719
 250   2.0000      -0.370351       -10.0778
 251   2.0000      -0.367574       -10.0022
 252   2.0000      -0.356670        -9.7055
 253   2.0000      -0.350319        -9.5327
 254   2.0000      -0.347241        -9.4489
 255   2.0000      -0.341484        -9.2923
 256   2.0000      -0.337253        -9.1771
 257   2.0000      -0.337090        -9.1727
 258   2.0000      -0.330607        -8.9963
 259   2.0000      -0.324593        -8.8326
 260   2.0000      -0.322541        -8.7768
 261   2.0000      -0.312075        -8.4920
 262   2.0000      -0.311203        -8.4683
 263   2.0000      -0.300297        -8.1715
 264   2.0000      -0.296764        -8.0754
 265   2.0000      -0.292231        -7.9520
 266   2.0000      -0.289423        -7.8756
 267   2.0000      -0.267500        -7.2790
 268   2.0000      -0.219011        -5.9596
 269   0.0000      -0.110435        -3.0051
 270   0.0000      -0.092444        -2.5155
 271   0.0000      -0.074059        -2.0153
 272   0.0000      -0.058308        -1.5866
 273   0.0000      -0.054751        -1.4899

MULLIKEN ATOMIC CHARGES
-----------------------
   0 C :    0.321780
   1 C :   -0.350953
   2 C :   -0.187727
   3 N :    0.145335
   4 C :   -0.198268
   5 N :    0.153696
   6 C :    0.011787
   7 C :   -0.009485
   8 C :   -0.071482
   9 C :    0.112595
  10 C :   -0.095879
  11 C :   -0.025564
  12 S :    0.140486
  13 C :   -0.049780
  14 C :    0.025867
  15 C :    0.159438
  16 O :   -0.191295
  17 C :   -0.097952
  18 C :   -0.055924
  19 C :   -0.087596
  20 S :    0.212643
  21 C :   -0.090488
  22 C :   -0.018784
  23 C :   -0.027923
  24 S :    0.088626
  25 C :    0.087002
  26 O :   -0.119343
  27 C :    0.094670
  28 O :   -0.131223
  29 S :    0.056535
  30 C :    0.014602
  31 C :   -0.005746
  32 C :   -0.015453
  33 C :   -0.014327
  34 C :    0.031956
  35 C :    0.035781
  36 C :   -0.047867
  37 S :    0.080706
  38 C :   -0.030797
  39 C :    0.029909
  40 C :    0.043029
  41 C :   -0.015937
  42 S :    0.076150
  43 C :   -0.024667
  44 C :    0.105842
  45 C :   -0.014283
  46 C :   -0.024267
  47 C :    0.034699
  48 C :    0.229618
  49 C :   -0.127048
  50 O :   -0.178533
  51 C :    0.129097
  52 N :   -0.062689
  53 C :    0.012612
  54 C :   -0.081685
  55 C :    0.259867
  56 C :   -0.274692
  57 C :   -0.194908
  58 N :    0.154628
  59 C :   -0.185314
  60 N :    0.161421
  61 C :    0.015118
  62 C :   -0.006980
  63 C :    0.132826
  64 O :   -0.129947
  65 C :   -0.063117
  66 C :    0.107416
  67 C :   -0.090889
  68 C :   -0.025743
  69 S :    0.140141
  70 C :   -0.049355
  71 C :    0.027692
  72 H :   -0.013623
  73 H :   -0.006807
  74 H :    0.037144
  75 H :   -0.007816
  76 H :    0.035638
  77 H :   -0.012316
  78 H :    0.036627
  79 H :   -0.012596
  80 H :   -0.008236
  81 H :   -0.007730
  82 H :   -0.010359
  83 H :   -0.005857
  84 H :   -0.013368
  85 H :   -0.015522
  86 H :   -0.013784
  87 H :   -0.001566
  88 H :    0.035830
  89 H :   -0.007036
  90 H :   -0.002233
  91 H :    0.038757
  92 H :   -0.004809
Sum of atomic charges:   -0.0000000

LOEWDIN ATOMIC CHARGES
----------------------
   0 C :    0.074999
   1 C :   -0.144951
   2 C :   -0.017886
   3 N :   -0.057673
   4 C :   -0.026467
   5 N :   -0.049701
   6 C :   -0.020258
   7 C :   -0.053317
   8 C :    0.021913
   9 C :   -0.036924
  10 C :   -0.145812
  11 C :   -0.009412
  12 S :    0.430048
  13 C :   -0.150997
  14 C :   -0.058355
  15 C :    0.085334
  16 O :   -0.174548
  17 C :   -0.109302
  18 C :    0.039249
  19 C :   -0.213043
  20 S :    0.524657
  21 C :   -0.160874
  22 C :   -0.233326
  23 C :   -0.181389
  24 S :    0.412632
  25 C :   -0.110777
  26 O :   -0.094357
  27 C :   -0.111747
  28 O :   -0.104786
  29 S :    0.398326
  30 C :   -0.066795
  31 C :   -0.010633
  32 C :   -0.066979
  33 C :   -0.126785
  34 C :   -0.038943
  35 C :   -0.018594
  36 C :   -0.184583
  37 S :    0.387053
  38 C :   -0.164421
  39 C :   -0.037746
  40 C :   -0.016807
  41 C :   -0.146988
  42 S :    0.396218
  43 C :   -0.033062
  44 C :   -0.024039
  45 C :   -0.011794
  46 C :   -0.010685
  47 C :   -0.022913
  48 C :    0.042717
  49 C :   -0.041141
  50 O :    0.010050
  51 C :    0.057681
  52 N :   -0.069672
  53 C :    0.031163
  54 C :   -0.043006
  55 C :    0.063595
  56 C :   -0.109200
  57 C :   -0.016297
  58 N :   -0.048099
  59 C :   -0.018133
  60 N :   -0.051980
  61 C :   -0.015280
  62 C :   -0.057854
  63 C :    0.084197
  64 O :   -0.129610
  65 C :    0.026949
  66 C :   -0.036111
  67 C :   -0.142401
  68 C :   -0.012831
  69 S :    0.429329
  70 C :   -0.149358
  71 C :   -0.056404
  72 H :    0.039514
  73 H :    0.040838
  74 H :    0.028884
  75 H :    0.034693
  76 H :    0.038513
  77 H :    0.030251
  78 H :    0.007718
  79 H :    0.033872
  80 H :    0.035389
  81 H :    0.034311
  82 H :    0.033620
  83 H :    0.036088
  84 H :    0.037079
  85 H :    0.030357
  86 H :    0.039797
  87 H :    0.021794
  88 H :    0.057656
  89 H :    0.042170
  90 H :    0.040827
  91 H :    0.029445
  92 H :    0.036123

  Mayer bond orders larger than 0.100000
B(  0-C ,  1-C ) :   1.6139 B(  0-C ,  6-C ) :   0.9967 B(  0-C , 17-C ) :   1.0870
B(  1-C ,  2-C ) :   1.1485 B(  1-C ,  4-C ) :   1.1449 B(  2-C ,  3-N ) :   2.9660
B(  4-C ,  5-N ) :   2.9688 B(  6-C ,  7-C ) :   1.2700 B(  6-C , 11-C ) :   1.4186
B(  7-C ,  8-C ) :   1.4221 B(  7-C , 15-C ) :   0.9629 B(  8-C ,  9-C ) :   1.2408
B(  8-C , 72-H ) :   1.0178 B(  9-C , 10-C ) :   1.3066 B(  9-C , 14-C ) :   1.1726
B( 10-C , 11-C ) :   1.3152 B( 10-C , 12-S ) :   1.0999 B( 11-C , 73-H ) :   0.9832
B( 12-S , 13-C ) :   1.1273 B( 13-C , 14-C ) :   1.6276 B( 13-C , 74-H ) :   0.9686
B( 14-C , 75-H ) :   0.9991 B( 15-C , 16-O ) :   2.1110 B( 15-C , 17-C ) :   0.9807
B( 17-C , 18-C ) :   1.5172 B( 18-C , 19-C ) :   1.2872 B( 18-C , 76-H ) :   0.9258
B( 19-C , 20-S ) :   1.0867 B( 19-C , 23-C ) :   1.4099 B( 20-S , 21-C ) :   1.1162
B( 21-C , 22-C ) :   1.3959 B( 21-C , 30-C ) :   1.2057 B( 22-C , 23-C ) :   1.4044
B( 22-C , 29-S ) :   0.9567 B( 23-C , 24-S ) :   0.9995 B( 24-S , 25-C ) :   1.0524
B( 24-S , 26-O ) :   0.1367 B( 25-C , 26-O ) :   2.1696 B( 25-C , 27-C ) :   0.7734
B( 27-C , 28-O ) :   2.1590 B( 27-C , 29-S ) :   1.0541 B( 28-O , 29-S ) :   0.1389
B( 30-C , 31-C ) :   1.5608 B( 30-C , 77-H ) :   0.9583 B( 31-C , 32-C ) :   1.2174
B( 31-C , 78-H ) :   0.9549 B( 32-C , 33-C ) :   1.4977 B( 32-C , 79-H ) :   0.9892
B( 33-C , 34-C ) :   1.1613 B( 33-C , 37-S ) :   1.0595 B( 34-C , 35-C ) :   1.5658
B( 34-C , 80-H ) :   1.0001 B( 35-C , 36-C ) :   1.2052 B( 35-C , 81-H ) :   0.9938
B( 36-C , 37-S ) :   1.0435 B( 36-C , 38-C ) :   1.4913 B( 38-C , 39-C ) :   1.1839
B( 38-C , 42-S ) :   1.0566 B( 39-C , 40-C ) :   1.5984 B( 39-C , 82-H ) :   0.9929
B( 40-C , 41-C ) :   1.1317 B( 40-C , 83-H ) :   0.9993 B( 41-C , 42-S ) :   1.0261
B( 41-C , 43-C ) :   1.5979 B( 43-C , 44-C ) :   1.1209 B( 43-C , 84-H ) :   0.9717
B( 44-C , 45-C ) :   1.2612 B( 44-C , 49-C ) :   1.3071 B( 45-C , 46-C ) :   1.4321
B( 45-C , 85-H ) :   0.9937 B( 46-C , 47-C ) :   1.2685 B( 46-C , 86-H ) :   1.0168
B( 47-C , 48-C ) :   1.2540 B( 47-C , 52-N ) :   1.3106 B( 48-C , 49-C ) :   1.3719
B( 48-C , 50-O ) :   1.1301 B( 49-C , 87-H ) :   0.9865 B( 50-O , 51-C ) :   1.1369
B( 51-C , 52-N ) :   1.6494 B( 51-C , 53-C ) :   1.0766 B( 53-C , 54-C ) :   1.6923
B( 53-C , 88-H ) :   0.9493 B( 54-C , 55-C ) :   1.0163 B( 54-C , 63-C ) :   0.9238
B( 55-C , 56-C ) :   1.6999 B( 55-C , 61-C ) :   1.0178 B( 56-C , 57-C ) :   1.1406
B( 56-C , 59-C ) :   1.1458 B( 57-C , 58-N ) :   2.9883 B( 59-C , 60-N ) :   2.9927
B( 61-C , 62-C ) :   1.2637 B( 61-C , 68-C ) :   1.4183 B( 62-C , 63-C ) :   0.9236
B( 62-C , 65-C ) :   1.4233 B( 63-C , 64-O ) :   2.2840 B( 65-C , 66-C ) :   1.2598
B( 65-C , 89-H ) :   1.0154 B( 66-C , 67-C ) :   1.2985 B( 66-C , 71-C ) :   1.1711
B( 67-C , 68-C ) :   1.3216 B( 67-C , 69-S ) :   1.0994 B( 68-C , 90-H ) :   0.9853
B( 69-S , 70-C ) :   1.1233 B( 70-C , 71-C ) :   1.6329 B( 70-C , 91-H ) :   0.9684
B( 71-C , 92-H ) :   0.9993

-----------------------------------------------------------------------------
         ABSORPTION SPECTRUM VIA TRANSITION ELECTRIC DIPOLE MOMENTS
-----------------------------------------------------------------------------
State   Energy  Wavelength   fosc         T2         TX        TY        TZ
        (cm-1)    (nm)                  (au**2)     (au)      (au)      (au)
-----------------------------------------------------------------------------
   0   10732.3    931.8   1.419863919  43.55414   4.77907  -1.15705  -4.40180
   1   16072.3    622.2   0.530568981  10.86773   1.33052  -2.94281   0.66130
   2   19997.3    500.1   0.060598461   0.99762  -0.64633  -0.39473   0.65120
   3   20711.8    482.8   0.403058949   6.40659  -1.48112   2.04887   0.12256
   4   21096.4    474.0   0.334866887   5.22564   0.58459  -2.11446   0.64260
   5   22933.2    436.0   0.051563445   0.74021   0.35520  -0.72625   0.29427
   6   24789.1    403.4   0.124639421   1.65527  -0.49236  -0.44910   1.10053
   7   25242.0    396.2   0.089809793   1.17132   0.39448  -0.72154   0.70362
   8   25652.5    389.8   0.088159737   1.13140   0.55307   0.84926  -0.32293
   9   26270.5    380.7   0.362221585   4.53923  -0.43463   2.04308  -0.41969
  10   26578.0    376.3   0.169025103   2.09365  -1.04100  -0.62674   0.78561
  11   27481.0    363.9   0.013203087   0.15817  -0.36814   0.00612   0.15035
  12   27958.6    357.7   0.032345132   0.38086   0.11020   0.48217  -0.36910
  13   28223.2    354.3   0.134229773   1.56574  -0.09442   1.17574  -0.41767
  14   28319.7    353.1   0.048776973   0.56702   0.09122  -0.73831   0.11662
  15   29078.1    343.9   0.155086370   1.75583   0.36717   1.08985  -0.65821
  16   29426.7    339.8   0.024327809   0.27217  -0.01037  -0.52071  -0.03036
  17   29587.8    338.0   0.042838039   0.47664  -0.14777  -0.58398   0.33731
  18   29692.0    336.8   0.011831917   0.13119  -0.14208  -0.27411   0.18937
  19   30759.7    325.1   0.013525380   0.14476  -0.17076  -0.32402   0.10300
  20   30845.1    324.2   0.027139763   0.28966   0.46002  -0.03894  -0.27664
  21   31314.6    319.3   0.060694755   0.63809  -0.16893   0.71451  -0.31467
  22   31882.4    313.7   0.202674925   2.09278   0.85490   1.06145  -0.48503
  23   32255.8    310.0   0.246968577   2.52063  -0.97694  -0.77131   0.98554
  24   32544.9    307.3   0.011648778   0.11783  -0.27285  -0.20822  -0.00553
  25   32741.8    305.4   0.368345530   3.70363   1.05349   1.47155  -0.65447
  26   32855.3    304.4   0.158585956   1.58904  -1.01722  -0.11774   0.73515
  27   33531.5    298.2   0.010472759   0.10282  -0.15504  -0.21900   0.17556
  28   33588.8    297.7   0.311470869   3.05280   0.90139  -1.41732  -0.48113
  29   33783.3    296.0   0.477348730   4.65167   0.46824   2.05354  -0.46413
  30   34016.8    294.0   0.031584308   0.30567  -0.39910  -0.29889   0.23885
  31   34378.6    290.9   0.099105686   0.94904   0.83327  -0.15868  -0.47908
  32   34467.6    290.1   0.009431696   0.09009   0.00454   0.17503  -0.24378
  33   34700.8    288.2   0.029267319   0.27766   0.11309   0.41289  -0.30724
  34   34756.2    287.7   0.033378540   0.31616   0.20415  -0.52144  -0.05088
  35   35025.8    285.5   0.001856834   0.01745   0.09554  -0.07906  -0.04554
  36   35102.2    284.9   0.015501388   0.14538  -0.28226  -0.08837  -0.24063
  37   35272.2    283.5   0.008818993   0.08231  -0.19169   0.21122  -0.03091
  38   35565.7    281.2   0.007451253   0.06897  -0.13822  -0.16047   0.15530
  39   35767.5    279.6   0.062296513   0.57339  -0.26871  -0.70275   0.08560
  40   35993.7    277.8   0.032211513   0.29462   0.50687   0.19321   0.01912
  41   36484.3    274.1   0.127376086   1.14936   0.84981  -0.52207  -0.39324
  42   36786.1    271.8   0.123917320   1.10898  -0.63685   0.73720   0.39992
  43   36841.0    271.4   0.086701137   0.77476   0.16744   0.85824  -0.10077
  44   36983.2    270.4   0.035344420   0.31462  -0.43851  -0.28696   0.19996
  45   37499.9    266.7   0.081524629   0.71570  -0.13125  -0.75871   0.35048
  46   37935.2    263.6   0.014808042   0.12851   0.21451   0.28671   0.01709
  47   38197.9    261.8   0.003242357   0.02794  -0.08509   0.06861   0.12648
  48   38375.5    260.6   0.048203167   0.41352   0.33059  -0.54848   0.05831
  49   38478.8    259.9   0.120820321   1.03370  -0.14710  -1.00283   0.07997
  50   38702.9    258.4   0.071283578   0.60635   0.46348  -0.51416  -0.35662
  51   39197.0    255.1   0.030781385   0.25853  -0.12124   0.46131   0.17613
  52   39410.4    253.7   0.067034025   0.55996   0.24120   0.57997  -0.40671
  53   39556.8    252.8   0.031544262   0.26253  -0.29925  -0.11174   0.40061
  54   39737.4    251.7   0.041386301   0.34287   0.45068   0.06994  -0.36724
  55   39932.7    250.4   0.015024570   0.12387  -0.23516   0.24876   0.08175
  56   40015.3    249.9   0.117496118   0.96666  -0.87112   0.33923   0.30452
  57   40199.4    248.8   0.141530979   1.15907  -0.80211   0.20359   0.68865

FINAL SINGLE POINT ENERGY     -5541.271567943697

DIPOLE MOMENT
-------------
                                X             Y             Z
Electronic contribution:     12.66395     -23.36896      -1.88171
Nuclear contribution   :    -13.19117      26.97287       0.35216
                        -----------------------------------------
Total Dipole Moment    :     -0.52722       3.60391      -1.52955
                        -----------------------------------------
Magnitude (a.u.)       :      3.95040
Magnitude (Debye)      :     10.04112

Rotational constants in cm-1:     0.000918     0.000277     0.000217
Rotational constants in MHz :    27.528651     8.293394     6.507862

                             ****ORCA TERMINATED NORMALLY****
TOTAL RUN TIME: 0 days 0 hours 15 minutes 36 seconds 317 msec
