                         Program Version 4.2.0 -  RELEASE  -
|  1> # ORCA input file
|  2> # SCF done       -197.511151464910          0.000996174421
|  3> ! CAM-B3LYP def2-SVP def2/J RIJCOSX Grid4 TightSCF
|  4> %maxcore 5000
|  5> %tddft
|  6>     Mode sTDDFT
|  7>     Ethresh 5.0
|  8>     maxcore 5000
|  9> end
| 10>
| 11> %pal
| 12>   nprocs 6
| 13>   end
| 14> * xyz 0 1
| 15>    C       -3.65132        -1.30294         0.59701
| 16>    C       -3.97944        -2.30762        -0.27187
| 17>    C       -3.34067        -3.56577        -0.30269
| 18>    N       -2.85676        -4.60411        -0.36947
| 19>    C       -4.95865        -2.20192        -1.28384
| 20>    N       -5.71301        -2.17810        -2.14813
| 21>    C       -2.56811        -1.32345         1.56781
| 22>    C       -2.44662        -0.03351         2.14581
| 23>    C       -1.49904         0.26363         3.09682
| 24>    C       -0.62782        -0.75468         3.49264
| 25>    C       -0.75943        -2.04105         2.91311
| 26>    C       -1.71916        -2.34395         1.95507
| 27>    S        0.41427        -3.14330         3.55828
| 28>    C        1.06043        -1.90054         4.57260
| 29>    C        0.43128        -0.71200         4.44230
| 30>    C       -3.47365         0.86095         1.59050
| 31>    O       -3.69865         2.00173         1.92963
| 32>    C       -4.25164         0.02261         0.62820
| 33>    C       -5.41586         0.40547         0.05299
| 34>    C       -5.86453         1.76964        -0.01129
| 35>    C       -7.21716         2.10494         0.18760
| 36>    C       -7.65313         3.47888         0.20861
| 37>    N       -8.94083         3.77038         0.47801
| 38>    C       -9.78061         2.79033         0.68067
| 39>    C       -9.35382         1.41605         0.61599
| 40>    N       -8.10343         1.11313         0.39789
| 41>    C      -10.30568         0.38092         0.80601
| 42>    N      -11.10211        -0.42298         0.97790
| 43>    C      -11.13902         3.09943         0.92934
| 44>    N      -12.25343         3.32820         1.07039
| 45>    C       -6.76701         4.54299        -0.03400
| 46>    C       -5.45285         4.20526        -0.35999
| 47>    C       -4.99957         2.82798        -0.33195
| 48>    N       -3.71926         2.72485        -0.69901
| 49>    S       -3.15059         4.18764        -1.00085
| 50>    N       -4.46919         5.03626        -0.72699
| 51>    C       -7.28879         5.92903        -0.00720
| 52>    O       -6.35733         6.99584         0.07363
| 53>    C       -6.92473         7.66267        -1.05486
| 54>    C       -7.81461         6.45724        -1.39000
| 55>    C       -9.28657         6.51373        -1.46728
| 56>    C      -10.06098         7.42435        -0.85753
| 57>    C      -11.49312         7.38779        -0.75179
| 58>    C      -12.31113         6.26037        -0.99843
| 59>    C      -13.72049         6.26139        -0.68241
| 60>    N      -14.46671         5.17806        -0.95395
| 61>    C      -13.89798         4.08830        -1.39513
| 62>    C      -12.48390         4.05774        -1.62628
| 63>    N      -11.75703         5.13394        -1.47089
| 64>    C      -11.81635         2.87054        -2.01755
| 65>    N      -11.24906         1.91286        -2.28923
| 66>    C      -14.71272         2.95416        -1.63658
| 67>    N      -15.36372         2.02895        -1.81452
| 68>    C      -14.36602         7.37957        -0.11260
| 69>    C      -13.57422         8.52650         0.05120
| 70>    C      -12.16011         8.51733        -0.23857
| 71>    N      -11.59297         9.69192         0.06122
| 72>    S      -12.71119        10.67910         0.63598
| 73>    N      -13.97319         9.70197         0.54515
| 74>    C      -15.75023         7.36631         0.25179
| 75>    C      -16.47260         6.30674         0.67863
| 76>    C      -16.08657         4.98073         1.13689
| 77>    C      -14.96629         4.65767         1.85380
| 78>    C      -14.77780         3.40032         2.46856
| 79>    N      -14.61458         2.40785         3.01964
| 80>    C      -13.92124         5.56453         2.11398
| 81>    N      -13.05517         6.28537         2.33734
| 82>    C      -17.23928         4.11611         0.93539
| 83>    C      -18.37133         4.92131         0.63727
| 84>    C      -17.96670         6.33497         0.58660
| 85>    O      -18.65945         7.31376         0.44019
| 86>    C      -19.61513         4.38063         0.41013
| 87>    C      -19.74167         2.98967         0.46306
| 88>    C      -18.59922         2.19627         0.73825
| 89>    C      -17.34366         2.74007         0.98074
| 90>    S      -18.98829         0.50845         0.72753
| 91>    C      -20.64247         0.86664         0.37208
| 92>    C      -20.90010         2.18848         0.26002
| 93>    H       -1.43240         1.25446         3.51889
| 94>    H       -1.78630        -3.33996         1.54995
| 95>    H        1.88442        -2.14102         5.21596
| 96>    H        0.69468         0.17257         4.99332
| 97>    H       -6.09568        -0.32851        -0.36050
| 98>    H       -8.06135         6.01391         0.76689
| 99>    H       -6.16830         7.90821        -1.80246
|100>    H       -7.46186         8.56645        -0.75575
|101>    H       -7.40123         5.86873        -2.20965
|102>    H       -9.74910         5.67738        -1.96847
|103>    H       -9.61933         8.28634        -0.37490
|104>    H      -16.28526         8.30083         0.12081
|105>    H      -20.46270         5.01195         0.19232
|106>    H      -16.49657         2.10142         1.17022
|107>    H      -21.33280         0.05262         0.26392
|108>    H      -21.86962         2.59777         0.04049
|109> *
|110>
|111>                          ****END OF INPUT****

CARTESIAN COORDINATES (ANGSTROEM)
---------------------------------
  C     -3.651320   -1.302940    0.597010
  C     -3.979440   -2.307620   -0.271870
  C     -3.340670   -3.565770   -0.302690
  N     -2.856760   -4.604110   -0.369470
  C     -4.958650   -2.201920   -1.283840
  N     -5.713010   -2.178100   -2.148130
  C     -2.568110   -1.323450    1.567810
  C     -2.446620   -0.033510    2.145810
  C     -1.499040    0.263630    3.096820
  C     -0.627820   -0.754680    3.492640
  C     -0.759430   -2.041050    2.913110
  C     -1.719160   -2.343950    1.955070
  S      0.414270   -3.143300    3.558280
  C      1.060430   -1.900540    4.572600
  C      0.431280   -0.712000    4.442300
  C     -3.473650    0.860950    1.590500
  O     -3.698650    2.001730    1.929630
  C     -4.251640    0.022610    0.628200
  C     -5.415860    0.405470    0.052990
  C     -5.864530    1.769640   -0.011290
  C     -7.217160    2.104940    0.187600
  C     -7.653130    3.478880    0.208610
  N     -8.940830    3.770380    0.478010
  C     -9.780610    2.790330    0.680670
  C     -9.353820    1.416050    0.615990
  N     -8.103430    1.113130    0.397890
  C    -10.305680    0.380920    0.806010
  N    -11.102110   -0.422980    0.977900
  C    -11.139020    3.099430    0.929340
  N    -12.253430    3.328200    1.070390
  C     -6.767010    4.542990   -0.034000
  C     -5.452850    4.205260   -0.359990
  C     -4.999570    2.827980   -0.331950
  N     -3.719260    2.724850   -0.699010
  S     -3.150590    4.187640   -1.000850
  N     -4.469190    5.036260   -0.726990
  C     -7.288790    5.929030   -0.007200
  O     -6.357330    6.995840    0.073630
  C     -6.924730    7.662670   -1.054860
  C     -7.814610    6.457240   -1.390000
  C     -9.286570    6.513730   -1.467280
  C    -10.060980    7.424350   -0.857530
  C    -11.493120    7.387790   -0.751790
  C    -12.311130    6.260370   -0.998430
  C    -13.720490    6.261390   -0.682410
  N    -14.466710    5.178060   -0.953950
  C    -13.897980    4.088300   -1.395130
  C    -12.483900    4.057740   -1.626280
  N    -11.757030    5.133940   -1.470890
  C    -11.816350    2.870540   -2.017550
  N    -11.249060    1.912860   -2.289230
  C    -14.712720    2.954160   -1.636580
  N    -15.363720    2.028950   -1.814520
  C    -14.366020    7.379570   -0.112600
  C    -13.574220    8.526500    0.051200
  C    -12.160110    8.517330   -0.238570
  N    -11.592970    9.691920    0.061220
  S    -12.711190   10.679100    0.635980
  N    -13.973190    9.701970    0.545150
  C    -15.750230    7.366310    0.251790
  C    -16.472600    6.306740    0.678630
  C    -16.086570    4.980730    1.136890
  C    -14.966290    4.657670    1.853800
  C    -14.777800    3.400320    2.468560
  N    -14.614580    2.407850    3.019640
  C    -13.921240    5.564530    2.113980
  N    -13.055170    6.285370    2.337340
  C    -17.239280    4.116110    0.935390
  C    -18.371330    4.921310    0.637270
  C    -17.966700    6.334970    0.586600
  O    -18.659450    7.313760    0.440190
  C    -19.615130    4.380630    0.410130
  C    -19.741670    2.989670    0.463060
  C    -18.599220    2.196270    0.738250
  C    -17.343660    2.740070    0.980740
  S    -18.988290    0.508450    0.727530
  C    -20.642470    0.866640    0.372080
  C    -20.900100    2.188480    0.260020
  H     -1.432400    1.254460    3.518890
  H     -1.786300   -3.339960    1.549950
  H      1.884420   -2.141020    5.215960
  H      0.694680    0.172570    4.993320
  H     -6.095680   -0.328510   -0.360500
  H     -8.061350    6.013910    0.766890
  H     -6.168300    7.908210   -1.802460
  H     -7.461860    8.566450   -0.755750
  H     -7.401230    5.868730   -2.209650
  H     -9.749100    5.677380   -1.968470
  H     -9.619330    8.286340   -0.374900
  H    -16.285260    8.300830    0.120810
  H    -20.462700    5.011950    0.192320
  H    -16.496570    2.101420    1.170220
  H    -21.332800    0.052620    0.263920
  H    -21.869620    2.597770    0.040490

 Total Charge           Charge          ....    0
 Multiplicity           Mult            ....    1
 Number of Electrons    NEL             ....  546
 Basis Dimension        Dim             .... 1188

ORBITAL ENERGIES
----------------

  NO   OCC          E(Eh)            E(eV)
   0   2.0000     -89.052911     -2423.2529
   1   2.0000     -89.050730     -2423.1936
   2   2.0000     -88.970891     -2421.0210
   3   2.0000     -88.959110     -2420.7005
   4   2.0000     -19.222072      -523.0592
   5   2.0000     -19.219422      -522.9871
   6   2.0000     -19.211934      -522.7833
   7   2.0000     -14.474578      -393.8733
   8   2.0000     -14.468814      -393.7165
   9   2.0000     -14.464623      -393.6024
  10   2.0000     -14.464398      -393.5963
  11   2.0000     -14.457898      -393.4194
  12   2.0000     -14.456755      -393.3883
  13   2.0000     -14.454985      -393.3401
  14   2.0000     -14.453734      -393.3061
  15   2.0000     -14.445874      -393.0922
  16   2.0000     -14.439674      -392.9235
  17   2.0000     -14.434080      -392.7713
  18   2.0000     -14.430050      -392.6616
  19   2.0000     -14.419755      -392.3815
  20   2.0000     -14.417475      -392.3195
  21   2.0000     -14.413341      -392.2070
  22   2.0000     -14.402285      -391.9061
  23   2.0000     -10.390778      -282.7475
  24   2.0000     -10.390281      -282.7339
  25   2.0000     -10.385809      -282.6122
  26   2.0000     -10.385444      -282.6023
  27   2.0000     -10.373253      -282.2706
  28   2.0000     -10.363201      -281.9970
  29   2.0000     -10.358429      -281.8672
  30   2.0000     -10.355769      -281.7948
  31   2.0000     -10.352541      -281.7070
  32   2.0000     -10.350910      -281.6626
  33   2.0000     -10.348826      -281.6059
  34   2.0000     -10.348808      -281.6054
  35   2.0000     -10.348331      -281.5924
  36   2.0000     -10.345166      -281.5063
  37   2.0000     -10.344922      -281.4996
  38   2.0000     -10.344431      -281.4863
  39   2.0000     -10.344312      -281.4830
  40   2.0000     -10.341409      -281.4040
  41   2.0000     -10.337260      -281.2911
  42   2.0000     -10.335494      -281.2431
  43   2.0000     -10.333655      -281.1930
  44   2.0000     -10.328203      -281.0447
  45   2.0000     -10.327183      -281.0169
  46   2.0000     -10.326833      -281.0074
  47   2.0000     -10.326482      -280.9979
  48   2.0000     -10.325567      -280.9730
  49   2.0000     -10.322885      -280.9000
  50   2.0000     -10.322352      -280.8855
  51   2.0000     -10.322058      -280.8775
  52   2.0000     -10.321746      -280.8690
  53   2.0000     -10.319347      -280.8037
  54   2.0000     -10.318676      -280.7855
  55   2.0000     -10.317588      -280.7558
  56   2.0000     -10.316258      -280.7196
  57   2.0000     -10.313763      -280.6517
  58   2.0000     -10.311620      -280.5934
  59   2.0000     -10.310448      -280.5616
  60   2.0000     -10.308767      -280.5158
  61   2.0000     -10.307959      -280.4938
  62   2.0000     -10.307329      -280.4767
  63   2.0000     -10.306856      -280.4638
  64   2.0000     -10.305849      -280.4364
  65   2.0000     -10.303977      -280.3855
  66   2.0000     -10.300289      -280.2851
  67   2.0000     -10.299940      -280.2756
  68   2.0000     -10.298986      -280.2496
  69   2.0000     -10.296207      -280.1740
  70   2.0000     -10.295708      -280.1604
  71   2.0000     -10.295423      -280.1527
  72   2.0000     -10.293522      -280.1010
  73   2.0000     -10.293401      -280.0977
  74   2.0000     -10.292914      -280.0844
  75   2.0000     -10.289437      -279.9898
  76   2.0000     -10.286185      -279.9013
  77   2.0000     -10.282247      -279.7942
  78   2.0000      -8.144090      -221.6120
  79   2.0000      -8.141981      -221.5546
  80   2.0000      -8.067198      -219.5196
  81   2.0000      -8.055381      -219.1981
  82   2.0000      -6.114858      -166.3938
  83   2.0000      -6.112854      -166.3392
  84   2.0000      -6.107610      -166.1965
  85   2.0000      -6.107001      -166.1799
  86   2.0000      -6.105196      -166.1308
  87   2.0000      -6.105064      -166.1272
  88   2.0000      -6.036723      -164.2676
  89   2.0000      -6.032383      -164.1495
  90   2.0000      -6.028855      -164.0535
  91   2.0000      -6.024860      -163.9448
  92   2.0000      -6.020574      -163.8281
  93   2.0000      -6.017071      -163.7328
  94   2.0000      -1.151717       -31.3398
  95   2.0000      -1.146548       -31.1991
  96   2.0000      -1.146396       -31.1950
  97   2.0000      -1.136667       -30.9303
  98   2.0000      -1.129172       -30.7263
  99   2.0000      -1.127301       -30.6754
 100   2.0000      -1.125083       -30.6151
 101   2.0000      -1.056946       -28.7610
 102   2.0000      -1.052883       -28.6504
 103   2.0000      -1.028301       -27.9815
 104   2.0000      -1.024323       -27.8732
 105   2.0000      -1.020695       -27.7745
 106   2.0000      -1.014533       -27.6068
 107   2.0000      -1.012209       -27.5436
 108   2.0000      -1.010314       -27.4921
 109   2.0000      -1.008682       -27.4476
 110   2.0000      -1.001966       -27.2649
 111   2.0000      -1.000138       -27.2151
 112   2.0000      -0.999542       -27.1989
 113   2.0000      -0.996907       -27.1272
 114   2.0000      -0.990560       -26.9545
 115   2.0000      -0.986907       -26.8551
 116   2.0000      -0.985243       -26.8098
 117   2.0000      -0.983750       -26.7692
 118   2.0000      -0.976957       -26.5844
 119   2.0000      -0.936888       -25.4940
 120   2.0000      -0.929114       -25.2825
 121   2.0000      -0.921316       -25.0703
 122   2.0000      -0.917828       -24.9754
 123   2.0000      -0.912864       -24.8403
 124   2.0000      -0.911674       -24.8079
 125   2.0000      -0.900719       -24.5098
 126   2.0000      -0.894096       -24.3296
 127   2.0000      -0.885881       -24.1060
 128   2.0000      -0.882291       -24.0084
 129   2.0000      -0.874873       -23.8065
 130   2.0000      -0.862009       -23.4565
 131   2.0000      -0.851761       -23.1776
 132   2.0000      -0.840289       -22.8654
 133   2.0000      -0.832688       -22.6586
 134   2.0000      -0.827676       -22.5222
 135   2.0000      -0.821320       -22.3493
 136   2.0000      -0.816754       -22.2250
 137   2.0000      -0.813946       -22.1486
 138   2.0000      -0.803275       -21.8582
 139   2.0000      -0.802481       -21.8366
 140   2.0000      -0.775462       -21.1014
 141   2.0000      -0.771390       -20.9906
 142   2.0000      -0.761288       -20.7157
 143   2.0000      -0.753921       -20.5152
 144   2.0000      -0.746503       -20.3134
 145   2.0000      -0.742075       -20.1929
 146   2.0000      -0.729077       -19.8392
 147   2.0000      -0.721094       -19.6220
 148   2.0000      -0.712662       -19.3925
 149   2.0000      -0.706869       -19.2349
 150   2.0000      -0.702873       -19.1261
 151   2.0000      -0.701360       -19.0850
 152   2.0000      -0.697297       -18.9744
 153   2.0000      -0.694100       -18.8874
 154   2.0000      -0.683778       -18.6066
 155   2.0000      -0.681232       -18.5373
 156   2.0000      -0.678009       -18.4496
 157   2.0000      -0.671349       -18.2683
 158   2.0000      -0.665694       -18.1145
 159   2.0000      -0.662267       -18.0212
 160   2.0000      -0.656580       -17.8665
 161   2.0000      -0.655648       -17.8411
 162   2.0000      -0.652310       -17.7503
 163   2.0000      -0.636965       -17.3327
 164   2.0000      -0.635756       -17.2998
 165   2.0000      -0.626974       -17.0608
 166   2.0000      -0.624454       -16.9923
 167   2.0000      -0.621764       -16.9191
 168   2.0000      -0.616306       -16.7705
 169   2.0000      -0.613329       -16.6895
 170   2.0000      -0.604959       -16.4618
 171   2.0000      -0.600170       -16.3314
 172   2.0000      -0.596922       -16.2431
 173   2.0000      -0.593652       -16.1541
 174   2.0000      -0.590727       -16.0745
 175   2.0000      -0.589760       -16.0482
 176   2.0000      -0.584587       -15.9074
 177   2.0000      -0.577956       -15.7270
 178   2.0000      -0.572406       -15.5759
 179   2.0000      -0.566795       -15.4233
 180   2.0000      -0.563756       -15.3406
 181   2.0000      -0.562131       -15.2964
 182   2.0000      -0.558702       -15.2031
 183   2.0000      -0.550185       -14.9713
 184   2.0000      -0.547229       -14.8909
 185   2.0000      -0.543583       -14.7917
 186   2.0000      -0.543114       -14.7789
 187   2.0000      -0.538550       -14.6547
 188   2.0000      -0.537727       -14.6323
 189   2.0000      -0.537282       -14.6202
 190   2.0000      -0.531528       -14.4636
 191   2.0000      -0.529243       -14.4014
 192   2.0000      -0.527013       -14.3407
 193   2.0000      -0.522523       -14.2186
 194   2.0000      -0.522485       -14.2175
 195   2.0000      -0.514973       -14.0131
 196   2.0000      -0.511846       -13.9280
 197   2.0000      -0.507892       -13.8204
 198   2.0000      -0.505861       -13.7652
 199   2.0000      -0.504326       -13.7234
 200   2.0000      -0.501153       -13.6371
 201   2.0000      -0.496934       -13.5223
 202   2.0000      -0.494619       -13.4593
 203   2.0000      -0.494263       -13.4496
 204   2.0000      -0.490346       -13.3430
 205   2.0000      -0.489929       -13.3316
 206   2.0000      -0.487379       -13.2622
 207   2.0000      -0.486846       -13.2478
 208   2.0000      -0.485739       -13.2176
 209   2.0000      -0.484254       -13.1772
 210   2.0000      -0.480557       -13.0766
 211   2.0000      -0.478309       -13.0154
 212   2.0000      -0.477749       -13.0002
 213   2.0000      -0.471591       -12.8326
 214   2.0000      -0.466915       -12.7054
 215   2.0000      -0.464603       -12.6425
 216   2.0000      -0.462742       -12.5918
 217   2.0000      -0.460833       -12.5399
 218   2.0000      -0.458691       -12.4816
 219   2.0000      -0.458171       -12.4675
 220   2.0000      -0.455869       -12.4048
 221   2.0000      -0.453150       -12.3308
 222   2.0000      -0.451131       -12.2759
 223   2.0000      -0.450237       -12.2516
 224   2.0000      -0.449552       -12.2329
 225   2.0000      -0.447877       -12.1873
 226   2.0000      -0.445900       -12.1336
 227   2.0000      -0.445488       -12.1223
 228   2.0000      -0.444420       -12.0933
 229   2.0000      -0.443159       -12.0590
 230   2.0000      -0.440017       -11.9735
 231   2.0000      -0.438100       -11.9213
 232   2.0000      -0.436625       -11.8812
 233   2.0000      -0.433388       -11.7931
 234   2.0000      -0.430023       -11.7015
 235   2.0000      -0.429630       -11.6908
 236   2.0000      -0.427778       -11.6404
 237   2.0000      -0.426693       -11.6109
 238   2.0000      -0.425000       -11.5648
 239   2.0000      -0.423516       -11.5245
 240   2.0000      -0.422749       -11.5036
 241   2.0000      -0.420903       -11.4534
 242   2.0000      -0.419178       -11.4064
 243   2.0000      -0.418455       -11.3867
 244   2.0000      -0.417474       -11.3600
 245   2.0000      -0.414923       -11.2906
 246   2.0000      -0.413242       -11.2449
 247   2.0000      -0.412786       -11.2325
 248   2.0000      -0.408724       -11.1219
 249   2.0000      -0.404035       -10.9944
 250   2.0000      -0.402283       -10.9467
 251   2.0000      -0.400090       -10.8870
 252   2.0000      -0.387430       -10.5425
 253   2.0000      -0.387015       -10.5312
 254   2.0000      -0.382179       -10.3996
 255   2.0000      -0.380539       -10.3550
 256   2.0000      -0.372838       -10.1454
 257   2.0000      -0.370550       -10.0832
 258   2.0000      -0.361227        -9.8295
 259   2.0000      -0.357079        -9.7166
 260   2.0000      -0.354164        -9.6373
 261   2.0000      -0.350289        -9.5319
 262   2.0000      -0.346483        -9.4283
 263   2.0000      -0.341914        -9.3039
 264   2.0000      -0.339195        -9.2300
 265   2.0000      -0.333541        -9.0761
 266   2.0000      -0.327472        -8.9110
 267   2.0000      -0.317646        -8.6436
 268   2.0000      -0.305922        -8.3246
 269   2.0000      -0.301323        -8.1994
 270   2.0000      -0.292674        -7.9641
 271   2.0000      -0.287353        -7.8193
 272   2.0000      -0.275989        -7.5101
 273   0.0000      -0.129842        -3.5332
 274   0.0000      -0.125046        -3.4027
 275   0.0000      -0.086243        -2.3468
 276   0.0000      -0.073501        -2.0001
 277   0.0000      -0.062880        -1.7111

MULLIKEN ATOMIC CHARGES
-----------------------
   0 C :    0.289978
   1 C :   -0.326175
   2 C :   -0.187709
   3 N :    0.158089
   4 C :   -0.201108
   5 N :    0.173710
   6 C :    0.020431
   7 C :   -0.020755
   8 C :   -0.062002
   9 C :    0.112352
  10 C :   -0.093405
  11 C :   -0.020263
  12 S :    0.145679
  13 C :   -0.048757
  14 C :    0.026118
  15 C :    0.156218
  16 O :   -0.152956
  17 C :   -0.051728
  18 C :   -0.066436
  19 C :    0.038011
  20 C :   -0.020723
  21 C :   -0.044882
  22 N :    0.050866
  23 C :   -0.147122
  24 C :   -0.109331
  25 N :    0.067782
  26 C :   -0.205069
  27 N :    0.254220
  28 C :   -0.141657
  29 N :    0.199793
  30 C :   -0.013245
  31 C :    0.011740
  32 C :    0.047444
  33 N :   -0.278269
  34 S :    0.564495
  35 N :   -0.239254
  36 C :    0.151522
  37 O :   -0.339406
  38 C :    0.315716
  39 C :   -0.087890
  40 C :    0.072553
  41 C :   -0.080501
  42 C :    0.097231
  43 C :   -0.008737
  44 C :   -0.069317
  45 N :    0.041356
  46 C :   -0.090272
  47 C :   -0.147973
  48 N :    0.043001
  49 C :   -0.225520
  50 N :    0.239326
  51 C :   -0.216065
  52 N :    0.244578
  53 C :    0.059561
  54 C :    0.031291
  55 C :    0.002180
  56 N :   -0.282269
  57 S :    0.561361
  58 N :   -0.262266
  59 C :   -0.024652
  60 C :   -0.081792
  61 C :    0.273669
  62 C :   -0.329335
  63 C :   -0.190093
  64 N :    0.169015
  65 C :   -0.169322
  66 N :    0.147590
  67 C :   -0.005365
  68 C :    0.013980
  69 C :    0.124602
  70 O :   -0.139399
  71 C :   -0.073607
  72 C :    0.107731
  73 C :   -0.093464
  74 C :   -0.002514
  75 S :    0.154144
  76 C :   -0.051871
  77 C :    0.026707
  78 H :   -0.012512
  79 H :   -0.005390
  80 H :    0.040949
  81 H :   -0.005545
  82 H :    0.053565
  83 H :    0.023329
  84 H :    0.017186
  85 H :    0.011605
  86 H :    0.007865
  87 H :    0.020302
  88 H :    0.002261
  89 H :    0.031214
  90 H :   -0.011788
  91 H :    0.005079
  92 H :    0.038967
  93 H :   -0.008646
Sum of atomic charges:   -0.0000000

LOEWDIN ATOMIC CHARGES
----------------------
   0 C :    0.072807
   1 C :   -0.125947
   2 C :   -0.017529
   3 N :   -0.045281
   4 C :   -0.024219
   5 N :   -0.038740
   6 C :   -0.021519
   7 C :   -0.052815
   8 C :    0.024613
   9 C :   -0.033707
  10 C :   -0.143895
  11 C :   -0.007323
  12 S :    0.433326
  13 C :   -0.146996
  14 C :   -0.057595
  15 C :    0.086747
  16 O :   -0.143038
  17 C :   -0.062236
  18 C :    0.077096
  19 C :   -0.026701
  20 C :    0.008926
  21 C :   -0.015747
  22 N :    0.009095
  23 C :   -0.031213
  24 C :   -0.009352
  25 N :    0.003257
  26 C :   -0.035861
  27 N :    0.012618
  28 C :    0.000010
  29 N :   -0.011949
  30 C :    0.000311
  31 C :   -0.045630
  32 C :   -0.023617
  33 N :   -0.281642
  34 S :    0.708671
  35 N :   -0.270015
  36 C :    0.098634
  37 O :   -0.172251
  38 C :    0.112492
  39 C :   -0.029812
  40 C :    0.025900
  41 C :   -0.034209
  42 C :    0.014869
  43 C :   -0.004084
  44 C :    0.006038
  45 N :    0.012556
  46 C :   -0.018204
  47 C :   -0.031389
  48 N :    0.010547
  49 C :   -0.034037
  50 N :   -0.017578
  51 C :   -0.032787
  52 N :   -0.003154
  53 C :   -0.032166
  54 C :   -0.030212
  55 C :   -0.039108
  56 N :   -0.281606
  57 S :    0.699124
  58 N :   -0.281876
  59 C :    0.058243
  60 C :   -0.051870
  61 C :    0.073680
  62 C :   -0.137714
  63 C :   -0.024169
  64 N :   -0.049235
  65 C :   -0.009946
  66 N :   -0.067057
  67 C :   -0.018733
  68 C :   -0.055120
  69 C :    0.085592
  70 O :   -0.138242
  71 C :    0.023027
  72 C :   -0.033806
  73 C :   -0.140989
  74 C :    0.000927
  75 S :    0.440888
  76 C :   -0.148852
  77 C :   -0.059188
  78 H :    0.040328
  79 H :    0.041270
  80 H :    0.030405
  81 H :    0.035846
  82 H :    0.051952
  83 H :    0.028519
  84 H :    0.018015
  85 H :    0.013181
  86 H :    0.032693
  87 H :    0.026582
  88 H :    0.032404
  89 H :    0.051714
  90 H :    0.040191
  91 H :    0.043081
  92 H :    0.029309
  93 H :    0.034481

  Mayer bond orders larger than 0.100000
B(  0-C ,  1-C ) :   1.6677 B(  0-C ,  6-C ) :   1.0142 B(  0-C , 17-C ) :   1.0379
B(  1-C ,  2-C ) :   1.1376 B(  1-C ,  4-C ) :   1.1393 B(  2-C ,  3-N ) :   2.9766
B(  4-C ,  5-N ) :   2.9952 B(  6-C ,  7-C ) :   1.2649 B(  6-C , 11-C ) :   1.4061
B(  7-C ,  8-C ) :   1.4219 B(  7-C , 15-C ) :   0.9590 B(  8-C ,  9-C ) :   1.2504
B(  8-C , 78-H ) :   1.0165 B(  9-C , 10-C ) :   1.2961 B(  9-C , 14-C ) :   1.1697
B( 10-C , 11-C ) :   1.3288 B( 10-C , 12-S ) :   1.1002 B( 11-C , 79-H ) :   0.9829
B( 12-S , 13-C ) :   1.1270 B( 13-C , 14-C ) :   1.6287 B( 13-C , 80-H ) :   0.9689
B( 14-C , 81-H ) :   0.9998 B( 15-C , 16-O ) :   2.2155 B( 15-C , 17-C ) :   0.9240
B( 17-C , 18-C ) :   1.6831 B( 18-C , 19-C ) :   1.1000 B( 18-C , 82-H ) :   0.9320
B( 19-C , 20-C ) :   1.2994 B( 19-C , 30-C ) :   0.1365 B( 19-C , 32-C ) :   1.2391
B( 20-C , 21-C ) :   1.1312 B( 20-C , 25-N ) :   1.4445 B( 21-C , 22-N ) :   1.4136
B( 21-C , 30-C ) :   1.3030 B( 22-N , 23-C ) :   1.7573 B( 23-C , 24-C ) :   1.1848
B( 23-C , 28-C ) :   1.1446 B( 24-C , 25-N ) :   1.7629 B( 24-C , 26-C ) :   1.1573
B( 26-C , 27-N ) :   3.0426 B( 28-C , 29-N ) :   2.9380 B( 30-C , 31-C ) :   1.2752
B( 30-C , 36-C ) :   1.0358 B( 31-C , 32-C ) :   1.1177 B( 31-C , 35-N ) :   1.4843
B( 32-C , 33-N ) :   1.4880 B( 33-N , 34-S ) :   1.3012 B( 33-N , 35-N ) :   0.1606
B( 34-S , 35-N ) :   1.3241 B( 36-C , 37-O ) :   1.1264 B( 36-C , 39-C ) :   1.0413
B( 36-C , 83-H ) :   0.8719 B( 37-O , 38-C ) :   1.0005 B( 38-C , 39-C ) :   1.0679
B( 38-C , 84-H ) :   0.9438 B( 38-C , 85-H ) :   0.9365 B( 39-C , 40-C ) :   1.0204
B( 39-C , 86-H ) :   0.8999 B( 40-C , 41-C ) :   1.7303 B( 40-C , 87-H ) :   0.9484
B( 41-C , 42-C ) :   1.1845 B( 41-C , 88-H ) :   0.9569 B( 42-C , 43-C ) :   1.2470
B( 42-C , 53-C ) :   0.1351 B( 42-C , 55-C ) :   1.2050 B( 43-C , 44-C ) :   1.1168
B( 43-C , 48-N ) :   1.4176 B( 44-C , 45-N ) :   1.4310 B( 44-C , 53-C ) :   1.2817
B( 45-N , 46-C ) :   1.7215 B( 46-C , 47-C ) :   1.1850 B( 46-C , 51-C ) :   1.1791
B( 47-C , 48-N ) :   1.7336 B( 47-C , 49-C ) :   1.1618 B( 49-C , 50-N ) :   3.0270
B( 51-C , 52-N ) :   3.0084 B( 53-C , 54-C ) :   1.2345 B( 53-C , 59-C ) :   1.0680
B( 54-C , 55-C ) :   1.1048 B( 54-C , 58-N ) :   1.5372 B( 55-C , 56-N ) :   1.5045
B( 56-N , 57-S ) :   1.3076 B( 56-N , 58-N ) :   0.1575 B( 57-S , 58-N ) :   1.2937
B( 59-C , 60-C ) :   1.7222 B( 59-C , 89-H ) :   0.9458 B( 60-C , 61-C ) :   0.9992
B( 60-C , 69-C ) :   0.9324 B( 61-C , 62-C ) :   1.6722 B( 61-C , 67-C ) :   1.0215
B( 62-C , 63-C ) :   1.1301 B( 62-C , 65-C ) :   1.1708 B( 63-C , 64-N ) :   3.0045
B( 65-C , 66-N ) :   2.9759 B( 67-C , 68-C ) :   1.2656 B( 67-C , 74-C ) :   1.4161
B( 68-C , 69-C ) :   0.9249 B( 68-C , 71-C ) :   1.4166 B( 69-C , 70-O ) :   2.2745
B( 71-C , 72-C ) :   1.2571 B( 71-C , 90-H ) :   1.0154 B( 72-C , 73-C ) :   1.2962
B( 72-C , 77-C ) :   1.1749 B( 73-C , 74-C ) :   1.3289 B( 73-C , 75-S ) :   1.1013
B( 74-C , 91-H ) :   0.9841 B( 75-S , 76-C ) :   1.1313 B( 76-C , 77-C ) :   1.6270
B( 76-C , 92-H ) :   0.9681 B( 77-C , 93-H ) :   0.9989

-----------------------------------------------------------------------------
         ABSORPTION SPECTRUM VIA TRANSITION ELECTRIC DIPOLE MOMENTS
-----------------------------------------------------------------------------
State   Energy  Wavelength   fosc         T2         TX        TY        TZ
        (cm-1)    (nm)                  (au**2)     (au)      (au)      (au)
-----------------------------------------------------------------------------
   0   15274.3    654.7   0.297908840   6.42091   2.46941  -0.20647  -0.52944
   1   16898.7    591.8   0.205298745   3.99952  -1.09579   1.63508  -0.35393
   2   18933.5    528.2   0.078466130   1.36436  -1.16214   0.06079   0.10045
   3   19394.4    515.6   0.109549114   1.85955   0.05182   1.34309  -0.23014
   4   22596.4    442.5   0.008469566   0.12340  -0.05848  -0.00102  -0.34637
   5   23054.1    433.8   0.052708473   0.75268   0.52100  -0.62314   0.30485
   6   23447.4    426.5   0.041164853   0.57797   0.53132  -0.40329   0.36472
   7   23467.0    426.1   0.006959989   0.09764   0.25093   0.14475  -0.11714
   8   24288.5    411.7   0.028301000   0.38360   0.60408  -0.11261   0.07747
   9   24500.6    408.2   0.003150810   0.04234   0.15556   0.11111  -0.07611
  10   24739.5    404.2   0.053283775   0.70905   0.61931   0.40660  -0.40023
  11   24917.4    401.3   0.063743115   0.84218  -0.52633  -0.47898   0.57943
  12   25713.9    388.9   0.091713514   1.17420   0.78153  -0.73303   0.16146
  13   26141.7    382.5   0.023595585   0.29715  -0.42413  -0.34214   0.01429
  14   26592.0    376.1   0.173193985   2.14416   0.92924  -1.12094  -0.15543
  15   27513.5    363.5   0.027975540   0.33474  -0.22242   0.42054   0.32926
  16   28025.1    356.8   0.020813267   0.24449  -0.44613   0.08350  -0.19619
  17   28557.1    350.2   0.031934412   0.36815  -0.54599  -0.25176   0.08164
  18   29033.2    344.4   0.071374631   0.80933   0.87723  -0.07370  -0.18536
  19   29128.0    343.3   0.108733800   1.22894  -1.05727   0.05411   0.32892
  20   29163.7    342.9   0.005990444   0.06762  -0.25486   0.01667   0.04891
  21   29549.6    338.4   0.211297264   2.35406  -1.07523  -0.87081  -0.66304
  22   29867.4    334.8   0.013311524   0.14673   0.30239  -0.23323   0.02982
  23   30119.8    332.0   0.024380557   0.26648  -0.36267   0.09297  -0.35540
  24   30214.0    331.0   0.161814419   1.76313   0.78829  -0.00414   1.06851
  25   30261.2    330.5   0.149538873   1.62684   1.12129  -0.20597   0.57194
  26   30553.7    327.3   0.120280154   1.29600  -1.06903   0.26601  -0.28709
  27   31074.4    321.8   0.051561216   0.54626   0.41882  -0.43467  -0.42650
  28   31255.9    319.9   0.059217880   0.62373  -0.54461  -0.53043   0.21396
  29   31502.3    317.4   0.261373389   2.73146   1.47836  -0.28903   0.67998
  30   31731.5    315.1   0.011522061   0.11954  -0.01166  -0.17649  -0.29708
  31   32061.7    311.9   0.204479324   2.09961  -0.72652   1.04014   0.69992
  32   32372.9    308.9   0.034330602   0.34912  -0.31574  -0.15060  -0.47618
  33   32602.5    306.7   0.014278367   0.14418   0.23593  -0.20459  -0.21601
  34   32652.7    306.3   0.122144475   1.23149  -0.51309   0.95511   0.23663
  35   32934.9    303.6   0.120181751   1.20132   0.20163   1.01592   0.35857
  36   33227.5    301.0   0.138430874   1.37155   0.85081  -0.75900   0.26759
  37   33264.8    300.6   0.017768317   0.17585  -0.18894   0.26364  -0.26579
  38   33720.5    296.6   0.062322401   0.60845   0.72312  -0.13403  -0.25997
  39   33812.0    295.8   0.002591216   0.02523  -0.12773   0.08524  -0.04060
  40   33933.2    294.7   0.038919093   0.37758   0.22531   0.52731   0.22083
  41   34092.6    293.3   0.347126808   3.35199   1.15463   1.35550   0.42598
  42   34198.7    292.4   0.095713962   0.92138  -0.84742  -0.41810  -0.16870
  43   34294.4    291.6   0.109632453   1.05243   0.96770   0.00931   0.34045
  44   34491.0    289.9   0.030143280   0.28771   0.16362   0.32736  -0.39214
  45   34563.2    289.3   0.019925505   0.18979   0.00763   0.36955   0.23058
  46   34771.2    287.6   0.301616838   2.85569  -1.49511  -0.74976  -0.24124
  47   34810.8    287.3   0.094081649   0.88975   0.36335   0.85339  -0.17159
  48   34924.6    286.3   0.762825580   7.19066   1.44336   1.47187   1.71493
  49   35032.8    285.4   0.124113592   1.16633   1.06511  -0.17721   0.02132
  50   35444.8    282.1   0.009928495   0.09222   0.02739  -0.22469  -0.20243
  51   35493.4    281.7   0.066692669   0.61859   0.56449   0.53203   0.12997
  52   36176.6    276.4   0.148092464   1.34766   1.04071   0.31449  -0.40702
  53   36544.1    273.6   0.447690993   4.03308   1.68180   1.06823  -0.25198
  54   36821.5    271.6   0.278381176   2.48894  -1.32815  -0.82630   0.20536
  55   37344.4    267.8   0.001714773   0.01512   0.07969   0.01673   0.09212
  56   37349.4    267.7   0.145791623   1.28506  -1.05279  -0.22331   0.35614
  57   37527.1    266.5   0.060727905   0.53274   0.61789   0.37291  -0.10907
  58   37614.6    265.9   0.043042598   0.37672  -0.30035   0.50321   0.18244
  59   38108.8    262.4   0.028436543   0.24566  -0.36111  -0.31799  -0.11890
  60   38235.6    261.5   0.005420745   0.04667  -0.11492  -0.17857  -0.03972
  61   38483.3    259.9   0.018994116   0.16249   0.15443  -0.36648   0.06583
  62   38532.3    259.5   0.013025356   0.11129   0.05937   0.32733  -0.02485
  63   38814.6    257.6   0.085181540   0.72248   0.73432  -0.42597   0.04239
  64   38966.5    256.6   0.037439233   0.31631   0.25775  -0.22925   0.44421
  65   39069.2    256.0   0.052538675   0.44271   0.47065  -0.26232  -0.39037
  66   39220.4    255.0   0.058612142   0.49198  -0.62186   0.29333   0.13867
  67   39373.6    254.0   0.002533123   0.02118   0.08485   0.04574   0.10903
  68   39467.0    253.4   0.036615476   0.30543  -0.17506   0.51422  -0.10178
  69   39576.9    252.7   0.001726782   0.01436   0.09955   0.06379  -0.01959
  70   40037.9    249.8   0.087386373   0.71853  -0.15679   0.83303  -0.00357
  71   40150.9    249.1   0.023434820   0.19215  -0.19601   0.31970  -0.22698
  72   40244.4    248.5   0.045198226   0.36974  -0.16917   0.56944   0.12982

FINAL SINGLE POINT ENERGY     -4795.180402199736

DIPOLE MOMENT
-------------
                                X             Y             Z
Electronic contribution:     -3.06976      -2.17850      -2.66676
Nuclear contribution   :      5.42481       5.17398       2.87567
                        -----------------------------------------
Total Dipole Moment    :      2.35506       2.99549       0.20890
                        -----------------------------------------
Magnitude (a.u.)       :      3.81613
Magnitude (Debye)      :      9.69984

Rotational constants in cm-1:     0.001457     0.000371     0.000319
Rotational constants in MHz :    43.673641    11.127533     9.572952

                             ****ORCA TERMINATED NORMALLY****
TOTAL RUN TIME: 0 days 0 hours 10 minutes 32 seconds 425 msec
