                         Program Version 4.2.0 -  RELEASE  -
|  1> # ORCA input file
|  2> # SCF done       -189.016666123135          0.000550574264
|  3> ! CAM-B3LYP def2-SVP def2/J RIJCOSX Grid4 TightSCF
|  4> %maxcore 5000
|  5> %tddft
|  6>     Mode sTDDFT
|  7>     Ethresh 5.0
|  8>     maxcore 5000
|  9> end
| 10>
| 11> %pal
| 12>   nprocs 6
| 13>   end
| 14> * xyz 0 1
| 15>    C       -3.71838        -1.65272        -0.14382
| 16>    C       -4.64081        -2.50743         0.40276
| 17>    C       -4.48195        -3.90689         0.46678
| 18>    N       -4.40654        -5.04960         0.55054
| 19>    C       -5.88890        -2.11586         0.93205
| 20>    N       -6.93535        -1.88836         1.34654
| 21>    C       -2.48522        -2.04144        -0.81525
| 22>    C       -1.87806        -0.88140        -1.35853
| 23>    C       -0.70203        -0.92740        -2.06746
| 24>    C       -0.10058        -2.17536        -2.25763
| 25>    C       -0.71209        -3.32690        -1.70719
| 26>    C       -1.89820        -3.28113        -0.98421
| 27>    S        0.20775        -4.75615        -2.05914
| 28>    C        1.37647        -3.82008        -2.92533
| 29>    C        1.09902        -2.49835        -2.95289
| 30>    C       -2.68416         0.30531        -1.01719
| 31>    O       -2.37857         1.46222        -1.21429
| 32>    C       -3.85291        -0.21424        -0.25818
| 33>    C       -4.77523         0.56515         0.37425
| 34>    C       -5.03808         1.93226         0.08008
| 35>    C       -5.45099         2.81775         1.10514
| 36>    C       -5.72157         4.20347         0.84623
| 37>    N       -5.81876         5.06379         1.86024
| 38>    C       -5.85283         4.60345         3.08780
| 39>    C       -5.82218         3.19091         3.33114
| 40>    N       -5.55952         2.35193         2.36007
| 41>    C       -6.00810         2.69455         4.64612
| 42>    N       -6.15227         2.33322         5.72331
| 43>    C       -5.87752         5.51942         4.16684
| 44>    N       -5.88662         6.23463         5.06175
| 45>    C       -5.78587         4.71112        -0.48015
| 46>    C       -5.34471         3.84042        -1.50162
| 47>    C       -4.99408         2.46714        -1.22600
| 48>    N       -4.72718         1.79820        -2.34740
| 49>    S       -4.83069         2.79102        -3.59639
| 50>    N       -5.26971         4.12339        -2.80314
| 51>    C       -6.30854         5.99219        -0.74326
| 52>    C       -7.16926         6.78638         0.01942
| 53>    C       -7.42970         7.98556        -0.69101
| 54>    C       -6.70692         7.91292        -1.95617
| 55>    O       -6.62277         8.67875        -2.89571
| 56>    N       -6.07589         6.67940        -1.90865
| 57>    C       -8.38518         8.69692         0.04077
| 58>    O       -8.73538         7.94994         1.14236
| 59>    C       -8.04865         6.74674         1.16952
| 60>    O       -8.28807         5.90875         1.99477
| 61>    C       -9.08045         9.89433        -0.07526
| 62>    S      -10.37035        10.12326         1.07506
| 63>    C      -10.85777        11.62483         0.36496
| 64>    C       -9.97169        12.00010        -0.67268
| 65>    C       -8.97834        11.01464        -0.94049
| 66>    C       -8.02350        11.24464        -1.92781
| 67>    C       -8.01819        12.42882        -2.64827
| 68>    C       -7.01000        12.65419        -3.67766
| 69>    C       -6.34504        11.69661        -4.31646
| 70>    C       -8.97505        13.43600        -2.34734
| 71>    C       -8.96911        14.74524        -3.07653
| 72>    C       -9.92338        13.21208        -1.37766
| 73>    C      -12.03708        12.21938         0.85861
| 74>    C      -12.81634        13.14312         0.23041
| 75>    C      -14.02958        13.66278         0.75207
| 76>    C      -14.62821        13.41427         1.99441
| 77>    C      -15.84484        14.13061         2.06273
| 78>    C      -16.80742        14.20974         3.05264
| 79>    C      -17.92864        15.00547         2.80327
| 80>    C      -19.05976        15.27924         3.57518
| 81>    C      -19.91569        16.15248         2.85075
| 82>    C      -19.31444        16.42373         1.62656
| 83>    C      -18.07446        15.72720         1.55438
| 84>    C      -17.11940        15.65463         0.56917
| 85>    C      -15.99239        14.84991         0.81310
| 86>    C      -14.88208        14.55621         0.03341
| 87>    C      -21.19004        16.67873         3.27947
| 88>    C      -21.78303        16.41624         4.44075
| 89>    H       -0.26197        -0.02696        -2.46738
| 90>    H       -2.32148        -4.18483        -0.57837
| 91>    H        2.21274        -4.32656        -3.36679
| 92>    H        1.71279        -1.76456        -3.44340
| 93>    H       -5.34663         0.15811         1.19936
| 94>    H       -5.52714         6.29010        -2.66377
| 95>    H       -7.27903        10.49560        -2.12856
| 96>    H       -6.81610        13.68717        -3.93181
| 97>    H       -6.50585        10.64935        -4.12996
| 98>    H       -5.60982        11.94146        -5.06468
| 99>    H       -8.05192        15.29627        -2.87011
|100>    H       -9.81042        15.35963        -2.76525
|101>    H       -9.03436        14.58693        -4.15175
|102>    H      -10.61693        13.99947        -1.12974
|103>    H      -12.38238        11.81918         1.80275
|104>    H      -12.55219        13.48048        -0.76114
|105>    H      -14.24104        12.78607         2.77444
|106>    H      -16.70306        13.67256         3.98470
|107>    H      -19.25075        14.89046         4.55844
|108>    H      -19.71604        17.05423         0.85405
|109>    H      -17.22357        16.18905        -0.36464
|110>    H      -14.68509        14.92827        -0.95629
|111>    H      -21.67383        17.33555         2.56743
|112>    H      -21.34293        15.76722         5.17821
|113>    H      -22.73813        16.84264         4.69288
|114> *
|115>
|116>                          ****END OF INPUT****

CARTESIAN COORDINATES (ANGSTROEM)
---------------------------------
  C     -3.718380   -1.652720   -0.143820
  C     -4.640810   -2.507430    0.402760
  C     -4.481950   -3.906890    0.466780
  N     -4.406540   -5.049600    0.550540
  C     -5.888900   -2.115860    0.932050
  N     -6.935350   -1.888360    1.346540
  C     -2.485220   -2.041440   -0.815250
  C     -1.878060   -0.881400   -1.358530
  C     -0.702030   -0.927400   -2.067460
  C     -0.100580   -2.175360   -2.257630
  C     -0.712090   -3.326900   -1.707190
  C     -1.898200   -3.281130   -0.984210
  S      0.207750   -4.756150   -2.059140
  C      1.376470   -3.820080   -2.925330
  C      1.099020   -2.498350   -2.952890
  C     -2.684160    0.305310   -1.017190
  O     -2.378570    1.462220   -1.214290
  C     -3.852910   -0.214240   -0.258180
  C     -4.775230    0.565150    0.374250
  C     -5.038080    1.932260    0.080080
  C     -5.450990    2.817750    1.105140
  C     -5.721570    4.203470    0.846230
  N     -5.818760    5.063790    1.860240
  C     -5.852830    4.603450    3.087800
  C     -5.822180    3.190910    3.331140
  N     -5.559520    2.351930    2.360070
  C     -6.008100    2.694550    4.646120
  N     -6.152270    2.333220    5.723310
  C     -5.877520    5.519420    4.166840
  N     -5.886620    6.234630    5.061750
  C     -5.785870    4.711120   -0.480150
  C     -5.344710    3.840420   -1.501620
  C     -4.994080    2.467140   -1.226000
  N     -4.727180    1.798200   -2.347400
  S     -4.830690    2.791020   -3.596390
  N     -5.269710    4.123390   -2.803140
  C     -6.308540    5.992190   -0.743260
  C     -7.169260    6.786380    0.019420
  C     -7.429700    7.985560   -0.691010
  C     -6.706920    7.912920   -1.956170
  O     -6.622770    8.678750   -2.895710
  N     -6.075890    6.679400   -1.908650
  C     -8.385180    8.696920    0.040770
  O     -8.735380    7.949940    1.142360
  C     -8.048650    6.746740    1.169520
  O     -8.288070    5.908750    1.994770
  C     -9.080450    9.894330   -0.075260
  S    -10.370350   10.123260    1.075060
  C    -10.857770   11.624830    0.364960
  C     -9.971690   12.000100   -0.672680
  C     -8.978340   11.014640   -0.940490
  C     -8.023500   11.244640   -1.927810
  C     -8.018190   12.428820   -2.648270
  C     -7.010000   12.654190   -3.677660
  C     -6.345040   11.696610   -4.316460
  C     -8.975050   13.436000   -2.347340
  C     -8.969110   14.745240   -3.076530
  C     -9.923380   13.212080   -1.377660
  C    -12.037080   12.219380    0.858610
  C    -12.816340   13.143120    0.230410
  C    -14.029580   13.662780    0.752070
  C    -14.628210   13.414270    1.994410
  C    -15.844840   14.130610    2.062730
  C    -16.807420   14.209740    3.052640
  C    -17.928640   15.005470    2.803270
  C    -19.059760   15.279240    3.575180
  C    -19.915690   16.152480    2.850750
  C    -19.314440   16.423730    1.626560
  C    -18.074460   15.727200    1.554380
  C    -17.119400   15.654630    0.569170
  C    -15.992390   14.849910    0.813100
  C    -14.882080   14.556210    0.033410
  C    -21.190040   16.678730    3.279470
  C    -21.783030   16.416240    4.440750
  H     -0.261970   -0.026960   -2.467380
  H     -2.321480   -4.184830   -0.578370
  H      2.212740   -4.326560   -3.366790
  H      1.712790   -1.764560   -3.443400
  H     -5.346630    0.158110    1.199360
  H     -5.527140    6.290100   -2.663770
  H     -7.279030   10.495600   -2.128560
  H     -6.816100   13.687170   -3.931810
  H     -6.505850   10.649350   -4.129960
  H     -5.609820   11.941460   -5.064680
  H     -8.051920   15.296270   -2.870110
  H     -9.810420   15.359630   -2.765250
  H     -9.034360   14.586930   -4.151750
  H    -10.616930   13.999470   -1.129740
  H    -12.382380   11.819180    1.802750
  H    -12.552190   13.480480   -0.761140
  H    -14.241040   12.786070    2.774440
  H    -16.703060   13.672560    3.984700
  H    -19.250750   14.890460    4.558440
  H    -19.716040   17.054230    0.854050
  H    -17.223570   16.189050   -0.364640
  H    -14.685090   14.928270   -0.956290
  H    -21.673830   17.335550    2.567430
  H    -21.342930   15.767220    5.178210
  H    -22.738130   16.842640    4.692880

 Total Charge           Charge          ....    0
 Multiplicity           Mult            ....    1
 Number of Electrons    NEL             ....  516
 Basis Dimension        Dim             .... 1173

ORBITAL ENERGIES
----------------

  NO   OCC          E(Eh)            E(eV)
   0   2.0000     -89.037656     -2422.8378
   1   2.0000     -88.979859     -2421.2651
   2   2.0000     -88.959401     -2420.7084
   3   2.0000     -19.284741      -524.7645
   4   2.0000     -19.214275      -522.8470
   5   2.0000     -19.203582      -522.5560
   6   2.0000     -19.190085      -522.1888
   7   2.0000     -14.452722      -393.2786
   8   2.0000     -14.451830      -393.2543
   9   2.0000     -14.448367      -393.1601
  10   2.0000     -14.447676      -393.1412
  11   2.0000     -14.443167      -393.0186
  12   2.0000     -14.417464      -392.3191
  13   2.0000     -14.410745      -392.1363
  14   2.0000     -14.405115      -391.9831
  15   2.0000     -14.402654      -391.9161
  16   2.0000     -10.412624      -283.3419
  17   2.0000     -10.383516      -282.5498
  18   2.0000     -10.380490      -282.4675
  19   2.0000     -10.371755      -282.2298
  20   2.0000     -10.362055      -281.9659
  21   2.0000     -10.354776      -281.7678
  22   2.0000     -10.342649      -281.4378
  23   2.0000     -10.341795      -281.4145
  24   2.0000     -10.340931      -281.3910
  25   2.0000     -10.340712      -281.3851
  26   2.0000     -10.340089      -281.3681
  27   2.0000     -10.335721      -281.2493
  28   2.0000     -10.331364      -281.1307
  29   2.0000     -10.328989      -281.0661
  30   2.0000     -10.324159      -280.9347
  31   2.0000     -10.322506      -280.8897
  32   2.0000     -10.319822      -280.8166
  33   2.0000     -10.319588      -280.8103
  34   2.0000     -10.312544      -280.6186
  35   2.0000     -10.310283      -280.5571
  36   2.0000     -10.308377      -280.5052
  37   2.0000     -10.307982      -280.4944
  38   2.0000     -10.307626      -280.4848
  39   2.0000     -10.306162      -280.4449
  40   2.0000     -10.305535      -280.4279
  41   2.0000     -10.305288      -280.4211
  42   2.0000     -10.304323      -280.3949
  43   2.0000     -10.302709      -280.3510
  44   2.0000     -10.301886      -280.3286
  45   2.0000     -10.301004      -280.3046
  46   2.0000     -10.299492      -280.2634
  47   2.0000     -10.298223      -280.2289
  48   2.0000     -10.296958      -280.1945
  49   2.0000     -10.296928      -280.1937
  50   2.0000     -10.296337      -280.1776
  51   2.0000     -10.294461      -280.1265
  52   2.0000     -10.294006      -280.1142
  53   2.0000     -10.293954      -280.1127
  54   2.0000     -10.290336      -280.0143
  55   2.0000     -10.290315      -280.0137
  56   2.0000     -10.290020      -280.0057
  57   2.0000     -10.288174      -279.9555
  58   2.0000     -10.287771      -279.9445
  59   2.0000     -10.285682      -279.8876
  60   2.0000     -10.285285      -279.8768
  61   2.0000     -10.285040      -279.8702
  62   2.0000     -10.283493      -279.8281
  63   2.0000     -10.283107      -279.8176
  64   2.0000     -10.282604      -279.8039
  65   2.0000     -10.281911      -279.7850
  66   2.0000     -10.281871      -279.7839
  67   2.0000     -10.281069      -279.7621
  68   2.0000     -10.281069      -279.7621
  69   2.0000     -10.274363      -279.5796
  70   2.0000     -10.272720      -279.5349
  71   2.0000     -10.271336      -279.4972
  72   2.0000     -10.270588      -279.4769
  73   2.0000     -10.263064      -279.2722
  74   2.0000      -8.128971      -221.2005
  75   2.0000      -8.074859      -219.7281
  76   2.0000      -8.055673      -219.2060
  77   2.0000      -6.100138      -165.9932
  78   2.0000      -6.092282      -165.7794
  79   2.0000      -6.091655      -165.7624
  80   2.0000      -6.044013      -164.4659
  81   2.0000      -6.039701      -164.3486
  82   2.0000      -6.037374      -164.2853
  83   2.0000      -6.025178      -163.9534
  84   2.0000      -6.020907      -163.8372
  85   2.0000      -6.017329      -163.7398
  86   2.0000      -1.217561       -33.1315
  87   2.0000      -1.136805       -30.9340
  88   2.0000      -1.130957       -30.7749
  89   2.0000      -1.122959       -30.5573
  90   2.0000      -1.117830       -30.4177
  91   2.0000      -1.108824       -30.1726
  92   2.0000      -1.061171       -28.8759
  93   2.0000      -1.033986       -28.1362
  94   2.0000      -1.012580       -27.5537
  95   2.0000      -1.009732       -27.4762
  96   2.0000      -1.005945       -27.3732
  97   2.0000      -0.999847       -27.2072
  98   2.0000      -0.998809       -27.1790
  99   2.0000      -0.990674       -26.9576
 100   2.0000      -0.987369       -26.8677
 101   2.0000      -0.982338       -26.7308
 102   2.0000      -0.980658       -26.6851
 103   2.0000      -0.975552       -26.5461
 104   2.0000      -0.968469       -26.3534
 105   2.0000      -0.954459       -25.9721
 106   2.0000      -0.928276       -25.2597
 107   2.0000      -0.922079       -25.0910
 108   2.0000      -0.916506       -24.9394
 109   2.0000      -0.907741       -24.7009
 110   2.0000      -0.903157       -24.5762
 111   2.0000      -0.896833       -24.4041
 112   2.0000      -0.885474       -24.0950
 113   2.0000      -0.882921       -24.0255
 114   2.0000      -0.880967       -23.9723
 115   2.0000      -0.873091       -23.7580
 116   2.0000      -0.872576       -23.7440
 117   2.0000      -0.868579       -23.6352
 118   2.0000      -0.856119       -23.2962
 119   2.0000      -0.849775       -23.1236
 120   2.0000      -0.823958       -22.4210
 121   2.0000      -0.821975       -22.3671
 122   2.0000      -0.817125       -22.2351
 123   2.0000      -0.814771       -22.1710
 124   2.0000      -0.809522       -22.0282
 125   2.0000      -0.802890       -21.8477
 126   2.0000      -0.788608       -21.4591
 127   2.0000      -0.787625       -21.4324
 128   2.0000      -0.771419       -20.9914
 129   2.0000      -0.766228       -20.8501
 130   2.0000      -0.758291       -20.6341
 131   2.0000      -0.756457       -20.5842
 132   2.0000      -0.746473       -20.3126
 133   2.0000      -0.736546       -20.0424
 134   2.0000      -0.731444       -19.9036
 135   2.0000      -0.722503       -19.6603
 136   2.0000      -0.715464       -19.4688
 137   2.0000      -0.701416       -19.0865
 138   2.0000      -0.699090       -19.0232
 139   2.0000      -0.695259       -18.9190
 140   2.0000      -0.686100       -18.6697
 141   2.0000      -0.683990       -18.6123
 142   2.0000      -0.682838       -18.5810
 143   2.0000      -0.679434       -18.4883
 144   2.0000      -0.665666       -18.1137
 145   2.0000      -0.663771       -18.0621
 146   2.0000      -0.657941       -17.9035
 147   2.0000      -0.651637       -17.7319
 148   2.0000      -0.646436       -17.5904
 149   2.0000      -0.644487       -17.5374
 150   2.0000      -0.642022       -17.4703
 151   2.0000      -0.637957       -17.3597
 152   2.0000      -0.633395       -17.2356
 153   2.0000      -0.622498       -16.9390
 154   2.0000      -0.615704       -16.7542
 155   2.0000      -0.610338       -16.6081
 156   2.0000      -0.608841       -16.5674
 157   2.0000      -0.601537       -16.3687
 158   2.0000      -0.599282       -16.3073
 159   2.0000      -0.595218       -16.1967
 160   2.0000      -0.589528       -16.0419
 161   2.0000      -0.586049       -15.9472
 162   2.0000      -0.584509       -15.9053
 163   2.0000      -0.581635       -15.8271
 164   2.0000      -0.575846       -15.6696
 165   2.0000      -0.574586       -15.6353
 166   2.0000      -0.566899       -15.4261
 167   2.0000      -0.562906       -15.3174
 168   2.0000      -0.560122       -15.2417
 169   2.0000      -0.559429       -15.2228
 170   2.0000      -0.552166       -15.0252
 171   2.0000      -0.551005       -14.9936
 172   2.0000      -0.547144       -14.8886
 173   2.0000      -0.537710       -14.6318
 174   2.0000      -0.535864       -14.5816
 175   2.0000      -0.533147       -14.5077
 176   2.0000      -0.531080       -14.4514
 177   2.0000      -0.527743       -14.3606
 178   2.0000      -0.526261       -14.3203
 179   2.0000      -0.524297       -14.2668
 180   2.0000      -0.523028       -14.2323
 181   2.0000      -0.520837       -14.1727
 182   2.0000      -0.516301       -14.0493
 183   2.0000      -0.515576       -14.0295
 184   2.0000      -0.513084       -13.9617
 185   2.0000      -0.510471       -13.8906
 186   2.0000      -0.509239       -13.8571
 187   2.0000      -0.507355       -13.8058
 188   2.0000      -0.506469       -13.7817
 189   2.0000      -0.502174       -13.6649
 190   2.0000      -0.498455       -13.5636
 191   2.0000      -0.496121       -13.5001
 192   2.0000      -0.491554       -13.3759
 193   2.0000      -0.490251       -13.3404
 194   2.0000      -0.487121       -13.2552
 195   2.0000      -0.484891       -13.1946
 196   2.0000      -0.482478       -13.1289
 197   2.0000      -0.481066       -13.0905
 198   2.0000      -0.478234       -13.0134
 199   2.0000      -0.476070       -12.9545
 200   2.0000      -0.475371       -12.9355
 201   2.0000      -0.474310       -12.9066
 202   2.0000      -0.471849       -12.8397
 203   2.0000      -0.469928       -12.7874
 204   2.0000      -0.466868       -12.7041
 205   2.0000      -0.464493       -12.6395
 206   2.0000      -0.461920       -12.5695
 207   2.0000      -0.458919       -12.4878
 208   2.0000      -0.454907       -12.3787
 209   2.0000      -0.450891       -12.2694
 210   2.0000      -0.445661       -12.1270
 211   2.0000      -0.442536       -12.0420
 212   2.0000      -0.439519       -11.9599
 213   2.0000      -0.437640       -11.9088
 214   2.0000      -0.437445       -11.9035
 215   2.0000      -0.436129       -11.8677
 216   2.0000      -0.435241       -11.8435
 217   2.0000      -0.432046       -11.7566
 218   2.0000      -0.429889       -11.6979
 219   2.0000      -0.428966       -11.6728
 220   2.0000      -0.427265       -11.6265
 221   2.0000      -0.424601       -11.5540
 222   2.0000      -0.424104       -11.5405
 223   2.0000      -0.423494       -11.5238
 224   2.0000      -0.422476       -11.4962
 225   2.0000      -0.418558       -11.3896
 226   2.0000      -0.417159       -11.3515
 227   2.0000      -0.416193       -11.3252
 228   2.0000      -0.414276       -11.2730
 229   2.0000      -0.411651       -11.2016
 230   2.0000      -0.410540       -11.1714
 231   2.0000      -0.403752       -10.9866
 232   2.0000      -0.400475       -10.8975
 233   2.0000      -0.398507       -10.8439
 234   2.0000      -0.395573       -10.7641
 235   2.0000      -0.390527       -10.6268
 236   2.0000      -0.388598       -10.5743
 237   2.0000      -0.384748       -10.4695
 238   2.0000      -0.378962       -10.3121
 239   2.0000      -0.374356       -10.1867
 240   2.0000      -0.366779        -9.9806
 241   2.0000      -0.365618        -9.9490
 242   2.0000      -0.365156        -9.9364
 243   2.0000      -0.351818        -9.5734
 244   2.0000      -0.346543        -9.4299
 245   2.0000      -0.341084        -9.2814
 246   2.0000      -0.339044        -9.2258
 247   2.0000      -0.335172        -9.1205
 248   2.0000      -0.324252        -8.8233
 249   2.0000      -0.321999        -8.7620
 250   2.0000      -0.305360        -8.3093
 251   2.0000      -0.302602        -8.2342
 252   2.0000      -0.299393        -8.1469
 253   2.0000      -0.288560        -7.8521
 254   2.0000      -0.285526        -7.7696
 255   2.0000      -0.282601        -7.6900
 256   2.0000      -0.258699        -7.0396
 257   2.0000      -0.225747        -6.1429
 258   0.0000      -0.131573        -3.5803
 259   0.0000      -0.117079        -3.1859
 260   0.0000      -0.087085        -2.3697
 261   0.0000      -0.070468        -1.9175
 262   0.0000      -0.044774        -1.2184

MULLIKEN ATOMIC CHARGES
-----------------------
   0 C :    0.301431
   1 C :   -0.341902
   2 C :   -0.186580
   3 N :    0.143555
   4 C :   -0.199148
   5 N :    0.166897
   6 C :    0.017195
   7 C :   -0.017199
   8 C :   -0.072117
   9 C :    0.114162
  10 C :   -0.092175
  11 C :   -0.026092
  12 S :    0.137444
  13 C :   -0.052084
  14 C :    0.025756
  15 C :    0.158290
  16 O :   -0.157772
  17 C :   -0.062827
  18 C :   -0.083210
  19 C :    0.079618
  20 C :   -0.049582
  21 C :   -0.067055
  22 N :    0.049387
  23 C :   -0.112116
  24 C :   -0.123986
  25 N :    0.044584
  26 C :   -0.189024
  27 N :    0.225450
  28 C :   -0.205693
  29 N :    0.223397
  30 C :    0.142726
  31 C :    0.042881
  32 C :    0.023834
  33 N :   -0.271765
  34 S :    0.541691
  35 N :   -0.320431
  36 C :   -0.055260
  37 C :   -0.081557
  38 C :   -0.096947
  39 C :    0.161648
  40 O :   -0.198493
  41 N :   -0.086287
  42 C :    0.181895
  43 O :   -0.266615
  44 C :    0.239836
  45 O :   -0.132892
  46 C :   -0.188027
  47 S :    0.223615
  48 C :   -0.069947
  49 C :    0.092127
  50 C :    0.164995
  51 C :   -0.105938
  52 C :    0.104098
  53 C :   -0.051867
  54 C :   -0.004950
  55 C :   -0.085827
  56 C :    0.099790
  57 C :   -0.101193
  58 C :    0.028626
  59 C :    0.027431
  60 C :    0.049313
  61 C :   -0.014290
  62 C :    0.040243
  63 C :    0.020518
  64 C :    0.034429
  65 C :   -0.002287
  66 C :    0.055686
  67 C :   -0.012539
  68 C :    0.051289
  69 C :    0.010699
  70 C :    0.049003
  71 C :   -0.022460
  72 C :    0.010456
  73 C :   -0.020043
  74 H :   -0.018424
  75 H :   -0.007867
  76 H :    0.036599
  77 H :   -0.009328
  78 H :    0.046202
  79 H :    0.135719
  80 H :   -0.026611
  81 H :   -0.014316
  82 H :    0.052312
  83 H :    0.021451
  84 H :    0.037010
  85 H :    0.005323
  86 H :    0.035456
  87 H :   -0.040596
  88 H :   -0.013290
  89 H :   -0.009776
  90 H :   -0.015040
  91 H :   -0.015083
  92 H :   -0.015527
  93 H :   -0.018941
  94 H :   -0.020035
  95 H :   -0.021075
  96 H :   -0.015785
  97 H :    0.010873
  98 H :    0.024934
Sum of atomic charges:   -0.0000000

LOEWDIN ATOMIC CHARGES
----------------------
   0 C :    0.074416
   1 C :   -0.136526
   2 C :   -0.017117
   3 N :   -0.056192
   4 C :   -0.024259
   5 N :   -0.047544
   6 C :   -0.021505
   7 C :   -0.049731
   8 C :    0.019722
   9 C :   -0.036101
  10 C :   -0.146204
  11 C :   -0.009775
  12 S :    0.426682
  13 C :   -0.151587
  14 C :   -0.059047
  15 C :    0.082983
  16 O :   -0.150213
  17 C :   -0.079684
  18 C :    0.077121
  19 C :   -0.051853
  20 C :    0.016208
  21 C :   -0.004366
  22 N :    0.015789
  23 C :   -0.031422
  24 C :   -0.009041
  25 N :   -0.010078
  26 C :   -0.031155
  27 N :   -0.002242
  28 C :   -0.034177
  29 N :   -0.016619
  30 C :   -0.019181
  31 C :   -0.040961
  32 C :   -0.024313
  33 N :   -0.267973
  34 S :    0.674394
  35 N :   -0.298068
  36 C :    0.046316
  37 C :   -0.076725
  38 C :   -0.129515
  39 C :    0.074475
  40 O :   -0.208108
  41 N :    0.046593
  42 C :    0.099624
  43 O :   -0.063528
  44 C :    0.106559
  45 O :   -0.131262
  46 C :   -0.208469
  47 S :    0.512034
  48 C :   -0.110796
  49 C :   -0.055424
  50 C :   -0.013158
  51 C :    0.004438
  52 C :   -0.000625
  53 C :   -0.038785
  54 C :   -0.005786
  55 C :   -0.015293
  56 C :   -0.045011
  57 C :   -0.020811
  58 C :   -0.067784
  59 C :    0.024426
  60 C :   -0.078079
  61 C :    0.039328
  62 C :   -0.066626
  63 C :    0.094439
  64 C :   -0.069369
  65 C :    0.065546
  66 C :   -0.061452
  67 C :    0.036026
  68 C :   -0.065872
  69 C :    0.082972
  70 C :   -0.071679
  71 C :    0.041766
  72 C :   -0.023390
  73 C :   -0.046525
  74 H :    0.037983
  75 H :    0.040261
  76 H :    0.028450
  77 H :    0.034161
  78 H :    0.048879
  79 H :    0.083464
  80 H :    0.031965
  81 H :    0.025420
  82 H :    0.030463
  83 H :    0.026246
  84 H :    0.037338
  85 H :    0.028578
  86 H :    0.037615
  87 H :    0.024509
  88 H :    0.029408
  89 H :    0.032284
  90 H :    0.026773
  91 H :    0.039081
  92 H :    0.028754
  93 H :    0.027660
  94 H :    0.037334
  95 H :    0.026400
  96 H :    0.030363
  97 H :    0.018969
  98 H :    0.026791

  Mayer bond orders larger than 0.100000
B(  0-C ,  1-C ) :   1.6404 B(  0-C ,  6-C ) :   1.0033 B(  0-C , 17-C ) :   1.0670
B(  1-C ,  2-C ) :   1.1417 B(  1-C ,  4-C ) :   1.1423 B(  2-C ,  3-N ) :   2.9701
B(  4-C ,  5-N ) :   2.9901 B(  6-C ,  7-C ) :   1.2705 B(  6-C , 11-C ) :   1.4104
B(  7-C ,  8-C ) :   1.4243 B(  7-C , 15-C ) :   0.9466 B(  8-C ,  9-C ) :   1.2446
B(  8-C , 74-H ) :   1.0175 B(  9-C , 10-C ) :   1.3051 B(  9-C , 14-C ) :   1.1695
B( 10-C , 11-C ) :   1.3217 B( 10-C , 12-S ) :   1.0957 B( 11-C , 75-H ) :   0.9834
B( 12-S , 13-C ) :   1.1268 B( 13-C , 14-C ) :   1.6285 B( 13-C , 76-H ) :   0.9688
B( 14-C , 77-H ) :   0.9995 B( 15-C , 16-O ) :   2.2184 B( 15-C , 17-C ) :   0.9440
B( 17-C , 18-C ) :   1.5833 B( 18-C , 19-C ) :   1.1777 B( 18-C , 78-H ) :   0.9317
B( 19-C , 20-C ) :   1.2381 B( 19-C , 30-C ) :   0.1111 B( 19-C , 32-C ) :   1.1956
B( 20-C , 21-C ) :   1.1201 B( 20-C , 25-N ) :   1.4450 B( 21-C , 22-N ) :   1.4922
B( 21-C , 30-C ) :   1.2132 B( 22-N , 23-C ) :   1.6618 B( 23-C , 24-C ) :   1.2121
B( 23-C , 28-C ) :   1.1529 B( 24-C , 25-N ) :   1.7330 B( 24-C , 26-C ) :   1.1434
B( 26-C , 27-N ) :   3.0487 B( 28-C , 29-N ) :   3.0497 B( 30-C , 31-C ) :   1.1811
B( 30-C , 36-C ) :   1.1670 B( 31-C , 32-C ) :   1.1315 B( 31-C , 35-N ) :   1.4942
B( 32-C , 33-N ) :   1.5026 B( 33-N , 34-S ) :   1.2877 B( 33-N , 35-N ) :   0.1462
B( 34-S , 35-N ) :   1.2607 B( 36-C , 37-C ) :   1.3179 B( 36-C , 41-N ) :   1.2509
B( 37-C , 38-C ) :   1.2681 B( 37-C , 44-C ) :   0.9649 B( 38-C , 39-C ) :   0.9595
B( 38-C , 42-C ) :   1.2575 B( 39-C , 40-O ) :   2.0487 B( 39-C , 41-N ) :   1.1140
B( 41-N , 79-H ) :   0.8946 B( 42-C , 43-O ) :   1.1482 B( 42-C , 46-C ) :   1.3414
B( 43-O , 44-C ) :   1.0074 B( 44-C , 45-O ) :   2.2098 B( 46-C , 47-S ) :   1.0903
B( 46-C , 50-C ) :   1.2172 B( 47-S , 48-C ) :   1.1924 B( 48-C , 49-C ) :   1.2454
B( 48-C , 58-C ) :   1.1869 B( 49-C , 50-C ) :   1.2350 B( 49-C , 57-C ) :   1.2196
B( 50-C , 51-C ) :   1.2769 B( 51-C , 52-C ) :   1.4325 B( 51-C , 80-H ) :   0.9853
B( 52-C , 53-C ) :   1.0534 B( 52-C , 55-C ) :   1.2340 B( 53-C , 54-C ) :   1.9497
B( 53-C , 81-H ) :   0.9559 B( 54-C , 82-H ) :   0.9427 B( 54-C , 83-H ) :   0.9495
B( 55-C , 56-C ) :   1.0862 B( 55-C , 57-C ) :   1.5061 B( 56-C , 84-H ) :   0.9404
B( 56-C , 85-H ) :   0.9538 B( 56-C , 86-H ) :   0.9431 B( 57-C , 87-H ) :   0.9881
B( 58-C , 59-C ) :   1.5985 B( 58-C , 88-H ) :   0.9473 B( 59-C , 60-C ) :   1.1445
B( 59-C , 89-H ) :   0.9713 B( 60-C , 61-C ) :   1.3865 B( 60-C , 71-C ) :   1.1744
B( 61-C , 62-C ) :   1.1879 B( 61-C , 90-H ) :   1.0071 B( 62-C , 63-C ) :   1.3443
B( 62-C , 70-C ) :   1.1486 B( 63-C , 64-C ) :   1.2069 B( 63-C , 91-H ) :   1.0036
B( 64-C , 65-C ) :   1.3418 B( 64-C , 68-C ) :   1.1363 B( 65-C , 66-C ) :   1.2126
B( 65-C , 92-H ) :   1.0083 B( 66-C , 67-C ) :   1.4390 B( 66-C , 72-C ) :   1.0800
B( 67-C , 68-C ) :   1.1232 B( 67-C , 93-H ) :   1.0163 B( 68-C , 69-C ) :   1.4193
B( 69-C , 70-C ) :   1.1556 B( 69-C , 94-H ) :   1.0046 B( 70-C , 71-C ) :   1.3787
B( 71-C , 95-H ) :   1.0146 B( 72-C , 73-C ) :   1.9400 B( 72-C , 96-H ) :   0.9665
B( 73-C , 97-H ) :   0.9537 B( 73-C , 98-H ) :   0.9493

-----------------------------------------------------------------------------
         ABSORPTION SPECTRUM VIA TRANSITION ELECTRIC DIPOLE MOMENTS
-----------------------------------------------------------------------------
State   Energy  Wavelength   fosc         T2         TX        TY        TZ
        (cm-1)    (nm)                  (au**2)     (au)      (au)      (au)
-----------------------------------------------------------------------------
   0    6488.4   1541.2   0.589972514  29.93414  -3.27016   4.38143   0.20796
   1    7339.1   1362.6   0.436929512  19.59943  -2.32437   3.76752  -0.05075
   2   15548.9    643.1   0.004738069   0.10032   0.17353  -0.13127   0.23016
   3   16198.4    617.3   0.670684642  13.63079   3.16054  -1.59553  -1.04692
   4   17400.1    574.7   0.002403870   0.04548   0.03964   0.20022  -0.06184
   5   19416.8    515.0   0.064669358   1.09647   0.82897  -0.42725  -0.47617
   6   20289.3    492.9   0.298779903   4.84797  -0.47852   2.12442   0.32532
   7   21142.8    473.0   0.074459962   1.15941   0.48089   0.60061  -0.75327
   8   21953.0    455.5   0.411115339   6.16518  -2.21631   0.66420   0.90109
   9   22095.0    452.6   0.062812224   0.93589  -0.69785   0.11187   0.66059
  10   23075.6    433.4   0.032466783   0.46319   0.20893  -0.62960  -0.15215
  11   23510.3    425.3   0.003255387   0.04558  -0.09132   0.10039  -0.16483
  12   23882.6    418.7   0.171815260   2.36841  -1.27123   0.40257   0.76832
  13   24455.5    408.9   0.077552757   1.04399  -0.96506   0.24815   0.22601
  14   24569.4    407.0   0.008166452   0.10942   0.32684   0.03114  -0.04038
  15   24886.5    401.8   0.028935602   0.38278  -0.57341   0.20792   0.10367
  16   25119.8    398.1   0.001373003   0.01799  -0.09178   0.09741   0.00902
  17   25350.9    394.5   0.063557755   0.82538   0.66154  -0.42495  -0.45514
  18   25559.5    391.2   0.028487332   0.36692   0.20131  -0.40381   0.40415
  19   26524.8    377.0   0.001565240   0.01943  -0.01024  -0.00934   0.13869
  20   27062.0    369.5   0.032254441   0.39238   0.33183   0.21954  -0.48381
  21   27209.7    367.5   0.019048272   0.23047   0.17347   0.17952  -0.41006
  22   27606.7    362.2   0.339396919   4.04734  -1.09917   0.60291   1.57342
  23   28393.3    352.2   0.062266686   0.72197  -0.46242   0.06706  -0.70967
  24   28716.1    348.2   0.025506169   0.29241   0.00352   0.06488   0.53683
  25   29392.1    340.2   0.310368258   3.47634   1.67168  -0.62452  -0.54017
  26   29488.2    339.1   0.086289703   0.96335  -0.94335   0.06830   0.26225
  27   29962.4    333.8   0.235190403   2.58415  -1.09443   0.05176   1.17630
  28   30249.3    330.6   0.008955669   0.09747  -0.05504  -0.19864  -0.23448
  29   30467.5    328.2   0.110254001   1.19133  -1.06886  -0.08929  -0.20226
  30   30601.2    326.8   0.132065066   1.42077   0.00663   0.69967   0.96498
  31   30899.0    323.6   0.210402691   2.24173  -1.10045   0.89487   0.47952
  32   30962.4    323.0   0.005163176   0.05490   0.07640  -0.19627  -0.10266
  33   31209.5    320.4   0.098527296   1.03931   0.09852   0.10045  -1.00971
  34   31755.7    314.9   0.012034295   0.12476  -0.17218   0.15561   0.26627
  35   32072.2    311.8   0.025360804   0.26032   0.35587   0.03063  -0.36433
  36   32226.6    310.3   0.069178944   0.70670  -0.01337   0.44336  -0.71411
  37   32376.0    308.9   0.202378928   2.05787  -0.81673  -0.19553   1.16301
  38   32527.0    307.4   0.044888967   0.45433  -0.67010   0.06218  -0.03777
  39   32632.9    306.4   0.030873659   0.31146   0.28006   0.45925  -0.14873
  40   33128.7    301.9   0.012606495   0.12528   0.11610  -0.32682  -0.07061
  41   33606.9    297.6   0.008357336   0.08187  -0.01033  -0.20088   0.20349
  42   33761.3    296.2   0.037772178   0.36832  -0.11327  -0.15722   0.57513
  43   34983.6    285.8   0.057039297   0.53677   0.22324  -0.68807  -0.11613
  44   35136.1    284.6   0.099828833   0.93536   0.90037  -0.14695  -0.32109
  45   35217.2    284.0   0.387489560   3.62227   1.60981   0.40263  -0.93203
  46   35370.5    282.7   0.048066360   0.44738   0.27010   0.02652  -0.61133
  47   35614.9    280.8   0.016677904   0.15416  -0.26925  -0.12764   0.25568
  48   35835.4    279.1   0.023620189   0.21699  -0.35585   0.24055   0.18028
  49   35887.7    278.6   0.073425184   0.67356  -0.61960  -0.13872   0.52001
  50   36286.2    275.6   0.051353322   0.46591  -0.27710  -0.52273  -0.34042
  51   36638.4    272.9   0.391185331   3.51497   1.39090  -1.05544  -0.68295
  52   37028.1    270.1   0.053120587   0.47229   0.33747  -0.16468  -0.57557
  53   37367.7    267.6   0.038928021   0.34296  -0.17830   0.32653  -0.45226
  54   37563.4    266.2   0.033596320   0.29444   0.48259  -0.23812  -0.06962
  55   37763.7    264.8   0.109655970   0.95595   0.25068   0.00220  -0.94504
  56   37793.3    264.6   0.008095808   0.07052   0.24423   0.09787  -0.03595
  57   37924.7    263.7   0.072054264   0.62548   0.62341  -0.14795  -0.46363
  58   38190.7    261.8   0.005203557   0.04486   0.10324   0.13020  -0.13132
  59   38443.3    260.1   0.038065046   0.32597   0.37461  -0.40634  -0.14327
  60   38525.2    259.6   0.076549053   0.65414   0.39291  -0.38440  -0.59330
  61   38694.6    258.4   0.014921807   0.12695  -0.08853   0.28257  -0.19816
  62   38951.5    256.7   0.001711601   0.01447   0.07105  -0.07802  -0.05771
  63   39130.5    255.6   0.073214924   0.61597   0.21516  -0.45470   0.60243
  64   39349.3    254.1   0.032000639   0.26773   0.25261   0.41954  -0.16704
  65   39377.0    254.0   0.008139290   0.06805   0.04423   0.09304  -0.23966
  66   39589.5    252.6   0.098449714   0.81867   0.23423   0.81182  -0.32366
  67   39660.2    252.1   0.058020234   0.48161  -0.34501  -0.25956   0.54334
  68   39782.7    251.4   0.004633702   0.03835   0.04180   0.18509   0.04838
  69   39958.5    250.3   0.006984104   0.05754  -0.06413  -0.09574  -0.21039
  70   40100.8    249.4   0.042447334   0.34848  -0.10517   0.24978   0.52443
  71   40212.9    248.7   0.087037206   0.71255  -0.23073   0.19930   0.78714

FINAL SINGLE POINT ENERGY     -4209.117018547334

DIPOLE MOMENT
-------------
                                X             Y             Z
Electronic contribution:     62.80434     -97.58485       9.63867
Nuclear contribution   :    -65.19659     103.95596     -13.36044
                        -----------------------------------------
Total Dipole Moment    :     -2.39225       6.37111      -3.72177
                        -----------------------------------------
Magnitude (a.u.)       :      7.75664
Magnitude (Debye)      :     19.71581

Rotational constants in cm-1:     0.001919     0.000236     0.000220
Rotational constants in MHz :    57.534833     7.066223     6.584211

                             ****ORCA TERMINATED NORMALLY****
TOTAL RUN TIME: 0 days 0 hours 11 minutes 14 seconds 527 msec
