                         Program Version 4.2.0 -  RELEASE  -
|  1> # ORCA input file
|  2> # SCF done       -193.778885124194          0.000404460623
|  3> ! CAM-B3LYP def2-SVP def2/J RIJCOSX Grid4 TightSCF
|  4> %maxcore 5000
|  5> %tddft
|  6>     Mode sTDDFT
|  7>     Ethresh 5.0
|  8>     maxcore 5000
|  9> end
| 10>
| 11> %pal
| 12>   nprocs 6
| 13>   end
| 14> * xyz 0 1
| 15>    C       -4.62342        -0.77596         3.03823
| 16>    C       -3.81144        -1.59638         2.29760
| 17>    C       -3.08012        -2.67501         2.83344
| 18>    N       -2.45381        -3.55687         3.21921
| 19>    C       -3.54597        -1.42004         0.92306
| 20>    N       -3.25097        -1.31535        -0.18144
| 21>    C       -4.80248        -0.83124         4.48292
| 22>    C       -5.54426         0.30522         4.88904
| 23>    C       -5.85061         0.55847         6.20404
| 24>    C       -5.37225        -0.33381         7.16681
| 25>    C       -4.63407        -1.46667         6.75097
| 26>    C       -4.35451        -1.74349         5.41821
| 27>    S       -4.12479        -2.41643         8.11053
| 28>    C       -4.88944        -1.31200         9.20169
| 29>    C       -5.50176        -0.27922         8.58357
| 30>    C       -5.90311         1.11101         3.70662
| 31>    O       -6.60749         2.09955         3.70612
| 32>    C       -5.32480         0.38994         2.54471
| 33>    C       -5.59966         0.68667         1.23962
| 34>    C       -6.10158         1.93996         0.79543
| 35>    C       -7.02521         2.01923        -0.27535
| 36>    C       -7.67581         3.25209        -0.63417
| 37>    N       -8.74054         3.23083        -1.44006
| 38>    C       -9.09186         2.10440        -2.01553
| 39>    C       -8.31544         0.91811        -1.81253
| 40>    N       -7.35267         0.89064        -0.92353
| 41>    C       -8.61493        -0.26005        -2.54266
| 42>    N       -8.88796        -1.19883        -3.13895
| 43>    C      -10.26597         2.06328        -2.80626
| 44>    N      -11.22013         1.97513        -3.43367
| 45>    C       -7.30118         4.48701        -0.04311
| 46>    C       -6.30656         4.41249         0.95840
| 47>    C       -5.70844         3.16865         1.36776
| 48>    N       -4.75063         3.35942         2.27397
| 49>    S       -4.65350         4.92822         2.60935
| 50>    N       -5.79760         5.45397         1.61112
| 51>    C       -7.92982         5.71983        -0.32407
| 52>    S       -7.88180         6.96162         0.88361
| 53>    C       -8.95360         7.99377        -0.03196
| 54>    C       -9.23951         7.40470        -1.27127
| 55>    C       -8.66970         6.13554        -1.44391
| 56>    C       -8.66598         5.43182        -2.66813
| 57>    N       -8.56627         4.96167        -3.70956
| 58>    C      -10.10272         8.11029        -2.26662
| 59>    F      -11.31915         8.39910        -1.75526
| 60>    F       -9.57649         9.30098        -2.62800
| 61>    F      -10.31807         7.43328        -3.39093
| 62>    C       -9.41636         9.20146         0.50950
| 63>    C       -9.10939         9.52626         1.81229
| 64>    C       -9.54330        10.59987         2.57385
| 65>    C       -9.22848        10.67097         3.92767
| 66>    C       -9.61598        11.61794         4.89119
| 67>    C       -9.18713        11.33381         6.16582
| 68>    C       -8.43912        10.15185         6.25627
| 69>    S       -8.27097         9.41753         4.68287
| 70>    C       -7.88280         9.50462         7.35910
| 71>    C       -7.92438         9.83090         8.72506
| 72>    C       -7.29800         8.91319         9.52515
| 73>    C       -6.72314         7.82303         8.83365
| 74>    S       -7.01251         8.01815         7.11522
| 75>    C       -6.05260         6.76025         9.40297
| 76>    C       -5.43539         5.67232         8.76536
| 77>    C       -4.78173         4.61952         9.43704
| 78>    C       -4.24422         3.73216         8.48542
| 79>    C       -3.50180         2.56803         8.61044
| 80>    C       -3.07568         1.93944         7.43848
| 81>    C       -2.33110         0.77931         7.22261
| 82>    C       -2.16480         0.58462         5.82234
| 83>    C       -2.81456         1.62042         5.16256
| 84>    C       -3.40220         2.48475         6.13035
| 85>    C       -4.15772         3.61685         5.99395
| 86>    C       -4.58415         4.26064         7.17380
| 87>    C       -5.30680         5.42140         7.35554
| 88>    C       -1.46388        -0.49672         5.17140
| 89>    C       -0.96600        -1.57129         5.77691
| 90>    H       -6.42301         1.42975         6.48266
| 91>    H       -3.80448        -2.62964         5.14999
| 92>    H       -4.83403        -1.51158        10.25429
| 93>    H       -6.02896         0.50530         9.09584
| 94>    H       -5.50270        -0.07712         0.47796
| 95>    H      -10.05019         9.84077        -0.08646
| 96>    H       -8.47253         8.81749         2.33212
| 97>    H      -10.16529        11.37120         2.14342
| 98>    H      -10.20850        12.47774         4.63307
| 99>    H       -9.40146        11.94536         7.02416
|100>    H       -8.41451        10.71653         9.08740
|101>    H       -7.23495         8.99277        10.59633
|102>    H       -5.99017         6.77315        10.48492
|103>    H       -4.70119         4.51901        10.50395
|104>    H       -3.25202         2.16063         9.57998
|105>    H       -1.93317         0.14148         7.99056
|106>    H       -2.87218         1.76545         4.09881
|107>    H       -4.42471         4.00874         5.02420
|108>    H       -5.69357         6.03589         6.56577
|109>    H       -1.36748        -0.39537         4.09759
|110>    H       -1.04988        -1.72323         6.83966
|111>    H       -0.47138        -2.34693         5.21992
|112> *
|113>
|114>                          ****END OF INPUT****

CARTESIAN COORDINATES (ANGSTROEM)
---------------------------------
  C     -4.623420   -0.775960    3.038230
  C     -3.811440   -1.596380    2.297600
  C     -3.080120   -2.675010    2.833440
  N     -2.453810   -3.556870    3.219210
  C     -3.545970   -1.420040    0.923060
  N     -3.250970   -1.315350   -0.181440
  C     -4.802480   -0.831240    4.482920
  C     -5.544260    0.305220    4.889040
  C     -5.850610    0.558470    6.204040
  C     -5.372250   -0.333810    7.166810
  C     -4.634070   -1.466670    6.750970
  C     -4.354510   -1.743490    5.418210
  S     -4.124790   -2.416430    8.110530
  C     -4.889440   -1.312000    9.201690
  C     -5.501760   -0.279220    8.583570
  C     -5.903110    1.111010    3.706620
  O     -6.607490    2.099550    3.706120
  C     -5.324800    0.389940    2.544710
  C     -5.599660    0.686670    1.239620
  C     -6.101580    1.939960    0.795430
  C     -7.025210    2.019230   -0.275350
  C     -7.675810    3.252090   -0.634170
  N     -8.740540    3.230830   -1.440060
  C     -9.091860    2.104400   -2.015530
  C     -8.315440    0.918110   -1.812530
  N     -7.352670    0.890640   -0.923530
  C     -8.614930   -0.260050   -2.542660
  N     -8.887960   -1.198830   -3.138950
  C    -10.265970    2.063280   -2.806260
  N    -11.220130    1.975130   -3.433670
  C     -7.301180    4.487010   -0.043110
  C     -6.306560    4.412490    0.958400
  C     -5.708440    3.168650    1.367760
  N     -4.750630    3.359420    2.273970
  S     -4.653500    4.928220    2.609350
  N     -5.797600    5.453970    1.611120
  C     -7.929820    5.719830   -0.324070
  S     -7.881800    6.961620    0.883610
  C     -8.953600    7.993770   -0.031960
  C     -9.239510    7.404700   -1.271270
  C     -8.669700    6.135540   -1.443910
  C     -8.665980    5.431820   -2.668130
  N     -8.566270    4.961670   -3.709560
  C    -10.102720    8.110290   -2.266620
  F    -11.319150    8.399100   -1.755260
  F     -9.576490    9.300980   -2.628000
  F    -10.318070    7.433280   -3.390930
  C     -9.416360    9.201460    0.509500
  C     -9.109390    9.526260    1.812290
  C     -9.543300   10.599870    2.573850
  C     -9.228480   10.670970    3.927670
  C     -9.615980   11.617940    4.891190
  C     -9.187130   11.333810    6.165820
  C     -8.439120   10.151850    6.256270
  S     -8.270970    9.417530    4.682870
  C     -7.882800    9.504620    7.359100
  C     -7.924380    9.830900    8.725060
  C     -7.298000    8.913190    9.525150
  C     -6.723140    7.823030    8.833650
  S     -7.012510    8.018150    7.115220
  C     -6.052600    6.760250    9.402970
  C     -5.435390    5.672320    8.765360
  C     -4.781730    4.619520    9.437040
  C     -4.244220    3.732160    8.485420
  C     -3.501800    2.568030    8.610440
  C     -3.075680    1.939440    7.438480
  C     -2.331100    0.779310    7.222610
  C     -2.164800    0.584620    5.822340
  C     -2.814560    1.620420    5.162560
  C     -3.402200    2.484750    6.130350
  C     -4.157720    3.616850    5.993950
  C     -4.584150    4.260640    7.173800
  C     -5.306800    5.421400    7.355540
  C     -1.463880   -0.496720    5.171400
  C     -0.966000   -1.571290    5.776910
  H     -6.423010    1.429750    6.482660
  H     -3.804480   -2.629640    5.149990
  H     -4.834030   -1.511580   10.254290
  H     -6.028960    0.505300    9.095840
  H     -5.502700   -0.077120    0.477960
  H    -10.050190    9.840770   -0.086460
  H     -8.472530    8.817490    2.332120
  H    -10.165290   11.371200    2.143420
  H    -10.208500   12.477740    4.633070
  H     -9.401460   11.945360    7.024160
  H     -8.414510   10.716530    9.087400
  H     -7.234950    8.992770   10.596330
  H     -5.990170    6.773150   10.484920
  H     -4.701190    4.519010   10.503950
  H     -3.252020    2.160630    9.579980
  H     -1.933170    0.141480    7.990560
  H     -2.872180    1.765450    4.098810
  H     -4.424710    4.008740    5.024200
  H     -5.693570    6.035890    6.565770
  H     -1.367480   -0.395370    4.097590
  H     -1.049880   -1.723230    6.839660
  H     -0.471380   -2.346930    5.219920

 Total Charge           Charge          ....    0
 Multiplicity           Mult            ....    1
 Number of Electrons    NEL             ....  542
 Basis Dimension        Dim             .... 1180

ORBITAL ENERGIES
----------------

  NO   OCC          E(Eh)            E(eV)
   0   2.0000     -89.044001     -2423.0105
   1   2.0000     -88.972958     -2421.0773
   2   2.0000     -88.972891     -2421.0754
   3   2.0000     -88.972886     -2421.0753
   4   2.0000     -88.965008     -2420.8609
   5   2.0000     -24.798907      -674.8126
   6   2.0000     -24.792370      -674.6347
   7   2.0000     -24.791241      -674.6040
   8   2.0000     -19.214023      -522.8401
   9   2.0000     -14.457692      -393.4138
  10   2.0000     -14.455054      -393.3420
  11   2.0000     -14.453507      -393.2999
  12   2.0000     -14.450217      -393.2104
  13   2.0000     -14.421835      -392.4381
  14   2.0000     -14.413836      -392.2204
  15   2.0000     -14.413423      -392.2092
  16   2.0000     -14.409018      -392.0893
  17   2.0000     -14.400476      -391.8569
  18   2.0000     -10.518659      -286.2273
  19   2.0000     -10.377410      -282.3837
  20   2.0000     -10.368793      -282.1492
  21   2.0000     -10.364048      -282.0201
  22   2.0000     -10.349803      -281.6325
  23   2.0000     -10.346845      -281.5520
  24   2.0000     -10.343849      -281.4705
  25   2.0000     -10.342926      -281.4453
  26   2.0000     -10.342162      -281.4245
  27   2.0000     -10.338419      -281.3227
  28   2.0000     -10.337888      -281.3082
  29   2.0000     -10.336322      -281.2656
  30   2.0000     -10.332993      -281.1750
  31   2.0000     -10.332285      -281.1558
  32   2.0000     -10.331215      -281.1267
  33   2.0000     -10.330977      -281.1202
  34   2.0000     -10.327880      -281.0359
  35   2.0000     -10.326651      -281.0025
  36   2.0000     -10.324550      -280.9453
  37   2.0000     -10.322731      -280.8958
  38   2.0000     -10.320811      -280.8436
  39   2.0000     -10.319361      -280.8041
  40   2.0000     -10.317734      -280.7598
  41   2.0000     -10.316494      -280.7261
  42   2.0000     -10.314509      -280.6721
  43   2.0000     -10.314405      -280.6692
  44   2.0000     -10.313052      -280.6324
  45   2.0000     -10.312573      -280.6194
  46   2.0000     -10.312306      -280.6121
  47   2.0000     -10.311640      -280.5940
  48   2.0000     -10.310056      -280.5509
  49   2.0000     -10.308042      -280.4961
  50   2.0000     -10.305939      -280.4388
  51   2.0000     -10.305750      -280.4337
  52   2.0000     -10.304742      -280.4063
  53   2.0000     -10.304332      -280.3951
  54   2.0000     -10.304193      -280.3914
  55   2.0000     -10.302519      -280.3458
  56   2.0000     -10.301925      -280.3296
  57   2.0000     -10.301589      -280.3205
  58   2.0000     -10.300101      -280.2800
  59   2.0000     -10.299528      -280.2644
  60   2.0000     -10.298058      -280.2244
  61   2.0000     -10.296963      -280.1946
  62   2.0000     -10.296122      -280.1717
  63   2.0000     -10.295551      -280.1562
  64   2.0000     -10.293786      -280.1082
  65   2.0000     -10.290130      -280.0087
  66   2.0000     -10.290001      -280.0052
  67   2.0000     -10.289788      -279.9994
  68   2.0000     -10.289698      -279.9969
  69   2.0000     -10.288289      -279.9586
  70   2.0000     -10.288084      -279.9530
  71   2.0000     -10.286216      -279.9022
  72   2.0000     -10.285976      -279.8956
  73   2.0000     -10.279708      -279.7251
  74   2.0000     -10.269160      -279.4381
  75   2.0000      -8.134649      -221.3551
  76   2.0000      -8.068929      -219.5667
  77   2.0000      -8.068828      -219.5640
  78   2.0000      -8.067528      -219.5286
  79   2.0000      -8.061334      -219.3600
  80   2.0000      -6.105855      -166.1488
  81   2.0000      -6.098144      -165.9389
  82   2.0000      -6.097225      -165.9139
  83   2.0000      -6.038545      -164.3172
  84   2.0000      -6.038335      -164.3114
  85   2.0000      -6.036998      -164.2751
  86   2.0000      -6.034417      -164.2048
  87   2.0000      -6.034047      -164.1948
  88   2.0000      -6.032689      -164.1578
  89   2.0000      -6.030914      -164.1095
  90   2.0000      -6.030554      -164.0997
  91   2.0000      -6.030181      -164.0896
  92   2.0000      -6.029317      -164.0661
  93   2.0000      -6.026865      -163.9993
  94   2.0000      -6.022554      -163.8820
  95   2.0000      -1.385261       -37.6949
  96   2.0000      -1.290233       -35.1090
  97   2.0000      -1.281317       -34.8664
  98   2.0000      -1.143014       -31.1030
  99   2.0000      -1.127564       -30.6826
 100   2.0000      -1.115300       -30.3489
 101   2.0000      -1.042582       -28.3701
 102   2.0000      -1.021630       -27.8000
 103   2.0000      -1.019979       -27.7550
 104   2.0000      -1.019471       -27.7412
 105   2.0000      -1.010255       -27.4904
 106   2.0000      -1.007485       -27.4150
 107   2.0000      -1.003896       -27.3174
 108   2.0000      -0.997302       -27.1380
 109   2.0000      -0.996067       -27.1044
 110   2.0000      -0.991077       -26.9686
 111   2.0000      -0.989865       -26.9356
 112   2.0000      -0.984551       -26.7910
 113   2.0000      -0.983168       -26.7533
 114   2.0000      -0.982105       -26.7244
 115   2.0000      -0.973998       -26.5038
 116   2.0000      -0.932714       -25.3805
 117   2.0000      -0.930156       -25.3108
 118   2.0000      -0.923164       -25.1206
 119   2.0000      -0.911896       -24.8140
 120   2.0000      -0.905060       -24.6279
 121   2.0000      -0.900802       -24.5121
 122   2.0000      -0.890962       -24.2443
 123   2.0000      -0.886710       -24.1286
 124   2.0000      -0.884836       -24.0776
 125   2.0000      -0.882266       -24.0077
 126   2.0000      -0.876233       -23.8435
 127   2.0000      -0.871249       -23.7079
 128   2.0000      -0.860588       -23.4178
 129   2.0000      -0.849760       -23.1232
 130   2.0000      -0.841470       -22.8976
 131   2.0000      -0.836393       -22.7594
 132   2.0000      -0.828861       -22.5544
 133   2.0000      -0.825597       -22.4656
 134   2.0000      -0.820965       -22.3396
 135   2.0000      -0.813789       -22.1443
 136   2.0000      -0.799146       -21.7459
 137   2.0000      -0.791460       -21.5367
 138   2.0000      -0.786891       -21.4124
 139   2.0000      -0.770765       -20.9736
 140   2.0000      -0.765258       -20.8237
 141   2.0000      -0.755868       -20.5682
 142   2.0000      -0.753899       -20.5146
 143   2.0000      -0.742543       -20.2056
 144   2.0000      -0.730712       -19.8837
 145   2.0000      -0.725340       -19.7375
 146   2.0000      -0.712882       -19.3985
 147   2.0000      -0.705327       -19.1929
 148   2.0000      -0.699573       -19.0363
 149   2.0000      -0.695551       -18.9269
 150   2.0000      -0.692444       -18.8423
 151   2.0000      -0.688878       -18.7453
 152   2.0000      -0.688299       -18.7296
 153   2.0000      -0.684556       -18.6277
 154   2.0000      -0.673874       -18.3370
 155   2.0000      -0.669321       -18.2132
 156   2.0000      -0.666648       -18.1404
 157   2.0000      -0.666467       -18.1355
 158   2.0000      -0.664760       -18.0890
 159   2.0000      -0.662452       -18.0262
 160   2.0000      -0.658006       -17.9053
 161   2.0000      -0.652360       -17.7516
 162   2.0000      -0.648417       -17.6443
 163   2.0000      -0.640291       -17.4232
 164   2.0000      -0.640232       -17.4216
 165   2.0000      -0.633016       -17.2252
 166   2.0000      -0.625327       -17.0160
 167   2.0000      -0.620259       -16.8781
 168   2.0000      -0.617699       -16.8084
 169   2.0000      -0.614838       -16.7306
 170   2.0000      -0.612654       -16.6712
 171   2.0000      -0.600778       -16.3480
 172   2.0000      -0.597790       -16.2667
 173   2.0000      -0.594990       -16.1905
 174   2.0000      -0.589086       -16.0298
 175   2.0000      -0.582687       -15.8557
 176   2.0000      -0.577765       -15.7218
 177   2.0000      -0.575740       -15.6667
 178   2.0000      -0.570315       -15.5191
 179   2.0000      -0.562581       -15.3086
 180   2.0000      -0.559210       -15.2169
 181   2.0000      -0.553416       -15.0592
 182   2.0000      -0.551647       -15.0111
 183   2.0000      -0.546499       -14.8710
 184   2.0000      -0.546263       -14.8646
 185   2.0000      -0.544829       -14.8256
 186   2.0000      -0.544298       -14.8111
 187   2.0000      -0.543921       -14.8008
 188   2.0000      -0.539395       -14.6777
 189   2.0000      -0.534767       -14.5518
 190   2.0000      -0.533266       -14.5109
 191   2.0000      -0.525990       -14.3129
 192   2.0000      -0.522462       -14.2169
 193   2.0000      -0.521827       -14.1996
 194   2.0000      -0.519907       -14.1474
 195   2.0000      -0.517476       -14.0812
 196   2.0000      -0.516999       -14.0683
 197   2.0000      -0.514756       -14.0072
 198   2.0000      -0.512518       -13.9463
 199   2.0000      -0.510996       -13.9049
 200   2.0000      -0.506227       -13.7751
 201   2.0000      -0.503498       -13.7009
 202   2.0000      -0.502260       -13.6672
 203   2.0000      -0.498856       -13.5746
 204   2.0000      -0.496066       -13.4986
 205   2.0000      -0.495982       -13.4964
 206   2.0000      -0.491725       -13.3805
 207   2.0000      -0.490966       -13.3599
 208   2.0000      -0.489804       -13.3282
 209   2.0000      -0.487513       -13.2659
 210   2.0000      -0.486055       -13.2262
 211   2.0000      -0.484747       -13.1906
 212   2.0000      -0.479828       -13.0568
 213   2.0000      -0.479491       -13.0476
 214   2.0000      -0.478201       -13.0125
 215   2.0000      -0.476533       -12.9671
 216   2.0000      -0.474975       -12.9247
 217   2.0000      -0.472872       -12.8675
 218   2.0000      -0.470949       -12.8152
 219   2.0000      -0.469351       -12.7717
 220   2.0000      -0.467600       -12.7240
 221   2.0000      -0.460401       -12.5282
 222   2.0000      -0.456100       -12.4111
 223   2.0000      -0.452021       -12.3001
 224   2.0000      -0.451437       -12.2842
 225   2.0000      -0.448430       -12.2024
 226   2.0000      -0.446372       -12.1464
 227   2.0000      -0.446253       -12.1432
 228   2.0000      -0.442906       -12.0521
 229   2.0000      -0.441535       -12.0148
 230   2.0000      -0.439814       -11.9680
 231   2.0000      -0.439176       -11.9506
 232   2.0000      -0.438410       -11.9297
 233   2.0000      -0.435654       -11.8548
 234   2.0000      -0.433028       -11.7833
 235   2.0000      -0.432771       -11.7763
 236   2.0000      -0.430599       -11.7172
 237   2.0000      -0.427224       -11.6253
 238   2.0000      -0.426774       -11.6131
 239   2.0000      -0.423769       -11.5313
 240   2.0000      -0.422398       -11.4940
 241   2.0000      -0.419627       -11.4186
 242   2.0000      -0.416307       -11.3283
 243   2.0000      -0.415085       -11.2950
 244   2.0000      -0.413618       -11.2551
 245   2.0000      -0.409823       -11.1518
 246   2.0000      -0.407062       -11.0767
 247   2.0000      -0.406545       -11.0627
 248   2.0000      -0.405022       -11.0212
 249   2.0000      -0.396618       -10.7925
 250   2.0000      -0.389576       -10.6009
 251   2.0000      -0.388101       -10.5608
 252   2.0000      -0.386294       -10.5116
 253   2.0000      -0.377012       -10.2590
 254   2.0000      -0.371238       -10.1019
 255   2.0000      -0.360733        -9.8160
 256   2.0000      -0.358897        -9.7661
 257   2.0000      -0.350235        -9.5304
 258   2.0000      -0.348988        -9.4965
 259   2.0000      -0.343456        -9.3459
 260   2.0000      -0.342156        -9.3105
 261   2.0000      -0.339135        -9.2283
 262   2.0000      -0.332043        -9.0354
 263   2.0000      -0.329373        -8.9627
 264   2.0000      -0.316895        -8.6232
 265   2.0000      -0.306442        -8.3387
 266   2.0000      -0.295919        -8.0524
 267   2.0000      -0.284949        -7.7538
 268   2.0000      -0.278119        -7.5680
 269   2.0000      -0.258477        -7.0335
 270   2.0000      -0.216775        -5.8987
 271   0.0000      -0.135156        -3.6778
 272   0.0000      -0.120022        -3.2660
 273   0.0000      -0.101319        -2.7570
 274   0.0000      -0.078761        -2.1432
 275   0.0000      -0.055296        -1.5047

MULLIKEN ATOMIC CHARGES
-----------------------
   0 C :    0.288846
   1 C :   -0.347671
   2 C :   -0.190186
   3 N :    0.151868
   4 C :   -0.208314
   5 N :    0.172348
   6 C :    0.004825
   7 C :   -0.009095
   8 C :   -0.055545
   9 C :    0.117127
  10 C :   -0.105535
  11 C :    0.001776
  12 S :    0.132115
  13 C :   -0.063089
  14 C :    0.027782
  15 C :    0.145296
  16 O :   -0.163458
  17 C :   -0.078513
  18 C :   -0.064358
  19 C :    0.044929
  20 C :   -0.029212
  21 C :   -0.065388
  22 N :    0.019037
  23 C :   -0.112397
  24 C :   -0.131843
  25 N :    0.048077
  26 C :   -0.191315
  27 N :    0.230820
  28 C :   -0.199582
  29 N :    0.232214
  30 C :    0.165948
  31 C :   -0.021011
  32 C :    0.056205
  33 N :   -0.281719
  34 S :    0.511686
  35 N :   -0.289778
  36 C :   -0.178848
  37 S :    0.149572
  38 C :   -0.071362
  39 C :   -0.072534
  40 C :    0.045249
  41 C :   -0.255232
  42 N :    0.171832
  43 C :    0.515997
  44 F :   -0.170385
  45 F :   -0.170396
  46 F :   -0.128231
  47 C :    0.010800
  48 C :   -0.002054
  49 C :    0.004583
  50 C :   -0.012840
  51 C :    0.017734
  52 C :    0.042209
  53 C :   -0.051535
  54 S :    0.062589
  55 C :    0.000198
  56 C :    0.014690
  57 C :    0.051831
  58 C :   -0.047147
  59 S :    0.065048
  60 C :    0.025664
  61 C :    0.040794
  62 C :   -0.029521
  63 C :    0.052762
  64 C :    0.009891
  65 C :    0.037078
  66 C :    0.017139
  67 C :    0.047114
  68 C :    0.004108
  69 C :    0.065965
  70 C :    0.033724
  71 C :    0.045762
  72 C :   -0.027491
  73 C :    0.004896
  74 C :   -0.023411
  75 H :   -0.016619
  76 H :   -0.007662
  77 H :    0.036235
  78 H :   -0.008838
  79 H :    0.047597
  80 H :    0.008310
  81 H :    0.030285
  82 H :   -0.008081
  83 H :   -0.006883
  84 H :   -0.006013
  85 H :   -0.008075
  86 H :   -0.001447
  87 H :   -0.009454
  88 H :   -0.021402
  89 H :   -0.022311
  90 H :   -0.015685
  91 H :   -0.005489
  92 H :   -0.071315
  93 H :   -0.002919
  94 H :   -0.000773
  95 H :    0.008616
  96 H :    0.042792
Sum of atomic charges:   -0.0000000

LOEWDIN ATOMIC CHARGES
----------------------
   0 C :    0.071827
   1 C :   -0.141680
   2 C :   -0.015764
   3 N :   -0.058703
   4 C :   -0.026866
   5 N :   -0.046005
   6 C :   -0.020285
   7 C :   -0.046771
   8 C :    0.022810
   9 C :   -0.035021
  10 C :   -0.147381
  11 C :   -0.002521
  12 S :    0.425672
  13 C :   -0.157561
  14 C :   -0.057209
  15 C :    0.081311
  16 O :   -0.154200
  17 C :   -0.091581
  18 C :    0.084421
  19 C :   -0.066787
  20 C :    0.021437
  21 C :   -0.011311
  22 N :    0.017866
  23 C :   -0.028707
  24 C :   -0.009509
  25 N :   -0.011418
  26 C :   -0.032364
  27 N :    0.001174
  28 C :   -0.035096
  29 N :   -0.006231
  30 C :   -0.020835
  31 C :   -0.049579
  32 C :   -0.018533
  33 N :   -0.282183
  34 S :    0.662720
  35 N :   -0.292675
  36 C :   -0.148891
  37 S :    0.495898
  38 C :   -0.117730
  39 C :   -0.108136
  40 C :   -0.048002
  41 C :   -0.039077
  42 N :   -0.046150
  43 C :    0.171561
  44 F :   -0.068102
  45 F :   -0.070026
  46 F :   -0.027492
  47 C :   -0.068344
  48 C :   -0.002305
  49 C :   -0.073847
  50 C :   -0.114457
  51 C :   -0.054768
  52 C :   -0.010593
  53 C :   -0.204308
  54 S :    0.398349
  55 C :   -0.142731
  56 C :   -0.053960
  57 C :   -0.003515
  58 C :   -0.176451
  59 S :    0.410715
  60 C :    0.005599
  61 C :   -0.077943
  62 C :    0.030491
  63 C :   -0.071923
  64 C :    0.088006
  65 C :   -0.068050
  66 C :    0.077256
  67 C :   -0.055029
  68 C :    0.049391
  69 C :   -0.056912
  70 C :    0.076596
  71 C :   -0.059852
  72 C :    0.021125
  73 C :   -0.027367
  74 C :   -0.033795
  75 H :    0.038082
  76 H :    0.039311
  77 H :    0.027859
  78 H :    0.033728
  79 H :    0.049158
  80 H :    0.034507
  81 H :    0.007508
  82 H :    0.035991
  83 H :    0.035496
  84 H :    0.035382
  85 H :    0.034561
  86 H :    0.037599
  87 H :    0.041071
  88 H :    0.026238
  89 H :    0.036491
  90 H :    0.028298
  91 H :    0.030558
  92 H :    0.016623
  93 H :    0.013272
  94 H :    0.032798
  95 H :    0.015007
  96 H :    0.032767

  Mayer bond orders larger than 0.100000
B(  0-C ,  1-C ) :   1.6381 B(  0-C ,  6-C ) :   0.9978 B(  0-C , 17-C ) :   1.0717
B(  1-C ,  2-C ) :   1.1499 B(  1-C ,  4-C ) :   1.1402 B(  2-C ,  3-N ) :   2.9554
B(  4-C ,  5-N ) :   3.0005 B(  6-C ,  7-C ) :   1.2738 B(  6-C , 11-C ) :   1.4098
B(  7-C ,  8-C ) :   1.4238 B(  7-C , 15-C ) :   0.9513 B(  8-C ,  9-C ) :   1.2451
B(  8-C , 75-H ) :   1.0167 B(  9-C , 10-C ) :   1.3145 B(  9-C , 14-C ) :   1.1712
B( 10-C , 11-C ) :   1.3187 B( 10-C , 12-S ) :   1.0869 B( 11-C , 76-H ) :   0.9804
B( 12-S , 13-C ) :   1.1196 B( 13-C , 14-C ) :   1.6229 B( 13-C , 77-H ) :   0.9701
B( 14-C , 78-H ) :   0.9945 B( 15-C , 16-O ) :   2.1914 B( 15-C , 17-C ) :   0.9556
B( 17-C , 18-C ) :   1.5573 B( 18-C , 19-C ) :   1.1977 B( 18-C , 79-H ) :   0.9341
B( 19-C , 20-C ) :   1.2456 B( 19-C , 32-C ) :   1.1908 B( 20-C , 21-C ) :   1.1220
B( 20-C , 25-N ) :   1.4600 B( 21-C , 22-N ) :   1.4606 B( 21-C , 30-C ) :   1.2001
B( 22-N , 23-C ) :   1.6587 B( 23-C , 24-C ) :   1.2193 B( 23-C , 28-C ) :   1.1520
B( 24-C , 25-N ) :   1.7291 B( 24-C , 26-C ) :   1.1452 B( 26-C , 27-N ) :   3.0500
B( 28-C , 29-N ) :   3.0415 B( 30-C , 31-C ) :   1.1777 B( 30-C , 36-C ) :   1.2701
B( 31-C , 32-C ) :   1.1125 B( 31-C , 35-N ) :   1.5135 B( 32-C , 33-N ) :   1.5263
B( 33-N , 34-S ) :   1.2519 B( 33-N , 35-N ) :   0.1428 B( 34-S , 35-N ) :   1.2730
B( 36-C , 37-S ) :   1.1178 B( 36-C , 40-C ) :   1.3605 B( 37-S , 38-C ) :   1.1007
B( 38-C , 39-C ) :   1.3257 B( 38-C , 47-C ) :   1.2966 B( 39-C , 40-C ) :   1.4229
B( 39-C , 43-C ) :   0.9351 B( 40-C , 41-C ) :   1.1194 B( 41-C , 42-N ) :   2.9860
B( 43-C , 44-F ) :   1.1524 B( 43-C , 45-F ) :   1.1580 B( 43-C , 46-F ) :   1.1905
B( 47-C , 48-C ) :   1.4312 B( 47-C , 80-H ) :   0.9728 B( 48-C , 49-C ) :   1.3044
B( 48-C , 81-H ) :   0.9535 B( 49-C , 50-C ) :   1.3926 B( 49-C , 82-H ) :   0.9909
B( 50-C , 51-C ) :   1.2313 B( 50-C , 54-S ) :   1.0899 B( 51-C , 52-C ) :   1.4837
B( 51-C , 83-H ) :   0.9993 B( 52-C , 53-C ) :   1.2788 B( 52-C , 84-H ) :   0.9955
B( 53-C , 54-S ) :   1.0510 B( 53-C , 55-C ) :   1.3830 B( 55-C , 56-C ) :   1.2448
B( 55-C , 59-S ) :   1.0980 B( 56-C , 57-C ) :   1.5261 B( 56-C , 85-H ) :   0.9956
B( 57-C , 58-C ) :   1.1895 B( 57-C , 86-H ) :   0.9991 B( 58-C , 59-S ) :   1.0244
B( 58-C , 60-C ) :   1.4983 B( 60-C , 61-C ) :   1.1924 B( 60-C , 87-H ) :   0.9712
B( 61-C , 62-C ) :   1.3375 B( 61-C , 72-C ) :   1.1455 B( 62-C , 63-C ) :   1.1957
B( 62-C , 88-H ) :   1.0198 B( 63-C , 64-C ) :   1.3142 B( 63-C , 71-C ) :   1.1355
B( 64-C , 65-C ) :   1.2216 B( 64-C , 89-H ) :   1.0082 B( 65-C , 66-C ) :   1.3200
B( 65-C , 69-C ) :   1.1247 B( 66-C , 67-C ) :   1.2053 B( 66-C , 90-H ) :   1.0161
B( 67-C , 68-C ) :   1.4305 B( 67-C , 73-C ) :   1.0746 B( 68-C , 69-C ) :   1.1057
B( 68-C , 91-H ) :   1.0199 B( 69-C , 70-C ) :   1.4438 B( 70-C , 71-C ) :   1.1265
B( 70-C , 92-H ) :   1.0025 B( 71-C , 72-C ) :   1.4563 B( 72-C , 93-H ) :   0.9868
B( 73-C , 74-C ) :   1.9332 B( 73-C , 94-H ) :   0.9684 B( 74-C , 95-H ) :   0.9521
B( 74-C , 96-H ) :   0.9430

-----------------------------------------------------------------------------
         ABSORPTION SPECTRUM VIA TRANSITION ELECTRIC DIPOLE MOMENTS
-----------------------------------------------------------------------------
State   Energy  Wavelength   fosc         T2         TX        TY        TZ
        (cm-1)    (nm)                  (au**2)     (au)      (au)      (au)
-----------------------------------------------------------------------------
   0    3802.0   2630.2   0.105802779   9.16138  -0.16720  -1.87561  -2.36971
   1    5793.4   1726.1   0.016356580   0.92947   0.40061  -0.86790  -0.12541
   2   12090.4    827.1   0.064279178   1.75027  -0.57692   0.21981  -1.17009
   3   12587.1    794.5   0.210417428   5.50339   1.19413  -1.90132   0.68002
   4   13801.2    724.6   1.034640092  24.68016   2.38710  -3.51185   2.57853
   5   16987.3    588.7   0.126035029   2.44254  -0.37021   0.24647  -1.49824
   6   17373.7    575.6   0.215877254   4.09062  -1.05142   1.45496  -0.93179
   7   18510.0    540.2   0.012019918   0.21378  -0.22382   0.40458  -0.00078
   8   19251.3    519.4   0.026323067   0.45015   0.34095  -0.57240  -0.07911
   9   19902.8    502.4   0.000391005   0.00647  -0.02198   0.07577   0.01558
  10   20114.3    497.2   0.336163807   5.50202  -0.76195   1.87809   1.18077
  11   20361.3    491.1   0.021342694   0.34508  -0.04161   0.55537  -0.18684
  12   21218.4    471.3   0.155078941   2.40611  -0.72590   1.15470  -0.73882
  13   21828.9    458.1   0.040296565   0.60773   0.22619  -0.35729   0.65491
  14   22519.9    444.1   0.357594668   5.22757  -0.84917   1.70607   1.26325
  15   22782.3    438.9   0.440893732   6.37106  -0.67486   2.13040   1.17346
  16   23410.3    427.2   0.112286956   1.57906  -0.37200   0.24539  -1.17493
  17   23756.5    420.9   0.054169991   0.75067   0.54065  -0.59634   0.32054
  18   24533.5    407.6   0.278616629   3.73872  -0.03796   1.30069   1.43020
  19   24726.0    404.4   0.037769797   0.50288   0.40083  -0.47863  -0.33635
  20   25017.3    399.7   0.007666121   0.10088   0.15376  -0.17074   0.21929
  21   25290.1    395.4   0.028641878   0.37284  -0.24661   0.06646   0.55463
  22   25403.7    393.6   0.003409646   0.04419  -0.05590   0.01933  -0.20171
  23   25463.2    392.7   0.054323438   0.70234   0.53788  -0.36804  -0.52685
  24   26045.2    383.9   0.019571559   0.24739   0.08721  -0.43128  -0.23191
  25   26377.0    379.1   0.268362937   3.34944   0.99801  -1.52482  -0.16837
  26   26936.0    371.2   0.065114771   0.79583  -0.01976  -0.02988   0.89137
  27   27309.3    366.2   0.092844629   1.11923  -0.49089   0.80869   0.47358
  28   28003.8    357.1   0.114212860   1.34268   0.99809  -0.28384   0.51568
  29   28069.3    356.3   0.016854584   0.19768   0.06423   0.04611  -0.43752
  30   28457.4    351.4   0.120782670   1.39728   0.20092   0.39499   1.09586
  31   28720.4    348.2   0.210837605   2.41676  -0.86606   1.01746   0.79465
  32   28797.2    347.3   0.036406291   0.41620  -0.12286   0.12242   0.62138
  33   29118.2    343.4   0.146886617   1.66071  -0.82420  -0.59625  -0.79113
  34   29915.2    334.3   0.084280912   0.92750  -0.03832   0.38110   0.88362
  35   30054.6    332.7   0.066148646   0.72458  -0.03188  -0.09149   0.84569
  36   30173.7    331.4   0.031398994   0.34258   0.03614   0.58150  -0.05595
  37   30536.7    327.5   0.048969725   0.52794  -0.11451   0.23481  -0.67800
  38   30958.4    323.0   0.066055601   0.70244  -0.06823   0.49214  -0.67497
  39   31090.4    321.6   0.119356512   1.26385   0.31367  -0.48712  -0.96342
  40   31525.9    317.2   0.064595850   0.67455  -0.22837  -0.02248   0.78860
  41   31602.6    316.4   0.064672772   0.67371   0.75757  -0.09320   0.30185
  42   31810.4    314.4   0.033439144   0.34607   0.31120   0.45222  -0.21146
  43   32183.8    310.7   0.035836221   0.36657   0.25934   0.22532   0.49854
  44   32359.9    309.0   0.011200746   0.11395   0.30496  -0.03792  -0.13968
  45   32528.5    307.4   0.013037239   0.13195   0.00921   0.13129  -0.33856
  46   32638.2    306.4   0.002122512   0.02141   0.03837   0.03877  -0.13577
  47   32683.4    306.0   0.070920766   0.71437  -0.25813   0.15104  -0.79052
  48   32962.8    303.4   0.047069472   0.47010  -0.64111  -0.00739  -0.24296
  49   33111.5    302.0   0.011005497   0.10942  -0.21249   0.12364   0.22132
  50   33351.6    299.8   0.219054829   2.16228   0.33804   0.58089   1.30789
  51   33790.3    295.9   0.008545643   0.08326   0.23270  -0.15307  -0.07535
  52   34031.4    293.8   0.063484289   0.61413   0.57669   0.52155   0.09769
  53   34125.7    293.0   0.051999548   0.50164  -0.09005   0.07104   0.69892
  54   34255.7    291.9   0.105830600   1.01708  -0.34569  -0.90961  -0.26493
  55   34502.2    289.8   0.049110580   0.46860  -0.10142  -0.45877  -0.49784
  56   34745.8    287.8   0.071803194   0.68033   0.18086   0.57729   0.56067
  57   34971.2    285.9   0.024294533   0.22870   0.42622   0.09115   0.19681
  58   35275.7    283.5   0.083289947   0.77731  -0.22925   0.67011   0.52507
  59   35529.1    281.5   0.015875521   0.14710   0.20008   0.28230   0.16546
  60   35661.9    280.4   0.118493487   1.09387  -0.41549   0.30960   0.90851
  61   35717.9    280.0   0.105091566   0.96863  -0.19406  -0.38668  -0.88400
  62   35794.2    279.4   0.075387565   0.69337   0.45876  -0.33411  -0.60932
  63   35844.1    279.0   0.035163387   0.32296   0.25591   0.31118  -0.40080
  64   36253.7    275.8   0.157741922   1.43242   0.44288  -0.62683  -0.91835
  65   36356.2    275.1   0.089391286   0.80945  -0.00646   0.34258   0.83190
  66   36413.5    274.6   0.077120161   0.69724  -0.32181   0.73841   0.22008
  67   36685.8    272.6   0.043604138   0.39130   0.09087  -0.61867  -0.01681
  68   37270.6    268.3   0.060429146   0.53377  -0.59573   0.37587   0.19389
  69   37567.4    266.2   0.014388608   0.12609   0.11276  -0.32501  -0.08799
  70   37629.4    265.7   0.035764725   0.31290   0.35789  -0.42937   0.02141
  71   37863.1    264.1   0.038063384   0.33095   0.52622  -0.22618  -0.05375
  72   37929.3    263.6   0.138004572   1.19783  -0.78789   0.75775  -0.05370
  73   38330.2    260.9   0.062951991   0.54068  -0.66907   0.29703  -0.06927
  74   38431.7    260.2   0.037646304   0.32248  -0.25602  -0.04765  -0.50464
  75   38586.4    259.2   0.006796494   0.05799  -0.07880   0.22154  -0.05191
  76   38775.9    257.9   0.072944570   0.61931   0.30955   0.24442   0.68099
  77   38920.9    256.9   0.010809059   0.09143  -0.15598  -0.03780  -0.25626
  78   39210.3    255.0   0.016676115   0.14001   0.28592  -0.13757   0.19834
  79   39397.5    253.8   0.008173554   0.06830   0.19365  -0.17448  -0.01879
  80   39613.0    252.4   0.027002525   0.22441  -0.32296   0.07348  -0.33869
  81   39724.9    251.7   0.020825132   0.17258  -0.06768   0.40925  -0.02273
  82   39764.9    251.5   0.009948395   0.08236  -0.23435   0.13895  -0.09020
  83   39912.5    250.5   0.013107352   0.10811  -0.05710  -0.32260  -0.02800
  84   39975.6    250.2   0.018555346   0.15281   0.02849   0.05180   0.38641
  85   40023.7    249.9   0.038433302   0.31613   0.37121  -0.40339   0.12494
  86   40127.7    249.2   0.023647206   0.19400   0.29694  -0.09077  -0.31240
  87   40254.0    248.4   0.017716051   0.14489  -0.26443  -0.23845  -0.13456

FINAL SINGLE POINT ENERGY     -5039.129434343363

DIPOLE MOMENT
-------------
                                X             Y             Z
Electronic contribution:    -28.82507      10.07223     -69.85093
Nuclear contribution   :     30.11395      -5.97298      78.99827
                        -----------------------------------------
Total Dipole Moment    :      1.28888       4.09925       9.14733
                        -----------------------------------------
Magnitude (a.u.)       :     10.10637
Magnitude (Debye)      :     25.68836

Rotational constants in cm-1:     0.000953     0.000680     0.000425
Rotational constants in MHz :    28.573963    20.377868    12.755388

                             ****ORCA TERMINATED NORMALLY****
TOTAL RUN TIME: 0 days 0 hours 16 minutes 34 seconds 86 msec
