                         Program Version 4.2.0 -  RELEASE  -
|  1> # ORCA input file
|  2> # SCF done       -200.756174065435          0.000441657043
|  3> ! CAM-B3LYP def2-SVP def2/J RIJCOSX Grid4 TightSCF
|  4> %maxcore 5000
|  5> %tddft
|  6>     Mode sTDDFT
|  7>     Ethresh 5.0
|  8>     maxcore 5000
|  9> end
| 10>
| 11> %pal
| 12>   nprocs 6
| 13>   end
| 14> * xyz 0 1
| 15>    C      -10.68236         1.28012        -0.32623
| 16>    C      -11.02079         1.52499         0.98135
| 17>    C      -12.34871         1.59349         1.45182
| 18>    N      -13.39740         1.62030         1.91916
| 19>    C      -10.13453         1.68622         2.06517
| 20>    N       -9.50832         1.83470         3.01812
| 21>    C      -11.62391         1.14092        -1.42838
| 22>    C      -10.91551         0.74427        -2.59194
| 23>    C      -11.53567         0.53305        -3.79968
| 24>    C      -12.91827         0.73016        -3.86752
| 25>    C      -13.61640         1.13586        -2.70354
| 26>    C      -12.99030         1.34438        -1.48059
| 27>    S      -15.31084         1.32778        -3.02238
| 28>    C      -15.07687         0.87108        -4.67347
| 29>    C      -13.79203         0.58724        -4.98119
| 30>    C       -9.48373         0.61177        -2.27348
| 31>    O       -8.60320         0.22285        -3.00889
| 32>    C       -9.35381         1.02578        -0.85130
| 33>    C       -8.20093         1.01954        -0.12615
| 34>    C       -6.88170         0.69570        -0.53128
| 35>    C       -6.19425         1.04251        -1.77739
| 36>    C       -4.90436         0.68036        -1.71034
| 37>    C       -4.63339         0.07104        -0.38661
| 38>    O       -3.59016        -0.33462         0.05501
| 39>    C       -5.96798         0.07639         0.31551
| 40>    C       -6.21244        -0.46021         1.58411
| 41>    C       -7.47968        -0.78304         2.00251
| 42>    C       -7.95174        -1.00682         3.31428
| 43>    C       -7.17271        -1.03124         4.50025
| 44>    C       -7.78280        -1.20706         5.79148
| 45>    N       -7.01717        -1.13615         6.89294
| 46>    C       -5.71807        -1.03204         6.78419
| 47>    C       -5.10333        -0.98681         5.48971
| 48>    N       -5.83795        -0.94145         4.40830
| 49>    C       -3.69069        -0.93708         5.37859
| 50>    N       -2.54816        -0.88685         5.32639
| 51>    C       -4.95001        -0.95596         7.97280
| 52>    N       -4.33794        -0.91011         8.93957
| 53>    C       -9.17381        -1.40527         5.96103
| 54>    C       -9.94988        -1.38167         4.78829
| 55>    C       -9.34555        -1.18842         3.49382
| 56>    N      -10.25421        -1.21609         2.51526
| 57>    S      -11.70345        -1.47441         3.16100
| 58>    N      -11.26782        -1.57267         4.69050
| 59>    C       -9.74104        -1.63639         7.26249
| 60>    C       -9.05653        -2.40068         8.23380
| 61>    C       -9.61250        -2.65704         9.53489
| 62>    N       -8.84843        -3.24506        10.47065
| 63>    C       -7.65907        -3.68788        10.16156
| 64>    C       -7.19142        -3.61764         8.80621
| 65>    N       -7.88201        -2.96325         7.90901
| 66>    C       -5.97364        -4.22514         8.41422
| 67>    N       -4.98085        -4.70022         8.09778
| 68>    C       -6.88490        -4.29362        11.18250
| 69>    N       -6.28685        -4.82181        12.00374
| 70>    C      -10.92479        -2.26182         9.87684
| 71>    C      -11.58629        -1.46177         8.92891
| 72>    C      -11.00284        -1.14510         7.64311
| 73>    N      -11.79686        -0.33966         6.93395
| 74>    S      -13.12987        -0.05364         7.76267
| 75>    N      -12.78983        -0.90280         9.07668
| 76>    C      -11.52207        -2.56903        11.13946
| 77>    C      -11.25890        -3.63752        11.92763
| 78>    C      -10.51414        -4.86000        11.67923
| 79>    C      -10.45808        -5.55191        10.49780
| 80>    C       -9.80118        -6.78973        10.34338
| 81>    N       -9.26649        -7.78695        10.15258
| 82>    C      -11.04481        -5.10047         9.30011
| 83>    N      -11.48947        -4.76482         8.29553
| 84>    C      -10.04786        -5.34050        12.96887
| 85>    C      -10.70811        -4.61064        13.99453
| 86>    C      -11.58876        -3.59805        13.38764
| 87>    O      -12.36358        -2.84930        13.93150
| 88>    C      -10.48025        -4.85488        15.32808
| 89>    C       -9.55423        -5.84797        15.66194
| 90>    C       -8.88886        -6.55595        14.62884
| 91>    C       -9.12589        -6.32031        13.28051
| 92>    S       -7.77747        -7.71632        15.27474
| 93>    C       -8.20516        -7.26400        16.88751
| 94>    C       -9.13581        -6.28556        16.94922
| 95>    H      -10.96986         0.22746        -4.66607
| 96>    H      -13.56461         1.65770        -0.62467
| 97>    H      -15.93007         0.84333        -5.32302
| 98>    H      -13.45938         0.28615        -5.95793
| 99>    H       -8.28324         1.24019         0.93415
|100>    H       -6.68286         1.53311        -2.59773
|101>    H       -4.14580         0.81126        -2.45838
|102>    H       -5.36599        -0.61116         2.24088
|103>    H       -8.25598        -0.87094         1.25222
|104>    H      -12.22442        -1.83771        11.52400
|105>    H      -10.99724        -4.29326        16.09065
|106>    H       -8.58677        -6.87037        12.52684
|107>    H       -7.72451        -7.76432        17.70574
|108>    H       -9.52065        -5.87666        17.86579
|109> *
|110>
|111>                          ****END OF INPUT****

CARTESIAN COORDINATES (ANGSTROEM)
---------------------------------
  C    -10.682360    1.280120   -0.326230
  C    -11.020790    1.524990    0.981350
  C    -12.348710    1.593490    1.451820
  N    -13.397400    1.620300    1.919160
  C    -10.134530    1.686220    2.065170
  N     -9.508320    1.834700    3.018120
  C    -11.623910    1.140920   -1.428380
  C    -10.915510    0.744270   -2.591940
  C    -11.535670    0.533050   -3.799680
  C    -12.918270    0.730160   -3.867520
  C    -13.616400    1.135860   -2.703540
  C    -12.990300    1.344380   -1.480590
  S    -15.310840    1.327780   -3.022380
  C    -15.076870    0.871080   -4.673470
  C    -13.792030    0.587240   -4.981190
  C     -9.483730    0.611770   -2.273480
  O     -8.603200    0.222850   -3.008890
  C     -9.353810    1.025780   -0.851300
  C     -8.200930    1.019540   -0.126150
  C     -6.881700    0.695700   -0.531280
  C     -6.194250    1.042510   -1.777390
  C     -4.904360    0.680360   -1.710340
  C     -4.633390    0.071040   -0.386610
  O     -3.590160   -0.334620    0.055010
  C     -5.967980    0.076390    0.315510
  C     -6.212440   -0.460210    1.584110
  C     -7.479680   -0.783040    2.002510
  C     -7.951740   -1.006820    3.314280
  C     -7.172710   -1.031240    4.500250
  C     -7.782800   -1.207060    5.791480
  N     -7.017170   -1.136150    6.892940
  C     -5.718070   -1.032040    6.784190
  C     -5.103330   -0.986810    5.489710
  N     -5.837950   -0.941450    4.408300
  C     -3.690690   -0.937080    5.378590
  N     -2.548160   -0.886850    5.326390
  C     -4.950010   -0.955960    7.972800
  N     -4.337940   -0.910110    8.939570
  C     -9.173810   -1.405270    5.961030
  C     -9.949880   -1.381670    4.788290
  C     -9.345550   -1.188420    3.493820
  N    -10.254210   -1.216090    2.515260
  S    -11.703450   -1.474410    3.161000
  N    -11.267820   -1.572670    4.690500
  C     -9.741040   -1.636390    7.262490
  C     -9.056530   -2.400680    8.233800
  C     -9.612500   -2.657040    9.534890
  N     -8.848430   -3.245060   10.470650
  C     -7.659070   -3.687880   10.161560
  C     -7.191420   -3.617640    8.806210
  N     -7.882010   -2.963250    7.909010
  C     -5.973640   -4.225140    8.414220
  N     -4.980850   -4.700220    8.097780
  C     -6.884900   -4.293620   11.182500
  N     -6.286850   -4.821810   12.003740
  C    -10.924790   -2.261820    9.876840
  C    -11.586290   -1.461770    8.928910
  C    -11.002840   -1.145100    7.643110
  N    -11.796860   -0.339660    6.933950
  S    -13.129870   -0.053640    7.762670
  N    -12.789830   -0.902800    9.076680
  C    -11.522070   -2.569030   11.139460
  C    -11.258900   -3.637520   11.927630
  C    -10.514140   -4.860000   11.679230
  C    -10.458080   -5.551910   10.497800
  C     -9.801180   -6.789730   10.343380
  N     -9.266490   -7.786950   10.152580
  C    -11.044810   -5.100470    9.300110
  N    -11.489470   -4.764820    8.295530
  C    -10.047860   -5.340500   12.968870
  C    -10.708110   -4.610640   13.994530
  C    -11.588760   -3.598050   13.387640
  O    -12.363580   -2.849300   13.931500
  C    -10.480250   -4.854880   15.328080
  C     -9.554230   -5.847970   15.661940
  C     -8.888860   -6.555950   14.628840
  C     -9.125890   -6.320310   13.280510
  S     -7.777470   -7.716320   15.274740
  C     -8.205160   -7.264000   16.887510
  C     -9.135810   -6.285560   16.949220
  H    -10.969860    0.227460   -4.666070
  H    -13.564610    1.657700   -0.624670
  H    -15.930070    0.843330   -5.323020
  H    -13.459380    0.286150   -5.957930
  H     -8.283240    1.240190    0.934150
  H     -6.682860    1.533110   -2.597730
  H     -4.145800    0.811260   -2.458380
  H     -5.365990   -0.611160    2.240880
  H     -8.255980   -0.870940    1.252220
  H    -12.224420   -1.837710   11.524000
  H    -10.997240   -4.293260   16.090650
  H     -8.586770   -6.870370   12.526840
  H     -7.724510   -7.764320   17.705740
  H     -9.520650   -5.876660   17.865790

 Total Charge           Charge          ....    0
 Multiplicity           Mult            ....    1
 Number of Electrons    NEL             ....  556
 Basis Dimension        Dim             .... 1206

ORBITAL ENERGIES
----------------

  NO   OCC          E(Eh)            E(eV)
   0   2.0000     -89.053943     -2423.2810
   1   2.0000     -89.052076     -2423.2302
   2   2.0000     -88.977127     -2421.1907
   3   2.0000     -88.965648     -2420.8784
   4   2.0000     -19.234370      -523.3938
   5   2.0000     -19.229894      -523.2720
   6   2.0000     -19.219535      -522.9901
   7   2.0000     -14.470255      -393.7557
   8   2.0000     -14.469972      -393.7479
   9   2.0000     -14.468629      -393.7114
  10   2.0000     -14.465948      -393.6385
  11   2.0000     -14.459372      -393.4595
  12   2.0000     -14.456845      -393.3907
  13   2.0000     -14.456654      -393.3855
  14   2.0000     -14.456290      -393.3756
  15   2.0000     -14.436318      -392.8322
  16   2.0000     -14.433813      -392.7640
  17   2.0000     -14.432822      -392.7371
  18   2.0000     -14.430821      -392.6826
  19   2.0000     -14.429743      -392.6533
  20   2.0000     -14.428965      -392.6321
  21   2.0000     -14.423607      -392.4863
  22   2.0000     -14.418172      -392.3384
  23   2.0000     -10.389083      -282.7013
  24   2.0000     -10.387552      -282.6597
  25   2.0000     -10.385209      -282.5959
  26   2.0000     -10.384948      -282.5888
  27   2.0000     -10.379965      -282.4532
  28   2.0000     -10.372823      -282.2589
  29   2.0000     -10.370915      -282.2070
  30   2.0000     -10.358566      -281.8709
  31   2.0000     -10.357406      -281.8393
  32   2.0000     -10.357074      -281.8303
  33   2.0000     -10.356573      -281.8167
  34   2.0000     -10.353994      -281.7465
  35   2.0000     -10.353166      -281.7240
  36   2.0000     -10.350132      -281.6414
  37   2.0000     -10.349888      -281.6348
  38   2.0000     -10.349430      -281.6223
  39   2.0000     -10.348956      -281.6094
  40   2.0000     -10.348075      -281.5854
  41   2.0000     -10.345146      -281.5057
  42   2.0000     -10.333980      -281.2019
  43   2.0000     -10.333948      -281.2010
  44   2.0000     -10.332406      -281.1591
  45   2.0000     -10.331663      -281.1388
  46   2.0000     -10.329930      -281.0917
  47   2.0000     -10.329847      -281.0894
  48   2.0000     -10.329506      -281.0801
  49   2.0000     -10.328624      -281.0562
  50   2.0000     -10.327916      -281.0369
  51   2.0000     -10.327062      -281.0136
  52   2.0000     -10.325976      -280.9841
  53   2.0000     -10.325681      -280.9761
  54   2.0000     -10.324223      -280.9364
  55   2.0000     -10.323276      -280.9106
  56   2.0000     -10.320938      -280.8470
  57   2.0000     -10.320615      -280.8382
  58   2.0000     -10.320469      -280.8342
  59   2.0000     -10.319080      -280.7964
  60   2.0000     -10.317997      -280.7670
  61   2.0000     -10.315001      -280.6854
  62   2.0000     -10.313358      -280.6407
  63   2.0000     -10.312754      -280.6243
  64   2.0000     -10.312688      -280.6225
  65   2.0000     -10.310105      -280.5522
  66   2.0000     -10.309574      -280.5378
  67   2.0000     -10.308154      -280.4991
  68   2.0000     -10.307679      -280.4862
  69   2.0000     -10.305824      -280.4357
  70   2.0000     -10.305607      -280.4298
  71   2.0000     -10.304131      -280.3897
  72   2.0000     -10.304066      -280.3879
  73   2.0000     -10.302338      -280.3409
  74   2.0000     -10.301890      -280.3287
  75   2.0000     -10.300265      -280.2845
  76   2.0000     -10.298783      -280.2441
  77   2.0000     -10.293749      -280.1071
  78   2.0000     -10.287862      -279.9469
  79   2.0000     -10.283678      -279.8331
  80   2.0000      -8.144595      -221.6257
  81   2.0000      -8.143250      -221.5891
  82   2.0000      -8.073378      -219.6878
  83   2.0000      -8.061827      -219.3735
  84   2.0000      -6.115522      -166.4118
  85   2.0000      -6.114136      -166.3741
  86   2.0000      -6.107806      -166.2018
  87   2.0000      -6.107706      -166.1991
  88   2.0000      -6.106495      -166.1662
  89   2.0000      -6.106286      -166.1605
  90   2.0000      -6.042863      -164.4347
  91   2.0000      -6.038584      -164.3182
  92   2.0000      -6.035069      -164.2226
  93   2.0000      -6.031324      -164.1207
  94   2.0000      -6.026998      -164.0030
  95   2.0000      -6.023561      -163.9094
  96   2.0000      -1.150367       -31.3031
  97   2.0000      -1.147392       -31.2221
  98   2.0000      -1.145217       -31.1630
  99   2.0000      -1.144821       -31.1522
 100   2.0000      -1.135154       -30.8891
 101   2.0000      -1.132793       -30.8249
 102   2.0000      -1.125171       -30.6175
 103   2.0000      -1.061797       -28.8930
 104   2.0000      -1.048524       -28.5318
 105   2.0000      -1.033595       -28.1256
 106   2.0000      -1.024875       -27.8883
 107   2.0000      -1.020817       -27.7778
 108   2.0000      -1.019911       -27.7532
 109   2.0000      -1.016774       -27.6678
 110   2.0000      -1.010905       -27.5081
 111   2.0000      -1.010471       -27.4963
 112   2.0000      -1.008767       -27.4500
 113   2.0000      -1.006744       -27.3949
 114   2.0000      -1.005710       -27.3668
 115   2.0000      -0.999871       -27.2079
 116   2.0000      -0.999166       -27.1887
 117   2.0000      -0.997798       -27.1515
 118   2.0000      -0.993696       -27.0398
 119   2.0000      -0.989055       -26.9136
 120   2.0000      -0.987163       -26.8621
 121   2.0000      -0.976255       -26.5653
 122   2.0000      -0.941414       -25.6172
 123   2.0000      -0.935149       -25.4467
 124   2.0000      -0.927183       -25.2299
 125   2.0000      -0.916737       -24.9457
 126   2.0000      -0.915634       -24.9157
 127   2.0000      -0.912617       -24.8336
 128   2.0000      -0.908344       -24.7173
 129   2.0000      -0.895929       -24.3795
 130   2.0000      -0.892498       -24.2861
 131   2.0000      -0.882361       -24.0103
 132   2.0000      -0.882204       -24.0060
 133   2.0000      -0.874922       -23.8078
 134   2.0000      -0.852645       -23.2016
 135   2.0000      -0.838958       -22.8292
 136   2.0000      -0.834600       -22.7106
 137   2.0000      -0.834268       -22.7016
 138   2.0000      -0.823943       -22.4206
 139   2.0000      -0.822863       -22.3912
 140   2.0000      -0.815782       -22.1985
 141   2.0000      -0.809765       -22.0348
 142   2.0000      -0.799512       -21.7558
 143   2.0000      -0.779800       -21.2194
 144   2.0000      -0.771125       -20.9834
 145   2.0000      -0.765640       -20.8341
 146   2.0000      -0.759581       -20.6692
 147   2.0000      -0.753141       -20.4940
 148   2.0000      -0.743833       -20.2407
 149   2.0000      -0.736278       -20.0351
 150   2.0000      -0.720345       -19.6016
 151   2.0000      -0.715652       -19.4739
 152   2.0000      -0.713369       -19.4118
 153   2.0000      -0.710132       -19.3237
 154   2.0000      -0.705569       -19.1995
 155   2.0000      -0.700396       -19.0587
 156   2.0000      -0.696464       -18.9518
 157   2.0000      -0.695365       -18.9218
 158   2.0000      -0.690187       -18.7809
 159   2.0000      -0.687923       -18.7193
 160   2.0000      -0.674009       -18.3407
 161   2.0000      -0.672976       -18.3126
 162   2.0000      -0.664442       -18.0804
 163   2.0000      -0.663583       -18.0570
 164   2.0000      -0.658882       -17.9291
 165   2.0000      -0.656159       -17.8550
 166   2.0000      -0.645545       -17.5662
 167   2.0000      -0.637918       -17.3586
 168   2.0000      -0.632791       -17.2191
 169   2.0000      -0.630649       -17.1608
 170   2.0000      -0.627940       -17.0871
 171   2.0000      -0.623699       -16.9717
 172   2.0000      -0.619166       -16.8484
 173   2.0000      -0.610885       -16.6230
 174   2.0000      -0.608544       -16.5593
 175   2.0000      -0.604182       -16.4406
 176   2.0000      -0.600916       -16.3517
 177   2.0000      -0.598087       -16.2748
 178   2.0000      -0.593592       -16.1525
 179   2.0000      -0.588110       -16.0033
 180   2.0000      -0.583749       -15.8846
 181   2.0000      -0.576439       -15.6857
 182   2.0000      -0.570188       -15.5156
 183   2.0000      -0.567762       -15.4496
 184   2.0000      -0.565611       -15.3911
 185   2.0000      -0.562673       -15.3111
 186   2.0000      -0.557614       -15.1735
 187   2.0000      -0.553750       -15.0683
 188   2.0000      -0.552128       -15.0242
 189   2.0000      -0.550123       -14.9696
 190   2.0000      -0.548103       -14.9146
 191   2.0000      -0.545693       -14.8491
 192   2.0000      -0.543046       -14.7770
 193   2.0000      -0.539345       -14.6763
 194   2.0000      -0.536794       -14.6069
 195   2.0000      -0.534976       -14.5574
 196   2.0000      -0.529366       -14.4048
 197   2.0000      -0.524733       -14.2787
 198   2.0000      -0.521742       -14.1973
 199   2.0000      -0.515266       -14.0211
 200   2.0000      -0.514824       -14.0091
 201   2.0000      -0.513484       -13.9726
 202   2.0000      -0.513176       -13.9642
 203   2.0000      -0.510221       -13.8838
 204   2.0000      -0.509331       -13.8596
 205   2.0000      -0.503799       -13.7091
 206   2.0000      -0.501487       -13.6462
 207   2.0000      -0.500956       -13.6317
 208   2.0000      -0.498912       -13.5761
 209   2.0000      -0.495681       -13.4882
 210   2.0000      -0.494821       -13.4648
 211   2.0000      -0.492090       -13.3905
 212   2.0000      -0.490682       -13.3521
 213   2.0000      -0.489717       -13.3259
 214   2.0000      -0.487507       -13.2657
 215   2.0000      -0.484481       -13.1834
 216   2.0000      -0.481157       -13.0929
 217   2.0000      -0.479641       -13.0517
 218   2.0000      -0.475356       -12.9351
 219   2.0000      -0.470859       -12.8127
 220   2.0000      -0.465180       -12.6582
 221   2.0000      -0.463192       -12.6041
 222   2.0000      -0.461437       -12.5563
 223   2.0000      -0.460427       -12.5288
 224   2.0000      -0.459590       -12.5061
 225   2.0000      -0.458459       -12.4753
 226   2.0000      -0.456753       -12.4289
 227   2.0000      -0.456536       -12.4230
 228   2.0000      -0.454817       -12.3762
 229   2.0000      -0.454065       -12.3557
 230   2.0000      -0.453818       -12.3490
 231   2.0000      -0.449480       -12.2310
 232   2.0000      -0.446977       -12.1629
 233   2.0000      -0.446379       -12.1466
 234   2.0000      -0.445898       -12.1335
 235   2.0000      -0.445421       -12.1205
 236   2.0000      -0.444158       -12.0862
 237   2.0000      -0.440901       -11.9975
 238   2.0000      -0.440171       -11.9777
 239   2.0000      -0.436495       -11.8776
 240   2.0000      -0.436108       -11.8671
 241   2.0000      -0.434397       -11.8206
 242   2.0000      -0.433511       -11.7964
 243   2.0000      -0.431981       -11.7548
 244   2.0000      -0.430237       -11.7073
 245   2.0000      -0.428316       -11.6551
 246   2.0000      -0.426551       -11.6070
 247   2.0000      -0.424896       -11.5620
 248   2.0000      -0.423395       -11.5212
 249   2.0000      -0.421801       -11.4778
 250   2.0000      -0.420115       -11.4319
 251   2.0000      -0.417592       -11.3632
 252   2.0000      -0.415322       -11.3015
 253   2.0000      -0.411300       -11.1920
 254   2.0000      -0.409844       -11.1524
 255   2.0000      -0.405757       -11.0412
 256   2.0000      -0.395772       -10.7695
 257   2.0000      -0.391402       -10.6506
 258   2.0000      -0.388923       -10.5831
 259   2.0000      -0.385015       -10.4768
 260   2.0000      -0.376500       -10.2451
 261   2.0000      -0.372227       -10.1288
 262   2.0000      -0.365023        -9.9328
 263   2.0000      -0.357832        -9.7371
 264   2.0000      -0.353314        -9.6142
 265   2.0000      -0.351752        -9.5717
 266   2.0000      -0.351180        -9.5561
 267   2.0000      -0.349910        -9.5215
 268   2.0000      -0.343499        -9.3471
 269   2.0000      -0.340913        -9.2767
 270   2.0000      -0.335427        -9.1274
 271   2.0000      -0.328715        -8.9448
 272   2.0000      -0.323861        -8.8127
 273   2.0000      -0.313098        -8.5198
 274   2.0000      -0.305608        -8.3160
 275   2.0000      -0.299137        -8.1399
 276   2.0000      -0.294383        -8.0106
 277   2.0000      -0.264039        -7.1849
 278   0.0000      -0.146058        -3.9745
 279   0.0000      -0.123137        -3.3507
 280   0.0000      -0.101366        -2.7583
 281   0.0000      -0.081804        -2.2260
 282   0.0000      -0.079710        -2.1690

MULLIKEN ATOMIC CHARGES
-----------------------
   0 C :    0.330752
   1 C :   -0.370603
   2 C :   -0.220654
   3 N :    0.158798
   4 C :   -0.160099
   5 N :    0.137871
   6 C :    0.015670
   7 C :   -0.021180
   8 C :   -0.063372
   9 C :    0.111508
  10 C :   -0.095012
  11 C :   -0.023597
  12 S :    0.145166
  13 C :   -0.048719
  14 C :    0.028096
  15 C :    0.135585
  16 O :   -0.144523
  17 C :   -0.060255
  18 C :   -0.121132
  19 C :    0.049794
  20 C :    0.106915
  21 C :   -0.042015
  22 C :    0.144444
  23 O :   -0.103524
  24 C :   -0.028088
  25 C :    0.046945
  26 C :   -0.151185
  27 C :    0.146626
  28 C :   -0.048643
  29 C :   -0.018393
  30 N :    0.041620
  31 C :   -0.131598
  32 C :   -0.093281
  33 N :    0.049448
  34 C :   -0.220724
  35 N :    0.246798
  36 C :   -0.228820
  37 N :    0.253862
  38 C :    0.042190
  39 C :    0.027833
  40 C :    0.016442
  41 N :   -0.306485
  42 S :    0.571917
  43 N :   -0.251878
  44 C :    0.069320
  45 C :    0.010986
  46 C :   -0.102954
  47 N :    0.037195
  48 C :   -0.108487
  49 C :   -0.117430
  50 N :    0.046764
  51 C :   -0.237751
  52 N :    0.261144
  53 C :   -0.199911
  54 N :    0.237973
  55 C :    0.083157
  56 C :    0.025665
  57 C :   -0.003982
  58 N :   -0.247452
  59 S :    0.565963
  60 N :   -0.267037
  61 C :   -0.029756
  62 C :   -0.083675
  63 C :    0.288530
  64 C :   -0.357791
  65 C :   -0.199180
  66 N :    0.174605
  67 C :   -0.175443
  68 N :    0.159211
  69 C :    0.004206
  70 C :    0.010416
  71 C :    0.127666
  72 O :   -0.132235
  73 C :   -0.070968
  74 C :    0.109108
  75 C :   -0.090856
  76 C :   -0.008459
  77 S :    0.156339
  78 C :   -0.049014
  79 C :    0.027139
  80 H :   -0.009012
  81 H :   -0.005716
  82 H :    0.043084
  83 H :   -0.003512
  84 H :    0.057614
  85 H :    0.007680
  86 H :    0.002809
  87 H :    0.037700
  88 H :    0.040323
  89 H :    0.034506
  90 H :   -0.008890
  91 H :    0.001777
  92 H :    0.040520
  93 H :   -0.006389
Sum of atomic charges:   -0.0000000

LOEWDIN ATOMIC CHARGES
----------------------
   0 C :    0.078418
   1 C :   -0.144511
   2 C :   -0.027010
   3 N :   -0.059869
   4 C :   -0.021570
   5 N :   -0.063352
   6 C :   -0.023194
   7 C :   -0.054589
   8 C :    0.025816
   9 C :   -0.033255
  10 C :   -0.144825
  11 C :   -0.008859
  12 S :    0.433605
  13 C :   -0.146108
  14 C :   -0.056561
  15 C :    0.083168
  16 O :   -0.136139
  17 C :   -0.086008
  18 C :    0.057429
  19 C :   -0.001427
  20 C :    0.044547
  21 C :   -0.051123
  22 C :    0.085632
  23 O :   -0.086247
  24 C :   -0.030121
  25 C :    0.026865
  26 C :    0.003668
  27 C :   -0.002708
  28 C :    0.001430
  29 C :    0.014106
  30 N :    0.018155
  31 C :   -0.028737
  32 C :   -0.014664
  33 N :    0.003846
  34 C :   -0.037626
  35 N :    0.006627
  36 C :   -0.039820
  37 N :   -0.000845
  38 C :   -0.010715
  39 C :   -0.029758
  40 C :   -0.032994
  41 N :   -0.289340
  42 S :    0.710495
  43 N :   -0.261255
  44 C :    0.008531
  45 C :    0.011280
  46 C :   -0.000114
  47 N :    0.006589
  48 C :   -0.018781
  49 C :   -0.030460
  50 N :    0.020360
  51 C :   -0.041289
  52 N :    0.001400
  53 C :   -0.032586
  54 N :   -0.002124
  55 C :   -0.017689
  56 C :   -0.030224
  57 C :   -0.032789
  58 N :   -0.260611
  59 S :    0.705421
  60 N :   -0.285892
  61 C :    0.060999
  62 C :   -0.048298
  63 C :    0.080629
  64 C :   -0.150533
  65 C :   -0.026447
  66 N :   -0.045307
  67 C :   -0.016915
  68 N :   -0.056611
  69 C :   -0.020237
  70 C :   -0.053597
  71 C :    0.085809
  72 O :   -0.132251
  73 C :    0.025009
  74 C :   -0.031481
  75 C :   -0.140713
  76 C :    0.000812
  77 S :    0.443579
  78 C :   -0.145747
  79 C :   -0.058088
  80 H :    0.041626
  81 H :    0.040545
  82 H :    0.031101
  83 H :    0.036636
  84 H :    0.052669
  85 H :    0.034177
  86 H :    0.035255
  87 H :    0.042699
  88 H :    0.040299
  89 H :    0.053699
  90 H :    0.041379
  91 H :    0.041919
  92 H :    0.030306
  93 H :    0.035473

  Mayer bond orders larger than 0.100000
B(  0-C ,  1-C ) :   1.6138 B(  0-C ,  6-C ) :   1.0095 B(  0-C , 17-C ) :   1.0664
B(  1-C ,  2-C ) :   1.1548 B(  1-C ,  4-C ) :   1.1530 B(  2-C ,  3-N ) :   2.9752
B(  4-C ,  5-N ) :   2.8970 B(  6-C ,  7-C ) :   1.2601 B(  6-C , 11-C ) :   1.4085
B(  7-C ,  8-C ) :   1.4240 B(  7-C , 15-C ) :   0.9437 B(  8-C ,  9-C ) :   1.2476
B(  8-C , 80-H ) :   1.0161 B(  9-C , 10-C ) :   1.2986 B(  9-C , 14-C ) :   1.1742
B( 10-C , 11-C ) :   1.3272 B( 10-C , 12-S ) :   1.1005 B( 11-C , 81-H ) :   0.9828
B( 12-S , 13-C ) :   1.1279 B( 13-C , 14-C ) :   1.6268 B( 13-C , 82-H ) :   0.9685
B( 14-C , 83-H ) :   0.9994 B( 15-C , 16-O ) :   2.2245 B( 15-C , 17-C ) :   0.9296
B( 17-C , 18-C ) :   1.6143 B( 18-C , 19-C ) :   1.1292 B( 18-C , 84-H ) :   0.9193
B( 19-C , 20-C ) :   1.0376 B( 19-C , 24-C ) :   1.5018 B( 20-C , 21-C ) :   1.6938
B( 20-C , 85-H ) :   1.0011 B( 21-C , 22-C ) :   0.9990 B( 21-C , 86-H ) :   1.0118
B( 22-C , 23-O ) :   2.2379 B( 22-C , 24-C ) :   0.8715 B( 24-C , 25-C ) :   1.2152
B( 25-C , 26-C ) :   1.4794 B( 25-C , 87-H ) :   0.9526 B( 26-C , 27-C ) :   1.2480
B( 26-C , 88-H ) :   0.9493 B( 27-C , 28-C ) :   1.1941 B( 27-C , 38-C ) :   0.1340
B( 27-C , 40-C ) :   1.1852 B( 28-C , 29-C ) :   1.1301 B( 28-C , 33-N ) :   1.4318
B( 29-C , 30-N ) :   1.3794 B( 29-C , 38-C ) :   1.3187 B( 30-N , 31-C ) :   1.7034
B( 31-C , 32-C ) :   1.1956 B( 31-C , 36-C ) :   1.1637 B( 32-C , 33-N ) :   1.7413
B( 32-C , 34-C ) :   1.1495 B( 34-C , 35-N ) :   3.0411 B( 36-C , 37-N ) :   3.0483
B( 38-C , 39-C ) :   1.2876 B( 38-C , 44-C ) :   0.9990 B( 39-C , 40-C ) :   1.1042
B( 39-C , 43-N ) :   1.4813 B( 40-C , 41-N ) :   1.4864 B( 41-N , 42-S ) :   1.2821
B( 41-N , 43-N ) :   0.1543 B( 42-S , 43-N ) :   1.3182 B( 44-C , 45-C ) :   1.3369
B( 44-C , 55-C ) :   0.1391 B( 44-C , 57-C ) :   1.2763 B( 45-C , 46-C ) :   1.1175
B( 45-C , 50-N ) :   1.3749 B( 46-C , 47-N ) :   1.4229 B( 46-C , 55-C ) :   1.2549
B( 47-N , 48-C ) :   1.7133 B( 48-C , 49-C ) :   1.1820 B( 48-C , 53-C ) :   1.1741
B( 49-C , 50-N ) :   1.7115 B( 49-C , 51-C ) :   1.1677 B( 51-C , 52-N ) :   3.0466
B( 53-C , 54-N ) :   3.0050 B( 55-C , 56-C ) :   1.2219 B( 55-C , 61-C ) :   1.0889
B( 56-C , 57-C ) :   1.0932 B( 56-C , 60-N ) :   1.5405 B( 57-C , 58-N ) :   1.4967
B( 58-N , 59-S ) :   1.3166 B( 58-N , 60-N ) :   0.1547 B( 59-S , 60-N ) :   1.2901
B( 61-C , 62-C ) :   1.7049 B( 61-C , 89-H ) :   0.9490 B( 62-C , 63-C ) :   1.0045
B( 62-C , 71-C ) :   0.9268 B( 63-C , 64-C ) :   1.6422 B( 63-C , 69-C ) :   1.0365
B( 64-C , 65-C ) :   1.1384 B( 64-C , 67-C ) :   1.1686 B( 65-C , 66-N ) :   3.0011
B( 67-C , 68-N ) :   2.9817 B( 69-C , 70-C ) :   1.2611 B( 69-C , 76-C ) :   1.4110
B( 70-C , 71-C ) :   0.9238 B( 70-C , 73-C ) :   1.4214 B( 71-C , 72-O ) :   2.2818
B( 73-C , 74-C ) :   1.2564 B( 73-C , 90-H ) :   1.0152 B( 74-C , 75-C ) :   1.2920
B( 74-C , 79-C ) :   1.1777 B( 75-C , 76-C ) :   1.3318 B( 75-C , 77-S ) :   1.1026
B( 76-C , 91-H ) :   0.9835 B( 77-S , 78-C ) :   1.1329 B( 78-C , 79-C ) :   1.6228
B( 78-C , 92-H ) :   0.9687 B( 79-C , 93-H ) :   0.9997

-----------------------------------------------------------------------------
         ABSORPTION SPECTRUM VIA TRANSITION ELECTRIC DIPOLE MOMENTS
-----------------------------------------------------------------------------
State   Energy  Wavelength   fosc         T2         TX        TY        TZ
        (cm-1)    (nm)                  (au**2)     (au)      (au)      (au)
-----------------------------------------------------------------------------
   0   10348.5    966.3   0.681457735  21.67880   0.39190   1.67513  -4.32656
   1   14488.9    690.2   0.032099310   0.72935  -0.67872  -0.22194   0.46843
   2   17444.3    573.3   0.050669869   0.95625  -0.57531  -0.30528   0.72944
   3   17982.3    556.1   0.086479941   1.58324   1.14191  -0.32885   0.41370
   4   18431.4    542.6   0.061606822   1.10039  -0.51775  -0.16213   0.89780
   5   20940.5    477.5   0.011665849   0.18340  -0.07940   0.34070   0.24702
   6   21942.8    455.7   0.030298961   0.45458   0.01484  -0.43153   0.51782
   7   22123.6    452.0   0.009210961   0.13706   0.26436  -0.13395   0.22189
   8   22385.6    446.7   0.043196202   0.63526  -0.77940   0.13379  -0.09949
   9   22920.8    436.3   0.071446893   1.02619   0.01785  -0.44213   0.91126
  10   23723.1    421.5   0.066195300   0.91861   0.57907   0.01322  -0.76362
  11   23871.7    418.9   0.038179467   0.52653   0.72315  -0.00010  -0.05990
  12   24014.2    416.4   0.030957990   0.42441  -0.15497   0.53358  -0.34012
  13   24322.2    411.1   0.033818044   0.45774   0.14351   0.55766  -0.35519
  14   25033.7    399.5   0.011340255   0.14913  -0.33906   0.18057   0.03956
  15   25217.9    396.5   0.002767155   0.03612   0.09548  -0.09087  -0.13694
  16   25452.9    392.9   0.017096019   0.22112  -0.26826   0.30272  -0.23984
  17   26098.9    383.2   0.031122901   0.39258  -0.32376   0.16203  -0.51138
  18   26612.1    375.8   0.038852202   0.48063   0.66724   0.18821  -0.00127
  19   26741.9    373.9   0.040034961   0.49286   0.00948   0.30977   0.62993
  20   27309.3    366.2   0.062369129   0.75186   0.28860  -0.04747  -0.81628
  21   27449.8    364.3   0.017437646   0.20913   0.40855  -0.17642   0.10533
  22   28019.3    356.9   0.074358029   0.87367  -0.04247   0.09133  -0.92926
  23   28113.1    355.7   0.146483177   1.71536   0.88646  -0.28639   0.92061
  24   28528.4    350.5   0.001073900   0.01239  -0.08722   0.06902  -0.00466
  25   29101.5    343.6   0.090881605   1.02810   0.57241  -0.04170   0.83589
  26   29267.3    341.7   0.015545169   0.17486  -0.03442  -0.29486   0.29450
  27   29487.4    339.1   0.128354818   1.43302  -0.67650   0.35083  -0.92319
  28   29665.3    337.1   0.036877572   0.40925  -0.17601   0.27097  -0.55213
  29   29865.8    334.8   0.062695204   0.69109  -0.42500  -0.11058  -0.70586
  30   29959.5    333.8   0.060901188   0.66922  -0.23557  -0.27267  -0.73442
  31   30108.2    332.1   0.068942424   0.75384  -0.72173  -0.06406   0.47838
  32   30441.0    328.5   0.326186340   3.52762   1.80351  -0.21528   0.47815
  33   30597.2    326.8   0.023020613   0.24769  -0.33132  -0.37133   0.00568
  34   30816.2    324.5   0.195627482   2.08991  -1.19597   0.18803  -0.79006
  35   30996.0    322.6   0.071062948   0.75477   0.81165  -0.03893   0.30736
  36   31047.2    322.1   0.059582011   0.63178  -0.61723  -0.47180  -0.16797
  37   31524.3    317.2   0.026865915   0.28056  -0.40004  -0.34165  -0.06165
  38   31673.9    315.7   0.004572899   0.04753   0.12665   0.12691  -0.12403
  39   31932.6    313.2   0.218689774   2.25460  -0.38498  -0.91484   1.12670
  40   32330.3    309.3   0.084904612   0.86456  -0.85650   0.31776   0.17320
  41   32672.4    306.1   0.011407473   0.11494   0.32744  -0.01575  -0.08649
  42   32839.8    304.5   0.003354253   0.03363   0.10874  -0.14441  -0.03076
  43   33051.5    302.6   0.079023608   0.78712  -0.23901  -0.25729  -0.81474
  44   33119.4    301.9   0.064953813   0.64565   0.78484  -0.11720   0.12629
  45   33180.8    301.4   0.519964352   5.15897   1.89697  -0.32664   1.20572
  46   33427.4    299.2   0.216611666   2.13331   0.84189   0.06791   1.19160
  47   33643.5    297.2   0.060825533   0.59520  -0.10631  -0.72725  -0.23451
  48   33737.0    296.4   0.204891478   1.99937   0.02463   0.13383  -1.40743
  49   33849.0    295.4   0.139704436   1.35875  -0.05243  -0.25420  -1.13639
  50   33934.7    294.7   0.011926980   0.11571   0.21520  -0.12951   0.22940
  51   34272.3    291.8   0.031159980   0.29932   0.02505   0.48670   0.24862
  52   34624.6    288.8   0.236998745   2.25339  -0.00922  -0.00264  -1.50110
  53   34761.9    287.7   0.030711065   0.29085  -0.48692  -0.16267   0.16520
  54   34808.3    287.3   0.068007970   0.64321   0.33656  -0.23639   0.68852
  55   34963.0    286.0   0.422942955   3.98244  -0.53644   0.20435  -1.91126
  56   35041.0    285.4   0.046443517   0.43634   0.46714   0.02809   0.46619
  57   35387.0    282.6   0.002189283   0.02037   0.00437   0.07903   0.11876
  58   35609.0    280.8   0.004680732   0.04327   0.02815  -0.01467   0.20559
  59   35661.5    280.4   0.033014091   0.30477  -0.46096  -0.02758   0.30253
  60   36053.2    277.4   0.012804292   0.11692   0.19416   0.25621   0.11652
  61   36613.0    273.1   0.007387589   0.06643   0.07925   0.01840   0.24456
  62   36828.5    271.5   0.037098399   0.33162   0.12797   0.35533  -0.43473
  63   36946.3    270.7   0.082997386   0.73955   0.01941   0.53968  -0.66927
  64   37131.5    269.3   0.002176478   0.01930  -0.01379   0.12683   0.05496
  65   37336.5    267.8   0.020543165   0.18114   0.21640  -0.31240   0.19162
  66   37370.7    267.6   0.024241242   0.21355  -0.09902   0.29942   0.33777
  67   37444.3    267.1   0.011305542   0.09940   0.19635   0.24276   0.04376
  68   37813.6    264.5   0.118925439   1.03539   0.32530   0.01372   0.96404
  69   37861.2    264.1   0.098039958   0.85248   0.83437  -0.30320  -0.25372
  70   37882.5    264.0   0.034215411   0.29734   0.09026  -0.12665   0.52264
  71   38023.4    263.0   0.180504052   1.56283   1.02837  -0.69473   0.15044
  72   38169.3    262.0   0.066820882   0.57633  -0.14567  -0.04828  -0.74349
  73   38305.3    261.1   0.026675318   0.22926  -0.29850   0.25831  -0.27098
  74   38509.8    259.7   0.223796795   1.91319   1.28789  -0.46723  -0.19032
  75   38798.0    257.7   0.094812845   0.80451   0.86548   0.02442  -0.23424
  76   39062.9    256.0   0.169902464   1.43189   1.17781  -0.20912   0.03064
  77   39111.8    255.7   0.072153079   0.60733   0.74390  -0.15900   0.16928
  78   39247.6    254.8   0.021591720   0.18111   0.05107   0.10184   0.41004
  79   39347.1    254.1   0.074429586   0.62274   0.18578  -0.69256   0.32954
  80   39423.0    253.7   0.006899718   0.05762  -0.22033   0.00182   0.09523
  81   39539.3    252.9   0.042275455   0.35199  -0.58077   0.10157  -0.06619
  82   39642.7    252.3   0.003673479   0.03051   0.15115  -0.01077   0.08685
  83   39699.6    251.9   0.008014400   0.06646  -0.02944   0.01170   0.25584
  84   39744.3    251.6   0.002769767   0.02294  -0.04999  -0.08835  -0.11242
  85   39880.5    250.7   0.036867594   0.30434  -0.54557  -0.04619  -0.06756
  86   39965.6    250.2   0.226889548   1.86897   1.20878  -0.61779   0.16176
  87   40088.7    249.4   0.031783765   0.26101  -0.30679   0.21027  -0.35025
  88   40131.4    249.2   0.087448804   0.71737   0.42472   0.73259  -0.01721
  89   40213.9    248.7   0.241249531   1.97500   1.25499  -0.11618   0.62168
  90   40298.3    248.1   0.001914106   0.01564  -0.02166   0.03459  -0.11820

FINAL SINGLE POINT ENERGY     -4870.080148771837

DIPOLE MOMENT
-------------
                                X             Y             Z
Electronic contribution:     -0.83692      -2.07198      18.21306
Nuclear contribution   :     -3.29211       3.61158     -20.71736
                        -----------------------------------------
Total Dipole Moment    :     -4.12903       1.53960      -2.50430
                        -----------------------------------------
Magnitude (a.u.)       :      5.06860
Magnitude (Debye)      :     12.88337

Rotational constants in cm-1:     0.001572     0.000365     0.000315
Rotational constants in MHz :    47.126445    10.942180     9.456926

                             ****ORCA TERMINATED NORMALLY****
TOTAL RUN TIME: 0 days 0 hours 18 minutes 46 seconds 193 msec
