                         Program Version 4.2.0 -  RELEASE  -
|  1> # ORCA input file
|  2> # SCF done       -178.264759354671          0.000210236072
|  3> ! CAM-B3LYP def2-SVP def2/J RIJCOSX Grid4 TightSCF
|  4> %maxcore 5000
|  5> %tddft
|  6>     Mode sTDDFT
|  7>     Ethresh 5.0
|  8>     maxcore 5000
|  9> end
| 10>
| 11> %pal
| 12>   nprocs 6
| 13>   end
| 14> * xyz 0 1
| 15>    C       -1.18254        -0.24459         2.16804
| 16>    C       -1.08811        -0.94529         3.34303
| 17>    C       -0.37298        -2.15142         3.49331
| 18>    N        0.19377        -3.13142         3.68627
| 19>    C       -1.68296        -0.57504         4.56699
| 20>    N       -2.13128        -0.35349         5.60123
| 21>    C       -0.60096        -0.64652         0.89365
| 22>    C       -0.94966         0.31087        -0.09086
| 23>    C       -0.54262         0.20840        -1.39875
| 24>    C        0.23764        -0.89520        -1.75698
| 25>    C        0.58153        -1.84594        -0.76705
| 26>    C        0.17592        -1.74002         0.55758
| 27>    S        1.55801        -3.11918        -1.43113
| 28>    C        1.49658        -2.38321        -2.99548
| 29>    C        0.78091        -1.23809        -3.02742
| 30>    C       -1.74779         1.38673         0.52725
| 31>    O       -2.06879         2.43046         0.00252
| 32>    C       -1.92296         0.98507         1.94931
| 33>    C       -2.55236         1.73671         2.89077
| 34>    C       -3.44165         2.82773         2.61919
| 35>    C       -3.47133         3.95540         3.42998
| 36>    C       -4.29469         5.04606         3.17212
| 37>    C       -5.20259         5.06583         2.12253
| 38>    C       -5.23642         3.91439         1.29190
| 39>    C       -4.36607         2.79825         1.54381
| 40>    N       -4.57891         1.79549         0.69495
| 41>    S       -5.70383         2.24339        -0.35884
| 42>    N       -6.00297         3.70922         0.22091
| 43>    C       -6.06523         6.19903         1.87449
| 44>    C       -7.38074         6.04095         1.40661
| 45>    C       -8.20583         7.16367         1.01500
| 46>    N       -9.39417         6.94529         0.47191
| 47>    C       -9.85113         5.71009         0.33499
| 48>    C       -9.10229         4.62234         0.87740
| 49>    N       -7.91518         4.80557         1.39192
| 50>    C       -9.66511         3.32159         0.86324
| 51>    N      -10.15802         2.28850         0.80592
| 52>    C      -11.08633         5.46990        -0.29061
| 53>    N      -12.08577         5.19313        -0.78557
| 54>    C       -7.77200         8.51316         1.18347
| 55>    C       -6.46730         8.65606         1.74619
| 56>    C       -5.63495         7.52849         2.08377
| 57>    N       -4.45466         7.91661         2.56516
| 58>    S       -4.39909         9.52725         2.59692
| 59>    N       -5.86975         9.81343         1.99685
| 60>    C       -8.47402         9.66662         0.84431
| 61>    C       -9.73607         9.87443         0.30111
| 62>    C      -10.24309        11.16893         0.05972
| 63>    C      -11.50800        11.19983        -0.46566
| 64>    C      -12.04294         9.92079        -0.65828
| 65>    S      -10.91071         8.67737        -0.16441
| 66>    C      -13.29187         9.56334        -1.16604
| 67>    C      -14.34111        10.39203        -1.60214
| 68>    C      -15.43802         9.70013        -2.03658
| 69>    C      -15.30579         8.29565        -1.96565
| 70>    S      -13.72484         7.88908        -1.32252
| 71>    C      -16.26926         7.38179        -2.34080
| 72>    C      -16.20895         5.98184        -2.30191
| 73>    C      -17.26266         5.13269        -2.70470
| 74>    C      -16.86140         3.79681        -2.53562
| 75>    C      -17.50602         2.59301        -2.78016
| 76>    C      -16.80851         1.41832        -2.50187
| 77>    C      -17.16684         0.07432        -2.63891
| 78>    C      -16.08524        -0.73904        -2.21251
| 79>    C      -15.04823         0.09851        -1.80614
| 80>    C      -15.45402         1.44961        -1.97062
| 81>    C      -14.80715         2.63607        -1.72442
| 82>    C      -15.50714         3.82354        -2.00735
| 83>    C      -15.12445         5.14526        -1.87117
| 84>    C      -16.03174        -2.18145        -2.19120
| 85>    C      -17.00564        -2.99707        -2.58629
| 86>    H       -0.82110         0.95747        -2.12375
| 87>    H        0.47031        -2.48756         1.27509
| 88>    H        2.00968        -2.86197        -3.80682
| 89>    H        0.63443        -0.64402        -3.91139
| 90>    H       -2.37798         1.52698         3.93895
| 91>    H       -2.79429         4.00232         4.27090
| 92>    H       -4.23955         5.90589         3.82049
| 93>    H       -7.92423        10.57784         1.05401
| 94>    H       -9.66134        12.04644         0.28216
| 95>    H      -12.03968        12.10323        -0.70759
| 96>    H      -14.26828        11.46454        -1.58545
| 97>    H      -16.33695        10.16270        -2.40529
| 98>    H      -17.19441         7.80637        -2.71417
| 99>    H      -18.21581         5.46027        -3.07864
|100>    H      -18.51253         2.56277        -3.17363
|101>    H      -18.11066        -0.28276        -3.00798
|102>    H      -14.09299        -0.21747        -1.42862
|103>    H      -13.80225         2.67806        -1.33039
|104>    H      -14.16813         5.46717        -1.50671
|105>    H      -15.10453        -2.59648        -1.81674
|106>    H      -17.94437        -2.63119        -2.96570
|107>    H      -16.89565        -4.06657        -2.54233
|108> *
|109>
|110>                          ****END OF INPUT****

CARTESIAN COORDINATES (ANGSTROEM)
---------------------------------
  C     -1.182540   -0.244590    2.168040
  C     -1.088110   -0.945290    3.343030
  C     -0.372980   -2.151420    3.493310
  N      0.193770   -3.131420    3.686270
  C     -1.682960   -0.575040    4.566990
  N     -2.131280   -0.353490    5.601230
  C     -0.600960   -0.646520    0.893650
  C     -0.949660    0.310870   -0.090860
  C     -0.542620    0.208400   -1.398750
  C      0.237640   -0.895200   -1.756980
  C      0.581530   -1.845940   -0.767050
  C      0.175920   -1.740020    0.557580
  S      1.558010   -3.119180   -1.431130
  C      1.496580   -2.383210   -2.995480
  C      0.780910   -1.238090   -3.027420
  C     -1.747790    1.386730    0.527250
  O     -2.068790    2.430460    0.002520
  C     -1.922960    0.985070    1.949310
  C     -2.552360    1.736710    2.890770
  C     -3.441650    2.827730    2.619190
  C     -3.471330    3.955400    3.429980
  C     -4.294690    5.046060    3.172120
  C     -5.202590    5.065830    2.122530
  C     -5.236420    3.914390    1.291900
  C     -4.366070    2.798250    1.543810
  N     -4.578910    1.795490    0.694950
  S     -5.703830    2.243390   -0.358840
  N     -6.002970    3.709220    0.220910
  C     -6.065230    6.199030    1.874490
  C     -7.380740    6.040950    1.406610
  C     -8.205830    7.163670    1.015000
  N     -9.394170    6.945290    0.471910
  C     -9.851130    5.710090    0.334990
  C     -9.102290    4.622340    0.877400
  N     -7.915180    4.805570    1.391920
  C     -9.665110    3.321590    0.863240
  N    -10.158020    2.288500    0.805920
  C    -11.086330    5.469900   -0.290610
  N    -12.085770    5.193130   -0.785570
  C     -7.772000    8.513160    1.183470
  C     -6.467300    8.656060    1.746190
  C     -5.634950    7.528490    2.083770
  N     -4.454660    7.916610    2.565160
  S     -4.399090    9.527250    2.596920
  N     -5.869750    9.813430    1.996850
  C     -8.474020    9.666620    0.844310
  C     -9.736070    9.874430    0.301110
  C    -10.243090   11.168930    0.059720
  C    -11.508000   11.199830   -0.465660
  C    -12.042940    9.920790   -0.658280
  S    -10.910710    8.677370   -0.164410
  C    -13.291870    9.563340   -1.166040
  C    -14.341110   10.392030   -1.602140
  C    -15.438020    9.700130   -2.036580
  C    -15.305790    8.295650   -1.965650
  S    -13.724840    7.889080   -1.322520
  C    -16.269260    7.381790   -2.340800
  C    -16.208950    5.981840   -2.301910
  C    -17.262660    5.132690   -2.704700
  C    -16.861400    3.796810   -2.535620
  C    -17.506020    2.593010   -2.780160
  C    -16.808510    1.418320   -2.501870
  C    -17.166840    0.074320   -2.638910
  C    -16.085240   -0.739040   -2.212510
  C    -15.048230    0.098510   -1.806140
  C    -15.454020    1.449610   -1.970620
  C    -14.807150    2.636070   -1.724420
  C    -15.507140    3.823540   -2.007350
  C    -15.124450    5.145260   -1.871170
  C    -16.031740   -2.181450   -2.191200
  C    -17.005640   -2.997070   -2.586290
  H     -0.821100    0.957470   -2.123750
  H      0.470310   -2.487560    1.275090
  H      2.009680   -2.861970   -3.806820
  H      0.634430   -0.644020   -3.911390
  H     -2.377980    1.526980    3.938950
  H     -2.794290    4.002320    4.270900
  H     -4.239550    5.905890    3.820490
  H     -7.924230   10.577840    1.054010
  H     -9.661340   12.046440    0.282160
  H    -12.039680   12.103230   -0.707590
  H    -14.268280   11.464540   -1.585450
  H    -16.336950   10.162700   -2.405290
  H    -17.194410    7.806370   -2.714170
  H    -18.215810    5.460270   -3.078640
  H    -18.512530    2.562770   -3.173630
  H    -18.110660   -0.282760   -3.007980
  H    -14.092990   -0.217470   -1.428620
  H    -13.802250    2.678060   -1.330390
  H    -14.168130    5.467170   -1.506710
  H    -15.104530   -2.596480   -1.816740
  H    -17.944370   -2.631190   -2.965700
  H    -16.895650   -4.066570   -2.542330

 Total Charge           Charge          ....    0
 Multiplicity           Mult            ....    1
 Number of Electrons    NEL             ....  510
 Basis Dimension        Dim             .... 1124

ORBITAL ENERGIES
----------------

  NO   OCC          E(Eh)            E(eV)
   0   2.0000     -89.008211     -2422.0366
   1   2.0000     -89.002013     -2421.8679
   2   2.0000     -88.964602     -2420.8499
   3   2.0000     -88.958961     -2420.6964
   4   2.0000     -88.955028     -2420.5894
   5   2.0000     -19.194759      -522.3160
   6   2.0000     -14.442697      -393.0058
   7   2.0000     -14.430247      -392.6670
   8   2.0000     -14.422536      -392.4572
   9   2.0000     -14.419422      -392.3724
  10   2.0000     -14.417667      -392.3247
  11   2.0000     -14.415230      -392.2584
  12   2.0000     -14.413200      -392.2031
  13   2.0000     -14.412310      -392.1789
  14   2.0000     -14.401124      -391.8745
  15   2.0000     -14.401024      -391.8718
  16   2.0000     -10.354377      -281.7569
  17   2.0000     -10.346575      -281.5446
  18   2.0000     -10.343300      -281.4555
  19   2.0000     -10.335372      -281.2398
  20   2.0000     -10.326325      -280.9936
  21   2.0000     -10.326144      -280.9887
  22   2.0000     -10.325388      -280.9681
  23   2.0000     -10.322408      -280.8870
  24   2.0000     -10.321505      -280.8624
  25   2.0000     -10.319154      -280.7985
  26   2.0000     -10.317595      -280.7560
  27   2.0000     -10.317569      -280.7553
  28   2.0000     -10.317005      -280.7400
  29   2.0000     -10.315899      -280.7099
  30   2.0000     -10.315263      -280.6926
  31   2.0000     -10.311683      -280.5951
  32   2.0000     -10.308118      -280.4982
  33   2.0000     -10.307831      -280.4903
  34   2.0000     -10.307568      -280.4832
  35   2.0000     -10.304419      -280.3975
  36   2.0000     -10.304219      -280.3920
  37   2.0000     -10.303565      -280.3743
  38   2.0000     -10.302673      -280.3500
  39   2.0000     -10.301518      -280.3186
  40   2.0000     -10.300719      -280.2968
  41   2.0000     -10.300490      -280.2906
  42   2.0000     -10.299749      -280.2704
  43   2.0000     -10.299181      -280.2550
  44   2.0000     -10.297711      -280.2150
  45   2.0000     -10.296341      -280.1777
  46   2.0000     -10.292857      -280.0829
  47   2.0000     -10.292235      -280.0660
  48   2.0000     -10.291844      -280.0553
  49   2.0000     -10.290476      -280.0181
  50   2.0000     -10.289742      -279.9981
  51   2.0000     -10.289387      -279.9884
  52   2.0000     -10.288300      -279.9589
  53   2.0000     -10.284781      -279.8631
  54   2.0000     -10.284492      -279.8553
  55   2.0000     -10.282315      -279.7960
  56   2.0000     -10.282010      -279.7877
  57   2.0000     -10.281791      -279.7818
  58   2.0000     -10.281296      -279.7683
  59   2.0000     -10.280837      -279.7558
  60   2.0000     -10.279403      -279.7168
  61   2.0000     -10.278468      -279.6913
  62   2.0000     -10.277822      -279.6738
  63   2.0000     -10.277441      -279.6634
  64   2.0000     -10.277365      -279.6613
  65   2.0000     -10.277103      -279.6542
  66   2.0000     -10.275433      -279.6088
  67   2.0000     -10.275049      -279.5983
  68   2.0000     -10.269772      -279.4547
  69   2.0000     -10.266904      -279.3767
  70   2.0000     -10.263518      -279.2845
  71   2.0000      -8.100186      -220.4173
  72   2.0000      -8.093741      -220.2419
  73   2.0000      -8.059886      -219.3206
  74   2.0000      -8.051536      -219.0934
  75   2.0000      -8.051343      -219.0882
  76   2.0000      -6.071584      -165.2162
  77   2.0000      -6.064907      -165.0345
  78   2.0000      -6.063833      -165.0053
  79   2.0000      -6.062184      -164.9604
  80   2.0000      -6.057206      -164.8249
  81   2.0000      -6.056240      -164.7987
  82   2.0000      -6.029438      -164.0693
  83   2.0000      -6.025165      -163.9531
  84   2.0000      -6.021417      -163.8511
  85   2.0000      -6.021343      -163.8491
  86   2.0000      -6.020872      -163.8363
  87   2.0000      -6.016649      -163.7214
  88   2.0000      -6.016575      -163.7193
  89   2.0000      -6.013349      -163.6315
  90   2.0000      -6.012966      -163.6211
  91   2.0000      -1.111190       -30.2370
  92   2.0000      -1.110867       -30.2282
  93   2.0000      -1.100604       -29.9490
  94   2.0000      -1.093603       -29.7584
  95   2.0000      -1.021906       -27.8075
  96   2.0000      -1.008650       -27.4468
  97   2.0000      -1.005432       -27.3592
  98   2.0000      -1.001676       -27.2570
  99   2.0000      -1.001038       -27.2396
 100   2.0000      -0.995203       -27.0809
 101   2.0000      -0.989456       -26.9245
 102   2.0000      -0.982490       -26.7349
 103   2.0000      -0.979700       -26.6590
 104   2.0000      -0.975235       -26.5375
 105   2.0000      -0.970386       -26.4055
 106   2.0000      -0.969134       -26.3715
 107   2.0000      -0.958769       -26.0894
 108   2.0000      -0.954328       -25.9686
 109   2.0000      -0.939465       -25.5641
 110   2.0000      -0.918104       -24.9829
 111   2.0000      -0.915162       -24.9028
 112   2.0000      -0.897305       -24.4169
 113   2.0000      -0.888566       -24.1791
 114   2.0000      -0.884148       -24.0589
 115   2.0000      -0.878704       -23.9107
 116   2.0000      -0.878383       -23.9020
 117   2.0000      -0.868278       -23.6270
 118   2.0000      -0.866244       -23.5717
 119   2.0000      -0.858470       -23.3602
 120   2.0000      -0.854313       -23.2470
 121   2.0000      -0.842599       -22.9283
 122   2.0000      -0.838343       -22.8125
 123   2.0000      -0.831317       -22.6213
 124   2.0000      -0.819758       -22.3068
 125   2.0000      -0.812737       -22.1157
 126   2.0000      -0.810129       -22.0447
 127   2.0000      -0.805973       -21.9317
 128   2.0000      -0.802835       -21.8462
 129   2.0000      -0.782711       -21.2987
 130   2.0000      -0.772952       -21.0331
 131   2.0000      -0.763461       -20.7748
 132   2.0000      -0.757896       -20.6234
 133   2.0000      -0.743067       -20.2199
 134   2.0000      -0.739695       -20.1281
 135   2.0000      -0.726396       -19.7662
 136   2.0000      -0.714867       -19.4525
 137   2.0000      -0.706685       -19.2299
 138   2.0000      -0.698859       -19.0169
 139   2.0000      -0.692471       -18.8431
 140   2.0000      -0.690143       -18.7797
 141   2.0000      -0.681698       -18.5500
 142   2.0000      -0.678204       -18.4549
 143   2.0000      -0.675172       -18.3724
 144   2.0000      -0.672992       -18.3131
 145   2.0000      -0.666217       -18.1287
 146   2.0000      -0.661591       -18.0028
 147   2.0000      -0.656239       -17.8572
 148   2.0000      -0.653009       -17.7693
 149   2.0000      -0.648074       -17.6350
 150   2.0000      -0.640506       -17.4291
 151   2.0000      -0.639630       -17.4052
 152   2.0000      -0.629988       -17.1428
 153   2.0000      -0.627383       -17.0720
 154   2.0000      -0.620433       -16.8829
 155   2.0000      -0.608819       -16.5668
 156   2.0000      -0.606354       -16.4997
 157   2.0000      -0.604510       -16.4496
 158   2.0000      -0.601827       -16.3765
 159   2.0000      -0.597148       -16.2492
 160   2.0000      -0.592038       -16.1102
 161   2.0000      -0.589574       -16.0431
 162   2.0000      -0.582790       -15.8585
 163   2.0000      -0.578572       -15.7437
 164   2.0000      -0.571342       -15.5470
 165   2.0000      -0.565811       -15.3965
 166   2.0000      -0.562021       -15.2934
 167   2.0000      -0.555368       -15.1123
 168   2.0000      -0.552349       -15.0302
 169   2.0000      -0.549385       -14.9495
 170   2.0000      -0.542904       -14.7732
 171   2.0000      -0.540161       -14.6985
 172   2.0000      -0.538102       -14.6425
 173   2.0000      -0.533525       -14.5180
 174   2.0000      -0.529803       -14.4167
 175   2.0000      -0.526221       -14.3192
 176   2.0000      -0.521334       -14.1862
 177   2.0000      -0.520955       -14.1759
 178   2.0000      -0.518741       -14.1157
 179   2.0000      -0.517998       -14.0954
 180   2.0000      -0.512429       -13.9439
 181   2.0000      -0.510668       -13.8960
 182   2.0000      -0.509833       -13.8733
 183   2.0000      -0.505802       -13.7636
 184   2.0000      -0.505285       -13.7495
 185   2.0000      -0.503743       -13.7075
 186   2.0000      -0.503116       -13.6905
 187   2.0000      -0.491872       -13.3845
 188   2.0000      -0.490715       -13.3530
 189   2.0000      -0.488251       -13.2860
 190   2.0000      -0.487363       -13.2618
 191   2.0000      -0.484139       -13.1741
 192   2.0000      -0.481813       -13.1108
 193   2.0000      -0.478035       -13.0080
 194   2.0000      -0.476215       -12.9585
 195   2.0000      -0.475306       -12.9337
 196   2.0000      -0.473304       -12.8793
 197   2.0000      -0.470505       -12.8031
 198   2.0000      -0.468180       -12.7398
 199   2.0000      -0.467918       -12.7327
 200   2.0000      -0.462814       -12.5938
 201   2.0000      -0.459867       -12.5136
 202   2.0000      -0.457832       -12.4582
 203   2.0000      -0.456245       -12.4150
 204   2.0000      -0.454986       -12.3808
 205   2.0000      -0.450869       -12.2688
 206   2.0000      -0.445594       -12.1252
 207   2.0000      -0.444040       -12.0829
 208   2.0000      -0.443040       -12.0557
 209   2.0000      -0.442200       -12.0329
 210   2.0000      -0.441282       -12.0079
 211   2.0000      -0.440195       -11.9783
 212   2.0000      -0.435146       -11.8409
 213   2.0000      -0.431274       -11.7356
 214   2.0000      -0.431077       -11.7302
 215   2.0000      -0.430823       -11.7233
 216   2.0000      -0.429316       -11.6823
 217   2.0000      -0.422203       -11.4887
 218   2.0000      -0.420753       -11.4493
 219   2.0000      -0.419774       -11.4226
 220   2.0000      -0.418809       -11.3964
 221   2.0000      -0.414479       -11.2785
 222   2.0000      -0.413229       -11.2445
 223   2.0000      -0.411179       -11.1887
 224   2.0000      -0.409952       -11.1554
 225   2.0000      -0.408679       -11.1207
 226   2.0000      -0.404185       -10.9984
 227   2.0000      -0.400663       -10.9026
 228   2.0000      -0.396223       -10.7818
 229   2.0000      -0.393953       -10.7200
 230   2.0000      -0.385689       -10.4951
 231   2.0000      -0.383187       -10.4271
 232   2.0000      -0.381763       -10.3883
 233   2.0000      -0.380417       -10.3517
 234   2.0000      -0.373717       -10.1694
 235   2.0000      -0.365597        -9.9484
 236   2.0000      -0.358481        -9.7548
 237   2.0000      -0.354904        -9.6574
 238   2.0000      -0.353563        -9.6209
 239   2.0000      -0.346193        -9.4204
 240   2.0000      -0.340534        -9.2664
 241   2.0000      -0.330293        -8.9877
 242   2.0000      -0.328106        -8.9282
 243   2.0000      -0.325903        -8.8683
 244   2.0000      -0.322765        -8.7829
 245   2.0000      -0.320380        -8.7180
 246   2.0000      -0.312422        -8.5014
 247   2.0000      -0.306182        -8.3316
 248   2.0000      -0.298794        -8.1306
 249   2.0000      -0.291530        -7.9329
 250   2.0000      -0.282446        -7.6857
 251   2.0000      -0.281522        -7.6606
 252   2.0000      -0.271241        -7.3808
 253   2.0000      -0.250560        -6.8181
 254   2.0000      -0.207614        -5.6495
 255   0.0000      -0.116697        -3.1755
 256   0.0000      -0.107567        -2.9271
 257   0.0000      -0.077332        -2.1043
 258   0.0000      -0.061638        -1.6773
 259   0.0000      -0.047795        -1.3006

MULLIKEN ATOMIC CHARGES
-----------------------
   0 C :    0.307658
   1 C :   -0.354664
   2 C :   -0.186954
   3 N :    0.144515
   4 C :   -0.190780
   5 N :    0.150747
   6 C :    0.017619
   7 C :   -0.011917
   8 C :   -0.071896
   9 C :    0.116586
  10 C :   -0.095213
  11 C :   -0.027552
  12 S :    0.133589
  13 C :   -0.049304
  14 C :    0.022827
  15 C :    0.149834
  16 O :   -0.146384
  17 C :   -0.057753
  18 C :   -0.061851
  19 C :    0.079982
  20 C :   -0.017578
  21 C :   -0.007771
  22 C :    0.001649
  23 C :    0.040660
  24 C :    0.039238
  25 N :   -0.281040
  26 S :    0.502239
  27 N :   -0.275584
  28 C :    0.046950
  29 C :   -0.046459
  30 C :   -0.016209
  31 N :   -0.033348
  32 C :   -0.100399
  33 C :   -0.134509
  34 N :    0.051434
  35 C :   -0.225249
  36 N :    0.210472
  37 C :   -0.217739
  38 N :    0.194603
  39 C :    0.124647
  40 C :   -0.013891
  41 C :    0.006234
  42 N :   -0.291606
  43 S :    0.485512
  44 N :   -0.280183
  45 C :   -0.139451
  46 C :    0.036476
  47 C :    0.009699
  48 C :    0.039612
  49 C :   -0.040598
  50 S :    0.130893
  51 C :   -0.003996
  52 C :    0.007530
  53 C :    0.056086
  54 C :   -0.045884
  55 S :    0.104528
  56 C :    0.024315
  57 C :    0.046863
  58 C :   -0.015264
  59 C :    0.052377
  60 C :    0.020243
  61 C :    0.039662
  62 C :   -0.004816
  63 C :    0.055947
  64 C :   -0.005457
  65 C :    0.050004
  66 C :    0.031616
  67 C :    0.011246
  68 C :    0.016067
  69 C :    0.012012
  70 C :   -0.019953
  71 H :   -0.016313
  72 H :   -0.009896
  73 H :    0.034924
  74 H :   -0.009742
  75 H :    0.028482
  76 H :   -0.014396
  77 H :   -0.015722
  78 H :   -0.002136
  79 H :   -0.009801
  80 H :   -0.016968
  81 H :   -0.008298
  82 H :   -0.004049
  83 H :   -0.009723
  84 H :   -0.019231
  85 H :   -0.018989
  86 H :   -0.018092
  87 H :   -0.004976
  88 H :    0.004805
  89 H :   -0.013650
  90 H :   -0.012127
  91 H :    0.007975
  92 H :    0.027003
Sum of atomic charges:   -0.0000000

LOEWDIN ATOMIC CHARGES
----------------------
   0 C :    0.078924
   1 C :   -0.143096
   2 C :   -0.017235
   3 N :   -0.060119
   4 C :   -0.020785
   5 N :   -0.055743
   6 C :   -0.022259
   7 C :   -0.047162
   8 C :    0.019366
   9 C :   -0.035378
  10 C :   -0.146795
  11 C :   -0.010565
  12 S :    0.423100
  13 C :   -0.152297
  14 C :   -0.059242
  15 C :    0.083970
  16 O :   -0.139665
  17 C :   -0.083265
  18 C :    0.079997
  19 C :   -0.047857
  20 C :    0.016734
  21 C :   -0.012543
  22 C :    0.010944
  23 C :   -0.040721
  24 C :   -0.032799
  25 N :   -0.285819
  26 S :    0.641313
  27 N :   -0.278152
  28 C :   -0.086031
  29 C :    0.015812
  30 C :   -0.010876
  31 N :   -0.034360
  32 C :   -0.083189
  33 C :   -0.023639
  34 N :   -0.010141
  35 C :   -0.027371
  36 N :   -0.033113
  37 C :   -0.021067
  38 N :   -0.067034
  39 C :   -0.021484
  40 C :   -0.050482
  41 C :   -0.032555
  42 N :   -0.299838
  43 S :    0.616409
  44 N :   -0.280342
  45 C :   -0.044606
  46 C :   -0.123816
  47 C :   -0.049913
  48 C :   -0.019251
  49 C :   -0.225147
  50 S :    0.481518
  51 C :   -0.130594
  52 C :   -0.058477
  53 C :    0.001626
  54 C :   -0.183110
  55 S :    0.451228
  56 C :    0.021329
  57 C :   -0.084498
  58 C :    0.049244
  59 C :   -0.071055
  60 C :    0.093805
  61 C :   -0.065490
  62 C :    0.060053
  63 C :   -0.058404
  64 C :    0.047381
  65 C :   -0.063791
  66 C :    0.102541
  67 C :   -0.062558
  68 C :    0.052017
  69 C :   -0.022307
  70 C :   -0.045557
  71 H :    0.038655
  72 H :    0.039702
  73 H :    0.027751
  74 H :    0.034019
  75 H :    0.045407
  76 H :    0.034636
  77 H :    0.032063
  78 H :    0.042192
  79 H :    0.033386
  80 H :    0.029849
  81 H :    0.033635
  82 H :    0.036575
  83 H :    0.041134
  84 H :    0.027167
  85 H :    0.037665
  86 H :    0.027760
  87 H :    0.033462
  88 H :    0.048589
  89 H :    0.013278
  90 H :    0.032044
  91 H :    0.018050
  92 H :    0.027259

  Mayer bond orders larger than 0.100000
B(  0-C ,  1-C ) :   1.6299 B(  0-C ,  6-C ) :   1.0060 B(  0-C , 17-C ) :   1.0723
B(  1-C ,  2-C ) :   1.1430 B(  1-C ,  4-C ) :   1.1444 B(  2-C ,  3-N ) :   2.9685
B(  4-C ,  5-N ) :   2.9730 B(  6-C ,  7-C ) :   1.2722 B(  6-C , 11-C ) :   1.4054
B(  7-C ,  8-C ) :   1.4281 B(  7-C , 15-C ) :   0.9401 B(  8-C ,  9-C ) :   1.2448
B(  8-C , 71-H ) :   1.0159 B(  9-C , 10-C ) :   1.3048 B(  9-C , 14-C ) :   1.1692
B( 10-C , 11-C ) :   1.3283 B( 10-C , 12-S ) :   1.0938 B( 11-C , 72-H ) :   0.9814
B( 12-S , 13-C ) :   1.1252 B( 13-C , 14-C ) :   1.6294 B( 13-C , 73-H ) :   0.9688
B( 14-C , 74-H ) :   0.9992 B( 15-C , 16-O ) :   2.2364 B( 15-C , 17-C ) :   0.9326
B( 17-C , 18-C ) :   1.6435 B( 18-C , 19-C ) :   1.0942 B( 18-C , 75-H ) :   0.9418
B( 19-C , 20-C ) :   1.4011 B( 19-C , 22-C ) :   0.1030 B( 19-C , 24-C ) :   1.1878
B( 20-C , 21-C ) :   1.2208 B( 20-C , 76-H ) :   0.9990 B( 21-C , 22-C ) :   1.4808
B( 21-C , 77-H ) :   0.9905 B( 22-C , 23-C ) :   1.2219 B( 22-C , 28-C ) :   0.9935
B( 23-C , 24-C ) :   1.1789 B( 23-C , 27-N ) :   1.4982 B( 24-C , 25-N ) :   1.5228
B( 25-N , 26-S ) :   1.2650 B( 25-N , 27-N ) :   0.1494 B( 26-S , 27-N ) :   1.2787
B( 28-C , 29-C ) :   1.3560 B( 28-C , 41-C ) :   1.2067 B( 29-C , 30-C ) :   1.0860
B( 29-C , 34-N ) :   1.3973 B( 30-C , 31-N ) :   1.5014 B( 30-C , 39-C ) :   1.1028
B( 31-N , 32-C ) :   1.5218 B( 31-N , 50-S ) :   0.1096 B( 32-C , 33-C ) :   1.2503
B( 32-C , 37-C ) :   1.1462 B( 33-C , 34-N ) :   1.7095 B( 33-C , 35-C ) :   1.1639
B( 35-C , 36-N ) :   3.0497 B( 37-C , 38-N ) :   2.9504 B( 38-N , 89-H ) :   0.1183
B( 39-C , 40-C ) :   1.1029 B( 39-C , 45-C ) :   1.4371 B( 40-C , 41-C ) :   1.1169
B( 40-C , 44-N ) :   1.5928 B( 41-C , 42-N ) :   1.5514 B( 42-N , 43-S ) :   1.2224
B( 42-N , 44-N ) :   0.1310 B( 43-S , 44-N ) :   1.2424 B( 45-C , 46-C ) :   1.2972
B( 45-C , 78-H ) :   0.9542 B( 46-C , 47-C ) :   1.2566 B( 46-C , 50-S ) :   1.1185
B( 47-C , 48-C ) :   1.4570 B( 47-C , 79-H ) :   1.0028 B( 48-C , 49-C ) :   1.2921
B( 48-C , 80-H ) :   0.9939 B( 49-C , 50-S ) :   1.0138 B( 49-C , 51-C ) :   1.3451
B( 51-C , 52-C ) :   1.2545 B( 51-C , 55-S ) :   1.1322 B( 52-C , 53-C ) :   1.5060
B( 52-C , 81-H ) :   0.9963 B( 53-C , 54-C ) :   1.1990 B( 53-C , 82-H ) :   0.9991
B( 54-C , 55-S ) :   1.0289 B( 54-C , 56-C ) :   1.4731 B( 56-C , 57-C ) :   1.2064
B( 56-C , 83-H ) :   0.9723 B( 57-C , 58-C ) :   1.3053 B( 57-C , 68-C ) :   1.1388
B( 58-C , 59-C ) :   1.2181 B( 58-C , 84-H ) :   1.0170 B( 59-C , 60-C ) :   1.3052
B( 59-C , 67-C ) :   1.1253 B( 60-C , 61-C ) :   1.2415 B( 60-C , 85-H ) :   1.0036
B( 61-C , 62-C ) :   1.3191 B( 61-C , 65-C ) :   1.1177 B( 62-C , 63-C ) :   1.2386
B( 62-C , 86-H ) :   1.0084 B( 63-C , 64-C ) :   1.4065 B( 63-C , 69-C ) :   1.0798
B( 64-C , 65-C ) :   1.1474 B( 64-C , 87-H ) :   1.0183 B( 65-C , 66-C ) :   1.3905
B( 66-C , 67-C ) :   1.1650 B( 66-C , 88-H ) :   1.0073 B( 67-C , 68-C ) :   1.4473
B( 68-C , 89-H ) :   0.9721 B( 69-C , 70-C ) :   1.9417 B( 69-C , 90-H ) :   0.9666
B( 70-C , 91-H ) :   0.9525 B( 70-C , 92-H ) :   0.9494

-----------------------------------------------------------------------------
         ABSORPTION SPECTRUM VIA TRANSITION ELECTRIC DIPOLE MOMENTS
-----------------------------------------------------------------------------
State   Energy  Wavelength   fosc         T2         TX        TY        TZ
        (cm-1)    (nm)                  (au**2)     (au)      (au)      (au)
-----------------------------------------------------------------------------
   0    5808.4   1721.7   0.125032889   7.08674   2.47672   0.36416   0.90554
   1    7308.6   1368.2   0.485007380  21.84685  -4.38427   0.32126  -1.58803
   2   12704.9    787.1   0.017869837   0.46305   0.17689  -0.65360   0.06760
   3   15017.9    665.9   0.373609265   8.18999   2.26484  -1.72599   0.28541
   4   16909.0    591.4   0.253643163   4.93834  -0.65388  -2.09269  -0.36252
   5   17076.9    585.6   0.659711457  12.71801   0.82281   3.43863   0.46565
   6   20583.2    485.8   0.056711592   0.90706   0.33247   0.87373   0.18197
   7   21711.5    460.6   0.020299212   0.30780   0.08633  -0.52387   0.16096
   8   21934.3    455.9   0.095690398   1.43621   0.25508   1.16660   0.10093
   9   22557.4    443.3   0.146374788   2.13626  -0.81174  -1.15037  -0.39241
  10   22630.9    441.9   0.121833709   1.77231  -0.01704   1.33102   0.02047
  11   23435.7    426.7   0.330889494   4.64815  -1.25198  -1.69825  -0.44344
  12   24499.6    408.2   0.121850577   1.63736   0.46103  -1.18610  -0.13414
  13   24606.2    406.4   0.104091589   1.39266   1.03577  -0.56343   0.04879
  14   25253.8    396.0   0.178075857   2.32143   0.95585  -1.08676   0.47617
  15   26201.9    381.7   0.041720655   0.52420   0.56212  -0.40144   0.21695
  16   26409.4    378.7   0.005977069   0.07451   0.18817   0.14570  -0.13368
  17   26995.9    370.4   0.398534301   4.86009  -0.63847   2.07031  -0.40776
  18   27337.0    365.8   0.011580485   0.13946  -0.09014  -0.09100   0.35079
  19   27585.1    362.5   0.083292640   0.99405  -0.74173   0.03384   0.66539
  20   27700.9    361.0   0.140358641   1.66810  -0.56937   0.88698   0.74645
  21   28813.2    347.1   0.724582275   8.27890  -0.48214   2.83164  -0.16817
  22   29033.2    344.4   0.051039991   0.57875  -0.00319   0.73990   0.17688
  23   29435.6    339.7   0.028113424   0.31442  -0.15125   0.12113   0.52619
  24   29656.5    337.2   0.031424193   0.34883   0.51712  -0.24894   0.13947
  25   29760.9    336.0   0.012880818   0.14249   0.29769   0.21086  -0.09698
  26   29959.9    333.8   0.072807853   0.80004  -0.30266  -0.20710  -0.81581
  27   30420.2    328.7   0.117081570   1.26707  -0.60877  -0.94489   0.06044
  28   30682.2    325.9   0.145798818   1.56438  -0.57714  -0.93280  -0.60099
  29   30779.9    324.9   0.050324710   0.53826  -0.59030  -0.04230   0.43361
  30   31298.0    319.5   0.006568001   0.06909   0.04540  -0.22697   0.12454
  31   31413.9    318.3   0.099793599   1.04582  -0.65783  -0.33423   0.70807
  32   31483.0    317.6   0.092538663   0.96766   0.06339   0.94232   0.27510
  33   31896.1    313.5   0.052692925   0.54386  -0.15095   0.41896   0.58784
  34   32153.3    311.0   0.088151376   0.90257  -0.74851  -0.48970   0.32014
  35   32451.8    308.1   0.009432503   0.09569   0.21904   0.09479  -0.19678
  36   32659.9    306.2   0.009355450   0.09430  -0.30607   0.02497  -0.00141
  37   32916.8    303.8   0.026587173   0.26591   0.48654   0.04749   0.16410
  38   33365.7    299.7   0.074315263   0.73325  -0.75985   0.33641   0.20667
  39   33463.0    298.8   0.030003130   0.29517   0.28171  -0.38210  -0.26422
  40   33655.6    297.1   0.003057161   0.02990   0.14912  -0.06999  -0.05262
  41   33717.2    296.6   0.084716814   0.82717   0.08638   0.06215   0.90324
  42   33913.5    294.9   0.133832945   1.29917  -0.76967  -0.06906  -0.83786
  43   34101.7    293.2   0.044892563   0.43338  -0.59462   0.11287  -0.25898
  44   34311.0    291.5   0.196111648   1.88168   0.09682  -0.69857  -1.17656
  45   34376.4    290.9   0.147198089   1.40967  -0.80146  -0.55321   0.67918
  46   34475.5    290.1   0.044795017   0.42775   0.23509  -0.25647   0.55381
  47   34683.6    288.3   0.058867134   0.55876  -0.27778  -0.03648  -0.69301
  48   34800.8    287.3   0.028022340   0.26509  -0.11269  -0.23728  -0.44282
  49   35017.3    285.6   0.041996375   0.39483   0.36957   0.45710   0.22204
  50   35154.1    284.5   0.048679835   0.45588   0.21620   0.14235  -0.62359
  51   35410.8    282.4   0.026454355   0.24594  -0.21890   0.22944  -0.38129
  52   35518.9    281.5   0.026118913   0.24209   0.31415   0.33403   0.17839
  53   35918.8    278.4   0.069636181   0.63825  -0.56891   0.56076  -0.01192
  54   36010.2    277.7   0.048462911   0.44306   0.61434  -0.09426  -0.23824
  55   36381.1    274.9   0.016763015   0.15169  -0.19799  -0.33144   0.05133
  56   36512.9    273.9   0.000952448   0.00859  -0.05191   0.07622   0.00916
  57   36800.2    271.7   0.019303547   0.17269  -0.36644  -0.16281  -0.10912
  58   36838.7    271.5   0.018030789   0.16113  -0.22584  -0.05456  -0.32734
  59   37036.2    270.0   0.009524653   0.08466   0.16730   0.12679  -0.20150
  60   37069.7    269.8   0.017656179   0.15680   0.27032  -0.10811  -0.26841
  61   37187.3    268.9   0.000046016   0.00041   0.01495   0.00910   0.01004
  62   37554.2    266.3   0.094345024   0.82706   0.26651  -0.64500   0.58310
  63   37643.6    265.6   0.042085657   0.36806  -0.22427   0.55701  -0.08664
  64   37838.2    264.3   0.215175574   1.87214  -0.44452   1.03342  -0.77883
  65   38129.6    262.3   0.004273827   0.03690   0.02828   0.14684   0.12058
  66   38385.2    260.5   0.242626254   2.08089   0.03865  -1.44005  -0.07519
  67   38584.4    259.2   0.079846641   0.68127   0.53601   0.62267   0.07903
  68   38679.5    258.5   0.034925749   0.29726  -0.41457   0.35146  -0.04327
  69   38758.0    258.0   0.091627016   0.77828  -0.26803  -0.83001  -0.13239
  70   38854.3    257.4   0.051278731   0.43448   0.50255  -0.42588   0.02359
  71   39095.6    255.8   0.086060120   0.72469   0.43640  -0.71417  -0.15558
  72   39359.1    254.1   0.008062326   0.06744  -0.25939  -0.00230  -0.01217
  73   39633.6    252.3   0.014999432   0.12459  -0.01901  -0.05545   0.34807
  74   39692.1    251.9   0.000101860   0.00084  -0.02701  -0.00087  -0.01071
  75   40002.9    250.0   0.039581768   0.32575   0.22985  -0.48287  -0.19939
  76   40036.7    249.8   0.145075718   1.19292   0.91529   0.30258   0.51343
  77   40194.1    248.8   0.045411783   0.37195  -0.00357  -0.33770  -0.50783
  78   40249.6    248.4   0.054716031   0.44754  -0.36986   0.51311  -0.21785

FINAL SINGLE POINT ENERGY     -4718.495872759972

DIPOLE MOMENT
-------------
                                X             Y             Z
Electronic contribution:     49.79993      11.63719      20.52834
Nuclear contribution   :    -54.90595      -8.56246     -24.47268
                        -----------------------------------------
Total Dipole Moment    :     -5.10602       3.07474      -3.94434
                        -----------------------------------------
Magnitude (a.u.)       :      7.14726
Magnitude (Debye)      :     18.16688

Rotational constants in cm-1:     0.001057     0.000393     0.000309
Rotational constants in MHz :    31.687084    11.790557     9.272589

                             ****ORCA TERMINATED NORMALLY****
TOTAL RUN TIME: 0 days 0 hours 12 minutes 49 seconds 821 msec
