                         Program Version 4.2.0 -  RELEASE  -
|  1> # ORCA input file
|  2> # SCF done       -193.303289682670          0.000586699787
|  3> ! CAM-B3LYP def2-SVP def2/J RIJCOSX Grid4 TightSCF
|  4> %maxcore 5000
|  5> %tddft
|  6>     Mode sTDDFT
|  7>     Ethresh 5.0
|  8>     maxcore 5000
|  9> end
| 10>
| 11> %pal
| 12>   nprocs 6
| 13>   end
| 14> * xyz 0 1
| 15>    C       -2.65808         1.16981         3.59574
| 16>    C       -2.49821         1.51450         4.91389
| 17>    C       -1.57370         0.90183         5.78384
| 18>    N       -0.83370         0.44757         6.53513
| 19>    C       -3.25532         2.49847         5.58227
| 20>    N       -3.84682         3.27112         6.19252
| 21>    C       -1.96434         0.09594         2.89948
| 22>    C       -2.51337        -0.03037         1.59766
| 23>    C       -2.06869        -0.96514         0.69455
| 24>    C       -1.03249        -1.81579         1.09279
| 25>    C       -0.48762        -1.67948         2.39200
| 26>    C       -0.93821        -0.73479         3.30698
| 27>    S        0.78498        -2.82762         2.66278
| 28>    C        0.57937        -3.46871         1.06940
| 29>    C       -0.39449        -2.85649         0.36106
| 30>    C       -3.57650         0.96901         1.41493
| 31>    O       -4.23815         1.15512         0.41156
| 32>    C       -3.61172         1.75125         2.67125
| 33>    C       -4.25202         2.94799         2.83071
| 34>    C       -5.24513         3.50231         1.99116
| 35>    S       -5.31205         5.23363         1.80708
| 36>    C       -6.62625         5.14653         0.68002
| 37>    C       -7.01873         3.82646         0.49994
| 38>    C       -6.26157         2.90904         1.24953
| 39>    S       -6.68675         1.23243         1.52110
| 40>    C       -7.65261         0.69525         0.15359
| 41>    O       -8.06086        -0.43570         0.15779
| 42>    C       -8.01138         1.61505        -0.98616
| 43>    O       -8.33302         1.18552        -2.05615
| 44>    S       -8.22776         3.35982        -0.69207
| 45>    C       -7.11368         6.37611         0.14004
| 46>    C       -8.27435         6.54096        -0.51092
| 47>    C       -8.71827         7.84862        -1.07846
| 48>    C       -8.59963         9.02149        -0.11819
| 49>    C       -9.55591         8.65552         1.06261
| 50>    C      -10.11844         7.22328         1.07961
| 51>    C       -9.83273         6.43855         2.12010
| 52>    O      -11.08510         6.71931         0.23060
| 53>    C      -11.06395         6.82240        -1.21103
| 54>    C      -10.21072         8.03538        -1.48537
| 55>    C      -10.13382         8.95958        -2.65919
| 56>    C       -9.47782        10.07033        -2.33650
| 57>    C       -8.95805        10.31908        -0.92619
| 58>    C       -7.74268        11.24634        -0.98991
| 59>    C      -12.50674         6.99229        -1.68771
| 60>    C      -13.37832         5.81886        -1.24874
| 61>    C      -14.86339         6.02951        -1.58228
| 62>    C      -15.11073         6.03589        -3.05051
| 63>    C      -15.52567         4.96208        -3.74791
| 64>    C      -15.77508         4.87422        -5.15542
| 65>    C      -16.21325         3.66405        -5.57206
| 66>    C      -16.33911         2.69926        -4.53681
| 67>    S      -15.87197         3.39519        -2.99820
| 68>    C      -16.75684         1.39397        -4.65138
| 69>    C      -17.15400         0.70368        -5.82255
| 70>    C      -17.51260        -0.58796        -5.60546
| 71>    C      -17.42385        -1.01340        -4.25161
| 72>    S      -16.86081         0.32913        -3.26372
| 73>    C      -17.72711        -2.27201        -3.80888
| 74>    C      -17.66727        -2.80460        -2.50117
| 75>    C      -17.98646        -4.12240        -2.17596
| 76>    C      -17.80496        -4.30954        -0.77995
| 77>    C      -17.96990        -5.40710         0.02971
| 78>    C      -17.69229        -5.25645         1.40178
| 79>    C      -17.75281        -6.15284         2.45457
| 80>    C      -17.36091        -5.48481         3.66200
| 81>    C      -17.06035        -4.17509         3.34681
| 82>    C      -17.25046        -3.98179         1.94050
| 83>    C      -17.08381        -2.88736         1.13864
| 84>    C      -17.35799        -3.03683        -0.24011
| 85>    C      -17.27828        -2.13955        -1.28427
| 86>    C      -17.28517        -6.06214         4.98204
| 87>    C      -17.55810        -7.32690         5.29190
| 88>    H       -2.50923        -1.03938        -0.28759
| 89>    H       -0.48869        -0.66674         4.28365
| 90>    H        1.21143        -4.27721         0.75728
| 91>    H       -0.66374        -3.12036        -0.64561
| 92>    H       -3.92582         3.59975         3.63235
| 93>    H       -6.48558         7.22884         0.35837
| 94>    H       -8.87752         5.67314        -0.71614
| 95>    H       -8.09239         8.01544        -1.96529
| 96>    H       -7.58851         9.13820         0.27389
| 97>    H      -10.39428         9.35578         1.12036
| 98>    H       -9.00609         8.76172         1.99788
| 99>    H       -9.19156         6.75866         2.91915
|100>    H      -10.25397         5.45220         2.19200
|101>    H      -10.66860         5.88326        -1.62156
|102>    H      -10.66504         8.70801        -0.75332
|103>    H      -10.52433         8.73702        -3.63720
|104>    H       -9.29259        10.85672        -3.05164
|105>    H       -9.75013        10.85646        -0.38641
|106>    H       -6.92636        10.76429        -1.52391
|107>    H       -7.40125        11.50009         0.01109
|108>    H       -7.99302        12.16959        -1.50731
|109>    H      -12.90986         7.91937        -1.27361
|110>    H      -12.49813         7.07502        -2.77555
|111>    H      -13.27167         5.69690        -0.17055
|112>    H      -13.03076         4.90216        -1.72877
|113>    H      -15.19250         6.97642        -1.14808
|114>    H      -15.43586         5.21867        -1.12613
|115>    H      -14.92053         6.95339        -3.58937
|116>    H      -15.62056         5.72462        -5.79594
|117>    H      -16.45514         3.42547        -6.59265
|118>    H      -17.16191         1.18054        -6.78632
|119>    H      -17.84071        -1.26364        -6.37618
|120>    H      -18.05653        -2.96593        -4.57395
|121>    H      -18.31355        -4.87808        -2.86649
|122>    H      -18.29864        -6.35923        -0.36277
|123>    H      -18.04511        -7.18460         2.38430
|124>    H      -16.73399        -3.41535         4.03341
|125>    H      -16.75229        -1.93502         1.52795
|126>    H      -16.97517        -1.11211        -1.20713
|127>    H      -16.97351        -5.37663         5.76063
|128>    H      -17.86845        -8.04618         4.55351
|129>    H      -17.47714        -7.68900         6.30215
|130> *
|131>
|132>                          ****END OF INPUT****

CARTESIAN COORDINATES (ANGSTROEM)
---------------------------------
  C     -2.658080    1.169810    3.595740
  C     -2.498210    1.514500    4.913890
  C     -1.573700    0.901830    5.783840
  N     -0.833700    0.447570    6.535130
  C     -3.255320    2.498470    5.582270
  N     -3.846820    3.271120    6.192520
  C     -1.964340    0.095940    2.899480
  C     -2.513370   -0.030370    1.597660
  C     -2.068690   -0.965140    0.694550
  C     -1.032490   -1.815790    1.092790
  C     -0.487620   -1.679480    2.392000
  C     -0.938210   -0.734790    3.306980
  S      0.784980   -2.827620    2.662780
  C      0.579370   -3.468710    1.069400
  C     -0.394490   -2.856490    0.361060
  C     -3.576500    0.969010    1.414930
  O     -4.238150    1.155120    0.411560
  C     -3.611720    1.751250    2.671250
  C     -4.252020    2.947990    2.830710
  C     -5.245130    3.502310    1.991160
  S     -5.312050    5.233630    1.807080
  C     -6.626250    5.146530    0.680020
  C     -7.018730    3.826460    0.499940
  C     -6.261570    2.909040    1.249530
  S     -6.686750    1.232430    1.521100
  C     -7.652610    0.695250    0.153590
  O     -8.060860   -0.435700    0.157790
  C     -8.011380    1.615050   -0.986160
  O     -8.333020    1.185520   -2.056150
  S     -8.227760    3.359820   -0.692070
  C     -7.113680    6.376110    0.140040
  C     -8.274350    6.540960   -0.510920
  C     -8.718270    7.848620   -1.078460
  C     -8.599630    9.021490   -0.118190
  C     -9.555910    8.655520    1.062610
  C    -10.118440    7.223280    1.079610
  C     -9.832730    6.438550    2.120100
  O    -11.085100    6.719310    0.230600
  C    -11.063950    6.822400   -1.211030
  C    -10.210720    8.035380   -1.485370
  C    -10.133820    8.959580   -2.659190
  C     -9.477820   10.070330   -2.336500
  C     -8.958050   10.319080   -0.926190
  C     -7.742680   11.246340   -0.989910
  C    -12.506740    6.992290   -1.687710
  C    -13.378320    5.818860   -1.248740
  C    -14.863390    6.029510   -1.582280
  C    -15.110730    6.035890   -3.050510
  C    -15.525670    4.962080   -3.747910
  C    -15.775080    4.874220   -5.155420
  C    -16.213250    3.664050   -5.572060
  C    -16.339110    2.699260   -4.536810
  S    -15.871970    3.395190   -2.998200
  C    -16.756840    1.393970   -4.651380
  C    -17.154000    0.703680   -5.822550
  C    -17.512600   -0.587960   -5.605460
  C    -17.423850   -1.013400   -4.251610
  S    -16.860810    0.329130   -3.263720
  C    -17.727110   -2.272010   -3.808880
  C    -17.667270   -2.804600   -2.501170
  C    -17.986460   -4.122400   -2.175960
  C    -17.804960   -4.309540   -0.779950
  C    -17.969900   -5.407100    0.029710
  C    -17.692290   -5.256450    1.401780
  C    -17.752810   -6.152840    2.454570
  C    -17.360910   -5.484810    3.662000
  C    -17.060350   -4.175090    3.346810
  C    -17.250460   -3.981790    1.940500
  C    -17.083810   -2.887360    1.138640
  C    -17.357990   -3.036830   -0.240110
  C    -17.278280   -2.139550   -1.284270
  C    -17.285170   -6.062140    4.982040
  C    -17.558100   -7.326900    5.291900
  H     -2.509230   -1.039380   -0.287590
  H     -0.488690   -0.666740    4.283650
  H      1.211430   -4.277210    0.757280
  H     -0.663740   -3.120360   -0.645610
  H     -3.925820    3.599750    3.632350
  H     -6.485580    7.228840    0.358370
  H     -8.877520    5.673140   -0.716140
  H     -8.092390    8.015440   -1.965290
  H     -7.588510    9.138200    0.273890
  H    -10.394280    9.355780    1.120360
  H     -9.006090    8.761720    1.997880
  H     -9.191560    6.758660    2.919150
  H    -10.253970    5.452200    2.192000
  H    -10.668600    5.883260   -1.621560
  H    -10.665040    8.708010   -0.753320
  H    -10.524330    8.737020   -3.637200
  H     -9.292590   10.856720   -3.051640
  H     -9.750130   10.856460   -0.386410
  H     -6.926360   10.764290   -1.523910
  H     -7.401250   11.500090    0.011090
  H     -7.993020   12.169590   -1.507310
  H    -12.909860    7.919370   -1.273610
  H    -12.498130    7.075020   -2.775550
  H    -13.271670    5.696900   -0.170550
  H    -13.030760    4.902160   -1.728770
  H    -15.192500    6.976420   -1.148080
  H    -15.435860    5.218670   -1.126130
  H    -14.920530    6.953390   -3.589370
  H    -15.620560    5.724620   -5.795940
  H    -16.455140    3.425470   -6.592650
  H    -17.161910    1.180540   -6.786320
  H    -17.840710   -1.263640   -6.376180
  H    -18.056530   -2.965930   -4.573950
  H    -18.313550   -4.878080   -2.866490
  H    -18.298640   -6.359230   -0.362770
  H    -18.045110   -7.184600    2.384300
  H    -16.733990   -3.415350    4.033410
  H    -16.752290   -1.935020    1.527950
  H    -16.975170   -1.112110   -1.207130
  H    -16.973510   -5.376630    5.760630
  H    -17.868450   -8.046180    4.553510
  H    -17.477140   -7.689000    6.302150

 Total Charge           Charge          ....    0
 Multiplicity           Mult            ....    1
 Number of Electrons    NEL             ....  550
 Basis Dimension        Dim             .... 1256

ORBITAL ENERGIES
----------------

  NO   OCC          E(Eh)            E(eV)
   0   2.0000     -88.977003     -2421.1873
   1   2.0000     -88.965504     -2420.8744
   2   2.0000     -88.964920     -2420.8586
   3   2.0000     -88.964362     -2420.8434
   4   2.0000     -88.930453     -2419.9207
   5   2.0000     -88.927867     -2419.8503
   6   2.0000     -19.242504      -523.6152
   7   2.0000     -19.232827      -523.3518
   8   2.0000     -19.229750      -523.2681
   9   2.0000     -19.216098      -522.8966
  10   2.0000     -14.414989      -392.2518
  11   2.0000     -14.414580      -392.2407
  12   2.0000     -10.402277      -283.0604
  13   2.0000     -10.397972      -282.9432
  14   2.0000     -10.364974      -282.0453
  15   2.0000     -10.342225      -281.4262
  16   2.0000     -10.340607      -281.3822
  17   2.0000     -10.336967      -281.2832
  18   2.0000     -10.333021      -281.1758
  19   2.0000     -10.327897      -281.0364
  20   2.0000     -10.327437      -281.0238
  21   2.0000     -10.326579      -281.0005
  22   2.0000     -10.325413      -280.9688
  23   2.0000     -10.325321      -280.9663
  24   2.0000     -10.319263      -280.8014
  25   2.0000     -10.317760      -280.7605
  26   2.0000     -10.317194      -280.7451
  27   2.0000     -10.312982      -280.6305
  28   2.0000     -10.305033      -280.4142
  29   2.0000     -10.302476      -280.3446
  30   2.0000     -10.301753      -280.3249
  31   2.0000     -10.300569      -280.2927
  32   2.0000     -10.297285      -280.2034
  33   2.0000     -10.295678      -280.1596
  34   2.0000     -10.294962      -280.1401
  35   2.0000     -10.292293      -280.0675
  36   2.0000     -10.291531      -280.0468
  37   2.0000     -10.291323      -280.0411
  38   2.0000     -10.290740      -280.0253
  39   2.0000     -10.289478      -279.9909
  40   2.0000     -10.289388      -279.9885
  41   2.0000     -10.287778      -279.9447
  42   2.0000     -10.284795      -279.8635
  43   2.0000     -10.283515      -279.8287
  44   2.0000     -10.282294      -279.7954
  45   2.0000     -10.282118      -279.7907
  46   2.0000     -10.279209      -279.7115
  47   2.0000     -10.276551      -279.6392
  48   2.0000     -10.276091      -279.6266
  49   2.0000     -10.274737      -279.5898
  50   2.0000     -10.273244      -279.5492
  51   2.0000     -10.273230      -279.5488
  52   2.0000     -10.272873      -279.5391
  53   2.0000     -10.272796      -279.5370
  54   2.0000     -10.271920      -279.5132
  55   2.0000     -10.267410      -279.3904
  56   2.0000     -10.266650      -279.3698
  57   2.0000     -10.264091      -279.3001
  58   2.0000     -10.263837      -279.2932
  59   2.0000     -10.263833      -279.2931
  60   2.0000     -10.263088      -279.2728
  61   2.0000     -10.263026      -279.2711
  62   2.0000     -10.262650      -279.2609
  63   2.0000     -10.262031      -279.2441
  64   2.0000     -10.261017      -279.2165
  65   2.0000     -10.259820      -279.1839
  66   2.0000     -10.257482      -279.1203
  67   2.0000     -10.256904      -279.1045
  68   2.0000     -10.256349      -279.0894
  69   2.0000     -10.255965      -279.0790
  70   2.0000     -10.254494      -279.0390
  71   2.0000     -10.250764      -278.9375
  72   2.0000     -10.242485      -278.7122
  73   2.0000      -8.072839      -219.6731
  74   2.0000      -8.061703      -219.3701
  75   2.0000      -8.061006      -219.3511
  76   2.0000      -8.060732      -219.3437
  77   2.0000      -8.026414      -218.4098
  78   2.0000      -8.024030      -218.3450
  79   2.0000      -6.042091      -164.4137
  80   2.0000      -6.038156      -164.3066
  81   2.0000      -6.034723      -164.2132
  82   2.0000      -6.031211      -164.1176
  83   2.0000      -6.030909      -164.1094
  84   2.0000      -6.030603      -164.1010
  85   2.0000      -6.026908      -164.0005
  86   2.0000      -6.026528      -163.9902
  87   2.0000      -6.026068      -163.9776
  88   2.0000      -6.023401      -163.9051
  89   2.0000      -6.021679      -163.8582
  90   2.0000      -6.021492      -163.8531
  91   2.0000      -5.996255      -163.1664
  92   2.0000      -5.993864      -163.1013
  93   2.0000      -5.992218      -163.0565
  94   2.0000      -5.989929      -162.9943
  95   2.0000      -5.987185      -162.9196
  96   2.0000      -5.984692      -162.8517
  97   2.0000      -1.174148       -31.9502
  98   2.0000      -1.142445       -31.0875
  99   2.0000      -1.130225       -30.7550
 100   2.0000      -1.129576       -30.7373
 101   2.0000      -1.022574       -27.8257
 102   2.0000      -1.018781       -27.7224
 103   2.0000      -1.007230       -27.4081
 104   2.0000      -0.993200       -27.0264
 105   2.0000      -0.984690       -26.7948
 106   2.0000      -0.980395       -26.6779
 107   2.0000      -0.976993       -26.5853
 108   2.0000      -0.969531       -26.3823
 109   2.0000      -0.958456       -26.0809
 110   2.0000      -0.950125       -25.8542
 111   2.0000      -0.936901       -25.4944
 112   2.0000      -0.934245       -25.4221
 113   2.0000      -0.922824       -25.1113
 114   2.0000      -0.910474       -24.7753
 115   2.0000      -0.897712       -24.4280
 116   2.0000      -0.892907       -24.2972
 117   2.0000      -0.889513       -24.2049
 118   2.0000      -0.884981       -24.0816
 119   2.0000      -0.880033       -23.9469
 120   2.0000      -0.869998       -23.6739
 121   2.0000      -0.864938       -23.5361
 122   2.0000      -0.858491       -23.3607
 123   2.0000      -0.854454       -23.2509
 124   2.0000      -0.850326       -23.1385
 125   2.0000      -0.842125       -22.9154
 126   2.0000      -0.835040       -22.7226
 127   2.0000      -0.832119       -22.6431
 128   2.0000      -0.829387       -22.5688
 129   2.0000      -0.821992       -22.3675
 130   2.0000      -0.815792       -22.1988
 131   2.0000      -0.807935       -21.9850
 132   2.0000      -0.802776       -21.8446
 133   2.0000      -0.788651       -21.4603
 134   2.0000      -0.783348       -21.3160
 135   2.0000      -0.781341       -21.2614
 136   2.0000      -0.765829       -20.8393
 137   2.0000      -0.757562       -20.6143
 138   2.0000      -0.755442       -20.5566
 139   2.0000      -0.746965       -20.3260
 140   2.0000      -0.742629       -20.2080
 141   2.0000      -0.734272       -19.9806
 142   2.0000      -0.723656       -19.6917
 143   2.0000      -0.718878       -19.5617
 144   2.0000      -0.712858       -19.3979
 145   2.0000      -0.706835       -19.2340
 146   2.0000      -0.690277       -18.7834
 147   2.0000      -0.689575       -18.7643
 148   2.0000      -0.685177       -18.6446
 149   2.0000      -0.683331       -18.5944
 150   2.0000      -0.669190       -18.2096
 151   2.0000      -0.665553       -18.1106
 152   2.0000      -0.661969       -18.0131
 153   2.0000      -0.660438       -17.9714
 154   2.0000      -0.658256       -17.9121
 155   2.0000      -0.654250       -17.8031
 156   2.0000      -0.639595       -17.4043
 157   2.0000      -0.632656       -17.2154
 158   2.0000      -0.631621       -17.1873
 159   2.0000      -0.628202       -17.0942
 160   2.0000      -0.621556       -16.9134
 161   2.0000      -0.619138       -16.8476
 162   2.0000      -0.615470       -16.7478
 163   2.0000      -0.614996       -16.7349
 164   2.0000      -0.609179       -16.5766
 165   2.0000      -0.606851       -16.5133
 166   2.0000      -0.604500       -16.4493
 167   2.0000      -0.593990       -16.1633
 168   2.0000      -0.593130       -16.1399
 169   2.0000      -0.583489       -15.8775
 170   2.0000      -0.581493       -15.8232
 171   2.0000      -0.579199       -15.7608
 172   2.0000      -0.573064       -15.5939
 173   2.0000      -0.570394       -15.5212
 174   2.0000      -0.567205       -15.4344
 175   2.0000      -0.565892       -15.3987
 176   2.0000      -0.559011       -15.2115
 177   2.0000      -0.555182       -15.1073
 178   2.0000      -0.550717       -14.9858
 179   2.0000      -0.546406       -14.8685
 180   2.0000      -0.543995       -14.8028
 181   2.0000      -0.543400       -14.7867
 182   2.0000      -0.540930       -14.7195
 183   2.0000      -0.539245       -14.6736
 184   2.0000      -0.535730       -14.5780
 185   2.0000      -0.532496       -14.4900
 186   2.0000      -0.530797       -14.4437
 187   2.0000      -0.530576       -14.4377
 188   2.0000      -0.526738       -14.3333
 189   2.0000      -0.525807       -14.3079
 190   2.0000      -0.518132       -14.0991
 191   2.0000      -0.516441       -14.0531
 192   2.0000      -0.516168       -14.0457
 193   2.0000      -0.513802       -13.9813
 194   2.0000      -0.511352       -13.9146
 195   2.0000      -0.506256       -13.7759
 196   2.0000      -0.502867       -13.6837
 197   2.0000      -0.499181       -13.5834
 198   2.0000      -0.498729       -13.5711
 199   2.0000      -0.493460       -13.4277
 200   2.0000      -0.491459       -13.3733
 201   2.0000      -0.489113       -13.3094
 202   2.0000      -0.487521       -13.2661
 203   2.0000      -0.486495       -13.2382
 204   2.0000      -0.485420       -13.2090
 205   2.0000      -0.482574       -13.1315
 206   2.0000      -0.481146       -13.0926
 207   2.0000      -0.480380       -13.0718
 208   2.0000      -0.479095       -13.0368
 209   2.0000      -0.478298       -13.0151
 210   2.0000      -0.473069       -12.8729
 211   2.0000      -0.469947       -12.7879
 212   2.0000      -0.468520       -12.7491
 213   2.0000      -0.464353       -12.6357
 214   2.0000      -0.463084       -12.6012
 215   2.0000      -0.461092       -12.5469
 216   2.0000      -0.458049       -12.4642
 217   2.0000      -0.457496       -12.4491
 218   2.0000      -0.454066       -12.3558
 219   2.0000      -0.452357       -12.3093
 220   2.0000      -0.449129       -12.2214
 221   2.0000      -0.447764       -12.1843
 222   2.0000      -0.446683       -12.1549
 223   2.0000      -0.444340       -12.0911
 224   2.0000      -0.443354       -12.0643
 225   2.0000      -0.442806       -12.0494
 226   2.0000      -0.440873       -11.9968
 227   2.0000      -0.439809       -11.9678
 228   2.0000      -0.438208       -11.9242
 229   2.0000      -0.436318       -11.8728
 230   2.0000      -0.435113       -11.8400
 231   2.0000      -0.431573       -11.7437
 232   2.0000      -0.430109       -11.7039
 233   2.0000      -0.429375       -11.6839
 234   2.0000      -0.426670       -11.6103
 235   2.0000      -0.422971       -11.5096
 236   2.0000      -0.422629       -11.5003
 237   2.0000      -0.421151       -11.4601
 238   2.0000      -0.419193       -11.4068
 239   2.0000      -0.416127       -11.3234
 240   2.0000      -0.413371       -11.2484
 241   2.0000      -0.412210       -11.2168
 242   2.0000      -0.409360       -11.1392
 243   2.0000      -0.405264       -11.0278
 244   2.0000      -0.404218       -10.9993
 245   2.0000      -0.399406       -10.8684
 246   2.0000      -0.395574       -10.7641
 247   2.0000      -0.393702       -10.7132
 248   2.0000      -0.391205       -10.6452
 249   2.0000      -0.389451       -10.5975
 250   2.0000      -0.387886       -10.5549
 251   2.0000      -0.386476       -10.5165
 252   2.0000      -0.379838       -10.3359
 253   2.0000      -0.373285       -10.1576
 254   2.0000      -0.368518       -10.0279
 255   2.0000      -0.363527        -9.8921
 256   2.0000      -0.360407        -9.8072
 257   2.0000      -0.357692        -9.7333
 258   2.0000      -0.355500        -9.6737
 259   2.0000      -0.339083        -9.2269
 260   2.0000      -0.333001        -9.0614
 261   2.0000      -0.330259        -8.9868
 262   2.0000      -0.330115        -8.9829
 263   2.0000      -0.324723        -8.8362
 264   2.0000      -0.317092        -8.6285
 265   2.0000      -0.312844        -8.5129
 266   2.0000      -0.311939        -8.4883
 267   2.0000      -0.298310        -8.1174
 268   2.0000      -0.296982        -8.0813
 269   2.0000      -0.291232        -7.9248
 270   2.0000      -0.288706        -7.8561
 271   2.0000      -0.265063        -7.2127
 272   2.0000      -0.259971        -7.0742
 273   2.0000      -0.246084        -6.6963
 274   2.0000      -0.198283        -5.3955
 275   0.0000      -0.093974        -2.5572
 276   0.0000      -0.086539        -2.3549
 277   0.0000      -0.061262        -1.6670
 278   0.0000      -0.049160        -1.3377
 279   0.0000      -0.047422        -1.2904

MULLIKEN ATOMIC CHARGES
-----------------------
   0 C :    0.290657
   1 C :   -0.335654
   2 C :   -0.184558
   3 N :    0.151348
   4 C :   -0.206525
   5 N :    0.160762
   6 C :    0.019953
   7 C :   -0.018794
   8 C :   -0.062498
   9 C :    0.114360
  10 C :   -0.097708
  11 C :   -0.021975
  12 S :    0.140680
  13 C :   -0.049214
  14 C :    0.026052
  15 C :    0.148879
  16 O :   -0.156773
  17 C :   -0.091446
  18 C :    0.006442
  19 C :   -0.142862
  20 S :    0.163649
  21 C :   -0.111589
  22 C :   -0.020796
  23 C :    0.000217
  24 S :    0.123615
  25 C :    0.091576
  26 O :   -0.146095
  27 C :    0.089910
  28 O :   -0.116093
  29 S :    0.037681
  30 C :    0.043854
  31 C :    0.038953
  32 C :   -0.034485
  33 C :   -0.112248
  34 C :    0.199122
  35 C :    0.019604
  36 C :   -0.054438
  37 O :   -0.348210
  38 C :    0.209690
  39 C :   -0.066777
  40 C :    0.009416
  41 C :   -0.041550
  42 C :    0.020368
  43 C :    0.051175
  44 C :    0.045685
  45 C :    0.027919
  46 C :    0.099423
  47 C :   -0.139051
  48 C :   -0.009350
  49 C :    0.047873
  50 C :    0.021820
  51 C :   -0.053706
  52 S :    0.053814
  53 C :   -0.033718
  54 C :    0.024915
  55 C :    0.035135
  56 C :   -0.021144
  57 S :    0.039723
  58 C :   -0.017767
  59 C :    0.061499
  60 C :   -0.043506
  61 C :    0.072826
  62 C :   -0.005782
  63 C :    0.047250
  64 C :   -0.023101
  65 C :    0.060628
  66 C :   -0.029516
  67 C :    0.060596
  68 C :   -0.000498
  69 C :    0.037911
  70 C :   -0.026030
  71 C :    0.012177
  72 C :   -0.026730
  73 H :   -0.010903
  74 H :   -0.007378
  75 H :    0.039346
  76 H :   -0.005451
  77 H :    0.032047
  78 H :   -0.024878
  79 H :    0.046105
  80 H :    0.035521
  81 H :   -0.007843
  82 H :    0.013424
  83 H :   -0.003968
  84 H :    0.004831
  85 H :    0.015962
  86 H :   -0.000948
  87 H :    0.035474
  88 H :   -0.017181
  89 H :   -0.014335
  90 H :    0.013555
  91 H :    0.011768
  92 H :    0.011813
  93 H :    0.013942
  94 H :   -0.014227
  95 H :    0.001109
  96 H :    0.020469
  97 H :    0.002307
  98 H :    0.000489
  99 H :    0.014417
 100 H :   -0.010896
 101 H :   -0.020455
 102 H :   -0.017439
 103 H :   -0.020059
 104 H :   -0.017988
 105 H :   -0.028677
 106 H :   -0.033386
 107 H :   -0.028653
 108 H :   -0.026986
 109 H :   -0.029810
 110 H :   -0.024750
 111 H :   -0.007608
 112 H :   -0.020431
 113 H :    0.006240
 114 H :    0.018455
Sum of atomic charges:   -0.0000000

LOEWDIN ATOMIC CHARGES
----------------------
   0 C :    0.075964
   1 C :   -0.138696
   2 C :   -0.018231
   3 N :   -0.051570
   4 C :   -0.024875
   5 N :   -0.050895
   6 C :   -0.023768
   7 C :   -0.050603
   8 C :    0.024075
   9 C :   -0.033871
  10 C :   -0.146252
  11 C :   -0.007621
  12 S :    0.429746
  13 C :   -0.148729
  14 C :   -0.057014
  15 C :    0.072572
  16 O :   -0.155774
  17 C :   -0.093572
  18 C :    0.037767
  19 C :   -0.204858
  20 S :    0.468225
  21 C :   -0.149796
  22 C :   -0.221442
  23 C :   -0.177680
  24 S :    0.432119
  25 C :   -0.111035
  26 O :   -0.112675
  27 C :   -0.097859
  28 O :   -0.088557
  29 S :    0.375168
  30 C :   -0.077945
  31 C :    0.025251
  32 C :   -0.024794
  33 C :   -0.010383
  34 C :   -0.029450
  35 C :    0.047341
  36 C :   -0.089376
  37 O :   -0.128329
  38 C :    0.090734
  39 C :   -0.046744
  40 C :   -0.019676
  41 C :   -0.027265
  42 C :   -0.030017
  43 C :   -0.045176
  44 C :   -0.033694
  45 C :   -0.024936
  46 C :   -0.036738
  47 C :   -0.061200
  48 C :   -0.146810
  49 C :   -0.036719
  50 C :   -0.032306
  51 C :   -0.185007
  52 S :    0.344593
  53 C :   -0.179575
  54 C :   -0.041594
  55 C :   -0.031109
  56 C :   -0.154167
  57 S :    0.363589
  58 C :   -0.050248
  59 C :   -0.060368
  60 C :    0.004989
  61 C :   -0.056199
  62 C :    0.065937
  63 C :   -0.061192
  64 C :    0.042019
  65 C :   -0.059226
  66 C :    0.010579
  67 C :   -0.057613
  68 C :    0.068285
  69 C :   -0.060891
  70 C :    0.030357
  71 C :   -0.020024
  72 C :   -0.057892
  73 H :    0.041016
  74 H :    0.040580
  75 H :    0.029656
  76 H :    0.035820
  77 H :    0.046091
  78 H :    0.023578
  79 H :    0.010865
  80 H :    0.042547
  81 H :    0.013539
  82 H :    0.030145
  83 H :    0.035186
  84 H :    0.018848
  85 H :    0.022453
  86 H :    0.011033
  87 H :    0.043722
  88 H :    0.022313
  89 H :    0.021029
  90 H :    0.031693
  91 H :    0.023129
  92 H :    0.023054
  93 H :    0.023902
  94 H :    0.021498
  95 H :    0.023928
  96 H :    0.026091
  97 H :    0.022066
  98 H :    0.027864
  99 H :    0.022886
 100 H :    0.022988
 101 H :    0.030135
 102 H :    0.030122
 103 H :    0.029290
 104 H :    0.031226
 105 H :    0.033374
 106 H :    0.021722
 107 H :    0.033182
 108 H :    0.023713
 109 H :    0.023383
 110 H :    0.035020
 111 H :    0.014489
 112 H :    0.029018
 113 H :    0.017066
 114 H :    0.023462

  Mayer bond orders larger than 0.100000
B(  0-C ,  1-C ) :   1.6432 B(  0-C ,  6-C ) :   1.0126 B(  0-C , 17-C ) :   1.0599
B(  1-C ,  2-C ) :   1.1403 B(  1-C ,  4-C ) :   1.1411 B(  2-C ,  3-N ) :   2.9736
B(  4-C ,  5-N ) :   2.9957 B(  6-C ,  7-C ) :   1.2597 B(  6-C , 11-C ) :   1.4114
B(  7-C ,  8-C ) :   1.4313 B(  7-C , 15-C ) :   0.9469 B(  8-C ,  9-C ) :   1.2434
B(  8-C , 73-H ) :   1.0160 B(  9-C , 10-C ) :   1.3002 B(  9-C , 14-C ) :   1.1738
B( 10-C , 11-C ) :   1.3241 B( 10-C , 12-S ) :   1.0988 B( 11-C , 74-H ) :   0.9831
B( 12-S , 13-C ) :   1.1265 B( 13-C , 14-C ) :   1.6269 B( 13-C , 75-H ) :   0.9691
B( 14-C , 76-H ) :   0.9993 B( 15-C , 16-O ) :   2.1955 B( 15-C , 17-C ) :   0.9564
B( 17-C , 18-C ) :   1.6092 B( 18-C , 19-C ) :   1.1698 B( 18-C , 77-H ) :   0.9338
B( 19-C , 20-S ) :   1.0998 B( 19-C , 21-C ) :   0.1004 B( 19-C , 23-C ) :   1.5158
B( 20-S , 21-C ) :   1.1562 B( 21-C , 22-C ) :   1.5343 B( 21-C , 30-C ) :   1.1091
B( 22-C , 23-C ) :   1.2900 B( 22-C , 29-S ) :   0.9697 B( 23-C , 24-S ) :   1.0064
B( 24-S , 25-C ) :   1.0605 B( 24-S , 26-O ) :   0.1371 B( 25-C , 26-O ) :   2.1362
B( 25-C , 27-C ) :   0.7752 B( 27-C , 28-O ) :   2.1873 B( 27-C , 29-S ) :   1.0271
B( 28-O , 29-S ) :   0.1234 B( 30-C , 31-C ) :   1.7842 B( 30-C , 78-H ) :   0.9525
B( 31-C , 32-C ) :   1.0031 B( 31-C , 79-H ) :   0.9279 B( 32-C , 33-C ) :   1.0791
B( 32-C , 39-C ) :   0.9526 B( 32-C , 80-H ) :   0.8894 B( 33-C , 34-C ) :   1.0006
B( 33-C , 42-C ) :   0.9623 B( 33-C , 81-H ) :   0.9250 B( 34-C , 35-C ) :   1.0277
B( 34-C , 82-H ) :   0.8957 B( 34-C , 83-H ) :   0.9068 B( 35-C , 36-C ) :   1.9327
B( 35-C , 37-O ) :   1.0734 B( 36-C , 84-H ) :   0.9469 B( 36-C , 85-H ) :   0.9418
B( 37-O , 38-C ) :   0.9303 B( 38-C , 39-C ) :   1.0334 B( 38-C , 44-C ) :   1.0763
B( 38-C , 86-H ) :   0.8985 B( 39-C , 40-C ) :   0.9617 B( 39-C , 87-H ) :   0.9019
B( 40-C , 41-C ) :   1.8714 B( 40-C , 88-H ) :   0.9969 B( 41-C , 42-C ) :   1.0199
B( 41-C , 89-H ) :   0.9779 B( 42-C , 43-C ) :   1.0784 B( 42-C , 90-H ) :   0.9011
B( 43-C , 91-H ) :   0.9677 B( 43-C , 92-H ) :   0.9626 B( 43-C , 93-H ) :   0.9636
B( 44-C , 45-C ) :   1.0931 B( 44-C , 94-H ) :   0.9238 B( 44-C , 95-H ) :   0.9212
B( 45-C , 46-C ) :   1.0768 B( 45-C , 96-H ) :   0.9379 B( 45-C , 97-H ) :   0.9353
B( 46-C , 47-C ) :   1.0347 B( 46-C , 98-H ) :   0.9216 B( 46-C , 99-H ) :   0.9329
B( 47-C , 48-C ) :   1.7800 B( 47-C ,100-H ) :   0.9623 B( 48-C , 49-C ) :   1.0888
B( 48-C , 52-S ) :   1.0064 B( 49-C , 50-C ) :   1.6454 B( 49-C ,101-H ) :   0.9974
B( 50-C , 51-C ) :   1.1580 B( 50-C ,102-H ) :   0.9926 B( 51-C , 52-S ) :   1.0296
B( 51-C , 53-C ) :   1.5525 B( 53-C , 54-C ) :   1.1691 B( 53-C , 57-S ) :   1.0331
B( 54-C , 55-C ) :   1.6091 B( 54-C ,103-H ) :   0.9925 B( 55-C , 56-C ) :   1.1305
B( 55-C ,104-H ) :   0.9982 B( 56-C , 57-S ) :   1.0160 B( 56-C , 58-C ) :   1.5951
B( 58-C , 59-C ) :   1.1263 B( 58-C ,105-H ) :   0.9670 B( 59-C , 60-C ) :   1.4530
B( 59-C , 70-C ) :   1.1257 B( 60-C , 61-C ) :   1.1034 B( 60-C ,106-H ) :   1.0186
B( 61-C , 62-C ) :   1.4452 B( 61-C , 69-C ) :   1.1267 B( 62-C , 63-C ) :   1.1301
B( 62-C ,107-H ) :   1.0042 B( 63-C , 64-C ) :   1.4469 B( 63-C , 67-C ) :   1.1261
B( 64-C , 65-C ) :   1.1402 B( 64-C ,108-H ) :   1.0067 B( 65-C , 66-C ) :   1.5135
B( 65-C , 71-C ) :   1.0851 B( 66-C , 67-C ) :   1.0822 B( 66-C ,109-H ) :   1.0160
B( 67-C , 68-C ) :   1.4714 B( 68-C , 69-C ) :   1.1211 B( 68-C ,110-H ) :   1.0042
B( 69-C , 70-C ) :   1.4708 B( 70-C ,111-H ) :   0.9903 B( 71-C , 72-C ) :   1.9330
B( 71-C ,112-H ) :   0.9659 B( 72-C ,113-H ) :   0.9520 B( 72-C ,114-H ) :   0.9495

-----------------------------------------------------------------------------
         ABSORPTION SPECTRUM VIA TRANSITION ELECTRIC DIPOLE MOMENTS
-----------------------------------------------------------------------------
State   Energy  Wavelength   fosc         T2         TX        TY        TZ
        (cm-1)    (nm)                  (au**2)     (au)      (au)      (au)
-----------------------------------------------------------------------------
   0    6899.9   1449.3   0.012624279   0.60233   0.17646   0.70262  -0.27843
   1   15152.8    659.9   0.000053965   0.00117   0.02114   0.02689   0.00153
   2   16391.1    610.1   0.033701834   0.67690   0.26905   0.77497   0.06267
   3   18753.0    533.2   1.486539782  26.09640   1.44324   4.55305  -1.81195
   4   20789.5    481.0   0.912979971  14.45749   2.41740  -2.41861   1.66253
   5   21650.2    461.9   0.000081303   0.00124  -0.00582   0.02823  -0.02014
   6   22638.1    441.7   0.239144543   3.47774  -0.04774   0.98046  -1.58561
   7   23399.7    427.4   0.000013090   0.00018   0.00624  -0.00300   0.01167
   8   25623.0    390.3   0.078765111   1.01200   0.59301   0.79643   0.16135
   9   25887.0    386.3   0.000095404   0.00121   0.00298  -0.02226   0.02663
  10   26444.2    378.2   0.030062742   0.37426  -0.10738   0.42037   0.43130
  11   27328.4    365.9   0.110065760   1.32591   0.64933  -0.67921  -0.66554
  12   27574.7    362.7   0.090929203   1.08559  -0.87195   0.45964   0.33767
  13   27868.4    358.8   0.033358803   0.39407   0.19136   0.52716   0.28206
  14   28521.9    350.6   0.013230865   0.15272  -0.20063  -0.30170   0.14642
  15   28581.8    349.9   0.139323185   1.60475  -0.41557  -0.76211  -0.92263
  16   29078.5    343.9   0.245207982   2.77612  -1.15054   1.14005  -0.39073
  17   29141.2    343.2   0.000004433   0.00005  -0.00031  -0.00533  -0.00465
  18   29530.7    338.6   0.084188700   0.93855   0.04132  -0.63477  -0.73069
  19   29774.7    335.9   0.021225282   0.23468   0.10096   0.36411   0.30317
  20   29962.0    333.8   0.059384630   0.65250  -0.19010  -0.21395  -0.75537
  21   29985.6    333.5   0.001186697   0.01303   0.02722   0.06300   0.09121
  22   31235.7    320.1   0.000151112   0.00159  -0.00678   0.00095  -0.03932
  23   31742.8    315.0   0.846289461   8.77706  -0.39251   0.51480  -2.89102
  24   31937.7    313.1   0.047999798   0.49478   0.40631   0.06841   0.57010
  25   32605.1    306.7   0.000042019   0.00042   0.00327   0.00053   0.02033
  26   33030.5    302.8   0.115984697   1.15601   0.02120   0.59539  -0.89503
  27   33082.6    302.3   0.432450730   4.30340  -0.76234   1.28880   1.43570
  28   33758.7    296.2   0.188370211   1.83697  -0.26809  -1.03042  -0.83864
  29   34113.4    293.1   0.037358431   0.36053  -0.06241   0.16034  -0.57526
  30   34212.2    292.3   0.001313447   0.01264  -0.04934   0.08392   0.05623
  31   34218.7    292.2   0.039422120   0.37927   0.24441  -0.46612  -0.31980
  32   34540.3    289.5   0.242473574   2.31108  -0.04736   0.62212  -1.38629
  33   35032.5    285.4   0.036174287   0.33994   0.38417   0.22610   0.37582
  34   35083.1    285.0   0.001616544   0.01517   0.09825   0.03102   0.06748
  35   35316.1    283.2   0.078770399   0.73429  -0.59439   0.60082  -0.14142
  36   35760.2    279.6   0.000073098   0.00067   0.01422  -0.01215   0.01797
  37   35855.5    278.9   0.000000063   0.00000   0.00022   0.00011   0.00072
  38   36027.1    277.6   0.001399751   0.01279   0.02502   0.06095   0.09192
  39   36599.4    273.2   0.056509171   0.50830   0.36105  -0.40529   0.46226
  40   36888.8    271.1   0.025820276   0.23043  -0.09044   0.47080   0.02456
  41   37018.1    270.1   0.001050055   0.00934  -0.03321  -0.08886  -0.01841
  42   37086.7    269.6   0.000050714   0.00045   0.00003   0.01212  -0.01742
  43   37216.6    268.7   0.171806185   1.51977  -0.57954   0.23719  -1.06190
  44   37453.6    267.0   0.000008311   0.00007  -0.00404   0.00265  -0.00705
  45   37873.3    264.0   0.000392420   0.00341   0.02910  -0.01395   0.04868
  46   37909.3    263.8   0.000341238   0.00296  -0.02560   0.00865  -0.04726
  47   38177.1    261.9   0.012332296   0.10634  -0.03248  -0.15354  -0.28586
  48   38486.9    259.8   0.010054587   0.08601  -0.01719   0.24787   0.15579
  49   38645.8    258.8   0.001397219   0.01190  -0.01831  -0.01674  -0.10624
  50   38898.0    257.1   0.248611659   2.10412   0.84775  -1.04715   0.53750
  51   39083.2    255.9   0.049026901   0.41297   0.17161   0.20420   0.58466
  52   39159.3    255.4   0.000286077   0.00241   0.01205   0.01345   0.04559
  53   39813.2    251.2   0.069184675   0.57208  -0.07308  -0.54991   0.51414
  54   40027.1    249.8   0.000218894   0.00180   0.02378  -0.03262  -0.01306
  55   40177.1    248.9   0.082382675   0.67504  -0.31432   0.74392  -0.15109

FINAL SINGLE POINT ENERGY     -5144.783094735503

DIPOLE MOMENT
-------------
                                X             Y             Z
Electronic contribution:     70.73336     -58.50372      21.90519
Nuclear contribution   :    -70.27224      60.10851     -24.51121
                        -----------------------------------------
Total Dipole Moment    :      0.46112       1.60479      -2.60602
                        -----------------------------------------
Magnitude (a.u.)       :      3.09505
Magnitude (Debye)      :      7.86698

Rotational constants in cm-1:     0.000659     0.000357     0.000262
Rotational constants in MHz :    19.754222    10.709585     7.845247

                             ****ORCA TERMINATED NORMALLY****
TOTAL RUN TIME: 0 days 0 hours 13 minutes 13 seconds 350 msec
