                         Program Version 4.2.0 -  RELEASE  -
|  1> # ORCA input file
|  2> # SCF done       -195.120450290871          0.000513085418
|  3> ! CAM-B3LYP def2-SVP def2/J RIJCOSX Grid4 TightSCF
|  4> %maxcore 5000
|  5> %tddft
|  6>     Mode sTDDFT
|  7>     Ethresh 5.0
|  8>     maxcore 5000
|  9> end
| 10>
| 11> %pal
| 12>   nprocs 6
| 13>   end
| 14> * xyz 0 1
| 15>    C       -8.04192         0.69625        -5.60769
| 16>    C       -9.30544         0.61778        -6.12405
| 17>    C       -9.68706        -0.27446        -7.14895
| 18>    N      -10.05449        -0.97459        -7.98095
| 19>    C      -10.40741         1.38603        -5.68947
| 20>    N      -11.35496         1.95887        -5.38712
| 21>    C       -6.90829        -0.13367        -5.97943
| 22>    C       -5.81981         0.15315        -5.11461
| 23>    C       -4.60485        -0.48247        -5.21900
| 24>    C       -4.45270        -1.44228        -6.22296
| 25>    C       -5.54280        -1.71896        -7.08467
| 26>    C       -6.77144        -1.08033        -6.97941
| 27>    S       -5.12685        -2.93178        -8.25391
| 28>    C       -3.53327        -3.05699        -7.59317
| 29>    C       -3.31381        -2.23242        -6.54582
| 30>    C       -6.21156         1.19923        -4.16026
| 31>    O       -5.52746         1.67342        -3.27731
| 32>    C       -7.60168         1.58503        -4.53462
| 33>    C       -8.25709         2.63785        -4.01802
| 34>    C       -7.72042         3.43828        -2.88572
| 35>    C       -8.33320         4.79181        -2.74210
| 36>    N       -8.88596         5.47531        -3.71661
| 37>    S       -9.43242         6.88970        -3.12829
| 38>    N       -8.96341         6.64770        -1.58846
| 39>    C       -8.37944         5.47686        -1.49752
| 40>    C       -7.77201         4.90695        -0.25343
| 41>    C       -7.94743         3.42879        -0.33711
| 42>    C       -7.92903         2.72932        -1.57579
| 43>    N       -8.11359         1.43921        -1.43641
| 44>    S       -8.29174         1.10165         0.14558
| 45>    N       -8.14250         2.62979         0.68377
| 46>    C       -6.30688         5.32291        -0.25888
| 47>    C       -5.29007         4.41398        -0.53351
| 48>    C       -3.98864         4.86261        -0.57806
| 49>    C       -3.68724         6.21528        -0.36174
| 50>    C       -4.70141         7.12148        -0.09104
| 51>    C       -6.00611         6.66440        -0.04312
| 52>    C       -2.25236         6.38712        -0.47149
| 53>    C       -1.67198         5.13444        -0.73980
| 54>    C       -2.73670         4.06857        -0.85763
| 55>    C       -2.53835         2.94308         0.17282
| 56>    C       -2.50883         3.45586         1.60751
| 57>    C       -2.77098         3.46626        -2.27605
| 58>    C       -2.95536         4.51868        -3.36299
| 59>    C       -0.31273         5.00159        -0.86520
| 60>    C        0.51122         6.13393        -0.74095
| 61>    C       -0.08957         7.38234        -0.51170
| 62>    C       -1.45455         7.51708        -0.36473
| 63>    C        1.94275         6.05705        -0.84116
| 64>    C        2.68650         4.92361        -0.76071
| 65>    C        4.09060         4.89421        -0.85391
| 66>    C        4.84596         3.76341        -0.67811
| 67>    C        6.25481         3.64551        -0.76239
| 68>    C        6.73136         2.39467        -0.50952
| 69>    C        5.72902         1.44919        -0.20187
| 70>    S        4.14865         2.20058        -0.26898
| 71>    C        5.88625         0.12053         0.14210
| 72>    C        7.08400        -0.62090         0.23977
| 73>    C        6.90325        -1.90973         0.63863
| 74>    C        5.55414        -2.27225         0.88749
| 75>    S        4.51955        -0.88669         0.56386
| 76>    C        5.14021        -3.50023         1.33355
| 77>    C        3.83840        -3.95025         1.64164
| 78>    C        3.54474        -5.21400         2.15883
| 79>    C        2.14573        -5.31172         2.36816
| 80>    C        1.35773        -6.32098         2.87081
| 81>    C       -0.02670        -6.08869         2.95965
| 82>    C       -1.06460        -6.88220         3.41987
| 83>    C       -2.29699        -6.16169         3.29145
| 84>    C       -2.01388        -4.92295         2.75066
| 85>    C       -0.60349        -4.82730         2.52701
| 86>    C        0.17528        -3.82046         2.02767
| 87>    C        1.56753        -4.04754         1.94545
| 88>    C        2.59535        -3.23655         1.51125
| 89>    C       -3.61267        -6.62719         3.65748
| 90>    C       -3.89504        -7.81084         4.19503
| 91>    H       -3.79636        -0.24304        -4.54562
| 92>    H       -7.56885        -1.32195        -7.66216
| 93>    H       -2.84782        -3.75189        -8.03810
| 94>    H       -2.38361        -2.17358        -6.01035
| 95>    H       -9.22381         2.94065        -4.39341
| 96>    H       -6.62977         3.54940        -3.00663
| 97>    H       -8.26177         5.30641         0.63817
| 98>    H       -5.50710         3.36981        -0.70219
| 99>    H       -4.48249         8.16490         0.07850
|100>    H       -6.81382         7.35410         0.15434
|101>    H       -1.60056         2.42856        -0.04761
|102>    H       -3.34975         2.22103         0.05993
|103>    H       -1.69948         4.17024         1.74257
|104>    H       -2.35753         2.62951         2.29833
|105>    H       -3.44586         3.94792         1.85897
|106>    H       -3.58875         2.74606        -2.33324
|107>    H       -1.83524         2.93012        -2.44915
|108>    H       -3.88126         5.07022        -3.21213
|109>    H       -2.99664         4.04163        -4.33981
|110>    H       -2.13106         5.22900        -3.35970
|111>    H        0.12411         4.03766        -1.07627
|112>    H        0.54386         8.25448        -0.43014
|113>    H       -1.89232         8.48544        -0.17231
|114>    H        2.46177         7.00168        -0.95187
|115>    H        2.20304         3.97085        -0.58914
|116>    H        4.61427         5.81655        -1.06914
|117>    H        6.87092         4.49336        -1.00588
|118>    H        7.77354         2.12967        -0.52688
|119>    H        8.04124        -0.18493         0.01629
|120>    H        7.70101        -2.61973         0.77147
|121>    H        5.93006        -4.22605         1.49069
|122>    H        4.26123        -5.98584         2.37264
|123>    H        1.77895        -7.26307         3.19264
|124>    H       -0.96640        -7.87802         3.81158
|125>    H       -2.72601        -4.14844         2.53092
|126>    H       -0.24319        -2.87663         1.70716
|127>    H        2.48817        -2.23666         1.13448
|128>    H       -4.41314        -5.92277         3.46615
|129>    H       -3.13400        -8.54162         4.40873
|130>    H       -4.90388        -8.08884         4.44662
|131> *
|132>
|133>                          ****END OF INPUT****

CARTESIAN COORDINATES (ANGSTROEM)
---------------------------------
  C     -8.041920    0.696250   -5.607690
  C     -9.305440    0.617780   -6.124050
  C     -9.687060   -0.274460   -7.148950
  N    -10.054490   -0.974590   -7.980950
  C    -10.407410    1.386030   -5.689470
  N    -11.354960    1.958870   -5.387120
  C     -6.908290   -0.133670   -5.979430
  C     -5.819810    0.153150   -5.114610
  C     -4.604850   -0.482470   -5.219000
  C     -4.452700   -1.442280   -6.222960
  C     -5.542800   -1.718960   -7.084670
  C     -6.771440   -1.080330   -6.979410
  S     -5.126850   -2.931780   -8.253910
  C     -3.533270   -3.056990   -7.593170
  C     -3.313810   -2.232420   -6.545820
  C     -6.211560    1.199230   -4.160260
  O     -5.527460    1.673420   -3.277310
  C     -7.601680    1.585030   -4.534620
  C     -8.257090    2.637850   -4.018020
  C     -7.720420    3.438280   -2.885720
  C     -8.333200    4.791810   -2.742100
  N     -8.885960    5.475310   -3.716610
  S     -9.432420    6.889700   -3.128290
  N     -8.963410    6.647700   -1.588460
  C     -8.379440    5.476860   -1.497520
  C     -7.772010    4.906950   -0.253430
  C     -7.947430    3.428790   -0.337110
  C     -7.929030    2.729320   -1.575790
  N     -8.113590    1.439210   -1.436410
  S     -8.291740    1.101650    0.145580
  N     -8.142500    2.629790    0.683770
  C     -6.306880    5.322910   -0.258880
  C     -5.290070    4.413980   -0.533510
  C     -3.988640    4.862610   -0.578060
  C     -3.687240    6.215280   -0.361740
  C     -4.701410    7.121480   -0.091040
  C     -6.006110    6.664400   -0.043120
  C     -2.252360    6.387120   -0.471490
  C     -1.671980    5.134440   -0.739800
  C     -2.736700    4.068570   -0.857630
  C     -2.538350    2.943080    0.172820
  C     -2.508830    3.455860    1.607510
  C     -2.770980    3.466260   -2.276050
  C     -2.955360    4.518680   -3.362990
  C     -0.312730    5.001590   -0.865200
  C      0.511220    6.133930   -0.740950
  C     -0.089570    7.382340   -0.511700
  C     -1.454550    7.517080   -0.364730
  C      1.942750    6.057050   -0.841160
  C      2.686500    4.923610   -0.760710
  C      4.090600    4.894210   -0.853910
  C      4.845960    3.763410   -0.678110
  C      6.254810    3.645510   -0.762390
  C      6.731360    2.394670   -0.509520
  C      5.729020    1.449190   -0.201870
  S      4.148650    2.200580   -0.268980
  C      5.886250    0.120530    0.142100
  C      7.084000   -0.620900    0.239770
  C      6.903250   -1.909730    0.638630
  C      5.554140   -2.272250    0.887490
  S      4.519550   -0.886690    0.563860
  C      5.140210   -3.500230    1.333550
  C      3.838400   -3.950250    1.641640
  C      3.544740   -5.214000    2.158830
  C      2.145730   -5.311720    2.368160
  C      1.357730   -6.320980    2.870810
  C     -0.026700   -6.088690    2.959650
  C     -1.064600   -6.882200    3.419870
  C     -2.296990   -6.161690    3.291450
  C     -2.013880   -4.922950    2.750660
  C     -0.603490   -4.827300    2.527010
  C      0.175280   -3.820460    2.027670
  C      1.567530   -4.047540    1.945450
  C      2.595350   -3.236550    1.511250
  C     -3.612670   -6.627190    3.657480
  C     -3.895040   -7.810840    4.195030
  H     -3.796360   -0.243040   -4.545620
  H     -7.568850   -1.321950   -7.662160
  H     -2.847820   -3.751890   -8.038100
  H     -2.383610   -2.173580   -6.010350
  H     -9.223810    2.940650   -4.393410
  H     -6.629770    3.549400   -3.006630
  H     -8.261770    5.306410    0.638170
  H     -5.507100    3.369810   -0.702190
  H     -4.482490    8.164900    0.078500
  H     -6.813820    7.354100    0.154340
  H     -1.600560    2.428560   -0.047610
  H     -3.349750    2.221030    0.059930
  H     -1.699480    4.170240    1.742570
  H     -2.357530    2.629510    2.298330
  H     -3.445860    3.947920    1.858970
  H     -3.588750    2.746060   -2.333240
  H     -1.835240    2.930120   -2.449150
  H     -3.881260    5.070220   -3.212130
  H     -2.996640    4.041630   -4.339810
  H     -2.131060    5.229000   -3.359700
  H      0.124110    4.037660   -1.076270
  H      0.543860    8.254480   -0.430140
  H     -1.892320    8.485440   -0.172310
  H      2.461770    7.001680   -0.951870
  H      2.203040    3.970850   -0.589140
  H      4.614270    5.816550   -1.069140
  H      6.870920    4.493360   -1.005880
  H      7.773540    2.129670   -0.526880
  H      8.041240   -0.184930    0.016290
  H      7.701010   -2.619730    0.771470
  H      5.930060   -4.226050    1.490690
  H      4.261230   -5.985840    2.372640
  H      1.778950   -7.263070    3.192640
  H     -0.966400   -7.878020    3.811580
  H     -2.726010   -4.148440    2.530920
  H     -0.243190   -2.876630    1.707160
  H      2.488170   -2.236660    1.134480
  H     -4.413140   -5.922770    3.466150
  H     -3.134000   -8.541620    4.408730
  H     -4.903880   -8.088840    4.446620

 Total Charge           Charge          ....    0
 Multiplicity           Mult            ....    1
 Number of Electrons    NEL             ....  554
 Basis Dimension        Dim             .... 1284

ORBITAL ENERGIES
----------------

  NO   OCC          E(Eh)            E(eV)
   0   2.0000     -89.006997     -2422.0035
   1   2.0000     -89.005248     -2421.9559
   2   2.0000     -88.971036     -2421.0250
   3   2.0000     -88.937378     -2420.1091
   4   2.0000     -88.934675     -2420.0355
   5   2.0000     -19.228138      -523.2242
   6   2.0000     -14.438281      -392.8856
   7   2.0000     -14.437683      -392.8693
   8   2.0000     -14.436731      -392.8434
   9   2.0000     -14.434990      -392.7960
  10   2.0000     -14.419452      -392.3732
  11   2.0000     -14.417764      -392.3273
  12   2.0000     -10.376080      -282.3475
  13   2.0000     -10.348138      -281.5871
  14   2.0000     -10.345116      -281.5049
  15   2.0000     -10.330176      -281.0984
  16   2.0000     -10.326265      -280.9920
  17   2.0000     -10.326028      -280.9855
  18   2.0000     -10.325304      -280.9658
  19   2.0000     -10.325170      -280.9622
  20   2.0000     -10.321537      -280.8633
  21   2.0000     -10.319651      -280.8120
  22   2.0000     -10.319333      -280.8033
  23   2.0000     -10.318607      -280.7836
  24   2.0000     -10.311987      -280.6034
  25   2.0000     -10.311293      -280.5845
  26   2.0000     -10.308363      -280.5048
  27   2.0000     -10.307197      -280.4731
  28   2.0000     -10.304950      -280.4119
  29   2.0000     -10.303053      -280.3603
  30   2.0000     -10.302043      -280.3328
  31   2.0000     -10.301561      -280.3197
  32   2.0000     -10.300428      -280.2889
  33   2.0000     -10.297618      -280.2124
  34   2.0000     -10.297487      -280.2089
  35   2.0000     -10.297416      -280.2069
  36   2.0000     -10.296518      -280.1825
  37   2.0000     -10.296227      -280.1746
  38   2.0000     -10.293291      -280.0947
  39   2.0000     -10.282841      -279.8103
  40   2.0000     -10.281595      -279.7764
  41   2.0000     -10.280298      -279.7411
  42   2.0000     -10.279701      -279.7249
  43   2.0000     -10.278565      -279.6940
  44   2.0000     -10.277574      -279.6670
  45   2.0000     -10.276101      -279.6269
  46   2.0000     -10.274271      -279.5771
  47   2.0000     -10.270765      -279.4817
  48   2.0000     -10.270134      -279.4646
  49   2.0000     -10.269627      -279.4507
  50   2.0000     -10.269342      -279.4430
  51   2.0000     -10.268957      -279.4325
  52   2.0000     -10.268766      -279.4273
  53   2.0000     -10.267769      -279.4002
  54   2.0000     -10.267419      -279.3907
  55   2.0000     -10.266318      -279.3607
  56   2.0000     -10.266164      -279.3565
  57   2.0000     -10.266158      -279.3564
  58   2.0000     -10.265692      -279.3437
  59   2.0000     -10.264903      -279.3222
  60   2.0000     -10.264714      -279.3171
  61   2.0000     -10.264166      -279.3022
  62   2.0000     -10.263935      -279.2959
  63   2.0000     -10.263164      -279.2749
  64   2.0000     -10.262916      -279.2681
  65   2.0000     -10.262860      -279.2666
  66   2.0000     -10.262628      -279.2603
  67   2.0000     -10.262482      -279.2563
  68   2.0000     -10.261985      -279.2428
  69   2.0000     -10.260880      -279.2127
  70   2.0000     -10.260034      -279.1897
  71   2.0000     -10.256237      -279.0864
  72   2.0000     -10.256135      -279.0836
  73   2.0000     -10.250961      -278.9428
  74   2.0000     -10.239768      -278.6383
  75   2.0000     -10.239476      -278.6303
  76   2.0000      -8.099832      -220.4076
  77   2.0000      -8.097988      -220.3574
  78   2.0000      -8.067336      -219.5234
  79   2.0000      -8.033392      -218.5997
  80   2.0000      -8.030927      -218.5326
  81   2.0000      -6.071563      -165.2156
  82   2.0000      -6.069728      -165.1657
  83   2.0000      -6.063922      -165.0077
  84   2.0000      -6.062135      -164.9591
  85   2.0000      -6.060798      -164.9227
  86   2.0000      -6.058926      -164.8718
  87   2.0000      -6.036840      -164.2708
  88   2.0000      -6.032529      -164.1535
  89   2.0000      -6.029003      -164.0575
  90   2.0000      -6.003169      -163.3545
  91   2.0000      -6.000690      -163.2871
  92   2.0000      -5.999171      -163.2457
  93   2.0000      -5.996739      -163.1796
  94   2.0000      -5.994238      -163.1115
  95   2.0000      -5.991744      -163.0436
  96   2.0000      -1.141817       -31.0704
  97   2.0000      -1.121893       -30.5282
  98   2.0000      -1.116387       -30.3784
  99   2.0000      -1.024181       -27.8694
 100   2.0000      -1.012293       -27.5459
 101   2.0000      -0.996759       -27.1232
 102   2.0000      -0.990843       -26.9622
 103   2.0000      -0.987021       -26.8582
 104   2.0000      -0.985756       -26.8238
 105   2.0000      -0.983564       -26.7641
 106   2.0000      -0.981014       -26.6947
 107   2.0000      -0.971785       -26.4436
 108   2.0000      -0.965270       -26.2663
 109   2.0000      -0.963024       -26.2052
 110   2.0000      -0.956642       -26.0316
 111   2.0000      -0.937572       -25.5126
 112   2.0000      -0.932473       -25.3739
 113   2.0000      -0.913827       -24.8665
 114   2.0000      -0.903317       -24.5805
 115   2.0000      -0.898735       -24.4558
 116   2.0000      -0.892319       -24.2812
 117   2.0000      -0.886556       -24.1244
 118   2.0000      -0.882025       -24.0011
 119   2.0000      -0.872169       -23.7329
 120   2.0000      -0.862147       -23.4602
 121   2.0000      -0.861052       -23.4304
 122   2.0000      -0.859608       -23.3911
 123   2.0000      -0.849004       -23.1026
 124   2.0000      -0.840409       -22.8687
 125   2.0000      -0.835132       -22.7251
 126   2.0000      -0.829416       -22.5696
 127   2.0000      -0.828066       -22.5328
 128   2.0000      -0.827046       -22.5051
 129   2.0000      -0.826658       -22.4945
 130   2.0000      -0.819589       -22.3022
 131   2.0000      -0.813253       -22.1297
 132   2.0000      -0.804479       -21.8910
 133   2.0000      -0.795066       -21.6348
 134   2.0000      -0.788712       -21.4619
 135   2.0000      -0.774720       -21.0812
 136   2.0000      -0.771030       -20.9808
 137   2.0000      -0.761875       -20.7317
 138   2.0000      -0.754358       -20.5271
 139   2.0000      -0.753367       -20.5002
 140   2.0000      -0.741663       -20.1817
 141   2.0000      -0.732712       -19.9381
 142   2.0000      -0.721511       -19.6333
 143   2.0000      -0.715829       -19.4787
 144   2.0000      -0.701001       -19.0752
 145   2.0000      -0.695398       -18.9227
 146   2.0000      -0.692988       -18.8571
 147   2.0000      -0.686575       -18.6827
 148   2.0000      -0.684040       -18.6137
 149   2.0000      -0.675295       -18.3757
 150   2.0000      -0.671767       -18.2797
 151   2.0000      -0.669608       -18.2210
 152   2.0000      -0.666562       -18.1381
 153   2.0000      -0.666413       -18.1340
 154   2.0000      -0.665740       -18.1157
 155   2.0000      -0.664377       -18.0786
 156   2.0000      -0.658420       -17.9165
 157   2.0000      -0.643176       -17.5017
 158   2.0000      -0.639098       -17.3907
 159   2.0000      -0.634380       -17.2624
 160   2.0000      -0.632204       -17.2031
 161   2.0000      -0.629152       -17.1201
 162   2.0000      -0.625601       -17.0235
 163   2.0000      -0.621467       -16.9110
 164   2.0000      -0.618213       -16.8224
 165   2.0000      -0.613845       -16.7036
 166   2.0000      -0.606935       -16.5155
 167   2.0000      -0.604046       -16.4369
 168   2.0000      -0.599593       -16.3157
 169   2.0000      -0.597887       -16.2693
 170   2.0000      -0.588151       -16.0044
 171   2.0000      -0.586260       -15.9529
 172   2.0000      -0.577278       -15.7085
 173   2.0000      -0.575444       -15.6586
 174   2.0000      -0.572875       -15.5887
 175   2.0000      -0.571813       -15.5598
 176   2.0000      -0.563847       -15.3431
 177   2.0000      -0.556920       -15.1546
 178   2.0000      -0.551274       -15.0009
 179   2.0000      -0.549394       -14.9498
 180   2.0000      -0.544988       -14.8299
 181   2.0000      -0.541965       -14.7476
 182   2.0000      -0.537273       -14.6199
 183   2.0000      -0.536200       -14.5907
 184   2.0000      -0.534578       -14.5466
 185   2.0000      -0.531909       -14.4740
 186   2.0000      -0.529987       -14.4217
 187   2.0000      -0.528461       -14.3801
 188   2.0000      -0.526972       -14.3396
 189   2.0000      -0.521932       -14.2025
 190   2.0000      -0.519594       -14.1389
 191   2.0000      -0.518100       -14.0982
 192   2.0000      -0.514780       -14.0079
 193   2.0000      -0.511550       -13.9200
 194   2.0000      -0.510340       -13.8871
 195   2.0000      -0.507795       -13.8178
 196   2.0000      -0.505581       -13.7576
 197   2.0000      -0.504016       -13.7150
 198   2.0000      -0.499893       -13.6028
 199   2.0000      -0.498933       -13.5767
 200   2.0000      -0.496759       -13.5175
 201   2.0000      -0.495009       -13.4699
 202   2.0000      -0.493269       -13.4225
 203   2.0000      -0.493218       -13.4212
 204   2.0000      -0.489722       -13.3260
 205   2.0000      -0.487810       -13.2740
 206   2.0000      -0.487537       -13.2666
 207   2.0000      -0.484871       -13.1940
 208   2.0000      -0.479535       -13.0488
 209   2.0000      -0.476892       -12.9769
 210   2.0000      -0.475316       -12.9340
 211   2.0000      -0.473923       -12.8961
 212   2.0000      -0.470693       -12.8082
 213   2.0000      -0.467091       -12.7102
 214   2.0000      -0.464092       -12.6286
 215   2.0000      -0.462984       -12.5984
 216   2.0000      -0.461075       -12.5465
 217   2.0000      -0.460423       -12.5288
 218   2.0000      -0.457684       -12.4542
 219   2.0000      -0.456110       -12.4114
 220   2.0000      -0.452202       -12.3050
 221   2.0000      -0.451308       -12.2807
 222   2.0000      -0.450897       -12.2695
 223   2.0000      -0.447699       -12.1825
 224   2.0000      -0.447273       -12.1709
 225   2.0000      -0.445724       -12.1288
 226   2.0000      -0.444671       -12.1001
 227   2.0000      -0.440343       -11.9824
 228   2.0000      -0.439129       -11.9493
 229   2.0000      -0.436720       -11.8837
 230   2.0000      -0.435455       -11.8493
 231   2.0000      -0.434841       -11.8326
 232   2.0000      -0.429864       -11.6972
 233   2.0000      -0.429560       -11.6889
 234   2.0000      -0.425879       -11.5888
 235   2.0000      -0.421852       -11.4792
 236   2.0000      -0.418467       -11.3871
 237   2.0000      -0.417311       -11.3556
 238   2.0000      -0.416617       -11.3367
 239   2.0000      -0.412931       -11.2364
 240   2.0000      -0.412335       -11.2202
 241   2.0000      -0.411215       -11.1897
 242   2.0000      -0.407196       -11.0804
 243   2.0000      -0.405285       -11.0284
 244   2.0000      -0.403148       -10.9702
 245   2.0000      -0.401499       -10.9253
 246   2.0000      -0.398354       -10.8398
 247   2.0000      -0.392959       -10.6929
 248   2.0000      -0.388557       -10.5732
 249   2.0000      -0.387327       -10.5397
 250   2.0000      -0.386952       -10.5295
 251   2.0000      -0.384211       -10.4549
 252   2.0000      -0.381741       -10.3877
 253   2.0000      -0.380382       -10.3507
 254   2.0000      -0.377833       -10.2814
 255   2.0000      -0.374177       -10.1819
 256   2.0000      -0.367403        -9.9975
 257   2.0000      -0.366553        -9.9744
 258   2.0000      -0.364208        -9.9106
 259   2.0000      -0.364077        -9.9070
 260   2.0000      -0.349234        -9.5031
 261   2.0000      -0.346876        -9.4390
 262   2.0000      -0.337342        -9.1795
 263   2.0000      -0.331992        -9.0339
 264   2.0000      -0.331140        -9.0108
 265   2.0000      -0.325720        -8.8633
 266   2.0000      -0.319627        -8.6975
 267   2.0000      -0.318681        -8.6718
 268   2.0000      -0.316854        -8.6220
 269   2.0000      -0.313863        -8.5406
 270   2.0000      -0.307456        -8.3663
 271   2.0000      -0.298026        -8.1097
 272   2.0000      -0.292008        -7.9459
 273   2.0000      -0.266379        -7.2485
 274   2.0000      -0.265457        -7.2235
 275   2.0000      -0.242123        -6.5885
 276   2.0000      -0.195620        -5.3231
 277   0.0000      -0.093714        -2.5501
 278   0.0000      -0.085241        -2.3195
 279   0.0000      -0.067314        -1.8317
 280   0.0000      -0.058095        -1.5808
 281   0.0000      -0.027472        -0.7476

MULLIKEN ATOMIC CHARGES
-----------------------
   0 C :    0.317313
   1 C :   -0.329960
   2 C :   -0.190185
   3 N :    0.154223
   4 C :   -0.199570
   5 N :    0.168167
   6 C :    0.009897
   7 C :   -0.012435
   8 C :   -0.063743
   9 C :    0.111942
  10 C :   -0.093766
  11 C :   -0.019218
  12 S :    0.145403
  13 C :   -0.048291
  14 C :    0.028244
  15 C :    0.156162
  16 O :   -0.149790
  17 C :    0.002358
  18 C :   -0.085973
  19 C :    0.284494
  20 C :   -0.139391
  21 N :   -0.275543
  22 S :    0.454635
  23 N :   -0.269750
  24 C :   -0.045076
  25 C :    0.253590
  26 C :   -0.101063
  27 C :   -0.129222
  28 N :   -0.269498
  29 S :    0.452061
  30 N :   -0.246825
  31 C :   -0.011362
  32 C :   -0.064714
  33 C :    0.010011
  34 C :    0.113272
  35 C :   -0.055159
  36 C :   -0.002900
  37 C :    0.099592
  38 C :    0.020349
  39 C :   -0.142911
  40 C :    0.063286
  41 C :    0.028587
  42 C :    0.062802
  43 C :    0.021993
  44 C :   -0.090641
  45 C :    0.123895
  46 C :   -0.018631
  47 C :   -0.046575
  48 C :   -0.018842
  49 C :    0.014972
  50 C :   -0.014530
  51 C :   -0.018399
  52 C :    0.035110
  53 C :    0.021935
  54 C :   -0.045716
  55 S :    0.053926
  56 C :   -0.032356
  57 C :    0.022888
  58 C :    0.033933
  59 C :   -0.023005
  60 S :    0.039586
  61 C :   -0.018042
  62 C :    0.061368
  63 C :   -0.042496
  64 C :    0.071664
  65 C :   -0.005473
  66 C :    0.046718
  67 C :   -0.019190
  68 C :    0.061568
  69 C :   -0.029501
  70 C :    0.060686
  71 C :   -0.003313
  72 C :    0.038915
  73 C :   -0.024831
  74 C :    0.010349
  75 C :   -0.026246
  76 H :   -0.011002
  77 H :   -0.005038
  78 H :    0.041751
  79 H :   -0.003843
  80 H :    0.034007
  81 H :    0.078315
  82 H :    0.018391
  83 H :   -0.016003
  84 H :   -0.035769
  85 H :   -0.018977
  86 H :   -0.006348
  87 H :    0.000365
  88 H :    0.021591
  89 H :    0.006248
  90 H :    0.020695
  91 H :    0.012372
  92 H :   -0.010838
  93 H :    0.016684
  94 H :    0.002850
  95 H :    0.021947
  96 H :   -0.044458
  97 H :   -0.031779
  98 H :   -0.039208
  99 H :   -0.026350
 100 H :   -0.000416
 101 H :   -0.021711
 102 H :   -0.016895
 103 H :   -0.016302
 104 H :   -0.018305
 105 H :   -0.015951
 106 H :   -0.025981
 107 H :   -0.031599
 108 H :   -0.027297
 109 H :   -0.025701
 110 H :   -0.029074
 111 H :   -0.025659
 112 H :   -0.009755
 113 H :   -0.019467
 114 H :    0.007041
 115 H :    0.019706
Sum of atomic charges:   -0.0000000

LOEWDIN ATOMIC CHARGES
----------------------
   0 C :    0.078242
   1 C :   -0.126804
   2 C :   -0.017102
   3 N :   -0.046913
   4 C :   -0.020837
   5 N :   -0.040166
   6 C :   -0.021248
   7 C :   -0.054150
   8 C :    0.026372
   9 C :   -0.033278
  10 C :   -0.143039
  11 C :   -0.006377
  12 S :    0.433416
  13 C :   -0.146096
  14 C :   -0.056699
  15 C :    0.099311
  16 O :   -0.139509
  17 C :   -0.072889
  18 C :    0.104843
  19 C :   -0.039165
  20 C :   -0.050603
  21 N :   -0.268567
  22 S :    0.582572
  23 N :   -0.268790
  24 C :   -0.042350
  25 C :   -0.016401
  26 C :   -0.050077
  27 C :   -0.045440
  28 N :   -0.265925
  29 S :    0.580424
  30 N :   -0.259915
  31 C :   -0.016440
  32 C :   -0.033880
  33 C :    0.008473
  34 C :   -0.017777
  35 C :   -0.014912
  36 C :   -0.020853
  37 C :   -0.020430
  38 C :    0.005073
  39 C :   -0.035511
  40 C :   -0.012707
  41 C :   -0.057854
  42 C :   -0.015114
  43 C :   -0.058069
  44 C :   -0.018984
  45 C :   -0.024257
  46 C :   -0.020268
  47 C :   -0.020408
  48 C :   -0.018566
  49 C :   -0.032685
  50 C :   -0.059096
  51 C :   -0.144854
  52 C :   -0.038876
  53 C :   -0.033121
  54 C :   -0.184239
  55 S :    0.356708
  56 C :   -0.178471
  57 C :   -0.041891
  58 C :   -0.031302
  59 C :   -0.155448
  60 S :    0.367275
  61 C :   -0.047936
  62 C :   -0.061682
  63 C :    0.006211
  64 C :   -0.057251
  65 C :    0.067657
  66 C :   -0.061776
  67 C :    0.044570
  68 C :   -0.058885
  69 C :    0.011126
  70 C :   -0.057972
  71 C :    0.067826
  72 C :   -0.061227
  73 C :    0.029663
  74 C :   -0.020804
  75 C :   -0.055988
  76 H :    0.041085
  77 H :    0.041492
  78 H :    0.030769
  79 H :    0.036514
  80 H :    0.045016
  81 H :    0.067843
  82 H :    0.056845
  83 H :    0.027553
  84 H :    0.026932
  85 H :    0.029149
  86 H :    0.018788
  87 H :    0.020727
  88 H :    0.025699
  89 H :    0.022776
  90 H :    0.025306
  91 H :    0.020146
  92 H :    0.017229
  93 H :    0.021973
  94 H :    0.021792
  95 H :    0.025038
  96 H :    0.022647
  97 H :    0.024785
  98 H :    0.025582
  99 H :    0.025519
 100 H :    0.018924
 101 H :    0.030565
 102 H :    0.031788
 103 H :    0.030565
 104 H :    0.030105
 105 H :    0.031727
 106 H :    0.034118
 107 H :    0.022329
 108 H :    0.033773
 109 H :    0.024402
 110 H :    0.023555
 111 H :    0.034640
 112 H :    0.013667
 113 H :    0.029216
 114 H :    0.017423
 115 H :    0.024110

  Mayer bond orders larger than 0.100000
B(  0-C ,  1-C ) :   1.6747 B(  0-C ,  6-C ) :   1.0145 B(  0-C , 17-C ) :   1.0177
B(  1-C ,  2-C ) :   1.1333 B(  1-C ,  4-C ) :   1.1469 B(  2-C ,  3-N ) :   2.9755
B(  4-C ,  5-N ) :   2.9815 B(  6-C ,  7-C ) :   1.2664 B(  6-C , 11-C ) :   1.4026
B(  7-C ,  8-C ) :   1.4165 B(  7-C , 15-C ) :   0.9618 B(  8-C ,  9-C ) :   1.2527
B(  8-C , 76-H ) :   1.0168 B(  9-C , 10-C ) :   1.2938 B(  9-C , 14-C ) :   1.1729
B( 10-C , 11-C ) :   1.3313 B( 10-C , 12-S ) :   1.1012 B( 11-C , 77-H ) :   0.9823
B( 12-S , 13-C ) :   1.1268 B( 13-C , 14-C ) :   1.6277 B( 13-C , 78-H ) :   0.9686
B( 14-C , 79-H ) :   0.9995 B( 15-C , 16-O ) :   2.1350 B( 15-C , 17-C ) :   0.9284
B( 17-C , 18-C ) :   1.7189 B( 18-C , 19-C ) :   1.0295 B( 18-C , 80-H ) :   0.9605
B( 19-C , 20-C ) :   0.9472 B( 19-C , 27-C ) :   0.9776 B( 19-C , 81-H ) :   0.7923
B( 20-C , 21-N ) :   1.7038 B( 20-C , 22-S ) :   0.1019 B( 20-C , 24-C ) :   1.1879
B( 21-N , 22-S ) :   1.1927 B( 21-N , 23-N ) :   0.1177 B( 22-S , 23-N ) :   1.1996
B( 23-N , 24-C ) :   1.6863 B( 24-C , 25-C ) :   0.9918 B( 25-C , 26-C ) :   0.9717
B( 25-C , 31-C ) :   1.0123 B( 25-C , 82-H ) :   0.8500 B( 26-C , 27-C ) :   1.2012
B( 26-C , 30-N ) :   1.7114 B( 27-C , 28-N ) :   1.6865 B( 28-N , 29-S ) :   1.1930
B( 28-N , 30-N ) :   0.1193 B( 29-S , 30-N ) :   1.2018 B( 31-C , 32-C ) :   1.3703
B( 31-C , 36-C ) :   1.3894 B( 32-C , 33-C ) :   1.3640 B( 32-C , 83-H ) :   0.9851
B( 33-C , 34-C ) :   1.3917 B( 33-C , 39-C ) :   0.9185 B( 34-C , 35-C ) :   1.3344
B( 34-C , 37-C ) :   0.9860 B( 35-C , 36-C ) :   1.3749 B( 35-C , 84-H ) :   0.9925
B( 36-C , 85-H ) :   0.9884 B( 37-C , 38-C ) :   1.3573 B( 37-C , 47-C ) :   1.3453
B( 38-C , 39-C ) :   0.9139 B( 38-C , 44-C ) :   1.4109 B( 39-C , 40-C ) :   1.0390
B( 39-C , 42-C ) :   1.0362 B( 40-C , 41-C ) :   1.1024 B( 40-C , 86-H ) :   0.9380
B( 40-C , 87-H ) :   0.9398 B( 41-C , 88-H ) :   0.9642 B( 41-C , 89-H ) :   0.9637
B( 41-C , 90-H ) :   0.9635 B( 42-C , 43-C ) :   1.0987 B( 42-C , 91-H ) :   0.9323
B( 42-C , 92-H ) :   0.9344 B( 43-C , 93-H ) :   0.9642 B( 43-C , 94-H ) :   0.9639
B( 43-C , 95-H ) :   0.9638 B( 44-C , 45-C ) :   1.2921 B( 44-C , 96-H ) :   0.9996
B( 45-C , 46-C ) :   1.3323 B( 45-C , 48-C ) :   1.0631 B( 46-C , 47-C ) :   1.3771
B( 46-C , 97-H ) :   0.9928 B( 47-C , 98-H ) :   0.9910 B( 48-C , 49-C ) :   1.6558
B( 48-C , 99-H ) :   0.9871 B( 49-C , 50-C ) :   1.1471 B( 49-C ,100-H ) :   0.9632
B( 50-C , 51-C ) :   1.5676 B( 50-C ,101-H ) :   0.9847 B( 51-C , 52-C ) :   1.1411
B( 51-C , 55-S ) :   1.0276 B( 52-C , 53-C ) :   1.5877 B( 52-C ,102-H ) :   0.9985
B( 53-C , 54-C ) :   1.1909 B( 53-C ,103-H ) :   0.9942 B( 54-C , 55-S ) :   1.0369
B( 54-C , 56-C ) :   1.5095 B( 56-C , 57-C ) :   1.1877 B( 56-C , 60-S ) :   1.0386
B( 57-C , 58-C ) :   1.5905 B( 57-C ,104-H ) :   0.9931 B( 58-C , 59-C ) :   1.1396
B( 58-C ,105-H ) :   0.9994 B( 59-C , 60-S ) :   1.0181 B( 59-C , 61-C ) :   1.5799
B( 61-C , 62-C ) :   1.1316 B( 61-C ,106-H ) :   0.9688 B( 62-C , 63-C ) :   1.4430
B( 62-C , 73-C ) :   1.1287 B( 63-C , 64-C ) :   1.1083 B( 63-C ,107-H ) :   1.0196
B( 64-C , 65-C ) :   1.4377 B( 64-C , 72-C ) :   1.1266 B( 65-C , 66-C ) :   1.1348
B( 65-C ,108-H ) :   1.0039 B( 66-C , 67-C ) :   1.4404 B( 66-C , 70-C ) :   1.1252
B( 67-C , 68-C ) :   1.1447 B( 67-C ,109-H ) :   1.0064 B( 68-C , 69-C ) :   1.5107
B( 68-C , 74-C ) :   1.0834 B( 69-C , 70-C ) :   1.0816 B( 69-C ,110-H ) :   1.0168
B( 70-C , 71-C ) :   1.4702 B( 71-C , 72-C ) :   1.1219 B( 71-C ,111-H ) :   1.0037
B( 72-C , 73-C ) :   1.4669 B( 73-C ,112-H ) :   0.9898 B( 74-C , 75-C ) :   1.9342
B( 74-C ,113-H ) :   0.9666 B( 75-C ,114-H ) :   0.9523 B( 75-C ,115-H ) :   0.9495

-----------------------------------------------------------------------------
         ABSORPTION SPECTRUM VIA TRANSITION ELECTRIC DIPOLE MOMENTS
-----------------------------------------------------------------------------
State   Energy  Wavelength   fosc         T2         TX        TY        TZ
        (cm-1)    (nm)                  (au**2)     (au)      (au)      (au)
-----------------------------------------------------------------------------
   0    6170.9   1620.5   0.018807349   1.00336   0.14405   0.93930  -0.31673
   1   14541.1    687.7   1.283088712  29.04933   0.67101  -5.13191   1.50420
   2   14767.1    677.2   0.093911924   2.09363  -0.04764   1.39266  -0.38969
   3   16053.8    622.9   0.000062132   0.00127   0.01273   0.03333  -0.00102
   4   20830.6    480.1   0.000541139   0.00855  -0.07036  -0.05793   0.01568
   5   22376.8    446.9   0.089323865   1.31415  -0.94411  -0.55819   0.33351
   6   23339.2    428.5   0.004731590   0.06674  -0.01554  -0.24856   0.06869
   7   24861.1    402.2   0.171779629   2.27472  -1.41494   0.52181  -0.01974
   8   25380.7    394.0   0.000651074   0.00845  -0.08818  -0.02573   0.00282
   9   26106.1    383.1   2.135285612  26.92713  -4.99593  -1.07609   0.89989
  10   28065.4    356.3   0.077003123   0.90326   0.92374  -0.03720  -0.22042
  11   28761.9    347.7   0.240459169   2.75233  -1.39755   0.80894   0.38053
  12   28853.6    346.6   0.011632110   0.13272  -0.35501  -0.05277   0.06250
  13   29124.1    343.4   0.024095663   0.27237   0.41053  -0.30607   0.10079
  14   29401.0    340.1   0.000647729   0.00725  -0.06803   0.03607   0.03638
  15   30089.7    332.3   0.000068206   0.00075   0.00479   0.02689   0.00021
  16   30531.0    327.5   0.236853833   2.55397   1.30190   0.85110  -0.36697
  17   30815.8    324.5   0.028362976   0.30301  -0.53027   0.02559  -0.14550
  18   31380.7    318.7   0.000005331   0.00006  -0.00350  -0.00658  -0.00060
  19   31530.2    317.2   0.048939740   0.51099  -0.53311   0.42319   0.21838
  20   31827.9    314.2   0.012890379   0.13333   0.23448  -0.03755  -0.27738
  21   32520.9    307.5   0.024252026   0.24551   0.31031   0.32370  -0.21080
  22   32951.9    303.5   0.019972078   0.19953   0.31448   0.22289  -0.22574
  23   32968.1    303.3   0.057348504   0.57267  -0.62108  -0.22122  -0.37146
  24   33401.0    299.4   0.061773583   0.60886  -0.68674  -0.30582   0.20910
  25   33627.2    297.4   0.016888770   0.16534   0.35626   0.16246  -0.10966
  26   34062.4    293.6   0.001352218   0.01307  -0.05863  -0.09294   0.03153
  27   34112.6    293.1   0.032811780   0.31666  -0.49201  -0.20254   0.18320
  28   34285.7    291.7   0.699246641   6.71418   2.44646  -0.85298   0.03796
  29   34335.6    291.2   0.051757737   0.49626  -0.67707   0.19111   0.03628
  30   34452.9    290.3   0.015643418   0.14948  -0.03005   0.35503  -0.15010
  31   35405.2    282.4   0.032178060   0.29920  -0.37433   0.10363  -0.38515
  32   35579.3    281.1   0.025798149   0.23871  -0.10687   0.37903   0.28918
  33   35851.7    278.9   0.000033351   0.00031   0.01740  -0.00183  -0.00014
  34   36115.8    276.9   0.037336798   0.34034   0.00414  -0.41814  -0.40679
  35   36126.5    276.8   0.018421299   0.16787   0.06913  -0.35389  -0.19455
  36   36210.5    276.2   0.047862760   0.43515  -0.57516  -0.24680   0.20840
  37   36335.0    275.2   0.000313290   0.00284   0.04432   0.02670  -0.01271
  38   36491.1    274.0   0.002484046   0.02241  -0.10838  -0.04987  -0.09043
  39   36803.9    271.7   0.011143174   0.09968   0.04038   0.30400   0.07503
  40   37082.0    269.7   0.011434189   0.10151   0.30525  -0.01165   0.09054
  41   37441.7    267.1   0.063653079   0.55968   0.25629   0.68105  -0.17370
  42   37798.2    264.6   0.015594240   0.13582   0.06498   0.32128  -0.16847
  43   38059.6    262.7   0.044553299   0.38538  -0.18359   0.46734   0.36506
  44   38148.8    262.1   0.001913234   0.01651  -0.08723   0.03225   0.08867
  45   38329.5    260.9   0.065093397   0.55909  -0.61701  -0.39425   0.15151
  46   38994.8    256.4   0.010832540   0.09145  -0.08051   0.23186   0.17667
  47   39146.6    255.4   0.033717131   0.28355   0.51577  -0.13235  -0.00452
  48   39453.5    253.5   0.048589661   0.40545  -0.47620  -0.41675   0.07075
  49   39893.2    250.7   0.358160469   2.95566  -0.91479  -1.09428  -0.95988
  50   39929.3    250.4   0.177183654   1.46086   0.53715  -0.57373  -0.91824
  51   40066.4    249.6   0.239985897   1.97188  -1.36240   0.18248   0.28716
  52   40115.0    249.3   0.074456117   0.61104   0.40526   0.56316   0.36007

FINAL SINGLE POINT ENERGY     -4853.159794843138

DIPOLE MOMENT
-------------
                                X             Y             Z
Electronic contribution:    -55.58375       0.82326     -35.98971
Nuclear contribution   :     58.81944      -1.85384      36.08930
                        -----------------------------------------
Total Dipole Moment    :      3.23569      -1.03057       0.09958
                        -----------------------------------------
Magnitude (a.u.)       :      3.39731
Magnitude (Debye)      :      8.63527

Rotational constants in cm-1:     0.000755     0.000405     0.000335
Rotational constants in MHz :    22.627313    12.128964    10.046811

                             ****ORCA TERMINATED NORMALLY****
TOTAL RUN TIME: 0 days 0 hours 15 minutes 11 seconds 311 msec
