                         Program Version 4.2.0 -  RELEASE  -
|  1> # ORCA input file
|  2> # SCF done       -194.292827111480          0.005202146130
|  3> ! CAM-B3LYP def2-SVP def2/J RIJCOSX Grid4 TightSCF
|  4> %maxcore 5000
|  5> %tddft
|  6>     Mode sTDDFT
|  7>     Ethresh 5.0
|  8>     maxcore 5000
|  9> end
| 10>
| 11> %pal
| 12>   nprocs 6
| 13>   end
| 14> * xyz 0 1
| 15>    C      -11.64743         1.03850        -0.36352
| 16>    C      -12.65028         1.32891        -1.25288
| 17>    C      -13.99663         0.95248        -1.07252
| 18>    N      -15.10543         0.66993        -0.97876
| 19>    C      -12.46419         1.99010        -2.48404
| 20>    N      -12.37791         2.51567        -3.50144
| 21>    C      -11.80341         0.31647         0.89488
| 22>    C      -10.51933         0.04456         1.43249
| 23>    C      -10.34093        -0.61643         2.62252
| 24>    C      -11.48171        -0.99796         3.33464
| 25>    C      -12.75919        -0.71419         2.79532
| 26>    C      -12.94117        -0.06857         1.57851
| 27>    S      -14.02145        -1.26771         3.84919
| 28>    C      -12.85304        -1.85930         4.97923
| 29>    C      -11.57491        -1.65697         4.59200
| 30>    C       -9.49483         0.58095         0.51929
| 31>    O       -8.31748         0.28286         0.48723
| 32>    C      -10.24875         1.39719        -0.47571
| 33>    C       -9.69342         2.34973        -1.27958
| 34>    C       -8.44261         2.96525        -1.01671
| 35>    C       -7.92590         3.09262         0.29772
| 36>    C       -6.63295         3.66435         0.55945
| 37>    N       -6.13333         3.62158         1.79416
| 38>    C       -6.85461         3.12514         2.77661
| 39>    C       -8.21458         2.75171         2.54843
| 40>    N       -8.70075         2.74015         1.33225
| 41>    C       -9.06455         2.38881         3.62104
| 42>    N       -9.72756         2.07122         4.49864
| 43>    C       -6.29169         3.01536         4.06916
| 44>    N       -5.88086         2.91113         5.13414
| 45>    C       -5.84615         4.27590        -0.47353
| 46>    C       -6.45038         4.27834        -1.75722
| 47>    C       -7.70688         3.62614        -2.02475
| 48>    N       -8.05309         3.73254        -3.30700
| 49>    S       -6.94383         4.57898        -4.10140
| 50>    N       -5.95592         4.83467        -2.85837
| 51>    C       -4.58078         4.77073        -0.14149
| 52>    C       -3.62533         5.40987        -0.90976
| 53>    C       -2.34927         5.78007        -0.41069
| 54>    C       -1.51671         6.34747        -1.33224
| 55>    C       -2.11985         6.47539        -2.59628
| 56>    S       -3.75930         5.86137        -2.58452
| 57>    C       -1.61612         6.89010        -3.81830
| 58>    C       -0.28430         7.05550        -4.26391
| 59>    C       -0.17652         7.20803        -5.61126
| 60>    C       -1.42379         7.20299        -6.30521
| 61>    S       -2.73515         7.07524        -5.14051
| 62>    C       -1.60326         7.30612        -7.64960
| 63>    C       -2.84492         7.34261        -8.37051
| 64>    C       -2.94377         8.08101        -9.52782
| 65>    S       -4.52546         8.13757       -10.16899
| 66>    C       -5.09750         7.13068        -8.91084
| 67>    C       -4.11840         6.76458        -8.03527
| 68>    C       -4.43780         5.75456        -6.99645
| 69>    O       -5.47460         5.72674        -6.38146
| 70>    O       -3.45402         4.85236        -6.89805
| 71>    C       -3.53532         3.82570        -5.95680
| 72>    C       -2.37544         3.57140        -5.22927
| 73>    C       -2.38176         2.54009        -4.31715
| 74>    C       -3.56369         1.81661        -4.08521
| 75>    C       -4.70970         2.07449        -4.81801
| 76>    C       -4.68692         3.07397        -5.77699
| 77>    C       -3.30829         0.83711        -3.04764
| 78>    C       -1.96362         0.93823        -2.65741
| 79>    C       -1.26616         2.05327        -3.41398
| 80>    C       -0.07823         1.45411        -4.19384
| 81>    C        0.73630         2.42916        -5.03524
| 82>    C       -0.88139         3.22197        -2.48422
| 83>    C        0.19512         2.93362        -1.44684
| 84>    C       -1.44814         0.05194        -1.74030
| 85>    C       -2.27188        -0.92478        -1.16513
| 86>    C       -3.61925        -0.97766        -1.53300
| 87>    C       -4.14054        -0.11230        -2.47413
| 88>    C       -1.67613        -1.85398        -0.21436
| 89>    C       -2.26855        -2.88991         0.36879
| 90>    H       -9.35270        -0.81788         3.00606
| 91>    H      -13.93484         0.12532         1.20968
| 92>    H      -13.20231        -2.32782         5.87863
| 93>    H      -10.71667        -1.95164         5.16784
| 94>    H      -10.22769         2.72728        -2.14253
| 95>    H       -4.30774         4.60983         0.89499
| 96>    H       -2.07929         5.59001         0.61333
| 97>    H       -0.51352         6.67716        -1.12694
| 98>    H        0.54969         7.00994        -3.58599
| 99>    H        0.75443         7.30407        -6.14209
|100>    H       -0.71755         7.47090        -8.25013
|101>    H       -2.15779         8.63222       -10.00410
|102>    H       -6.12432         6.82581        -8.88513
|103>    H       -1.50781         4.18759        -5.40470
|104>    H       -5.60972         1.50115        -4.65622
|105>    H       -5.55825         3.27014        -6.38114
|106>    H       -0.47423         0.67153        -4.84678
|107>    H        0.58245         0.96992        -3.47458
|108>    H        0.14929         2.81987        -5.85984
|109>    H        1.59604         1.90999        -5.45556
|110>    H        1.10461         3.25908        -4.43750
|111>    H       -1.79375         3.52701        -1.96480
|112>    H       -0.56358         4.06149        -3.10586
|113>    H       -0.14423         2.18848        -0.73356
|114>    H        0.41571         3.84715        -0.89735
|115>    H        1.11483         2.58739        -1.91160
|116>    H       -0.40384         0.08014        -1.46368
|117>    H       -4.26441        -1.71567        -1.08719
|118>    H       -5.17836        -0.18154        -2.76214
|119>    H       -0.63353        -1.66021         0.00835
|120>    H       -3.29871        -3.14854         0.19573
|121>    H       -1.73419        -3.52538         1.05441
|122> *
|123>
|124>                          ****END OF INPUT****

CARTESIAN COORDINATES (ANGSTROEM)
---------------------------------
  C    -11.647430    1.038500   -0.363520
  C    -12.650280    1.328910   -1.252880
  C    -13.996630    0.952480   -1.072520
  N    -15.105430    0.669930   -0.978760
  C    -12.464190    1.990100   -2.484040
  N    -12.377910    2.515670   -3.501440
  C    -11.803410    0.316470    0.894880
  C    -10.519330    0.044560    1.432490
  C    -10.340930   -0.616430    2.622520
  C    -11.481710   -0.997960    3.334640
  C    -12.759190   -0.714190    2.795320
  C    -12.941170   -0.068570    1.578510
  S    -14.021450   -1.267710    3.849190
  C    -12.853040   -1.859300    4.979230
  C    -11.574910   -1.656970    4.592000
  C     -9.494830    0.580950    0.519290
  O     -8.317480    0.282860    0.487230
  C    -10.248750    1.397190   -0.475710
  C     -9.693420    2.349730   -1.279580
  C     -8.442610    2.965250   -1.016710
  C     -7.925900    3.092620    0.297720
  C     -6.632950    3.664350    0.559450
  N     -6.133330    3.621580    1.794160
  C     -6.854610    3.125140    2.776610
  C     -8.214580    2.751710    2.548430
  N     -8.700750    2.740150    1.332250
  C     -9.064550    2.388810    3.621040
  N     -9.727560    2.071220    4.498640
  C     -6.291690    3.015360    4.069160
  N     -5.880860    2.911130    5.134140
  C     -5.846150    4.275900   -0.473530
  C     -6.450380    4.278340   -1.757220
  C     -7.706880    3.626140   -2.024750
  N     -8.053090    3.732540   -3.307000
  S     -6.943830    4.578980   -4.101400
  N     -5.955920    4.834670   -2.858370
  C     -4.580780    4.770730   -0.141490
  C     -3.625330    5.409870   -0.909760
  C     -2.349270    5.780070   -0.410690
  C     -1.516710    6.347470   -1.332240
  C     -2.119850    6.475390   -2.596280
  S     -3.759300    5.861370   -2.584520
  C     -1.616120    6.890100   -3.818300
  C     -0.284300    7.055500   -4.263910
  C     -0.176520    7.208030   -5.611260
  C     -1.423790    7.202990   -6.305210
  S     -2.735150    7.075240   -5.140510
  C     -1.603260    7.306120   -7.649600
  C     -2.844920    7.342610   -8.370510
  C     -2.943770    8.081010   -9.527820
  S     -4.525460    8.137570  -10.168990
  C     -5.097500    7.130680   -8.910840
  C     -4.118400    6.764580   -8.035270
  C     -4.437800    5.754560   -6.996450
  O     -5.474600    5.726740   -6.381460
  O     -3.454020    4.852360   -6.898050
  C     -3.535320    3.825700   -5.956800
  C     -2.375440    3.571400   -5.229270
  C     -2.381760    2.540090   -4.317150
  C     -3.563690    1.816610   -4.085210
  C     -4.709700    2.074490   -4.818010
  C     -4.686920    3.073970   -5.776990
  C     -3.308290    0.837110   -3.047640
  C     -1.963620    0.938230   -2.657410
  C     -1.266160    2.053270   -3.413980
  C     -0.078230    1.454110   -4.193840
  C      0.736300    2.429160   -5.035240
  C     -0.881390    3.221970   -2.484220
  C      0.195120    2.933620   -1.446840
  C     -1.448140    0.051940   -1.740300
  C     -2.271880   -0.924780   -1.165130
  C     -3.619250   -0.977660   -1.533000
  C     -4.140540   -0.112300   -2.474130
  C     -1.676130   -1.853980   -0.214360
  C     -2.268550   -2.889910    0.368790
  H     -9.352700   -0.817880    3.006060
  H    -13.934840    0.125320    1.209680
  H    -13.202310   -2.327820    5.878630
  H    -10.716670   -1.951640    5.167840
  H    -10.227690    2.727280   -2.142530
  H     -4.307740    4.609830    0.894990
  H     -2.079290    5.590010    0.613330
  H     -0.513520    6.677160   -1.126940
  H      0.549690    7.009940   -3.585990
  H      0.754430    7.304070   -6.142090
  H     -0.717550    7.470900   -8.250130
  H     -2.157790    8.632220  -10.004100
  H     -6.124320    6.825810   -8.885130
  H     -1.507810    4.187590   -5.404700
  H     -5.609720    1.501150   -4.656220
  H     -5.558250    3.270140   -6.381140
  H     -0.474230    0.671530   -4.846780
  H      0.582450    0.969920   -3.474580
  H      0.149290    2.819870   -5.859840
  H      1.596040    1.909990   -5.455560
  H      1.104610    3.259080   -4.437500
  H     -1.793750    3.527010   -1.964800
  H     -0.563580    4.061490   -3.105860
  H     -0.144230    2.188480   -0.733560
  H      0.415710    3.847150   -0.897350
  H      1.114830    2.587390   -1.911600
  H     -0.403840    0.080140   -1.463680
  H     -4.264410   -1.715670   -1.087190
  H     -5.178360   -0.181540   -2.762140
  H     -0.633530   -1.660210    0.008350
  H     -3.298710   -3.148540    0.195730
  H     -1.734190   -3.525380    1.054410

 Total Charge           Charge          ....    0
 Multiplicity           Mult            ....    1
 Number of Electrons    NEL             ....  546
 Basis Dimension        Dim             .... 1230

ORBITAL ENERGIES
----------------

  NO   OCC          E(Eh)            E(eV)
   0   2.0000     -89.026165     -2422.5251
   1   2.0000     -88.986984     -2421.4589
   2   2.0000     -88.969764     -2420.9904
   3   2.0000     -88.963210     -2420.8120
   4   2.0000     -88.949339     -2420.4346
   5   2.0000     -19.285571      -524.7871
   6   2.0000     -19.223396      -523.0952
   7   2.0000     -19.193848      -522.2912
   8   2.0000     -14.450223      -393.2106
   9   2.0000     -14.446120      -393.0989
  10   2.0000     -14.443661      -393.0320
  11   2.0000     -14.431017      -392.6879
  12   2.0000     -14.420786      -392.4095
  13   2.0000     -14.415186      -392.2572
  14   2.0000     -14.396698      -391.7541
  15   2.0000     -14.396383      -391.7455
  16   2.0000     -10.426688      -283.7246
  17   2.0000     -10.368764      -282.1484
  18   2.0000     -10.361944      -281.9628
  19   2.0000     -10.349883      -281.6346
  20   2.0000     -10.343212      -281.4531
  21   2.0000     -10.339490      -281.3518
  22   2.0000     -10.337653      -281.3018
  23   2.0000     -10.336192      -281.2621
  24   2.0000     -10.334038      -281.2035
  25   2.0000     -10.332845      -281.1710
  26   2.0000     -10.332633      -281.1653
  27   2.0000     -10.328098      -281.0418
  28   2.0000     -10.324269      -280.9376
  29   2.0000     -10.322792      -280.8974
  30   2.0000     -10.322050      -280.8773
  31   2.0000     -10.320999      -280.8487
  32   2.0000     -10.318748      -280.7874
  33   2.0000     -10.318228      -280.7733
  34   2.0000     -10.317801      -280.7616
  35   2.0000     -10.316559      -280.7279
  36   2.0000     -10.315860      -280.7088
  37   2.0000     -10.314632      -280.6754
  38   2.0000     -10.314246      -280.6649
  39   2.0000     -10.310201      -280.5548
  40   2.0000     -10.309738      -280.5422
  41   2.0000     -10.307151      -280.4718
  42   2.0000     -10.302919      -280.3567
  43   2.0000     -10.300013      -280.2776
  44   2.0000     -10.299618      -280.2669
  45   2.0000     -10.299323      -280.2588
  46   2.0000     -10.297119      -280.1988
  47   2.0000     -10.293527      -280.1011
  48   2.0000     -10.293083      -280.0890
  49   2.0000     -10.288801      -279.9725
  50   2.0000     -10.287354      -279.9331
  51   2.0000     -10.285318      -279.8777
  52   2.0000     -10.283554      -279.8297
  53   2.0000     -10.283312      -279.8231
  54   2.0000     -10.281012      -279.7606
  55   2.0000     -10.278566      -279.6940
  56   2.0000     -10.278091      -279.6811
  57   2.0000     -10.277725      -279.6711
  58   2.0000     -10.276580      -279.6399
  59   2.0000     -10.275082      -279.5992
  60   2.0000     -10.273363      -279.5524
  61   2.0000     -10.271897      -279.5125
  62   2.0000     -10.271739      -279.5082
  63   2.0000     -10.271178      -279.4930
  64   2.0000     -10.267811      -279.4014
  65   2.0000     -10.267359      -279.3890
  66   2.0000     -10.267027      -279.3800
  67   2.0000     -10.266471      -279.3649
  68   2.0000     -10.266356      -279.3618
  69   2.0000     -10.265799      -279.3466
  70   2.0000     -10.265435      -279.3367
  71   2.0000     -10.262862      -279.2667
  72   2.0000     -10.260194      -279.1941
  73   2.0000     -10.258868      -279.1580
  74   2.0000     -10.256613      -279.0966
  75   2.0000      -8.116297      -220.8557
  76   2.0000      -8.083428      -219.9613
  77   2.0000      -8.065559      -219.4750
  78   2.0000      -8.056983      -219.2416
  79   2.0000      -8.045761      -218.9363
  80   2.0000      -6.087492      -165.6491
  81   2.0000      -6.079695      -165.4369
  82   2.0000      -6.078831      -165.4134
  83   2.0000      -6.052501      -164.6969
  84   2.0000      -6.048060      -164.5761
  85   2.0000      -6.046105      -164.5229
  86   2.0000      -6.035318      -164.2294
  87   2.0000      -6.031114      -164.1150
  88   2.0000      -6.026724      -163.9955
  89   2.0000      -6.026539      -163.9905
  90   2.0000      -6.022202      -163.8725
  91   2.0000      -6.018317      -163.7667
  92   2.0000      -6.015278      -163.6840
  93   2.0000      -6.010986      -163.5672
  94   2.0000      -6.007379      -163.4691
  95   2.0000      -1.216394       -33.0998
  96   2.0000      -1.127255       -30.6742
  97   2.0000      -1.122174       -30.5359
  98   2.0000      -1.114871       -30.3372
  99   2.0000      -1.103647       -30.0318
 100   2.0000      -1.033587       -28.1253
 101   2.0000      -1.021185       -27.7878
 102   2.0000      -1.012798       -27.5596
 103   2.0000      -1.003265       -27.3002
 104   2.0000      -1.001219       -27.2445
 105   2.0000      -0.995987       -27.1022
 106   2.0000      -0.992001       -26.9937
 107   2.0000      -0.990098       -26.9419
 108   2.0000      -0.987843       -26.8806
 109   2.0000      -0.980149       -26.6712
 110   2.0000      -0.975415       -26.5424
 111   2.0000      -0.968613       -26.3573
 112   2.0000      -0.963236       -26.2110
 113   2.0000      -0.944648       -25.7052
 114   2.0000      -0.921557       -25.0768
 115   2.0000      -0.917702       -24.9719
 116   2.0000      -0.913455       -24.8564
 117   2.0000      -0.903077       -24.5740
 118   2.0000      -0.894829       -24.3495
 119   2.0000      -0.888937       -24.1892
 120   2.0000      -0.884320       -24.0636
 121   2.0000      -0.874763       -23.8035
 122   2.0000      -0.870234       -23.6803
 123   2.0000      -0.864135       -23.5143
 124   2.0000      -0.862466       -23.4689
 125   2.0000      -0.850657       -23.1475
 126   2.0000      -0.846495       -23.0343
 127   2.0000      -0.843989       -22.9661
 128   2.0000      -0.841061       -22.8864
 129   2.0000      -0.839039       -22.8314
 130   2.0000      -0.830390       -22.5961
 131   2.0000      -0.827727       -22.5236
 132   2.0000      -0.815545       -22.1921
 133   2.0000      -0.805475       -21.9181
 134   2.0000      -0.801288       -21.8041
 135   2.0000      -0.797111       -21.6905
 136   2.0000      -0.785956       -21.3869
 137   2.0000      -0.773534       -21.0489
 138   2.0000      -0.766645       -20.8615
 139   2.0000      -0.752470       -20.4757
 140   2.0000      -0.742822       -20.2132
 141   2.0000      -0.737247       -20.0615
 142   2.0000      -0.725171       -19.7329
 143   2.0000      -0.718980       -19.5644
 144   2.0000      -0.714167       -19.4335
 145   2.0000      -0.710798       -19.3418
 146   2.0000      -0.696500       -18.9527
 147   2.0000      -0.694635       -18.9020
 148   2.0000      -0.692481       -18.8434
 149   2.0000      -0.687658       -18.7121
 150   2.0000      -0.684771       -18.6336
 151   2.0000      -0.682928       -18.5834
 152   2.0000      -0.671709       -18.2781
 153   2.0000      -0.668510       -18.1911
 154   2.0000      -0.667080       -18.1522
 155   2.0000      -0.662454       -18.0263
 156   2.0000      -0.653907       -17.7937
 157   2.0000      -0.652313       -17.7503
 158   2.0000      -0.644430       -17.5358
 159   2.0000      -0.642949       -17.4955
 160   2.0000      -0.638165       -17.3653
 161   2.0000      -0.632836       -17.2203
 162   2.0000      -0.631029       -17.1712
 163   2.0000      -0.620673       -16.8894
 164   2.0000      -0.613844       -16.7035
 165   2.0000      -0.607234       -16.5237
 166   2.0000      -0.606387       -16.5006
 167   2.0000      -0.601718       -16.3736
 168   2.0000      -0.594767       -16.1844
 169   2.0000      -0.591859       -16.1053
 170   2.0000      -0.584453       -15.9038
 171   2.0000      -0.582236       -15.8434
 172   2.0000      -0.578538       -15.7428
 173   2.0000      -0.576037       -15.6748
 174   2.0000      -0.568790       -15.4776
 175   2.0000      -0.567479       -15.4419
 176   2.0000      -0.563378       -15.3303
 177   2.0000      -0.561367       -15.2756
 178   2.0000      -0.556519       -15.1437
 179   2.0000      -0.551572       -15.0090
 180   2.0000      -0.549847       -14.9621
 181   2.0000      -0.547523       -14.8989
 182   2.0000      -0.543240       -14.7823
 183   2.0000      -0.539299       -14.6751
 184   2.0000      -0.531574       -14.4649
 185   2.0000      -0.530262       -14.4292
 186   2.0000      -0.529671       -14.4131
 187   2.0000      -0.525680       -14.3045
 188   2.0000      -0.521632       -14.1943
 189   2.0000      -0.521251       -14.1840
 190   2.0000      -0.518607       -14.1120
 191   2.0000      -0.515446       -14.0260
 192   2.0000      -0.514585       -14.0026
 193   2.0000      -0.513470       -13.9722
 194   2.0000      -0.508329       -13.8323
 195   2.0000      -0.507338       -13.8054
 196   2.0000      -0.504948       -13.7403
 197   2.0000      -0.502998       -13.6873
 198   2.0000      -0.502103       -13.6629
 199   2.0000      -0.499653       -13.5962
 200   2.0000      -0.495951       -13.4955
 201   2.0000      -0.495711       -13.4890
 202   2.0000      -0.493671       -13.4335
 203   2.0000      -0.489397       -13.3172
 204   2.0000      -0.485992       -13.2245
 205   2.0000      -0.485008       -13.1977
 206   2.0000      -0.484131       -13.1739
 207   2.0000      -0.482720       -13.1355
 208   2.0000      -0.479473       -13.0471
 209   2.0000      -0.476781       -12.9739
 210   2.0000      -0.474239       -12.9047
 211   2.0000      -0.471939       -12.8421
 212   2.0000      -0.468098       -12.7376
 213   2.0000      -0.466141       -12.6843
 214   2.0000      -0.463280       -12.6065
 215   2.0000      -0.462801       -12.5935
 216   2.0000      -0.460671       -12.5355
 217   2.0000      -0.456364       -12.4183
 218   2.0000      -0.453798       -12.3485
 219   2.0000      -0.451426       -12.2839
 220   2.0000      -0.448821       -12.2130
 221   2.0000      -0.448323       -12.1995
 222   2.0000      -0.447051       -12.1649
 223   2.0000      -0.442364       -12.0373
 224   2.0000      -0.442250       -12.0342
 225   2.0000      -0.440060       -11.9747
 226   2.0000      -0.438631       -11.9357
 227   2.0000      -0.436473       -11.8770
 228   2.0000      -0.435530       -11.8514
 229   2.0000      -0.433691       -11.8013
 230   2.0000      -0.431201       -11.7336
 231   2.0000      -0.430771       -11.7219
 232   2.0000      -0.428715       -11.6659
 233   2.0000      -0.425645       -11.5824
 234   2.0000      -0.424941       -11.5632
 235   2.0000      -0.423928       -11.5357
 236   2.0000      -0.418793       -11.3959
 237   2.0000      -0.418276       -11.3819
 238   2.0000      -0.415580       -11.3085
 239   2.0000      -0.413028       -11.2391
 240   2.0000      -0.410286       -11.1645
 241   2.0000      -0.408896       -11.1266
 242   2.0000      -0.404486       -11.0066
 243   2.0000      -0.403096       -10.9688
 244   2.0000      -0.400963       -10.9108
 245   2.0000      -0.395520       -10.7626
 246   2.0000      -0.393624       -10.7111
 247   2.0000      -0.391629       -10.6568
 248   2.0000      -0.389483       -10.5984
 249   2.0000      -0.388529       -10.5724
 250   2.0000      -0.379964       -10.3394
 251   2.0000      -0.379279       -10.3207
 252   2.0000      -0.377339       -10.2679
 253   2.0000      -0.374863       -10.2005
 254   2.0000      -0.370119       -10.0714
 255   2.0000      -0.357336        -9.7236
 256   2.0000      -0.355700        -9.6791
 257   2.0000      -0.348674        -9.4879
 258   2.0000      -0.348193        -9.4748
 259   2.0000      -0.342983        -9.3330
 260   2.0000      -0.339214        -9.2305
 261   2.0000      -0.335573        -9.1314
 262   2.0000      -0.334890        -9.1128
 263   2.0000      -0.323771        -8.8103
 264   2.0000      -0.320840        -8.7305
 265   2.0000      -0.316218        -8.6047
 266   2.0000      -0.314521        -8.5585
 267   2.0000      -0.311193        -8.4680
 268   2.0000      -0.295624        -8.0443
 269   2.0000      -0.281468        -7.6591
 270   2.0000      -0.274950        -7.4818
 271   2.0000      -0.262797        -7.1511
 272   2.0000      -0.224127        -6.0988
 273   0.0000      -0.126824        -3.4511
 274   0.0000      -0.073145        -1.9904
 275   0.0000      -0.063766        -1.7351
 276   0.0000      -0.039279        -1.0688
 277   0.0000      -0.032477        -0.8837

MULLIKEN ATOMIC CHARGES
-----------------------
   0 C :    0.294182
   1 C :   -0.356032
   2 C :   -0.184558
   3 N :    0.138669
   4 C :   -0.181574
   5 N :    0.141716
   6 C :    0.032940
   7 C :    0.007054
   8 C :   -0.070518
   9 C :    0.117176
  10 C :   -0.084180
  11 C :   -0.042684
  12 S :    0.131337
  13 C :   -0.051996
  14 C :    0.035051
  15 C :    0.128260
  16 O :   -0.173909
  17 C :   -0.060473
  18 C :   -0.064663
  19 C :    0.069687
  20 C :   -0.029781
  21 C :   -0.047644
  22 N :    0.049722
  23 C :   -0.134551
  24 C :   -0.102109
  25 N :    0.002576
  26 C :   -0.211155
  27 N :    0.228313
  28 C :   -0.215375
  29 N :    0.216631
  30 C :    0.117383
  31 C :    0.068999
  32 C :   -0.001510
  33 N :   -0.269148
  34 S :    0.561265
  35 N :   -0.339241
  36 C :   -0.129819
  37 C :    0.024952
  38 C :    0.008777
  39 C :    0.067333
  40 C :   -0.038579
  41 S :    0.157144
  42 C :   -0.059141
  43 C :    0.047676
  44 C :    0.041315
  45 C :   -0.030193
  46 S :    0.093025
  47 C :   -0.006302
  48 C :    0.100517
  49 C :   -0.126831
  50 S :    0.163713
  51 C :   -0.098665
  52 C :    0.030758
  53 C :    0.179579
  54 O :   -0.207977
  55 O :   -0.250952
  56 C :    0.218032
  57 C :   -0.071433
  58 C :    0.016213
  59 C :    0.124676
  60 C :   -0.087210
  61 C :   -0.009955
  62 C :    0.087556
  63 C :    0.042183
  64 C :   -0.111461
  65 C :    0.050314
  66 C :    0.034742
  67 C :    0.041201
  68 C :    0.042969
  69 C :   -0.125246
  70 C :    0.120437
  71 C :   -0.014633
  72 C :   -0.051472
  73 C :   -0.004868
  74 C :   -0.014552
  75 H :   -0.018431
  76 H :   -0.008071
  77 H :    0.034083
  78 H :   -0.009031
  79 H :    0.028245
  80 H :    0.005307
  81 H :    0.000954
  82 H :   -0.008537
  83 H :   -0.001786
  84 H :    0.000524
  85 H :   -0.001580
  86 H :    0.031917
  87 H :    0.046750
  88 H :   -0.039691
  89 H :   -0.022481
  90 H :   -0.008422
  91 H :    0.010232
  92 H :    0.004514
  93 H :    0.017005
  94 H :    0.012702
  95 H :   -0.003312
  96 H :    0.017846
  97 H :   -0.002030
  98 H :    0.020541
  99 H :   -0.005166
 100 H :    0.002494
 101 H :   -0.037338
 102 H :   -0.026734
 103 H :   -0.028902
 104 H :   -0.021887
 105 H :    0.015361
 106 H :    0.021238
Sum of atomic charges:   -0.0000000

LOEWDIN ATOMIC CHARGES
----------------------
   0 C :    0.078053
   1 C :   -0.148765
   2 C :   -0.018883
   3 N :   -0.063636
   4 C :   -0.019901
   5 N :   -0.057755
   6 C :   -0.017885
   7 C :   -0.051285
   8 C :    0.023825
   9 C :   -0.030839
  10 C :   -0.143874
  11 C :   -0.011569
  12 S :    0.423115
  13 C :   -0.151854
  14 C :   -0.053041
  15 C :    0.080892
  16 O :   -0.171052
  17 C :   -0.076636
  18 C :    0.065468
  19 C :   -0.071918
  20 C :    0.026942
  21 C :   -0.009192
  22 N :    0.000880
  23 C :   -0.045202
  24 C :   -0.017884
  25 N :    0.005760
  26 C :   -0.031282
  27 N :   -0.013058
  28 C :   -0.037774
  29 N :   -0.023590
  30 C :   -0.005783
  31 C :   -0.044381
  32 C :   -0.031650
  33 N :   -0.294971
  34 S :    0.714106
  35 N :   -0.292469
  36 C :   -0.044392
  37 C :   -0.121861
  38 C :   -0.033647
  39 C :   -0.016262
  40 C :   -0.205170
  41 S :    0.482344
  42 C :   -0.145430
  43 C :   -0.038677
  44 C :   -0.008662
  45 C :   -0.154592
  46 S :    0.432518
  47 C :   -0.014692
  48 C :   -0.060798
  49 C :   -0.172155
  50 S :    0.485750
  51 C :   -0.143904
  52 C :   -0.102187
  53 C :    0.071908
  54 O :   -0.177399
  55 O :   -0.049456
  56 C :    0.045714
  57 C :   -0.038809
  58 C :    0.008537
  59 C :   -0.014967
  60 C :   -0.023173
  61 C :   -0.046756
  62 C :   -0.021297
  63 C :    0.001314
  64 C :   -0.030570
  65 C :   -0.014612
  66 C :   -0.059753
  67 C :   -0.017101
  68 C :   -0.057446
  69 C :   -0.025025
  70 C :   -0.023774
  71 C :   -0.007829
  72 C :   -0.014816
  73 C :   -0.022034
  74 C :   -0.042342
  75 H :    0.036638
  76 H :    0.039666
  77 H :    0.027468
  78 H :    0.035210
  79 H :    0.045569
  80 H :    0.042015
  81 H :    0.037112
  82 H :    0.032329
  83 H :    0.036872
  84 H :    0.038072
  85 H :    0.041430
  86 H :    0.026900
  87 H :    0.035710
  88 H :    0.027178
  89 H :    0.029894
  90 H :    0.028031
  91 H :    0.029612
  92 H :    0.019825
  93 H :    0.022691
  94 H :    0.028380
  95 H :    0.017477
  96 H :    0.027923
  97 H :    0.014227
  98 H :    0.026034
  99 H :    0.021370
 100 H :    0.019321
 101 H :    0.021353
 102 H :    0.028516
 103 H :    0.029463
 104 H :    0.025881
 105 H :    0.020793
 106 H :    0.025634

  Mayer bond orders larger than 0.100000
B(  0-C ,  1-C ) :   1.6162 B(  0-C ,  6-C ) :   1.0048 B(  0-C , 17-C ) :   1.0919
B(  1-C ,  2-C ) :   1.1360 B(  1-C ,  4-C ) :   1.1478 B(  2-C ,  3-N ) :   2.9748
B(  4-C ,  5-N ) :   2.9718 B(  6-C ,  7-C ) :   1.2764 B(  6-C , 11-C ) :   1.4040
B(  7-C ,  8-C ) :   1.4148 B(  7-C , 15-C ) :   0.9333 B(  8-C ,  9-C ) :   1.2496
B(  8-C , 75-H ) :   1.0153 B(  9-C , 10-C ) :   1.3058 B(  9-C , 14-C ) :   1.1741
B( 10-C , 11-C ) :   1.3226 B( 10-C , 12-S ) :   1.0950 B( 11-C , 76-H ) :   0.9842
B( 12-S , 13-C ) :   1.1237 B( 13-C , 14-C ) :   1.6290 B( 13-C , 77-H ) :   0.9684
B( 14-C , 78-H ) :   0.9992 B( 15-C , 16-O ) :   2.2219 B( 15-C , 17-C ) :   0.9120
B( 17-C , 18-C ) :   1.5766 B( 18-C , 19-C ) :   1.1955 B( 18-C , 79-H ) :   0.9411
B( 19-C , 20-C ) :   1.2387 B( 19-C , 30-C ) :   0.1004 B( 19-C , 32-C ) :   1.1678
B( 20-C , 21-C ) :   1.1398 B( 20-C , 25-N ) :   1.4026 B( 21-C , 22-N ) :   1.5079
B( 21-C , 30-C ) :   1.1435 B( 22-N , 23-C ) :   1.6764 B( 23-C , 24-C ) :   1.2293
B( 23-C , 28-C ) :   1.1600 B( 24-C , 25-N ) :   1.6702 B( 24-C , 26-C ) :   1.1592
B( 26-C , 27-N ) :   3.0280 B( 28-C , 29-N ) :   3.0417 B( 30-C , 31-C ) :   1.1400
B( 30-C , 36-C ) :   1.3526 B( 31-C , 32-C ) :   1.1202 B( 31-C , 35-N ) :   1.4575
B( 32-C , 33-N ) :   1.5635 B( 33-N , 34-S ) :   1.2512 B( 33-N , 35-N ) :   0.1305
B( 34-S , 35-N ) :   1.2635 B( 36-C , 37-C ) :   1.3747 B( 36-C , 80-H ) :   0.9483
B( 37-C , 38-C ) :   1.1813 B( 37-C , 41-S ) :   1.1128 B( 38-C , 39-C ) :   1.5295
B( 38-C , 81-H ) :   1.0052 B( 39-C , 40-C ) :   1.2106 B( 39-C , 82-H ) :   0.9963
B( 40-C , 41-S ) :   1.0201 B( 40-C , 42-C ) :   1.4350 B( 42-C , 43-C ) :   1.1866
B( 42-C , 46-S ) :   1.1019 B( 43-C , 44-C ) :   1.5944 B( 43-C , 83-H ) :   0.9938
B( 44-C , 45-C ) :   1.1227 B( 44-C , 84-H ) :   0.9992 B( 45-C , 46-S ) :   1.0132
B( 45-C , 47-C ) :   1.6494 B( 47-C , 48-C ) :   1.0880 B( 47-C , 85-H ) :   0.9655
B( 48-C , 49-C ) :   1.4986 B( 48-C , 52-C ) :   1.2081 B( 49-C , 50-S ) :   1.1924
B( 49-C , 86-H ) :   0.9708 B( 50-S , 51-C ) :   1.1971 B( 51-C , 52-C ) :   1.5885
B( 51-C , 87-H ) :   0.9681 B( 52-C , 53-C ) :   0.9182 B( 53-C , 54-O ) :   2.1060
B( 53-C , 55-O ) :   1.1732 B( 55-O , 56-C ) :   0.9477 B( 56-C , 57-C ) :   1.3481
B( 56-C , 61-C ) :   1.3992 B( 57-C , 58-C ) :   1.3650 B( 57-C , 88-H ) :   1.0004
B( 58-C , 59-C ) :   1.3951 B( 58-C , 64-C ) :   0.9334 B( 59-C , 60-C ) :   1.3472
B( 59-C , 62-C ) :   0.9952 B( 60-C , 61-C ) :   1.3281 B( 60-C , 89-H ) :   0.9937
B( 61-C , 90-H ) :   0.9889 B( 62-C , 63-C ) :   1.3979 B( 62-C , 72-C ) :   1.3314
B( 63-C , 64-C ) :   0.9358 B( 63-C , 69-C ) :   1.3769 B( 64-C , 65-C ) :   1.0114
B( 64-C , 67-C ) :   0.9994 B( 65-C , 66-C ) :   1.1142 B( 65-C , 91-H ) :   0.9396
B( 65-C , 92-H ) :   0.9397 B( 66-C , 93-H ) :   0.9603 B( 66-C , 94-H ) :   0.9591
B( 66-C , 95-H ) :   0.9603 B( 67-C , 68-C ) :   1.1145 B( 67-C , 96-H ) :   0.9346
B( 67-C , 97-H ) :   0.9333 B( 68-C , 98-H ) :   0.9590 B( 68-C , 99-H ) :   0.9580
B( 68-C ,100-H ) :   0.9603 B( 69-C , 70-C ) :   1.3089 B( 69-C ,101-H ) :   0.9985
B( 70-C , 71-C ) :   1.3527 B( 70-C , 73-C ) :   1.0598 B( 71-C , 72-C ) :   1.4006
B( 71-C ,102-H ) :   0.9891 B( 72-C ,103-H ) :   0.9926 B( 73-C , 74-C ) :   1.9531
B( 73-C ,104-H ) :   0.9682 B( 74-C ,105-H ) :   0.9488 B( 74-C ,106-H ) :   0.9484

-----------------------------------------------------------------------------
         ABSORPTION SPECTRUM VIA TRANSITION ELECTRIC DIPOLE MOMENTS
-----------------------------------------------------------------------------
State   Energy  Wavelength   fosc         T2         TX        TY        TZ
        (cm-1)    (nm)                  (au**2)     (au)      (au)      (au)
-----------------------------------------------------------------------------
   0    7249.0   1379.5   0.576922613  26.20100   3.69907   2.37544  -2.62205
   1   14682.9    681.1   0.001302679   0.02921  -0.11809   0.00831   0.12326
   2   17694.3    565.2   0.146674714   2.72896  -0.88587  -0.69143   1.21084
   3   18203.8    549.3   0.195596572   3.53733  -0.77903  -0.77503   1.52636
   4   19646.2    509.0   0.460594968   7.71822   1.67198   0.60180   2.13554
   5   20571.7    486.1   0.003926064   0.06283  -0.16695   0.03426  -0.18380
   6   23402.9    427.3   0.010229995   0.14391   0.16516  -0.04097   0.33904
   7   23835.8    419.5   0.026816906   0.37039  -0.48666  -0.22410   0.28866
   8   24144.5    414.2   0.101926824   1.38978   0.25035   0.20027  -1.13446
   9   24223.6    412.8   0.005900607   0.08019   0.06343  -0.21518  -0.17281
  10   25056.5    399.1   0.056012534   0.73594  -0.58238  -0.31311  -0.54657
  11   25363.6    394.3   0.037564026   0.48757  -0.27570   0.13089   0.62803
  12   26176.8    382.0   0.017518882   0.22033  -0.01615  -0.08120   0.46203
  13   26345.5    379.6   0.001438838   0.01798  -0.07389  -0.07961   0.07863
  14   26553.8    376.6   0.060835525   0.75424  -0.17268  -0.26676   0.80824
  15   26817.4    372.9   0.032995099   0.40505   0.24115  -0.34367   0.47831
  16   27661.0    361.5   0.009387078   0.11172  -0.02172   0.13073  -0.30685
  17   27837.2    359.2   0.012850687   0.15198   0.31267   0.20768  -0.10527
  18   28097.2    355.9   0.013291859   0.15574  -0.03461  -0.00254   0.39311
  19   28875.5    346.3   0.002340232   0.02668  -0.05195  -0.01068  -0.15449
  20   29544.6    338.5   0.126260140   1.40690  -0.01881   0.50558  -1.07282
  21   30002.6    333.3   0.078162637   0.85766  -0.83918  -0.34322   0.18879
  22   30088.0    332.4   0.060330544   0.66011  -0.05513  -0.03703   0.80976
  23   30181.1    331.3   0.143870666   1.56932   0.22080   0.02022   1.23295
  24   30755.3    325.1   0.089563335   0.95871  -0.74924  -0.41291   0.47629
  25   31082.8    321.7   0.001056742   0.01119  -0.08991  -0.05575  -0.00117
  26   31232.5    320.2   0.225924449   2.38140   0.32161  -0.28856   1.48145
  27   31455.4    317.9   0.015896970   0.16638  -0.20458   0.07867  -0.34400
  28   31552.7    316.9   0.049794873   0.51955  -0.07692   0.18200  -0.69318
  29   31750.6    315.0   0.106841406   1.10780  -0.85753  -0.15938  -0.58910
  30   32339.6    309.2   0.158110094   1.60954  -0.76183  -0.37665   0.94196
  31   32729.3    305.5   0.040812740   0.41052   0.14951  -0.35161   0.51433
  32   32867.0    304.3   0.072384896   0.72504   0.75889   0.38580  -0.01682
  33   33810.5    295.8   0.033532973   0.32651  -0.43966  -0.29178  -0.21926
  34   34480.6    290.0   0.475415991   4.53915   0.33815  -0.88865   1.90660
  35   35584.2    281.0   0.036579337   0.33842  -0.35703  -0.42662   0.17012
  36   35737.0    279.8   0.375777780   3.46170   0.42019  -1.29311   1.27004
  37   36008.8    277.7   0.018999227   0.17370  -0.09853  -0.15642   0.37353
  38   36111.7    276.9   0.006798861   0.06198   0.20560  -0.09496  -0.10341
  39   36190.3    276.3   0.043515500   0.39585  -0.11637   0.40266  -0.46922
  40   36267.4    275.7   0.034616927   0.31423  -0.49181  -0.01055   0.26877
  41   36682.0    272.6   0.329317040   2.95554  -0.27608   1.28627  -1.10672
  42   36779.0    271.9   0.092310943   0.82628   0.29243  -0.65242   0.56135
  43   36833.3    271.5   0.005405304   0.04831   0.05190  -0.21092   0.03364
  44   36940.9    270.7   0.029412298   0.26212  -0.47800  -0.15277  -0.10150
  45   37191.3    268.9   0.011233491   0.09944   0.28299  -0.07022   0.12010
  46   37475.1    266.8   0.035182922   0.30908   0.42426   0.10276  -0.34426
  47   37631.4    265.7   0.012838531   0.11232  -0.06791   0.05775  -0.32306
  48   37679.5    265.4   0.063401606   0.55395   0.18362  -0.52505   0.49452
  49   37886.4    263.9   0.006530942   0.05675   0.04416  -0.03403   0.23161
  50   37919.1    263.7   0.001335641   0.01160  -0.09989  -0.01191  -0.03842
  51   38059.9    262.7   0.034478719   0.29824   0.03839  -0.11593   0.53228
  52   38170.3    262.0   0.058694960   0.50623  -0.59101  -0.30434   0.25361
  53   38347.3    260.8   0.058367701   0.50109   0.07130  -0.07083  -0.70070
  54   38542.6    259.5   0.006182739   0.05281  -0.08688  -0.06042  -0.20399
  55   38865.8    257.3   0.009098098   0.07707   0.23523   0.10250   0.10594
  56   39226.4    254.9   0.067815152   0.56915   0.52221  -0.07461   0.53933
  57   39437.5    253.6   0.036223598   0.30238   0.52957  -0.12836  -0.07394
  58   39527.0    253.0   0.010249952   0.08537   0.00688  -0.18742   0.22405
  59   39555.9    252.8   0.221885207   1.84668   0.98620  -0.38620   0.85143
  60   39723.7    251.7   0.049917154   0.41369   0.53163   0.25875  -0.25320
  61   39882.4    250.7   0.027891493   0.23023   0.46161   0.12559  -0.03705
  62   39958.8    250.3   0.051070225   0.42076  -0.37577   0.07934  -0.52274
  63   40042.3    249.7   0.037449670   0.30790   0.40448  -0.12351   0.35922
  64   40240.1    248.5   0.032085232   0.26250   0.13395   0.17784  -0.46144

FINAL SINGLE POINT ENERGY     -4917.725264607814

DIPOLE MOMENT
-------------
                                X             Y             Z
Electronic contribution:    -81.81836      23.84586       7.59302
Nuclear contribution   :     87.98210     -21.46955     -10.72521
                        -----------------------------------------
Total Dipole Moment    :      6.16374       2.37631      -3.13220
                        -----------------------------------------
Magnitude (a.u.)       :      7.31090
Magnitude (Debye)      :     18.58282

Rotational constants in cm-1:     0.001471     0.000493     0.000432
Rotational constants in MHz :    44.090962    14.768097    12.950275

                             ****ORCA TERMINATED NORMALLY****
TOTAL RUN TIME: 0 days 0 hours 15 minutes 37 seconds 909 msec
