                         Program Version 4.2.0 -  RELEASE  -
|  1> # ORCA input file
|  2> # SCF done       -166.086101899544          0.000615225256
|  3> ! CAM-B3LYP def2-SVP def2/J RIJCOSX Grid4 TightSCF
|  4> %maxcore 5000
|  5> %tddft
|  6>     Mode sTDDFT
|  7>     Ethresh 5.0
|  8>     maxcore 5000
|  9> end
| 10>
| 11> %pal
| 12>   nprocs 6
| 13>   end
| 14> * xyz 0 1
| 15>    C       -2.33631        -0.69060         0.77277
| 16>    C       -2.67999        -1.96384         0.36762
| 17>    C       -1.80840        -3.06509         0.30898
| 18>    N       -1.19842        -4.03691         0.21952
| 19>    C       -3.94700        -2.39487        -0.06209
| 20>    N       -4.91765        -2.88623        -0.44013
| 21>    C       -0.99997        -0.28045         1.19374
| 22>    C       -1.03338         1.09662         1.52604
| 23>    C        0.07798         1.77680         1.95597
| 24>    C        1.27916         1.06557         2.06442
| 25>    C        1.30070        -0.30787         1.73130
| 26>    C        0.17460        -0.99789         1.29452
| 27>    S        2.88779        -0.98104         1.94116
| 28>    C        3.49568         0.55255         2.46244
| 29>    C        2.56011         1.52661         2.48074
| 30>    C       -2.40755         1.60840         1.32830
| 31>    O       -2.78952         2.74713         1.52070
| 32>    C       -3.19462         0.45484         0.85659
| 33>    C       -4.54403         0.48359         0.55122
| 34>    C       -5.38239         1.58473         0.63156
| 35>    C       -6.72621         1.50031         0.29420
| 36>    C       -7.69765         2.52058         0.32039
| 37>    C       -8.94513         2.11751        -0.07986
| 38>    C       -9.00831         0.76092        -0.43842
| 39>    S       -7.44415         0.00443        -0.25384
| 40>    C      -10.07828        -0.00171        -0.89303
| 41>    C      -11.41841         0.35438        -1.13282
| 42>    C      -12.18519        -0.68229        -1.58975
| 43>    C      -11.48764        -1.90255        -1.73212
| 44>    S       -9.81762        -1.68704        -1.25954
| 45>    C      -11.99562        -3.10648        -2.17688
| 46>    C      -11.28057        -4.29543        -2.31372
| 47>    S       -9.59048        -4.45145        -1.92126
| 48>    C       -9.54774        -6.13254        -2.37047
| 49>    C      -10.81463        -6.54610        -2.81066
| 50>    C      -11.76908        -5.53200        -2.77702
| 51>    S      -13.45849        -5.65221        -3.23834
| 52>    C      -13.80344        -7.28762        -3.81164
| 53>    O      -14.93015        -7.50945        -4.16241
| 54>    C      -12.76816        -8.38606        -3.87393
| 55>    O      -13.07905        -9.46753        -4.29536
| 56>    S      -11.09227        -8.19696        -3.34953
| 57>    C       -8.29997        -6.76336        -2.22364
| 58>    C       -7.95787        -8.05936        -2.47811
| 59>    C       -6.65832        -8.57411        -2.29839
| 60>    S       -6.35356       -10.26920        -2.59085
| 61>    C       -4.67611       -10.09869        -2.17895
| 62>    C       -4.37363        -8.78783        -1.83083
| 63>    C       -5.48104        -7.92281        -1.91012
| 64>    O       -5.47745        -6.59878        -1.65629
| 65>    C       -4.21877        -5.95865        -1.54332
| 66>    C       -3.28712        -6.67433        -0.58487
| 67>    S       -2.77901        -8.27315        -1.30396
| 68>    C       -3.82109       -11.22361        -2.23202
| 69>    S       -2.12212       -11.18233        -1.85885
| 70>    C       -1.96880       -12.86057        -2.18020
| 71>    C       -3.14989       -13.43500        -2.55420
| 72>    C       -4.21391       -12.50436        -2.59584
| 73>    O       -5.50382       -12.75117        -2.92851
| 74>    C       -5.75183       -13.98198        -3.57760
| 75>    C       -5.17129       -15.16346        -2.81692
| 76>    S       -3.34798       -15.14256        -2.92572
| 77>    H        0.02551         2.82620         2.20167
| 78>    H        0.23888        -2.04584         1.05103
| 79>    H        4.53248         0.62905         2.72668
| 80>    H        2.75447         2.54181         2.77646
| 81>    H       -4.99747        -0.44228         0.21556
| 82>    H       -4.98745         2.53409         0.96190
| 83>    H       -7.45329         3.52075         0.63135
| 84>    H       -9.80510         2.76196        -0.12299
| 85>    H      -11.78425         1.35181        -0.96769
| 86>    H      -13.23092        -0.60298        -1.82923
| 87>    H      -13.04273        -3.13493        -2.44868
| 88>    H       -7.52574        -6.10633        -1.85532
| 89>    H       -8.69239        -8.76707        -2.83361
| 90>    H       -4.45481        -4.95366        -1.18082
| 91>    H       -3.75015        -5.88517        -2.53317
| 92>    H       -2.37574        -6.10142        -0.42408
| 93>    H       -3.78042        -6.86429         0.36848
| 94>    H       -1.02085       -13.34649        -2.07417
| 95>    H       -6.84081       -14.05527        -3.63023
| 96>    H       -5.34180       -13.95844        -4.59631
| 97>    H       -5.49257       -16.10526        -3.25532
| 98>    H       -5.45728       -15.12419        -1.76542
| 99> *
|100>
|101>                          ****END OF INPUT****

CARTESIAN COORDINATES (ANGSTROEM)
---------------------------------
  C     -2.336310   -0.690600    0.772770
  C     -2.679990   -1.963840    0.367620
  C     -1.808400   -3.065090    0.308980
  N     -1.198420   -4.036910    0.219520
  C     -3.947000   -2.394870   -0.062090
  N     -4.917650   -2.886230   -0.440130
  C     -0.999970   -0.280450    1.193740
  C     -1.033380    1.096620    1.526040
  C      0.077980    1.776800    1.955970
  C      1.279160    1.065570    2.064420
  C      1.300700   -0.307870    1.731300
  C      0.174600   -0.997890    1.294520
  S      2.887790   -0.981040    1.941160
  C      3.495680    0.552550    2.462440
  C      2.560110    1.526610    2.480740
  C     -2.407550    1.608400    1.328300
  O     -2.789520    2.747130    1.520700
  C     -3.194620    0.454840    0.856590
  C     -4.544030    0.483590    0.551220
  C     -5.382390    1.584730    0.631560
  C     -6.726210    1.500310    0.294200
  C     -7.697650    2.520580    0.320390
  C     -8.945130    2.117510   -0.079860
  C     -9.008310    0.760920   -0.438420
  S     -7.444150    0.004430   -0.253840
  C    -10.078280   -0.001710   -0.893030
  C    -11.418410    0.354380   -1.132820
  C    -12.185190   -0.682290   -1.589750
  C    -11.487640   -1.902550   -1.732120
  S     -9.817620   -1.687040   -1.259540
  C    -11.995620   -3.106480   -2.176880
  C    -11.280570   -4.295430   -2.313720
  S     -9.590480   -4.451450   -1.921260
  C     -9.547740   -6.132540   -2.370470
  C    -10.814630   -6.546100   -2.810660
  C    -11.769080   -5.532000   -2.777020
  S    -13.458490   -5.652210   -3.238340
  C    -13.803440   -7.287620   -3.811640
  O    -14.930150   -7.509450   -4.162410
  C    -12.768160   -8.386060   -3.873930
  O    -13.079050   -9.467530   -4.295360
  S    -11.092270   -8.196960   -3.349530
  C     -8.299970   -6.763360   -2.223640
  C     -7.957870   -8.059360   -2.478110
  C     -6.658320   -8.574110   -2.298390
  S     -6.353560  -10.269200   -2.590850
  C     -4.676110  -10.098690   -2.178950
  C     -4.373630   -8.787830   -1.830830
  C     -5.481040   -7.922810   -1.910120
  O     -5.477450   -6.598780   -1.656290
  C     -4.218770   -5.958650   -1.543320
  C     -3.287120   -6.674330   -0.584870
  S     -2.779010   -8.273150   -1.303960
  C     -3.821090  -11.223610   -2.232020
  S     -2.122120  -11.182330   -1.858850
  C     -1.968800  -12.860570   -2.180200
  C     -3.149890  -13.435000   -2.554200
  C     -4.213910  -12.504360   -2.595840
  O     -5.503820  -12.751170   -2.928510
  C     -5.751830  -13.981980   -3.577600
  C     -5.171290  -15.163460   -2.816920
  S     -3.347980  -15.142560   -2.925720
  H      0.025510    2.826200    2.201670
  H      0.238880   -2.045840    1.051030
  H      4.532480    0.629050    2.726680
  H      2.754470    2.541810    2.776460
  H     -4.997470   -0.442280    0.215560
  H     -4.987450    2.534090    0.961900
  H     -7.453290    3.520750    0.631350
  H     -9.805100    2.761960   -0.122990
  H    -11.784250    1.351810   -0.967690
  H    -13.230920   -0.602980   -1.829230
  H    -13.042730   -3.134930   -2.448680
  H     -7.525740   -6.106330   -1.855320
  H     -8.692390   -8.767070   -2.833610
  H     -4.454810   -4.953660   -1.180820
  H     -3.750150   -5.885170   -2.533170
  H     -2.375740   -6.101420   -0.424080
  H     -3.780420   -6.864290    0.368480
  H     -1.020850  -13.346490   -2.074170
  H     -6.840810  -14.055270   -3.630230
  H     -5.341800  -13.958440   -4.596310
  H     -5.492570  -16.105260   -3.255320
  H     -5.457280  -15.124190   -1.765420

 Total Charge           Charge          ....    0
 Multiplicity           Mult            ....    1
 Number of Electrons    NEL             ....  506
 Basis Dimension        Dim             .... 1018

ORBITAL ENERGIES
----------------

  NO   OCC          E(Eh)            E(eV)
   0   2.0000     -88.975436     -2421.1447
   1   2.0000     -88.971421     -2421.0355
   2   2.0000     -88.971222     -2421.0300
   3   2.0000     -88.964675     -2420.8519
   4   2.0000     -88.957407     -2420.6541
   5   2.0000     -88.955069     -2420.5905
   6   2.0000     -88.954273     -2420.5688
   7   2.0000     -88.949796     -2420.4470
   8   2.0000     -88.931430     -2419.9472
   9   2.0000     -88.924215     -2419.7509
  10   2.0000     -19.262467      -524.1584
  11   2.0000     -19.253303      -523.9090
  12   2.0000     -19.244009      -523.6561
  13   2.0000     -19.241200      -523.5797
  14   2.0000     -19.194163      -522.2997
  15   2.0000     -14.404730      -391.9726
  16   2.0000     -14.402798      -391.9201
  17   2.0000     -10.409249      -283.2501
  18   2.0000     -10.406739      -283.1818
  19   2.0000     -10.344346      -281.4840
  20   2.0000     -10.340899      -281.3902
  21   2.0000     -10.340053      -281.3671
  22   2.0000     -10.338591      -281.3274
  23   2.0000     -10.338383      -281.3217
  24   2.0000     -10.334621      -281.2193
  25   2.0000     -10.329903      -281.0910
  26   2.0000     -10.328258      -281.0462
  27   2.0000     -10.323445      -280.9152
  28   2.0000     -10.321992      -280.8757
  29   2.0000     -10.321372      -280.8588
  30   2.0000     -10.321131      -280.8523
  31   2.0000     -10.318201      -280.7725
  32   2.0000     -10.316838      -280.7354
  33   2.0000     -10.316533      -280.7271
  34   2.0000     -10.315904      -280.7100
  35   2.0000     -10.313001      -280.6310
  36   2.0000     -10.311377      -280.5868
  37   2.0000     -10.309737      -280.5422
  38   2.0000     -10.309658      -280.5401
  39   2.0000     -10.306661      -280.4585
  40   2.0000     -10.305792      -280.4349
  41   2.0000     -10.301770      -280.3254
  42   2.0000     -10.301638      -280.3218
  43   2.0000     -10.301453      -280.3168
  44   2.0000     -10.301443      -280.3165
  45   2.0000     -10.298538      -280.2375
  46   2.0000     -10.297423      -280.2071
  47   2.0000     -10.294217      -280.1199
  48   2.0000     -10.293899      -280.1112
  49   2.0000     -10.291864      -280.0559
  50   2.0000     -10.289972      -280.0044
  51   2.0000     -10.289118      -279.9811
  52   2.0000     -10.288933      -279.9761
  53   2.0000     -10.288171      -279.9554
  54   2.0000     -10.286677      -279.9147
  55   2.0000     -10.286401      -279.9072
  56   2.0000     -10.282734      -279.8074
  57   2.0000     -10.277085      -279.6537
  58   2.0000     -10.275235      -279.6034
  59   2.0000     -10.272543      -279.5301
  60   2.0000     -10.268198      -279.4119
  61   2.0000     -10.267868      -279.4029
  62   2.0000      -8.071991      -219.6500
  63   2.0000      -8.067284      -219.5220
  64   2.0000      -8.066842      -219.5099
  65   2.0000      -8.060950      -219.3496
  66   2.0000      -8.052183      -219.1110
  67   2.0000      -8.051028      -219.0796
  68   2.0000      -8.050423      -219.0631
  69   2.0000      -8.044437      -218.9003
  70   2.0000      -8.027223      -218.4318
  71   2.0000      -8.019568      -218.2235
  72   2.0000      -6.041811      -164.4060
  73   2.0000      -6.037224      -164.2812
  74   2.0000      -6.037141      -164.2790
  75   2.0000      -6.036240      -164.2544
  76   2.0000      -6.033041      -164.1674
  77   2.0000      -6.032448      -164.1513
  78   2.0000      -6.032116      -164.1422
  79   2.0000      -6.030609      -164.1012
  80   2.0000      -6.028510      -164.0441
  81   2.0000      -6.028265      -164.0374
  82   2.0000      -6.026315      -163.9844
  83   2.0000      -6.022129      -163.8705
  84   2.0000      -6.021723      -163.8594
  85   2.0000      -6.020561      -163.8278
  86   2.0000      -6.019940      -163.8109
  87   2.0000      -6.017407      -163.7420
  88   2.0000      -6.016516      -163.7177
  89   2.0000      -6.015667      -163.6946
  90   2.0000      -6.014018      -163.6497
  91   2.0000      -6.013960      -163.6482
  92   2.0000      -6.012370      -163.6049
  93   2.0000      -6.012126      -163.5983
  94   2.0000      -6.009876      -163.5370
  95   2.0000      -6.005990      -163.4313
  96   2.0000      -5.997687      -163.2054
  97   2.0000      -5.993889      -163.1020
  98   2.0000      -5.989980      -162.9957
  99   2.0000      -5.986456      -162.8997
 100   2.0000      -5.985959      -162.8862
 101   2.0000      -5.979169      -162.7015
 102   2.0000      -1.180272       -32.1168
 103   2.0000      -1.170898       -31.8618
 104   2.0000      -1.160938       -31.5907
 105   2.0000      -1.147816       -31.2337
 106   2.0000      -1.106962       -30.1220
 107   2.0000      -1.022096       -27.8126
 108   2.0000      -1.009623       -27.4732
 109   2.0000      -1.006344       -27.3840
 110   2.0000      -0.995658       -27.0932
 111   2.0000      -0.994703       -27.0672
 112   2.0000      -0.986384       -26.8409
 113   2.0000      -0.983012       -26.7491
 114   2.0000      -0.973987       -26.5035
 115   2.0000      -0.968214       -26.3465
 116   2.0000      -0.937607       -25.5136
 117   2.0000      -0.931952       -25.3597
 118   2.0000      -0.919721       -25.0269
 119   2.0000      -0.916381       -24.9360
 120   2.0000      -0.911320       -24.7983
 121   2.0000      -0.902355       -24.5543
 122   2.0000      -0.888151       -24.1678
 123   2.0000      -0.882728       -24.0202
 124   2.0000      -0.872453       -23.7406
 125   2.0000      -0.866297       -23.5731
 126   2.0000      -0.863861       -23.5069
 127   2.0000      -0.859252       -23.3814
 128   2.0000      -0.854292       -23.2465
 129   2.0000      -0.846787       -23.0423
 130   2.0000      -0.836942       -22.7744
 131   2.0000      -0.835500       -22.7351
 132   2.0000      -0.830676       -22.6039
 133   2.0000      -0.815218       -22.1832
 134   2.0000      -0.808659       -22.0047
 135   2.0000      -0.797077       -21.6896
 136   2.0000      -0.779948       -21.2235
 137   2.0000      -0.767320       -20.8798
 138   2.0000      -0.760955       -20.7066
 139   2.0000      -0.755340       -20.5538
 140   2.0000      -0.753935       -20.5156
 141   2.0000      -0.741594       -20.1798
 142   2.0000      -0.736757       -20.0482
 143   2.0000      -0.726917       -19.7804
 144   2.0000      -0.722646       -19.6642
 145   2.0000      -0.705286       -19.1918
 146   2.0000      -0.702939       -19.1279
 147   2.0000      -0.679319       -18.4852
 148   2.0000      -0.675137       -18.3714
 149   2.0000      -0.671473       -18.2717
 150   2.0000      -0.666350       -18.1323
 151   2.0000      -0.658776       -17.9262
 152   2.0000      -0.654330       -17.8052
 153   2.0000      -0.650139       -17.6912
 154   2.0000      -0.645435       -17.5632
 155   2.0000      -0.640186       -17.4203
 156   2.0000      -0.632452       -17.2099
 157   2.0000      -0.631089       -17.1728
 158   2.0000      -0.627920       -17.0866
 159   2.0000      -0.614585       -16.7237
 160   2.0000      -0.612731       -16.6733
 161   2.0000      -0.607974       -16.5438
 162   2.0000      -0.603384       -16.4189
 163   2.0000      -0.591635       -16.0992
 164   2.0000      -0.590652       -16.0725
 165   2.0000      -0.579537       -15.7700
 166   2.0000      -0.579132       -15.7590
 167   2.0000      -0.576783       -15.6951
 168   2.0000      -0.570934       -15.5359
 169   2.0000      -0.564001       -15.3473
 170   2.0000      -0.562516       -15.3068
 171   2.0000      -0.559144       -15.2151
 172   2.0000      -0.553602       -15.0643
 173   2.0000      -0.548897       -14.9362
 174   2.0000      -0.548582       -14.9277
 175   2.0000      -0.541899       -14.7458
 176   2.0000      -0.538189       -14.6449
 177   2.0000      -0.529524       -14.4091
 178   2.0000      -0.528299       -14.3757
 179   2.0000      -0.524862       -14.2822
 180   2.0000      -0.523378       -14.2418
 181   2.0000      -0.521062       -14.1788
 182   2.0000      -0.520896       -14.1743
 183   2.0000      -0.520119       -14.1532
 184   2.0000      -0.518292       -14.1034
 185   2.0000      -0.511534       -13.9195
 186   2.0000      -0.507278       -13.8037
 187   2.0000      -0.506955       -13.7949
 188   2.0000      -0.506549       -13.7839
 189   2.0000      -0.504031       -13.7154
 190   2.0000      -0.497619       -13.5409
 191   2.0000      -0.495168       -13.4742
 192   2.0000      -0.491152       -13.3649
 193   2.0000      -0.490579       -13.3493
 194   2.0000      -0.488198       -13.2845
 195   2.0000      -0.482676       -13.1343
 196   2.0000      -0.482370       -13.1260
 197   2.0000      -0.479006       -13.0344
 198   2.0000      -0.478586       -13.0230
 199   2.0000      -0.477299       -12.9880
 200   2.0000      -0.477183       -12.9848
 201   2.0000      -0.473511       -12.8849
 202   2.0000      -0.470747       -12.8097
 203   2.0000      -0.469050       -12.7635
 204   2.0000      -0.468173       -12.7396
 205   2.0000      -0.463367       -12.6089
 206   2.0000      -0.456073       -12.4104
 207   2.0000      -0.452550       -12.3145
 208   2.0000      -0.448590       -12.2068
 209   2.0000      -0.447466       -12.1762
 210   2.0000      -0.442990       -12.0544
 211   2.0000      -0.439839       -11.9686
 212   2.0000      -0.438032       -11.9195
 213   2.0000      -0.436479       -11.8772
 214   2.0000      -0.435483       -11.8501
 215   2.0000      -0.432120       -11.7586
 216   2.0000      -0.428660       -11.6644
 217   2.0000      -0.421233       -11.4623
 218   2.0000      -0.419872       -11.4253
 219   2.0000      -0.419650       -11.4193
 220   2.0000      -0.416674       -11.3383
 221   2.0000      -0.415706       -11.3119
 222   2.0000      -0.414696       -11.2844
 223   2.0000      -0.412205       -11.2167
 224   2.0000      -0.409710       -11.1488
 225   2.0000      -0.405066       -11.0224
 226   2.0000      -0.403575       -10.9818
 227   2.0000      -0.401647       -10.9294
 228   2.0000      -0.397556       -10.8181
 229   2.0000      -0.393389       -10.7047
 230   2.0000      -0.390659       -10.6304
 231   2.0000      -0.386145       -10.5075
 232   2.0000      -0.381852       -10.3907
 233   2.0000      -0.380273       -10.3478
 234   2.0000      -0.368098       -10.0165
 235   2.0000      -0.365113        -9.9352
 236   2.0000      -0.357614        -9.7312
 237   2.0000      -0.352756        -9.5990
 238   2.0000      -0.349826        -9.5192
 239   2.0000      -0.342882        -9.3303
 240   2.0000      -0.339452        -9.2370
 241   2.0000      -0.332379        -9.0445
 242   2.0000      -0.324833        -8.8392
 243   2.0000      -0.315111        -8.5746
 244   2.0000      -0.310740        -8.4557
 245   2.0000      -0.302012        -8.2182
 246   2.0000      -0.299318        -8.1449
 247   2.0000      -0.285398        -7.7661
 248   2.0000      -0.280164        -7.6236
 249   2.0000      -0.273106        -7.4316
 250   2.0000      -0.264016        -7.1843
 251   2.0000      -0.238940        -6.5019
 252   2.0000      -0.211444        -5.7537
 253   0.0000      -0.113401        -3.0858
 254   0.0000      -0.064762        -1.7623
 255   0.0000      -0.056738        -1.5439
 256   0.0000      -0.044187        -1.2024
 257   0.0000      -0.028372        -0.7721

MULLIKEN ATOMIC CHARGES
-----------------------
   0 C :    0.346451
   1 C :   -0.378944
   2 C :   -0.175250
   3 N :    0.107317
   4 C :   -0.153817
   5 N :    0.086333
   6 C :    0.006555
   7 C :   -0.006453
   8 C :   -0.076949
   9 C :    0.112812
  10 C :   -0.094128
  11 C :   -0.033817
  12 S :    0.127601
  13 C :   -0.053168
  14 C :    0.024739
  15 C :    0.135561
  16 O :   -0.166455
  17 C :   -0.090170
  18 C :   -0.055135
  19 C :   -0.019209
  20 C :    0.008857
  21 C :    0.017577
  22 C :    0.043231
  23 C :   -0.050523
  24 S :    0.090760
  25 C :   -0.003950
  26 C :    0.020354
  27 C :    0.049532
  28 C :   -0.058432
  29 S :    0.083265
  30 C :    0.018717
  31 C :   -0.116456
  32 S :    0.137171
  33 C :   -0.071970
  34 C :   -0.037505
  35 C :   -0.015503
  36 S :    0.076614
  37 C :    0.080012
  38 O :   -0.129473
  39 C :    0.088353
  40 O :   -0.132534
  41 S :    0.073655
  42 C :    0.001373
  43 C :    0.047715
  44 C :   -0.156251
  45 S :    0.156986
  46 C :   -0.097191
  47 C :   -0.081032
  48 C :    0.198194
  49 O :   -0.304994
  50 C :    0.229926
  51 C :   -0.100397
  52 S :    0.000164
  53 C :   -0.166850
  54 S :    0.155892
  55 C :   -0.121384
  56 C :   -0.031991
  57 C :    0.174063
  58 O :   -0.317008
  59 C :    0.228807
  60 C :   -0.111739
  61 S :    0.013494
  62 H :   -0.018375
  63 H :   -0.012333
  64 H :    0.033327
  65 H :   -0.011171
  66 H :    0.018101
  67 H :    0.012177
  68 H :   -0.003973
  69 H :   -0.006581
  70 H :   -0.009216
  71 H :   -0.001807
  72 H :    0.011721
  73 H :    0.016891
  74 H :   -0.008517
  75 H :    0.034868
  76 H :    0.030187
  77 H :    0.080630
  78 H :    0.068403
  79 H :    0.023211
  80 H :    0.036068
  81 H :    0.035800
  82 H :    0.062231
  83 H :    0.074953
Sum of atomic charges:   -0.0000000

LOEWDIN ATOMIC CHARGES
----------------------
   0 C :    0.078306
   1 C :   -0.179465
   2 C :   -0.009108
   3 N :   -0.091781
   4 C :   -0.008421
   5 N :   -0.087364
   6 C :   -0.020568
   7 C :   -0.049105
   8 C :    0.016760
   9 C :   -0.039020
  10 C :   -0.149081
  11 C :   -0.015955
  12 S :    0.419670
  13 C :   -0.156096
  14 C :   -0.058996
  15 C :    0.080941
  16 O :   -0.161749
  17 C :   -0.119741
  18 C :    0.042968
  19 C :   -0.078835
  20 C :   -0.101526
  21 C :   -0.052883
  22 C :   -0.007559
  23 C :   -0.202471
  24 S :    0.415969
  25 C :   -0.140614
  26 C :   -0.052194
  27 C :   -0.006312
  28 C :   -0.175582
  29 S :    0.404128
  30 C :   -0.035577
  31 C :   -0.213884
  32 S :    0.466248
  33 C :   -0.145277
  34 C :   -0.237380
  35 C :   -0.196019
  36 S :    0.390709
  37 C :   -0.110192
  38 O :   -0.102581
  39 C :   -0.113429
  40 O :   -0.106010
  41 S :    0.399576
  42 C :   -0.084129
  43 C :   -0.008067
  44 C :   -0.221672
  45 S :    0.457321
  46 C :   -0.179689
  47 C :   -0.233705
  48 C :    0.022438
  49 O :   -0.076928
  50 C :    0.071764
  51 C :   -0.136048
  52 S :    0.286955
  53 C :   -0.227483
  54 S :    0.459810
  55 C :   -0.206741
  56 C :   -0.226274
  57 C :   -0.006143
  58 O :   -0.099752
  59 C :    0.073794
  60 C :   -0.141260
  61 S :    0.282404
  62 H :    0.037654
  63 H :    0.038351
  64 H :    0.026962
  65 H :    0.033397
  66 H :    0.028070
  67 H :    0.037962
  68 H :    0.036889
  69 H :    0.034984
  70 H :    0.034263
  71 H :    0.038003
  72 H :    0.038497
  73 H :    0.033067
  74 H :    0.016318
  75 H :    0.030214
  76 H :    0.020320
  77 H :    0.039305
  78 H :    0.030467
  79 H :    0.025890
  80 H :    0.032364
  81 H :    0.021364
  82 H :    0.036916
  83 H :    0.031648

  Mayer bond orders larger than 0.100000
B(  0-C ,  1-C ) :   1.5159 B(  0-C ,  6-C ) :   0.9848 B(  0-C , 17-C ) :   1.1616
B(  1-C ,  2-C ) :   1.1677 B(  1-C ,  4-C ) :   1.1727 B(  2-C ,  3-N ) :   2.8811
B(  4-C ,  5-N ) :   2.8387 B(  6-C ,  7-C ) :   1.2710 B(  6-C , 11-C ) :   1.4274
B(  7-C ,  8-C ) :   1.4402 B(  7-C , 15-C ) :   0.9289 B(  8-C ,  9-C ) :   1.2338
B(  8-C , 62-H ) :   1.0153 B(  9-C , 10-C ) :   1.3181 B(  9-C , 14-C ) :   1.1726
B( 10-C , 11-C ) :   1.3121 B( 10-C , 12-S ) :   1.0931 B( 11-C , 63-H ) :   0.9820
B( 12-S , 13-C ) :   1.1259 B( 13-C , 14-C ) :   1.6263 B( 13-C , 64-H ) :   0.9690
B( 14-C , 65-H ) :   0.9991 B( 15-C , 16-O ) :   2.1950 B( 15-C , 17-C ) :   0.9689
B( 17-C , 18-C ) :   1.4154 B( 18-C , 19-C ) :   1.3279 B( 18-C , 66-H ) :   0.9385
B( 19-C , 20-C ) :   1.3495 B( 19-C , 67-H ) :   0.9836 B( 20-C , 21-C ) :   1.2216
B( 20-C , 24-S ) :   1.1041 B( 21-C , 22-C ) :   1.4885 B( 21-C , 68-H ) :   1.0014
B( 22-C , 23-C ) :   1.2618 B( 22-C , 69-H ) :   0.9967 B( 23-C , 24-S ) :   1.0518
B( 23-C , 25-C ) :   1.4016 B( 25-C , 26-C ) :   1.2360 B( 25-C , 29-S ) :   1.0964
B( 26-C , 27-C ) :   1.5303 B( 26-C , 70-H ) :   0.9943 B( 27-C , 28-C ) :   1.1928
B( 27-C , 71-H ) :   0.9988 B( 28-C , 29-S ) :   1.0364 B( 28-C , 30-C ) :   1.5018
B( 30-C , 31-C ) :   1.2705 B( 30-C , 72-H ) :   0.9575 B( 31-C , 32-S ) :   1.0692
B( 31-C , 35-C ) :   1.4350 B( 32-S , 33-C ) :   1.1538 B( 33-C , 34-C ) :   1.4202
B( 33-C , 42-C ) :   1.2159 B( 34-C , 35-C ) :   1.3801 B( 34-C , 41-S ) :   0.9603
B( 35-C , 36-S ) :   0.9841 B( 36-S , 37-C ) :   1.0461 B( 36-S , 38-O ) :   0.1377
B( 37-C , 38-O ) :   2.1604 B( 37-C , 39-C ) :   0.7763 B( 39-C , 40-O ) :   2.1547
B( 39-C , 41-S ) :   1.0603 B( 40-O , 41-S ) :   0.1413 B( 42-C , 43-C ) :   1.5783
B( 42-C , 73-H ) :   0.9333 B( 43-C , 44-C ) :   1.2362 B( 43-C , 74-H ) :   0.9388
B( 44-C , 45-S ) :   1.0461 B( 44-C , 46-C ) :   0.1017 B( 44-C , 48-C ) :   1.4157
B( 45-S , 46-C ) :   1.1514 B( 46-C , 47-C ) :   1.4938 B( 46-C , 53-C ) :   1.1958
B( 47-C , 48-C ) :   1.2801 B( 47-C , 52-S ) :   0.9927 B( 48-C , 49-O ) :   1.1675
B( 49-O , 50-C ) :   0.9192 B( 50-C , 51-C ) :   1.0480 B( 50-C , 75-H ) :   0.9337
B( 50-C , 76-H ) :   0.9477 B( 51-C , 52-S ) :   0.9914 B( 51-C , 77-H ) :   0.9306
B( 51-C , 78-H ) :   0.9425 B( 53-C , 54-S ) :   1.1263 B( 53-C , 57-C ) :   1.4703
B( 54-S , 55-C ) :   1.1611 B( 55-C , 56-C ) :   1.5444 B( 55-C , 79-H ) :   0.9736
B( 56-C , 57-C ) :   1.2537 B( 56-C , 61-S ) :   0.9747 B( 57-C , 58-O ) :   1.1331
B( 58-O , 59-C ) :   0.9491 B( 59-C , 60-C ) :   1.0403 B( 59-C , 80-H ) :   0.9517
B( 59-C , 81-H ) :   0.9521 B( 60-C , 61-S ) :   1.0130 B( 60-C , 82-H ) :   0.9493
B( 60-C , 83-H ) :   0.9434

-----------------------------------------------------------------------------
         ABSORPTION SPECTRUM VIA TRANSITION ELECTRIC DIPOLE MOMENTS
-----------------------------------------------------------------------------
State   Energy  Wavelength   fosc         T2         TX        TY        TZ
        (cm-1)    (nm)                  (au**2)     (au)      (au)      (au)
-----------------------------------------------------------------------------
   0    7783.8   1284.7   0.601334590  25.43313   2.29178   4.18468   1.63381
   1   15400.5    649.3   0.838743458  17.92953  -3.91652   1.50853  -0.56103
   2   18332.8    545.5   0.664282613  11.92887  -2.74327   2.09441  -0.12960
   3   19900.9    502.5   0.052230074   0.86402  -0.15125   0.89925   0.18026
   4   20149.4    496.3   0.275170947   4.49590  -1.49553   1.50213   0.05375
   5   22131.4    451.8   0.389211906   5.78965  -2.34165   0.23626  -0.50050
   6   23199.5    431.0   0.326797916   4.63742   0.89021  -1.94038  -0.28266
   7   24704.4    404.8   0.272840666   3.63589   1.73154   0.55045   0.57850
   8   24997.5    400.0   0.112656205   1.48366   0.64775  -1.02352  -0.12844
   9   25557.0    391.3   0.042964008   0.55344  -0.69131   0.25182  -0.11006
  10   25902.8    386.1   0.004697864   0.05971   0.03357  -0.23386  -0.06238
  11   26350.7    379.5   0.027327199   0.34141  -0.53070  -0.13906  -0.20108
  12   27159.0    368.2   0.000029404   0.00036  -0.00872  -0.01263  -0.01100
  13   27331.6    365.9   0.005318580   0.06406   0.23950   0.04948   0.06524
  14   27641.3    361.8   0.024405850   0.29068  -0.41162  -0.30083  -0.17536
  15   29238.1    342.0   0.047572319   0.53565  -0.03084   0.71067   0.17219
  16   29521.0    338.7   0.161492797   1.80093  -0.96250  -0.83362  -0.42381
  17   29825.5    335.3   0.000411251   0.00454  -0.05711  -0.03459  -0.00901
  18   29897.3    334.5   0.036088558   0.39739   0.61613  -0.05925   0.11941
  19   29991.4    333.4   0.000097873   0.00107   0.02896   0.00177  -0.01524
  20   30366.4    329.3   0.017916326   0.19424  -0.08589  -0.41201  -0.13080
  21   31567.6    316.8   0.300429000   3.13311   1.43057   0.88234   0.55503
  22   32066.8    311.8   0.001386818   0.01424  -0.01668  -0.11319  -0.03388
  23   32079.9    311.7   0.005808197   0.05961   0.06007   0.23098   0.05145
  24   32792.2    305.0   0.229175714   2.30077   1.42939  -0.43982   0.25331
  25   33018.4    302.9   0.033034205   0.32937   0.53928   0.12305   0.15299
  26   33347.1    299.9   0.033972289   0.33538  -0.30895   0.48439   0.07278
  27   33654.9    297.1   0.065574468   0.64145   0.75825   0.11465   0.23098
  28   34126.1    293.0   0.062264407   0.60066   0.69581   0.26901   0.21009
  29   34582.3    289.2   0.077325249   0.73611  -0.46787  -0.65064  -0.30640
  30   34629.2    288.8   0.061857181   0.58806   0.42032   0.60753   0.20566
  31   34759.4    287.7   0.309645096   2.93270  -1.03333  -1.23296  -0.58713
  32   35045.6    285.3   0.132511894   1.24479   0.51710   0.92418   0.35113
  33   35506.0    281.6   0.009963271   0.09238   0.15284   0.23667   0.11406
  34   35840.3    279.0   0.018568612   0.17056   0.03450   0.39384   0.11941
  35   36088.3    277.1   0.002855447   0.02605  -0.05018   0.15145   0.02435
  36   36267.0    275.7   0.047073157   0.42730  -0.06910   0.63853   0.12172
  37   36770.2    272.0   0.000132241   0.00118  -0.00027  -0.02272   0.02584
  38   37244.6    268.5   0.205266640   1.81439   0.45520   1.20567   0.39184
  39   37697.0    265.3   0.001608222   0.01404  -0.03393   0.10650   0.03938
  40   37834.0    264.3   0.063945691   0.55642   0.14450   0.70337   0.20202
  41   37940.7    263.6   0.000884437   0.00767   0.01060   0.08684   0.00450
  42   38462.4    260.0   0.016531557   0.14150   0.20792  -0.31134  -0.03658
  43   38819.1    257.6   0.115909738   0.98299  -0.49652  -0.79331  -0.32729
  44   39055.2    256.0   0.002000276   0.01686  -0.04054   0.12335   0.00119
  45   39151.7    255.4   0.014155759   0.11903   0.31642  -0.13138   0.04057
  46   39677.1    252.0   0.014043511   0.11652   0.18195   0.27280   0.09485
  47   40109.8    249.3   0.062964747   0.51680   0.18124  -0.68607  -0.11512

FINAL SINGLE POINT ENERGY     -6191.492802801267

DIPOLE MOMENT
-------------
                                X             Y             Z
Electronic contribution:    -16.92964      -8.42350      -7.07802
Nuclear contribution   :     16.65364       9.11530       7.34948
                        -----------------------------------------
Total Dipole Moment    :     -0.27601       0.69180       0.27147
                        -----------------------------------------
Magnitude (a.u.)       :      0.79275
Magnitude (Debye)      :      2.01502

Rotational constants in cm-1:     0.000845     0.000560     0.000337
Rotational constants in MHz :    25.342105    16.800989    10.112848

                             ****ORCA TERMINATED NORMALLY****
TOTAL RUN TIME: 0 days 0 hours 8 minutes 19 seconds 335 msec
