                         Program Version 4.2.0 -  RELEASE  -
|  1> # ORCA input file
|  2> # SCF done       -180.865048802361          0.000348477034
|  3> ! CAM-B3LYP def2-SVP def2/J RIJCOSX Grid4 TightSCF
|  4> %maxcore 5000
|  5> %tddft
|  6>     Mode sTDDFT
|  7>     Ethresh 5.0
|  8>     maxcore 5000
|  9> end
| 10>
| 11> %pal
| 12>   nprocs 6
| 13>   end
| 14> * xyz 0 1
| 15>    C      -19.37288       -11.13873        -0.62034
| 16>    C      -18.06026       -11.50830        -0.80716
| 17>    C      -17.60236       -12.84018        -0.78968
| 18>    N      -17.15770       -13.89981        -0.79065
| 19>    C      -16.98365       -10.63422        -1.05398
| 20>    N      -16.04642       -10.00177        -1.26216
| 21>    C      -20.48014       -12.06286        -0.38588
| 22>    C      -21.67995       -11.31604        -0.28352
| 23>    C      -22.89989       -11.90299        -0.05470
| 24>    C      -22.94047       -13.29449         0.08311
| 25>    C      -21.73829       -14.03138        -0.02077
| 26>    C      -20.50283       -13.43742        -0.25504
| 27>    S      -22.02350       -15.73155         0.18657
| 28>    C      -23.71556       -15.44549         0.40707
| 29>    C      -24.05812       -14.14133         0.32949
| 30>    C      -21.37523        -9.88081        -0.44604
| 31>    O      -22.17815        -8.96697        -0.42278
| 32>    C      -19.91188        -9.80256        -0.63018
| 33>    C      -19.19815        -8.62759        -0.74445
| 34>    C      -19.75107        -7.35009        -0.73562
| 35>    C      -18.98385        -6.20282        -0.78663
| 36>    C      -19.45156        -4.86865        -0.75194
| 37>    C      -18.46252        -3.92946        -0.76891
| 38>    C      -17.16310        -4.47754        -0.82123
| 39>    S      -17.23684        -6.22558        -0.86628
| 40>    C      -15.94909        -3.81508        -0.80202
| 41>    C      -15.70920        -2.42520        -0.68551
| 42>    C      -14.39093        -2.10083        -0.62626
| 43>    C      -13.50335        -3.21196        -0.69926
| 44>    S      -14.44237        -4.68927        -0.88182
| 45>    C      -12.14781        -3.14615        -0.54508
| 46>    C      -11.19684        -4.21356        -0.56985
| 47>    C       -9.95816        -4.01152         0.09018
| 48>    C       -9.00458        -4.98998         0.20144
| 49>    C       -9.27009        -6.21713        -0.40773
| 50>    C      -10.48140        -6.40224        -1.12601
| 51>    C      -11.45262        -5.43645        -1.20857
| 52>    O      -10.45840        -7.64934        -1.65350
| 53>    C       -9.27665        -8.17753        -1.23064
| 54>    N       -8.55282        -7.36149        -0.49615
| 55>    C       -8.88561        -9.48687        -1.56019
| 56>    C       -7.74149       -10.00999        -1.01567
| 57>    C       -7.19707       -11.30479        -1.22025
| 58>    C       -6.07999       -11.55258        -0.48552
| 59>    C       -5.69817       -10.46620         0.33911
| 60>    S       -6.77477        -9.09936         0.11579
| 61>    C       -4.66326       -10.43439         1.25508
| 62>    C       -3.71038       -11.44054         1.53564
| 63>    C       -2.85381       -11.11906         2.54470
| 64>    C       -3.08914        -9.84517         3.11610
| 65>    S       -4.42469        -9.05960         2.30756
| 66>    C       -2.42807        -9.29930         4.19651
| 67>    C       -2.72904        -8.04710         4.72915
| 68>    C       -2.24043        -7.47662         5.88115
| 69>    C       -1.51348        -8.02673         6.99378
| 70>    C       -1.53042        -9.33140         7.43106
| 71>    C       -0.82030        -9.79285         8.55632
| 72>    N       -0.24586       -10.23410         9.44789
| 73>    C       -2.34429       -10.34587         6.89019
| 74>    N       -3.01781       -11.20418         6.53021
| 75>    C       -0.93053        -6.90648         7.73107
| 76>    C       -1.45591        -5.69762         7.20695
| 77>    C       -2.34242        -6.00967         6.06881
| 78>    O       -2.98959        -5.23433         5.39776
| 79>    C       -1.13317        -4.46793         7.72589
| 80>    C       -0.24313        -4.42616         8.80435
| 81>    C        0.28767        -5.63624         9.30844
| 82>    C       -0.04452        -6.88305         8.78904
| 83>    S        1.37192        -5.34394        10.63200
| 84>    C        1.10581        -3.63904        10.50540
| 85>    C        0.24885        -3.29729         9.51908
| 86>    H      -23.79576       -11.30600         0.01897
| 87>    H      -19.61567       -14.04441        -0.32339
| 88>    H      -24.35783       -16.28615         0.58445
| 89>    H      -25.06259       -13.77489         0.44170
| 90>    H      -18.11991        -8.68881        -0.83066
| 91>    H      -20.82401        -7.24321        -0.66806
| 92>    H      -20.50312        -4.64748        -0.70808
| 93>    H      -18.63394        -2.86822        -0.74270
| 94>    H      -16.51246        -1.71279        -0.63038
| 95>    H      -14.01616        -1.09772        -0.52290
| 96>    H      -11.75069        -2.16573        -0.31098
| 97>    H       -9.78292        -3.05068         0.55168
| 98>    H       -8.08014        -4.83304         0.73190
| 99>    H      -12.35171        -5.61041        -1.77442
|100>    H       -9.50915       -10.06604        -2.22116
|101>    H       -7.65772       -12.00534        -1.89394
|102>    H       -5.54040       -12.48253        -0.49980
|103>    H       -3.68352       -12.36700         0.99105
|104>    H       -2.07276       -11.76038         2.91207
|105>    H       -1.63612        -9.89151         4.63167
|106>    H       -3.37727        -7.40246         4.14221
|107>    H       -1.55617        -3.56494         7.31367
|108>    H        0.38866        -7.77750         9.20516
|109>    H        1.61656        -2.98922        11.18915
|110>    H       -0.03597        -2.28574         9.29237
|111> *
|112>
|113>                          ****END OF INPUT****

CARTESIAN COORDINATES (ANGSTROEM)
---------------------------------
  C    -19.372880  -11.138730   -0.620340
  C    -18.060260  -11.508300   -0.807160
  C    -17.602360  -12.840180   -0.789680
  N    -17.157700  -13.899810   -0.790650
  C    -16.983650  -10.634220   -1.053980
  N    -16.046420  -10.001770   -1.262160
  C    -20.480140  -12.062860   -0.385880
  C    -21.679950  -11.316040   -0.283520
  C    -22.899890  -11.902990   -0.054700
  C    -22.940470  -13.294490    0.083110
  C    -21.738290  -14.031380   -0.020770
  C    -20.502830  -13.437420   -0.255040
  S    -22.023500  -15.731550    0.186570
  C    -23.715560  -15.445490    0.407070
  C    -24.058120  -14.141330    0.329490
  C    -21.375230   -9.880810   -0.446040
  O    -22.178150   -8.966970   -0.422780
  C    -19.911880   -9.802560   -0.630180
  C    -19.198150   -8.627590   -0.744450
  C    -19.751070   -7.350090   -0.735620
  C    -18.983850   -6.202820   -0.786630
  C    -19.451560   -4.868650   -0.751940
  C    -18.462520   -3.929460   -0.768910
  C    -17.163100   -4.477540   -0.821230
  S    -17.236840   -6.225580   -0.866280
  C    -15.949090   -3.815080   -0.802020
  C    -15.709200   -2.425200   -0.685510
  C    -14.390930   -2.100830   -0.626260
  C    -13.503350   -3.211960   -0.699260
  S    -14.442370   -4.689270   -0.881820
  C    -12.147810   -3.146150   -0.545080
  C    -11.196840   -4.213560   -0.569850
  C     -9.958160   -4.011520    0.090180
  C     -9.004580   -4.989980    0.201440
  C     -9.270090   -6.217130   -0.407730
  C    -10.481400   -6.402240   -1.126010
  C    -11.452620   -5.436450   -1.208570
  O    -10.458400   -7.649340   -1.653500
  C     -9.276650   -8.177530   -1.230640
  N     -8.552820   -7.361490   -0.496150
  C     -8.885610   -9.486870   -1.560190
  C     -7.741490  -10.009990   -1.015670
  C     -7.197070  -11.304790   -1.220250
  C     -6.079990  -11.552580   -0.485520
  C     -5.698170  -10.466200    0.339110
  S     -6.774770   -9.099360    0.115790
  C     -4.663260  -10.434390    1.255080
  C     -3.710380  -11.440540    1.535640
  C     -2.853810  -11.119060    2.544700
  C     -3.089140   -9.845170    3.116100
  S     -4.424690   -9.059600    2.307560
  C     -2.428070   -9.299300    4.196510
  C     -2.729040   -8.047100    4.729150
  C     -2.240430   -7.476620    5.881150
  C     -1.513480   -8.026730    6.993780
  C     -1.530420   -9.331400    7.431060
  C     -0.820300   -9.792850    8.556320
  N     -0.245860  -10.234100    9.447890
  C     -2.344290  -10.345870    6.890190
  N     -3.017810  -11.204180    6.530210
  C     -0.930530   -6.906480    7.731070
  C     -1.455910   -5.697620    7.206950
  C     -2.342420   -6.009670    6.068810
  O     -2.989590   -5.234330    5.397760
  C     -1.133170   -4.467930    7.725890
  C     -0.243130   -4.426160    8.804350
  C      0.287670   -5.636240    9.308440
  C     -0.044520   -6.883050    8.789040
  S      1.371920   -5.343940   10.632000
  C      1.105810   -3.639040   10.505400
  C      0.248850   -3.297290    9.519080
  H    -23.795760  -11.306000    0.018970
  H    -19.615670  -14.044410   -0.323390
  H    -24.357830  -16.286150    0.584450
  H    -25.062590  -13.774890    0.441700
  H    -18.119910   -8.688810   -0.830660
  H    -20.824010   -7.243210   -0.668060
  H    -20.503120   -4.647480   -0.708080
  H    -18.633940   -2.868220   -0.742700
  H    -16.512460   -1.712790   -0.630380
  H    -14.016160   -1.097720   -0.522900
  H    -11.750690   -2.165730   -0.310980
  H     -9.782920   -3.050680    0.551680
  H     -8.080140   -4.833040    0.731900
  H    -12.351710   -5.610410   -1.774420
  H     -9.509150  -10.066040   -2.221160
  H     -7.657720  -12.005340   -1.893940
  H     -5.540400  -12.482530   -0.499800
  H     -3.683520  -12.367000    0.991050
  H     -2.072760  -11.760380    2.912070
  H     -1.636120   -9.891510    4.631670
  H     -3.377270   -7.402460    4.142210
  H     -1.556170   -3.564940    7.313670
  H      0.388660   -7.777500    9.205160
  H      1.616560   -2.989220   11.189150
  H     -0.035970   -2.285740    9.292370

 Total Charge           Charge          ....    0
 Multiplicity           Mult            ....    1
 Number of Electrons    NEL             ....  522
 Basis Dimension        Dim             .... 1143

ORBITAL ENERGIES
----------------

  NO   OCC          E(Eh)            E(eV)
   0   2.0000     -88.961483     -2420.7650
   1   2.0000     -88.961143     -2420.7558
   2   2.0000     -88.958966     -2420.6965
   3   2.0000     -88.956279     -2420.6234
   4   2.0000     -88.955512     -2420.6025
   5   2.0000     -88.953770     -2420.5551
   6   2.0000     -19.301976      -525.2335
   7   2.0000     -19.201946      -522.5115
   8   2.0000     -19.196919      -522.3747
   9   2.0000     -14.413322      -392.2064
  10   2.0000     -14.405082      -391.9822
  11   2.0000     -14.403150      -391.9296
  12   2.0000     -14.398580      -391.8053
  13   2.0000     -14.396130      -391.7386
  14   2.0000     -10.376226      -282.3515
  15   2.0000     -10.352590      -281.7083
  16   2.0000     -10.347157      -281.5604
  17   2.0000     -10.340121      -281.3690
  18   2.0000     -10.332777      -281.1692
  19   2.0000     -10.330888      -281.1178
  20   2.0000     -10.330613      -281.1103
  21   2.0000     -10.330187      -281.0987
  22   2.0000     -10.328150      -281.0432
  23   2.0000     -10.327988      -281.0388
  24   2.0000     -10.323831      -280.9257
  25   2.0000     -10.322430      -280.8876
  26   2.0000     -10.321119      -280.8519
  27   2.0000     -10.320886      -280.8456
  28   2.0000     -10.319275      -280.8018
  29   2.0000     -10.319130      -280.7978
  30   2.0000     -10.312528      -280.6182
  31   2.0000     -10.311886      -280.6007
  32   2.0000     -10.308376      -280.5052
  33   2.0000     -10.307110      -280.4707
  34   2.0000     -10.306625      -280.4575
  35   2.0000     -10.306471      -280.4533
  36   2.0000     -10.305800      -280.4351
  37   2.0000     -10.304889      -280.4103
  38   2.0000     -10.304484      -280.3993
  39   2.0000     -10.303563      -280.3742
  40   2.0000     -10.303457      -280.3713
  41   2.0000     -10.302643      -280.3492
  42   2.0000     -10.302487      -280.3449
  43   2.0000     -10.301738      -280.3246
  44   2.0000     -10.301174      -280.3092
  45   2.0000     -10.301110      -280.3075
  46   2.0000     -10.300586      -280.2932
  47   2.0000     -10.298481      -280.2359
  48   2.0000     -10.296871      -280.1921
  49   2.0000     -10.296848      -280.1915
  50   2.0000     -10.295887      -280.1653
  51   2.0000     -10.295170      -280.1458
  52   2.0000     -10.293599      -280.1031
  53   2.0000     -10.292639      -280.0770
  54   2.0000     -10.290445      -280.0172
  55   2.0000     -10.290081      -280.0074
  56   2.0000     -10.289854      -280.0012
  57   2.0000     -10.289429      -279.9896
  58   2.0000     -10.288365      -279.9606
  59   2.0000     -10.287103      -279.9263
  60   2.0000     -10.286965      -279.9226
  61   2.0000     -10.285111      -279.8721
  62   2.0000     -10.283346      -279.8241
  63   2.0000     -10.283326      -279.8235
  64   2.0000     -10.282929      -279.8127
  65   2.0000     -10.281951      -279.7861
  66   2.0000     -10.280440      -279.7450
  67   2.0000     -10.277097      -279.6540
  68   2.0000     -10.273783      -279.5638
  69   2.0000     -10.273273      -279.5500
  70   2.0000     -10.270636      -279.4782
  71   2.0000      -8.057623      -219.2591
  72   2.0000      -8.057508      -219.2560
  73   2.0000      -8.055226      -219.1938
  74   2.0000      -8.051500      -219.0925
  75   2.0000      -8.050834      -219.0743
  76   2.0000      -8.050003      -219.0517
  77   2.0000      -6.027247      -164.0097
  78   2.0000      -6.027240      -164.0095
  79   2.0000      -6.024718      -163.9409
  80   2.0000      -6.023197      -163.8995
  81   2.0000      -6.023072      -163.8961
  82   2.0000      -6.021117      -163.8429
  83   2.0000      -6.020825      -163.8350
  84   2.0000      -6.020454      -163.8249
  85   2.0000      -6.019510      -163.7992
  86   2.0000      -6.018652      -163.7759
  87   2.0000      -6.018486      -163.7713
  88   2.0000      -6.017088      -163.7333
  89   2.0000      -6.016905      -163.7283
  90   2.0000      -6.016177      -163.7085
  91   2.0000      -6.015244      -163.6831
  92   2.0000      -6.012650      -163.6125
  93   2.0000      -6.011820      -163.5899
  94   2.0000      -6.011667      -163.5858
  95   2.0000      -1.231358       -33.5070
  96   2.0000      -1.116023       -30.3685
  97   2.0000      -1.110043       -30.2058
  98   2.0000      -1.030214       -28.0336
  99   2.0000      -1.011034       -27.5116
 100   2.0000      -1.009923       -27.4814
 101   2.0000      -1.009146       -27.4603
 102   2.0000      -1.002571       -27.2813
 103   2.0000      -0.998645       -27.1745
 104   2.0000      -0.992833       -27.0164
 105   2.0000      -0.989661       -26.9300
 106   2.0000      -0.987107       -26.8605
 107   2.0000      -0.982739       -26.7417
 108   2.0000      -0.976314       -26.5669
 109   2.0000      -0.974540       -26.5186
 110   2.0000      -0.967511       -26.3273
 111   2.0000      -0.964136       -26.2355
 112   2.0000      -0.925566       -25.1859
 113   2.0000      -0.918678       -24.9985
 114   2.0000      -0.915150       -24.9025
 115   2.0000      -0.906924       -24.6787
 116   2.0000      -0.900327       -24.4992
 117   2.0000      -0.888629       -24.1808
 118   2.0000      -0.880199       -23.9514
 119   2.0000      -0.872537       -23.7429
 120   2.0000      -0.871889       -23.7253
 121   2.0000      -0.866390       -23.5757
 122   2.0000      -0.865236       -23.5443
 123   2.0000      -0.862798       -23.4779
 124   2.0000      -0.855656       -23.2836
 125   2.0000      -0.846082       -23.0231
 126   2.0000      -0.841718       -22.9043
 127   2.0000      -0.835788       -22.7430
 128   2.0000      -0.833821       -22.6894
 129   2.0000      -0.822325       -22.3766
 130   2.0000      -0.814212       -22.1558
 131   2.0000      -0.808331       -21.9958
 132   2.0000      -0.806459       -21.9449
 133   2.0000      -0.789772       -21.4908
 134   2.0000      -0.776937       -21.1415
 135   2.0000      -0.761116       -20.7110
 136   2.0000      -0.750992       -20.4355
 137   2.0000      -0.741886       -20.1877
 138   2.0000      -0.739570       -20.1247
 139   2.0000      -0.730263       -19.8715
 140   2.0000      -0.723886       -19.6979
 141   2.0000      -0.711441       -19.3593
 142   2.0000      -0.700576       -19.0636
 143   2.0000      -0.700257       -19.0550
 144   2.0000      -0.689187       -18.7537
 145   2.0000      -0.679549       -18.4915
 146   2.0000      -0.678477       -18.4623
 147   2.0000      -0.677587       -18.4381
 148   2.0000      -0.672108       -18.2890
 149   2.0000      -0.664288       -18.0762
 150   2.0000      -0.660531       -17.9740
 151   2.0000      -0.653005       -17.7692
 152   2.0000      -0.650006       -17.6876
 153   2.0000      -0.645231       -17.5576
 154   2.0000      -0.642188       -17.4748
 155   2.0000      -0.638052       -17.3623
 156   2.0000      -0.634365       -17.2620
 157   2.0000      -0.627150       -17.0656
 158   2.0000      -0.621788       -16.9197
 159   2.0000      -0.618156       -16.8209
 160   2.0000      -0.616070       -16.7641
 161   2.0000      -0.609511       -16.5857
 162   2.0000      -0.604511       -16.4496
 163   2.0000      -0.603421       -16.4199
 164   2.0000      -0.601183       -16.3590
 165   2.0000      -0.596580       -16.2338
 166   2.0000      -0.592360       -16.1189
 167   2.0000      -0.586152       -15.9500
 168   2.0000      -0.580844       -15.8056
 169   2.0000      -0.578728       -15.7480
 170   2.0000      -0.575516       -15.6606
 171   2.0000      -0.567161       -15.4332
 172   2.0000      -0.554981       -15.1018
 173   2.0000      -0.546451       -14.8697
 174   2.0000      -0.541495       -14.7348
 175   2.0000      -0.539794       -14.6885
 176   2.0000      -0.536654       -14.6031
 177   2.0000      -0.534918       -14.5559
 178   2.0000      -0.532793       -14.4980
 179   2.0000      -0.528855       -14.3909
 180   2.0000      -0.525287       -14.2938
 181   2.0000      -0.523017       -14.2320
 182   2.0000      -0.521073       -14.1791
 183   2.0000      -0.520755       -14.1705
 184   2.0000      -0.520382       -14.1603
 185   2.0000      -0.515455       -14.0262
 186   2.0000      -0.512708       -13.9515
 187   2.0000      -0.511576       -13.9207
 188   2.0000      -0.510010       -13.8781
 189   2.0000      -0.507219       -13.8021
 190   2.0000      -0.506652       -13.7867
 191   2.0000      -0.501465       -13.6456
 192   2.0000      -0.498158       -13.5556
 193   2.0000      -0.493532       -13.4297
 194   2.0000      -0.492341       -13.3973
 195   2.0000      -0.491203       -13.3663
 196   2.0000      -0.489760       -13.3270
 197   2.0000      -0.488256       -13.2861
 198   2.0000      -0.486156       -13.2290
 199   2.0000      -0.484561       -13.1856
 200   2.0000      -0.483217       -13.1490
 201   2.0000      -0.480988       -13.0883
 202   2.0000      -0.478998       -13.0342
 203   2.0000      -0.476815       -12.9748
 204   2.0000      -0.475100       -12.9281
 205   2.0000      -0.473683       -12.8896
 206   2.0000      -0.473340       -12.8802
 207   2.0000      -0.471947       -12.8423
 208   2.0000      -0.465533       -12.6678
 209   2.0000      -0.459498       -12.5036
 210   2.0000      -0.458743       -12.4830
 211   2.0000      -0.454114       -12.3571
 212   2.0000      -0.451511       -12.2862
 213   2.0000      -0.446874       -12.1601
 214   2.0000      -0.445757       -12.1297
 215   2.0000      -0.444227       -12.0880
 216   2.0000      -0.439806       -11.9677
 217   2.0000      -0.438925       -11.9438
 218   2.0000      -0.437741       -11.9115
 219   2.0000      -0.435625       -11.8540
 220   2.0000      -0.434251       -11.8166
 221   2.0000      -0.432615       -11.7720
 222   2.0000      -0.429644       -11.6912
 223   2.0000      -0.426872       -11.6158
 224   2.0000      -0.425413       -11.5761
 225   2.0000      -0.423315       -11.5190
 226   2.0000      -0.421945       -11.4817
 227   2.0000      -0.419853       -11.4248
 228   2.0000      -0.418566       -11.3898
 229   2.0000      -0.418515       -11.3884
 230   2.0000      -0.415038       -11.2938
 231   2.0000      -0.413582       -11.2541
 232   2.0000      -0.409447       -11.1416
 233   2.0000      -0.408685       -11.1209
 234   2.0000      -0.406735       -11.0678
 235   2.0000      -0.405411       -11.0318
 236   2.0000      -0.397154       -10.8071
 237   2.0000      -0.392592       -10.6830
 238   2.0000      -0.390172       -10.6171
 239   2.0000      -0.383499       -10.4355
 240   2.0000      -0.371365       -10.1053
 241   2.0000      -0.365580        -9.9480
 242   2.0000      -0.359442        -9.7809
 243   2.0000      -0.353785        -9.6270
 244   2.0000      -0.352520        -9.5925
 245   2.0000      -0.350410        -9.5351
 246   2.0000      -0.347652        -9.4601
 247   2.0000      -0.336122        -9.1464
 248   2.0000      -0.334330        -9.0976
 249   2.0000      -0.329813        -8.9747
 250   2.0000      -0.324930        -8.8418
 251   2.0000      -0.321117        -8.7380
 252   2.0000      -0.317240        -8.6325
 253   2.0000      -0.306263        -8.3338
 254   2.0000      -0.303172        -8.2497
 255   2.0000      -0.298572        -8.1245
 256   2.0000      -0.287286        -7.8174
 257   2.0000      -0.283741        -7.7210
 258   2.0000      -0.277577        -7.5533
 259   2.0000      -0.238844        -6.4993
 260   2.0000      -0.222526        -6.0552
 261   0.0000      -0.114757        -3.1227
 262   0.0000      -0.100406        -2.7322
 263   0.0000      -0.062457        -1.6995
 264   0.0000      -0.053434        -1.4540
 265   0.0000      -0.042300        -1.1510

MULLIKEN ATOMIC CHARGES
-----------------------
   0 C :    0.328749
   1 C :   -0.363631
   2 C :   -0.189715
   3 N :    0.133327
   4 C :   -0.193097
   5 N :    0.132214
   6 C :    0.011208
   7 C :   -0.010918
   8 C :   -0.073725
   9 C :    0.115157
  10 C :   -0.095287
  11 C :   -0.027585
  12 S :    0.132279
  13 C :   -0.053021
  14 C :    0.022371
  15 C :    0.135256
  16 O :   -0.166366
  17 C :   -0.086095
  18 C :   -0.043411
  19 C :   -0.027612
  20 C :    0.006950
  21 C :    0.024609
  22 C :    0.045117
  23 C :   -0.054083
  24 S :    0.106257
  25 C :   -0.031833
  26 C :    0.025069
  27 C :    0.050522
  28 C :   -0.029637
  29 S :    0.099266
  30 C :   -0.010970
  31 C :    0.080885
  32 C :   -0.006914
  33 C :   -0.036978
  34 C :    0.026170
  35 C :    0.224881
  36 C :   -0.121953
  37 O :   -0.189087
  38 C :    0.173422
  39 N :   -0.110339
  40 C :   -0.054571
  41 C :   -0.006099
  42 C :    0.045578
  43 C :    0.036670
  44 C :   -0.032316
  45 S :    0.152468
  46 C :   -0.057393
  47 C :    0.041890
  48 C :    0.046979
  49 C :   -0.018985
  50 S :    0.118311
  51 C :    0.000049
  52 C :    0.015573
  53 C :   -0.120061
  54 C :    0.287218
  55 C :   -0.341856
  56 C :   -0.178822
  57 N :    0.140978
  58 C :   -0.220168
  59 N :    0.159124
  60 C :    0.006966
  61 C :   -0.009921
  62 C :    0.137157
  63 O :   -0.152758
  64 C :   -0.067584
  65 C :    0.109681
  66 C :   -0.093929
  67 C :   -0.023905
  68 S :    0.134630
  69 C :   -0.053833
  70 C :    0.026060
  71 H :   -0.018143
  72 H :   -0.011177
  73 H :    0.034292
  74 H :   -0.011272
  75 H :    0.016457
  76 H :    0.016353
  77 H :   -0.000276
  78 H :   -0.005595
  79 H :   -0.006033
  80 H :   -0.002909
  81 H :   -0.005019
  82 H :   -0.016829
  83 H :   -0.013451
  84 H :    0.003002
  85 H :    0.007998
  86 H :    0.000790
  87 H :   -0.005720
  88 H :   -0.002051
  89 H :    0.005233
  90 H :    0.012951
  91 H :    0.019864
  92 H :   -0.015718
  93 H :   -0.007578
  94 H :    0.036159
  95 H :   -0.009912
Sum of atomic charges:   -0.0000000

LOEWDIN ATOMIC CHARGES
----------------------
   0 C :    0.074176
   1 C :   -0.157633
   2 C :   -0.018719
   3 N :   -0.070941
   4 C :   -0.021119
   5 N :   -0.069398
   6 C :   -0.020036
   7 C :   -0.051346
   8 C :    0.017922
   9 C :   -0.038463
  10 C :   -0.147751
  11 C :   -0.012827
  12 S :    0.422299
  13 C :   -0.155039
  14 C :   -0.059261
  15 C :    0.081866
  16 O :   -0.160010
  17 C :   -0.107517
  18 C :    0.049348
  19 C :   -0.074493
  20 C :   -0.103471
  21 C :   -0.042278
  22 C :   -0.008173
  23 C :   -0.194381
  24 S :    0.409098
  25 C :   -0.149730
  26 C :   -0.041212
  27 C :   -0.008384
  28 C :   -0.155039
  29 S :    0.407372
  30 C :   -0.015973
  31 C :   -0.037910
  32 C :   -0.010648
  33 C :   -0.021539
  34 C :   -0.018947
  35 C :    0.037052
  36 C :   -0.039768
  37 O :   -0.000714
  38 C :    0.066995
  39 N :   -0.128684
  40 C :   -0.082456
  41 C :   -0.112070
  42 C :   -0.021851
  43 C :   -0.020576
  44 C :   -0.168960
  45 S :    0.443786
  46 C :   -0.170795
  47 C :   -0.008838
  48 C :   -0.023566
  49 C :   -0.103468
  50 S :    0.407985
  51 C :   -0.059765
  52 C :    0.051212
  53 C :   -0.097874
  54 C :    0.069117
  55 C :   -0.149241
  56 C :   -0.019810
  57 N :   -0.060545
  58 C :   -0.024280
  59 N :   -0.059607
  60 C :   -0.018536
  61 C :   -0.054183
  62 C :    0.079208
  63 O :   -0.153889
  64 C :    0.020935
  65 C :   -0.038307
  66 C :   -0.146344
  67 C :   -0.013915
  68 S :    0.424907
  69 C :   -0.153412
  70 C :   -0.058466
  71 H :    0.037697
  72 H :    0.039347
  73 H :    0.027252
  74 H :    0.033399
  75 H :    0.031335
  76 H :    0.038294
  77 H :    0.038462
  78 H :    0.034950
  79 H :    0.034460
  80 H :    0.037188
  81 H :    0.038352
  82 H :    0.030204
  83 H :    0.039245
  84 H :    0.025960
  85 H :    0.045713
  86 H :    0.038755
  87 H :    0.033738
  88 H :    0.036905
  89 H :    0.041529
  90 H :    0.039032
  91 H :    0.036509
  92 H :    0.038930
  93 H :    0.039602
  94 H :    0.028053
  95 H :    0.033967

  Mayer bond orders larger than 0.100000
B(  0-C ,  1-C ) :   1.5827 B(  0-C ,  6-C ) :   0.9901 B(  0-C , 17-C ) :   1.1121
B(  1-C ,  2-C ) :   1.1489 B(  1-C ,  4-C ) :   1.1536 B(  2-C ,  3-N ) :   2.9623
B(  4-C ,  5-N ) :   2.9592 B(  6-C ,  7-C ) :   1.2730 B(  6-C , 11-C ) :   1.4199
B(  7-C ,  8-C ) :   1.4326 B(  7-C , 15-C ) :   0.9391 B(  8-C ,  9-C ) :   1.2381
B(  8-C , 71-H ) :   1.0169 B(  9-C , 10-C ) :   1.3124 B(  9-C , 14-C ) :   1.1686
B( 10-C , 11-C ) :   1.3147 B( 10-C , 12-S ) :   1.0952 B( 11-C , 72-H ) :   0.9826
B( 12-S , 13-C ) :   1.1246 B( 13-C , 14-C ) :   1.6301 B( 13-C , 73-H ) :   0.9684
B( 14-C , 74-H ) :   0.9996 B( 15-C , 16-O ) :   2.1860 B( 15-C , 17-C ) :   0.9638
B( 17-C , 18-C ) :   1.4844 B( 18-C , 19-C ) :   1.2567 B( 18-C , 75-H ) :   0.9430
B( 19-C , 20-C ) :   1.4194 B( 19-C , 76-H ) :   0.9790 B( 20-C , 21-C ) :   1.1771
B( 20-C , 24-S ) :   1.0856 B( 21-C , 22-C ) :   1.5440 B( 21-C , 77-H ) :   1.0023
B( 22-C , 23-C ) :   1.2119 B( 22-C , 78-H ) :   0.9949 B( 23-C , 24-S ) :   1.0427
B( 23-C , 25-C ) :   1.4796 B( 25-C , 26-C ) :   1.1813 B( 25-C , 29-S ) :   1.0762
B( 26-C , 27-C ) :   1.6004 B( 26-C , 79-H ) :   0.9940 B( 27-C , 28-C ) :   1.1297
B( 27-C , 80-H ) :   0.9987 B( 28-C , 29-S ) :   1.0188 B( 28-C , 30-C ) :   1.6149
B( 30-C , 31-C ) :   1.1040 B( 30-C , 81-H ) :   0.9714 B( 31-C , 32-C ) :   1.2818
B( 31-C , 36-C ) :   1.2957 B( 32-C , 33-C ) :   1.4189 B( 32-C , 82-H ) :   0.9928
B( 33-C , 34-C ) :   1.2816 B( 33-C , 83-H ) :   1.0182 B( 34-C , 35-C ) :   1.2551
B( 34-C , 39-N ) :   1.3342 B( 35-C , 36-C ) :   1.3827 B( 35-C , 37-O ) :   1.1059
B( 36-C , 84-H ) :   0.9876 B( 37-O , 38-C ) :   1.1389 B( 38-C , 39-N ) :   1.5956
B( 38-C , 40-C ) :   1.1684 B( 40-C , 41-C ) :   1.5469 B( 40-C , 85-H ) :   0.9741
B( 41-C , 42-C ) :   1.1357 B( 41-C , 45-S ) :   1.0841 B( 42-C , 43-C ) :   1.6022
B( 42-C , 86-H ) :   0.9998 B( 43-C , 44-C ) :   1.1762 B( 43-C , 87-H ) :   0.9951
B( 44-C , 45-S ) :   1.0128 B( 44-C , 46-C ) :   1.5096 B( 46-C , 47-C ) :   1.1935
B( 46-C , 50-S ) :   1.0504 B( 47-C , 48-C ) :   1.5729 B( 47-C , 88-H ) :   0.9939
B( 48-C , 49-C ) :   1.1581 B( 48-C , 89-H ) :   1.0001 B( 49-C , 50-S ) :   1.0767
B( 49-C , 51-C ) :   1.5313 B( 51-C , 52-C ) :   1.1900 B( 51-C , 90-H ) :   0.9617
B( 52-C , 53-C ) :   1.5621 B( 52-C , 91-H ) :   0.9399 B( 53-C , 54-C ) :   1.0766
B( 53-C , 62-C ) :   0.9556 B( 54-C , 55-C ) :   1.6047 B( 54-C , 60-C ) :   1.0068
B( 55-C , 56-C ) :   1.1331 B( 55-C , 58-C ) :   1.1659 B( 56-C , 57-N ) :   2.9778
B( 58-C , 59-N ) :   3.0115 B( 60-C , 61-C ) :   1.2703 B( 60-C , 67-C ) :   1.4215
B( 61-C , 62-C ) :   0.9235 B( 61-C , 64-C ) :   1.4337 B( 62-C , 63-O ) :   2.2515
B( 64-C , 65-C ) :   1.2462 B( 64-C , 92-H ) :   1.0163 B( 65-C , 66-C ) :   1.3109
B( 65-C , 70-C ) :   1.1701 B( 66-C , 67-C ) :   1.3136 B( 66-C , 68-S ) :   1.0958
B( 67-C , 93-H ) :   0.9849 B( 68-S , 69-C ) :   1.1255 B( 69-C , 70-C ) :   1.6299
B( 69-C , 94-H ) :   0.9685 B( 70-C , 95-H ) :   0.9997

-----------------------------------------------------------------------------
         ABSORPTION SPECTRUM VIA TRANSITION ELECTRIC DIPOLE MOMENTS
-----------------------------------------------------------------------------
State   Energy  Wavelength   fosc         T2         TX        TY        TZ
        (cm-1)    (nm)                  (au**2)     (au)      (au)      (au)
-----------------------------------------------------------------------------
   0   10936.2    914.4   1.675401432  50.43475  -6.41122  -1.63991  -2.57714
   1   13739.9    727.8   0.627046277  15.02417   0.13548  -2.45465   2.99675
   2   16039.1    623.5   0.156948669   3.22147  -0.93272  -0.75825  -1.33288
   3   19850.4    503.8   0.469453514   7.78574   0.19897  -2.61762  -0.94562
   4   22098.3    452.5   0.093254305   1.38926   1.16239  -0.10417   0.16510
   5   22767.1    439.2   0.028538864   0.41267  -0.57999   0.26940   0.06089
   6   23625.6    423.3   0.347387943   4.84070   1.40094  -1.51710  -0.75925
   7   24370.6    410.3   0.016838577   0.22746   0.41702   0.18885   0.13376
   8   24951.3    400.8   0.186115187   2.45564  -1.55563   0.18325   0.04562
   9   25477.8    392.5   0.111104407   1.43564   0.02254  -1.07632  -0.52599
  10   26461.5    377.9   0.748869698   9.31680   0.08668  -3.00357  -0.53654
  11   26748.4    373.9   0.008183109   0.10072  -0.05179  -0.30473   0.07194
  12   27131.6    368.6   0.001611429   0.01955  -0.06431  -0.10494  -0.06637
  13   27638.6    361.8   0.081054506   0.96547  -0.76274   0.38886  -0.48216
  14   27846.5    359.1   0.024544379   0.29017  -0.29664   0.40662   0.19192
  15   27946.2    357.8   0.015857242   0.18680   0.02137   0.43168  -0.00111
  16   28155.4    355.2   0.016007545   0.18717  -0.26474  -0.33488   0.07027
  17   28469.2    351.3   0.031482922   0.36406  -0.58749   0.09860  -0.09590
  18   29841.3    335.1   0.029578201   0.32631   0.22658  -0.13338  -0.50713
  19   30453.7    328.4   0.055898825   0.60428  -0.45222  -0.63219   0.01092
  20   30811.7    324.6   0.175139816   1.87130   0.40963   1.02847   0.80359
  21   30993.6    322.6   0.055664398   0.59126   0.59770   0.48364  -0.01021
  22   31553.1    316.9   0.052745044   0.55032  -0.16152   0.69383  -0.20695
  23   31854.0    313.9   0.052742653   0.54510   0.34446   0.48910   0.43269
  24   32185.0    310.7   0.118137173   1.20840   0.63581   0.88819  -0.12352
  25   32362.6    309.0   0.265145236   2.69722   0.85204   1.24254   0.65371
  26   32477.0    307.9   0.154408243   1.56520  -0.26952  -0.97450  -0.73683
  27   32639.7    306.4   0.028389483   0.28634   0.43925   0.27440  -0.13458
  28   32780.8    305.1   0.332853072   3.34278  -1.44689  -1.05036   0.38212
  29   33021.1    302.8   0.163666615   1.63172  -0.02785  -1.25466  -0.23828
  30   33384.3    299.5   0.022996213   0.22677   0.29164  -0.36724   0.08280
  31   33614.0    297.5   0.035582644   0.34849   0.20260   0.45362   0.31886
  32   33908.7    294.9   0.002629308   0.02553   0.03339   0.06985   0.13976
  33   34276.3    291.7   0.006546517   0.06288  -0.00197   0.08946  -0.23425
  34   34435.6    290.4   0.072304183   0.69124  -0.67437  -0.48203   0.06414
  35   34566.5    289.3   0.054440620   0.51849   0.58760   0.38199  -0.16523
  36   35314.3    283.2   0.019513186   0.18191  -0.23580   0.33254   0.12539
  37   35591.9    281.0   0.005682358   0.05256  -0.12506   0.18714   0.04361
  38   35861.4    278.9   0.049298751   0.45257   0.08951   0.66641  -0.02139
  39   36169.4    276.5   0.036696056   0.33401  -0.52171   0.12554  -0.21462
  40   36319.0    275.3   0.098431691   0.89223  -0.20312  -0.91968  -0.07183
  41   36580.4    273.4   0.073631298   0.66266   0.26120  -0.76448   0.10003
  42   36838.0    271.5   0.028474604   0.25447  -0.40677  -0.20292   0.21870
  43   37427.1    267.2   0.034940523   0.30734   0.52619  -0.11130   0.13446
  44   37691.0    265.3   0.216234487   1.88870  -1.05812   0.85924   0.17547
  45   37997.6    263.2   0.000191100   0.00166   0.02109   0.03250   0.01245
  46   38253.4    261.4   0.017817525   0.15334   0.23368   0.10341   0.29672
  47   38628.5    258.9   0.112575682   0.95943  -0.67202  -0.68997  -0.17819
  48   38954.7    256.7   0.207756686   1.75578  -0.79966   1.02380  -0.26106
  49   38975.1    256.6   0.085093118   0.71876  -0.65603  -0.44595   0.29918
  50   39184.0    255.2   0.048204847   0.40500  -0.19948   0.59917  -0.07878
  51   39648.0    252.2   0.019111883   0.15869  -0.21231   0.33337  -0.04979
  52   39769.3    251.5   0.004121411   0.03412  -0.16121  -0.06522  -0.06225
  53   40005.4    250.0   0.001091103   0.00898   0.03539   0.06769  -0.05608
  54   40211.7    248.7   0.103684570   0.84886  -0.52559   0.75108   0.09218

FINAL SINGLE POINT ENERGY     -5071.436754580733

DIPOLE MOMENT
-------------
                                X             Y             Z
Electronic contribution:      8.72304     -13.54185       4.91211
Nuclear contribution   :     -8.83187      16.85347      -6.47733
                        -----------------------------------------
Total Dipole Moment    :     -0.10883       3.31162      -1.56522
                        -----------------------------------------
Magnitude (a.u.)       :      3.66450
Magnitude (Debye)      :      9.31442

Rotational constants in cm-1:     0.001070     0.000206     0.000193
Rotational constants in MHz :    32.080858     6.179264     5.778842

                             ****ORCA TERMINATED NORMALLY****
TOTAL RUN TIME: 0 days 0 hours 9 minutes 20 seconds 183 msec
