                         Program Version 4.2.0 -  RELEASE  -
|  1> # ORCA input file
|  2> # SCF done       -184.475805860298          0.000347486604
|  3> ! CAM-B3LYP def2-SVP def2/J RIJCOSX Grid4 TightSCF
|  4> %maxcore 5000
|  5> %tddft
|  6>     Mode sTDDFT
|  7>     Ethresh 5.0
|  8>     maxcore 5000
|  9> end
| 10>
| 11> %pal
| 12>   nprocs 6
| 13>   end
| 14> * xyz 0 1
| 15>    C       -3.17401         3.02253         1.71148
| 16>    C       -2.81714         1.79935         1.19457
| 17>    C       -1.49987         1.29884         1.18889
| 18>    N       -0.44978         0.83465         1.15479
| 19>    C       -3.69110         0.89520         0.55762
| 20>    N       -4.33008         0.11873         0.00172
| 21>    C       -2.25262         4.00097         2.28212
| 22>    C       -2.97491         5.18350         2.58170
| 23>    C       -2.37978         6.29535         3.12584
| 24>    C       -1.00821         6.23797         3.39359
| 25>    C       -0.29733         5.05149         3.09684
| 26>    C       -0.89826         3.92698         2.54182
| 27>    S        1.38024         5.20238         3.51577
| 28>    C        1.12082         6.81981         4.07217
| 29>    C       -0.15926         7.23429         3.95328
| 30>    C       -4.39486         4.99017         2.23218
| 31>    O       -5.28585         5.80983         2.34339
| 32>    C       -4.49663         3.59860         1.73839
| 33>    C       -5.67736         2.95758         1.43581
| 34>    C       -6.93869         3.55159         1.45452
| 35>    C       -8.09870         2.84750         1.20190
| 36>    C       -9.41527         3.36388         1.17634
| 37>    C      -10.37368         2.43008         0.91059
| 38>    C       -9.85714         1.12995         0.72289
| 39>    S       -8.11928         1.12788         0.87387
| 40>    C      -10.55504        -0.04185         0.47192
| 41>    C      -11.94629        -0.21960         0.31606
| 42>    C      -12.30841        -1.51453         0.09426
| 43>    C      -11.22389        -2.42775         0.08462
| 44>    S       -9.72201        -1.56753         0.33438
| 45>    C      -11.33506        -3.77517        -0.18220
| 46>    C      -10.34077        -4.76211        -0.14305
| 47>    S      -10.56949        -6.21134        -1.09951
| 48>    C       -9.02359        -6.87262        -0.62832
| 49>    C       -8.39240        -6.01323         0.28046
| 50>    C       -9.13131        -4.84289         0.56190
| 51>    C       -8.73644        -3.99610         1.61141
| 52>    N       -8.41302        -3.38436         2.52652
| 53>    C       -7.17166        -6.27082         0.92703
| 54>    N       -6.18319        -6.45006         1.48152
| 55>    C       -8.61565        -8.10601        -1.15832
| 56>    C       -7.35804        -8.64370        -1.03271
| 57>    C       -6.92669        -9.87893        -1.52567
| 58>    C       -7.65517       -10.91439        -2.07928
| 59>    C       -7.08966       -12.12059        -2.55573
| 60>    C       -7.99679       -13.03249        -3.01058
| 61>    C       -9.33389       -12.59875        -2.90918
| 62>    S       -9.39776       -10.98767        -2.24181
| 63>    C      -10.48371       -13.29692        -3.24732
| 64>    C      -10.57330       -14.59573        -3.78825
| 65>    C      -11.85555       -15.02196        -3.97967
| 66>    C      -12.83849       -14.08296        -3.59607
| 67>    S      -12.07861       -12.62504        -3.00414
| 68>    C      -14.20683       -14.25686        -3.66541
| 69>    C      -15.13156       -13.31353        -3.22829
| 70>    C      -16.50511       -13.39594        -3.27582
| 71>    C      -17.39035       -14.29161        -3.96968
| 72>    C      -17.14361       -14.94772        -5.15383
| 73>    C      -18.07580       -15.78354        -5.79842
| 74>    N      -18.78473       -16.49484        -6.35613
| 75>    C      -15.97866       -14.77982        -5.92762
| 76>    N      -15.07366       -14.64937        -6.62317
| 77>    C      -18.69260       -14.21428        -3.30941
| 78>    C      -18.66433       -13.14512        -2.37742
| 79>    C      -17.31546       -12.54559        -2.37146
| 80>    O      -16.92948       -11.58984        -1.73262
| 81>    C      -19.75598       -12.80091        -1.61881
| 82>    C      -20.92542       -13.55255        -1.77659
| 83>    C      -20.93826       -14.62471        -2.69898
| 84>    C      -19.83637       -14.96826        -3.47542
| 85>    S      -22.48048       -15.42047        -2.71679
| 86>    C      -23.08418       -14.33040        -1.51658
| 87>    C      -22.17863       -13.41204        -1.11563
| 88>    H       -2.95626         7.18179         3.34095
| 89>    H       -0.31322         3.04602         2.33723
| 90>    H        1.95726         7.36790         4.46030
| 91>    H       -0.50668         8.20819         4.24751
| 92>    H       -5.64001         1.90619         1.17683
| 93>    H       -7.01780         4.60590         1.67806
| 94>    H       -9.61061         4.40603         1.35619
| 95>    H      -11.42644         2.64073         0.85354
| 96>    H      -12.63724         0.60226         0.36647
| 97>    H      -13.32107        -1.84750        -0.04924
| 98>    H      -12.30482        -4.10781        -0.53266
| 99>    H       -9.36193        -8.62237        -1.74539
|100>    H       -6.60474        -8.05492        -0.52872
|101>    H       -5.86461       -10.07334        -1.44237
|102>    H       -6.02583       -12.27946        -2.54595
|103>    H       -7.73720       -13.99934        -3.40151
|104>    H       -9.70131       -15.18055        -4.01868
|105>    H      -12.12611       -15.97976        -4.38647
|106>    H      -14.54949       -15.20653        -4.04967
|107>    H      -14.74617       -12.44536        -2.70123
|108>    H      -19.70939       -11.97790        -0.92260
|109>    H      -19.89215       -15.79742        -4.16122
|110>    H      -24.09602       -14.44848        -1.18060
|111>    H      -22.37477       -12.65534        -0.37761
|112> *
|113>
|114>                          ****END OF INPUT****

CARTESIAN COORDINATES (ANGSTROEM)
---------------------------------
  C     -3.174010    3.022530    1.711480
  C     -2.817140    1.799350    1.194570
  C     -1.499870    1.298840    1.188890
  N     -0.449780    0.834650    1.154790
  C     -3.691100    0.895200    0.557620
  N     -4.330080    0.118730    0.001720
  C     -2.252620    4.000970    2.282120
  C     -2.974910    5.183500    2.581700
  C     -2.379780    6.295350    3.125840
  C     -1.008210    6.237970    3.393590
  C     -0.297330    5.051490    3.096840
  C     -0.898260    3.926980    2.541820
  S      1.380240    5.202380    3.515770
  C      1.120820    6.819810    4.072170
  C     -0.159260    7.234290    3.953280
  C     -4.394860    4.990170    2.232180
  O     -5.285850    5.809830    2.343390
  C     -4.496630    3.598600    1.738390
  C     -5.677360    2.957580    1.435810
  C     -6.938690    3.551590    1.454520
  C     -8.098700    2.847500    1.201900
  C     -9.415270    3.363880    1.176340
  C    -10.373680    2.430080    0.910590
  C     -9.857140    1.129950    0.722890
  S     -8.119280    1.127880    0.873870
  C    -10.555040   -0.041850    0.471920
  C    -11.946290   -0.219600    0.316060
  C    -12.308410   -1.514530    0.094260
  C    -11.223890   -2.427750    0.084620
  S     -9.722010   -1.567530    0.334380
  C    -11.335060   -3.775170   -0.182200
  C    -10.340770   -4.762110   -0.143050
  S    -10.569490   -6.211340   -1.099510
  C     -9.023590   -6.872620   -0.628320
  C     -8.392400   -6.013230    0.280460
  C     -9.131310   -4.842890    0.561900
  C     -8.736440   -3.996100    1.611410
  N     -8.413020   -3.384360    2.526520
  C     -7.171660   -6.270820    0.927030
  N     -6.183190   -6.450060    1.481520
  C     -8.615650   -8.106010   -1.158320
  C     -7.358040   -8.643700   -1.032710
  C     -6.926690   -9.878930   -1.525670
  C     -7.655170  -10.914390   -2.079280
  C     -7.089660  -12.120590   -2.555730
  C     -7.996790  -13.032490   -3.010580
  C     -9.333890  -12.598750   -2.909180
  S     -9.397760  -10.987670   -2.241810
  C    -10.483710  -13.296920   -3.247320
  C    -10.573300  -14.595730   -3.788250
  C    -11.855550  -15.021960   -3.979670
  C    -12.838490  -14.082960   -3.596070
  S    -12.078610  -12.625040   -3.004140
  C    -14.206830  -14.256860   -3.665410
  C    -15.131560  -13.313530   -3.228290
  C    -16.505110  -13.395940   -3.275820
  C    -17.390350  -14.291610   -3.969680
  C    -17.143610  -14.947720   -5.153830
  C    -18.075800  -15.783540   -5.798420
  N    -18.784730  -16.494840   -6.356130
  C    -15.978660  -14.779820   -5.927620
  N    -15.073660  -14.649370   -6.623170
  C    -18.692600  -14.214280   -3.309410
  C    -18.664330  -13.145120   -2.377420
  C    -17.315460  -12.545590   -2.371460
  O    -16.929480  -11.589840   -1.732620
  C    -19.755980  -12.800910   -1.618810
  C    -20.925420  -13.552550   -1.776590
  C    -20.938260  -14.624710   -2.698980
  C    -19.836370  -14.968260   -3.475420
  S    -22.480480  -15.420470   -2.716790
  C    -23.084180  -14.330400   -1.516580
  C    -22.178630  -13.412040   -1.115630
  H     -2.956260    7.181790    3.340950
  H     -0.313220    3.046020    2.337230
  H      1.957260    7.367900    4.460300
  H     -0.506680    8.208190    4.247510
  H     -5.640010    1.906190    1.176830
  H     -7.017800    4.605900    1.678060
  H     -9.610610    4.406030    1.356190
  H    -11.426440    2.640730    0.853540
  H    -12.637240    0.602260    0.366470
  H    -13.321070   -1.847500   -0.049240
  H    -12.304820   -4.107810   -0.532660
  H     -9.361930   -8.622370   -1.745390
  H     -6.604740   -8.054920   -0.528720
  H     -5.864610  -10.073340   -1.442370
  H     -6.025830  -12.279460   -2.545950
  H     -7.737200  -13.999340   -3.401510
  H     -9.701310  -15.180550   -4.018680
  H    -12.126110  -15.979760   -4.386470
  H    -14.549490  -15.206530   -4.049670
  H    -14.746170  -12.445360   -2.701230
  H    -19.709390  -11.977900   -0.922600
  H    -19.892150  -15.797420   -4.161220
  H    -24.096020  -14.448480   -1.180600
  H    -22.374770  -12.655340   -0.377610

 Total Charge           Charge          ....    0
 Multiplicity           Mult            ....    1
 Number of Electrons    NEL             ....  542
 Basis Dimension        Dim             .... 1170

ORBITAL ENERGIES
----------------

  NO   OCC          E(Eh)            E(eV)
   0   2.0000     -88.986217     -2421.4381
   1   2.0000     -88.973013     -2421.0788
   2   2.0000     -88.968109     -2420.9453
   3   2.0000     -88.964980     -2420.8602
   4   2.0000     -88.962185     -2420.7841
   5   2.0000     -88.960393     -2420.7354
   6   2.0000     -88.958284     -2420.6780
   7   2.0000     -19.205316      -522.6032
   8   2.0000     -19.204004      -522.5675
   9   2.0000     -14.414367      -392.2349
  10   2.0000     -14.410900      -392.1405
  11   2.0000     -14.406759      -392.0278
  12   2.0000     -14.405055      -391.9815
  13   2.0000     -14.403177      -391.9304
  14   2.0000     -14.402006      -391.8985
  15   2.0000     -10.355538      -281.7885
  16   2.0000     -10.354881      -281.7706
  17   2.0000     -10.343677      -281.4658
  18   2.0000     -10.342292      -281.4281
  19   2.0000     -10.339413      -281.3497
  20   2.0000     -10.334620      -281.2193
  21   2.0000     -10.334433      -281.2142
  22   2.0000     -10.334385      -281.2129
  23   2.0000     -10.333888      -281.1994
  24   2.0000     -10.333441      -281.1872
  25   2.0000     -10.332516      -281.1620
  26   2.0000     -10.332278      -281.1556
  27   2.0000     -10.331786      -281.1422
  28   2.0000     -10.331303      -281.1291
  29   2.0000     -10.330694      -281.1125
  30   2.0000     -10.330165      -281.0981
  31   2.0000     -10.327948      -281.0377
  32   2.0000     -10.327390      -281.0226
  33   2.0000     -10.313853      -280.6542
  34   2.0000     -10.313559      -280.6462
  35   2.0000     -10.311301      -280.5848
  36   2.0000     -10.311232      -280.5829
  37   2.0000     -10.311109      -280.5795
  38   2.0000     -10.310067      -280.5512
  39   2.0000     -10.309784      -280.5435
  40   2.0000     -10.309612      -280.5388
  41   2.0000     -10.308760      -280.5156
  42   2.0000     -10.308455      -280.5073
  43   2.0000     -10.308272      -280.5023
  44   2.0000     -10.308061      -280.4966
  45   2.0000     -10.308009      -280.4952
  46   2.0000     -10.306704      -280.4597
  47   2.0000     -10.306455      -280.4529
  48   2.0000     -10.306306      -280.4488
  49   2.0000     -10.306058      -280.4421
  50   2.0000     -10.305978      -280.4399
  51   2.0000     -10.305521      -280.4275
  52   2.0000     -10.303397      -280.3697
  53   2.0000     -10.303246      -280.3656
  54   2.0000     -10.301748      -280.3248
  55   2.0000     -10.300529      -280.2916
  56   2.0000     -10.299768      -280.2709
  57   2.0000     -10.298748      -280.2432
  58   2.0000     -10.295581      -280.1570
  59   2.0000     -10.295497      -280.1547
  60   2.0000     -10.294427      -280.1256
  61   2.0000     -10.292593      -280.0757
  62   2.0000     -10.292276      -280.0671
  63   2.0000     -10.291782      -280.0536
  64   2.0000     -10.291341      -280.0416
  65   2.0000     -10.289215      -279.9838
  66   2.0000     -10.285596      -279.8853
  67   2.0000     -10.284913      -279.8667
  68   2.0000     -10.283547      -279.8296
  69   2.0000     -10.282820      -279.8097
  70   2.0000     -10.282474      -279.8003
  71   2.0000     -10.281399      -279.7711
  72   2.0000     -10.279658      -279.7237
  73   2.0000      -8.082027      -219.9231
  74   2.0000      -8.068935      -219.5669
  75   2.0000      -8.064441      -219.4446
  76   2.0000      -8.061156      -219.3552
  77   2.0000      -8.058316      -219.2779
  78   2.0000      -8.056725      -219.2346
  79   2.0000      -8.054508      -219.1743
  80   2.0000      -6.051293      -164.6641
  81   2.0000      -6.047259      -164.5543
  82   2.0000      -6.043946      -164.4641
  83   2.0000      -6.038576      -164.3180
  84   2.0000      -6.034468      -164.2062
  85   2.0000      -6.034059      -164.1951
  86   2.0000      -6.030843      -164.1076
  87   2.0000      -6.030126      -164.0881
  88   2.0000      -6.030035      -164.0856
  89   2.0000      -6.027929      -164.0283
  90   2.0000      -6.026605      -163.9922
  91   2.0000      -6.026239      -163.9823
  92   2.0000      -6.025525      -163.9629
  93   2.0000      -6.024000      -163.9214
  94   2.0000      -6.023878      -163.9181
  95   2.0000      -6.022152      -163.8711
  96   2.0000      -6.021942      -163.8654
  97   2.0000      -6.019740      -163.8055
  98   2.0000      -6.019417      -163.7967
  99   2.0000      -6.018374      -163.7683
 100   2.0000      -6.016193      -163.7089
 101   2.0000      -1.118600       -30.4387
 102   2.0000      -1.118099       -30.4250
 103   2.0000      -1.030298       -28.0358
 104   2.0000      -1.019812       -27.7505
 105   2.0000      -1.016016       -27.6472
 106   2.0000      -1.011418       -27.5221
 107   2.0000      -1.008300       -27.4372
 108   2.0000      -1.000406       -27.2224
 109   2.0000      -0.997710       -27.1491
 110   2.0000      -0.997354       -27.1394
 111   2.0000      -0.996008       -27.1028
 112   2.0000      -0.991520       -26.9806
 113   2.0000      -0.990291       -26.9472
 114   2.0000      -0.984620       -26.7929
 115   2.0000      -0.981279       -26.7020
 116   2.0000      -0.976499       -26.5719
 117   2.0000      -0.973700       -26.4957
 118   2.0000      -0.937774       -25.5181
 119   2.0000      -0.927458       -25.2374
 120   2.0000      -0.924572       -25.1589
 121   2.0000      -0.917060       -24.9545
 122   2.0000      -0.910189       -24.7675
 123   2.0000      -0.903567       -24.5873
 124   2.0000      -0.893910       -24.3245
 125   2.0000      -0.886388       -24.1198
 126   2.0000      -0.881973       -23.9997
 127   2.0000      -0.874864       -23.8063
 128   2.0000      -0.873694       -23.7744
 129   2.0000      -0.871515       -23.7151
 130   2.0000      -0.870183       -23.6789
 131   2.0000      -0.863941       -23.5090
 132   2.0000      -0.852655       -23.2019
 133   2.0000      -0.846200       -23.0263
 134   2.0000      -0.843628       -22.9563
 135   2.0000      -0.838699       -22.8222
 136   2.0000      -0.827591       -22.5199
 137   2.0000      -0.815934       -22.2027
 138   2.0000      -0.813535       -22.1374
 139   2.0000      -0.806919       -21.9574
 140   2.0000      -0.798951       -21.7406
 141   2.0000      -0.779526       -21.2120
 142   2.0000      -0.775673       -21.1071
 143   2.0000      -0.756132       -20.5754
 144   2.0000      -0.747450       -20.3392
 145   2.0000      -0.745074       -20.2745
 146   2.0000      -0.741659       -20.1816
 147   2.0000      -0.721888       -19.6436
 148   2.0000      -0.714891       -19.4532
 149   2.0000      -0.709715       -19.3123
 150   2.0000      -0.701267       -19.0824
 151   2.0000      -0.692148       -18.8343
 152   2.0000      -0.686839       -18.6898
 153   2.0000      -0.683876       -18.6092
 154   2.0000      -0.679876       -18.5004
 155   2.0000      -0.678153       -18.4535
 156   2.0000      -0.667900       -18.1745
 157   2.0000      -0.666439       -18.1347
 158   2.0000      -0.658553       -17.9201
 159   2.0000      -0.654602       -17.8126
 160   2.0000      -0.651068       -17.7165
 161   2.0000      -0.649918       -17.6852
 162   2.0000      -0.643159       -17.5012
 163   2.0000      -0.640991       -17.4422
 164   2.0000      -0.635464       -17.2919
 165   2.0000      -0.627937       -17.0870
 166   2.0000      -0.624910       -17.0047
 167   2.0000      -0.621988       -16.9252
 168   2.0000      -0.615707       -16.7542
 169   2.0000      -0.611358       -16.6359
 170   2.0000      -0.609366       -16.5817
 171   2.0000      -0.600478       -16.3398
 172   2.0000      -0.599448       -16.3118
 173   2.0000      -0.589269       -16.0348
 174   2.0000      -0.584592       -15.9076
 175   2.0000      -0.581616       -15.8266
 176   2.0000      -0.577803       -15.7228
 177   2.0000      -0.568859       -15.4795
 178   2.0000      -0.562410       -15.3040
 179   2.0000      -0.553445       -15.0600
 180   2.0000      -0.548535       -14.9264
 181   2.0000      -0.543779       -14.7970
 182   2.0000      -0.539294       -14.6749
 183   2.0000      -0.537697       -14.6315
 184   2.0000      -0.534776       -14.5520
 185   2.0000      -0.533780       -14.5249
 186   2.0000      -0.529184       -14.3998
 187   2.0000      -0.527976       -14.3670
 188   2.0000      -0.527586       -14.3563
 189   2.0000      -0.526974       -14.3397
 190   2.0000      -0.523854       -14.2548
 191   2.0000      -0.521684       -14.1957
 192   2.0000      -0.519455       -14.1351
 193   2.0000      -0.518353       -14.1051
 194   2.0000      -0.516235       -14.0475
 195   2.0000      -0.513505       -13.9732
 196   2.0000      -0.511679       -13.9235
 197   2.0000      -0.509186       -13.8556
 198   2.0000      -0.505337       -13.7509
 199   2.0000      -0.498995       -13.5783
 200   2.0000      -0.497504       -13.5378
 201   2.0000      -0.494057       -13.4440
 202   2.0000      -0.492620       -13.4049
 203   2.0000      -0.491381       -13.3712
 204   2.0000      -0.490323       -13.3424
 205   2.0000      -0.489367       -13.3163
 206   2.0000      -0.488498       -13.2927
 207   2.0000      -0.484369       -13.1804
 208   2.0000      -0.482815       -13.1381
 209   2.0000      -0.482109       -13.1188
 210   2.0000      -0.479827       -13.0568
 211   2.0000      -0.479775       -13.0554
 212   2.0000      -0.478937       -13.0325
 213   2.0000      -0.477854       -13.0031
 214   2.0000      -0.469252       -12.7690
 215   2.0000      -0.463150       -12.6030
 216   2.0000      -0.460764       -12.5380
 217   2.0000      -0.460261       -12.5243
 218   2.0000      -0.459077       -12.4921
 219   2.0000      -0.454258       -12.3610
 220   2.0000      -0.453063       -12.3285
 221   2.0000      -0.447551       -12.1785
 222   2.0000      -0.445264       -12.1163
 223   2.0000      -0.444493       -12.0953
 224   2.0000      -0.443655       -12.0725
 225   2.0000      -0.441420       -12.0117
 226   2.0000      -0.439925       -11.9710
 227   2.0000      -0.439549       -11.9607
 228   2.0000      -0.436947       -11.8899
 229   2.0000      -0.436672       -11.8824
 230   2.0000      -0.434663       -11.8278
 231   2.0000      -0.432477       -11.7683
 232   2.0000      -0.431269       -11.7354
 233   2.0000      -0.426433       -11.6038
 234   2.0000      -0.424967       -11.5639
 235   2.0000      -0.424405       -11.5486
 236   2.0000      -0.423801       -11.5322
 237   2.0000      -0.423226       -11.5166
 238   2.0000      -0.421341       -11.4653
 239   2.0000      -0.419430       -11.4133
 240   2.0000      -0.417301       -11.3553
 241   2.0000      -0.415020       -11.2933
 242   2.0000      -0.413591       -11.2544
 243   2.0000      -0.410763       -11.1774
 244   2.0000      -0.410103       -11.1595
 245   2.0000      -0.407742       -11.0952
 246   2.0000      -0.404746       -11.0137
 247   2.0000      -0.399549       -10.8723
 248   2.0000      -0.396192       -10.7809
 249   2.0000      -0.394741       -10.7414
 250   2.0000      -0.384551       -10.4642
 251   2.0000      -0.374444       -10.1891
 252   2.0000      -0.368704       -10.0330
 253   2.0000      -0.362900        -9.8750
 254   2.0000      -0.358771        -9.7626
 255   2.0000      -0.354557        -9.6480
 256   2.0000      -0.350124        -9.5274
 257   2.0000      -0.344558        -9.3759
 258   2.0000      -0.341698        -9.2981
 259   2.0000      -0.335882        -9.1398
 260   2.0000      -0.331963        -9.0332
 261   2.0000      -0.325885        -8.8678
 262   2.0000      -0.324901        -8.8410
 263   2.0000      -0.308800        -8.4029
 264   2.0000      -0.305830        -8.3221
 265   2.0000      -0.303327        -8.2539
 266   2.0000      -0.289724        -7.8838
 267   2.0000      -0.286702        -7.8016
 268   2.0000      -0.281789        -7.6679
 269   2.0000      -0.242604        -6.6016
 270   2.0000      -0.223941        -6.0937
 271   0.0000      -0.126956        -3.4547
 272   0.0000      -0.109822        -2.9884
 273   0.0000      -0.071879        -1.9559
 274   0.0000      -0.061404        -1.6709
 275   0.0000      -0.050954        -1.3865

MULLIKEN ATOMIC CHARGES
-----------------------
   0 C :    0.318597
   1 C :   -0.351911
   2 C :   -0.183480
   3 N :    0.140172
   4 C :   -0.198323
   5 N :    0.147030
   6 C :    0.016967
   7 C :   -0.010776
   8 C :   -0.073260
   9 C :    0.117639
  10 C :   -0.096645
  11 C :   -0.028364
  12 S :    0.137010
  13 C :   -0.050509
  14 C :    0.022987
  15 C :    0.138705
  16 O :   -0.162658
  17 C :   -0.079685
  18 C :   -0.043021
  19 C :   -0.017180
  20 C :    0.000106
  21 C :    0.037287
  22 C :    0.040336
  23 C :   -0.042172
  24 S :    0.123611
  25 C :   -0.045971
  26 C :    0.037249
  27 C :    0.035483
  28 C :   -0.025645
  29 S :    0.146164
  30 C :    0.000444
  31 C :   -0.103775
  32 S :    0.167559
  33 C :   -0.083512
  34 C :   -0.042484
  35 C :    0.031420
  36 C :   -0.300597
  37 N :    0.209256
  38 C :   -0.251370
  39 N :    0.196592
  40 C :    0.038835
  41 C :    0.003249
  42 C :    0.003342
  43 C :   -0.028499
  44 C :    0.047173
  45 C :    0.027474
  46 C :   -0.028705
  47 S :    0.089500
  48 C :   -0.049005
  49 C :    0.036499
  50 C :    0.043320
  51 C :   -0.018277
  52 S :    0.113487
  53 C :    0.001602
  54 C :    0.021252
  55 C :   -0.120248
  56 C :    0.281038
  57 C :   -0.341996
  58 C :   -0.178111
  59 N :    0.140390
  60 C :   -0.219350
  61 N :    0.159144
  62 C :    0.010701
  63 C :   -0.004129
  64 C :    0.136381
  65 O :   -0.155247
  66 C :   -0.074605
  67 C :    0.111419
  68 C :   -0.091991
  69 C :   -0.030930
  70 S :    0.134589
  71 C :   -0.051191
  72 C :    0.024140
  73 H :   -0.016215
  74 H :   -0.008421
  75 H :    0.035869
  76 H :   -0.010119
  77 H :    0.024819
  78 H :    0.019908
  79 H :    0.003424
  80 H :   -0.003293
  81 H :   -0.002893
  82 H :   -0.000462
  83 H :    0.001732
  84 H :   -0.005094
  85 H :    0.018330
  86 H :    0.004455
  87 H :    0.002543
  88 H :   -0.004301
  89 H :   -0.000996
  90 H :    0.004870
  91 H :    0.010515
  92 H :    0.014567
  93 H :   -0.014189
  94 H :   -0.006062
  95 H :    0.035428
  96 H :   -0.008937
Sum of atomic charges:   -0.0000000

LOEWDIN ATOMIC CHARGES
----------------------
   0 C :    0.071977
   1 C :   -0.146419
   2 C :   -0.018003
   3 N :   -0.061328
   4 C :   -0.022713
   5 N :   -0.056868
   6 C :   -0.019688
   7 C :   -0.052658
   8 C :    0.020068
   9 C :   -0.037184
  10 C :   -0.146308
  11 C :   -0.011330
  12 S :    0.426209
  13 C :   -0.152749
  14 C :   -0.058671
  15 C :    0.083071
  16 O :   -0.155321
  17 C :   -0.093437
  18 C :    0.048272
  19 C :   -0.057828
  20 C :   -0.108701
  21 C :   -0.028588
  22 C :   -0.012223
  23 C :   -0.174225
  24 S :    0.421421
  25 C :   -0.161877
  26 C :   -0.025570
  27 C :   -0.022059
  28 C :   -0.134021
  29 S :    0.446232
  30 C :   -0.080768
  31 C :   -0.140435
  32 S :    0.467124
  33 C :   -0.131257
  34 C :   -0.082949
  35 C :   -0.088285
  36 C :   -0.056011
  37 N :   -0.029940
  38 C :   -0.030265
  39 N :   -0.034988
  40 C :   -0.053070
  41 C :   -0.009411
  42 C :   -0.039821
  43 C :   -0.139809
  44 C :   -0.013746
  45 C :   -0.034586
  46 C :   -0.158155
  47 S :    0.407750
  48 C :   -0.178986
  49 C :   -0.010398
  50 C :   -0.026880
  51 C :   -0.105410
  52 S :    0.403774
  53 C :   -0.058682
  54 C :    0.048131
  55 C :   -0.096599
  56 C :    0.068763
  57 C :   -0.150568
  58 C :   -0.019917
  59 N :   -0.060716
  60 C :   -0.024914
  61 N :   -0.060042
  62 C :   -0.018180
  63 C :   -0.054043
  64 C :    0.079167
  65 O :   -0.155458
  66 C :    0.020338
  67 C :   -0.038162
  68 C :   -0.146197
  69 C :   -0.014254
  70 S :    0.425098
  71 C :   -0.153062
  72 C :   -0.058572
  73 H :    0.038591
  74 H :    0.040224
  75 H :    0.028086
  76 H :    0.033964
  77 H :    0.033278
  78 H :    0.040052
  79 H :    0.040330
  80 H :    0.036020
  81 H :    0.035980
  82 H :    0.037709
  83 H :    0.039492
  84 H :    0.014279
  85 H :    0.043660
  86 H :    0.043409
  87 H :    0.039712
  88 H :    0.035816
  89 H :    0.037153
  90 H :    0.041595
  91 H :    0.039229
  92 H :    0.035144
  93 H :    0.039121
  94 H :    0.039776
  95 H :    0.028072
  96 H :    0.034218

  Mayer bond orders larger than 0.100000
B(  0-C ,  1-C ) :   1.6029 B(  0-C ,  6-C ) :   0.9954 B(  0-C , 17-C ) :   1.0921
B(  1-C ,  2-C ) :   1.1468 B(  1-C ,  4-C ) :   1.1500 B(  2-C ,  3-N ) :   2.9647
B(  4-C ,  5-N ) :   2.9733 B(  6-C ,  7-C ) :   1.2710 B(  6-C , 11-C ) :   1.4172
B(  7-C ,  8-C ) :   1.4298 B(  7-C , 15-C ) :   0.9412 B(  8-C ,  9-C ) :   1.2410
B(  8-C , 73-H ) :   1.0159 B(  9-C , 10-C ) :   1.3069 B(  9-C , 14-C ) :   1.1709
B( 10-C , 11-C ) :   1.3182 B( 10-C , 12-S ) :   1.0983 B( 11-C , 74-H ) :   0.9821
B( 12-S , 13-C ) :   1.1255 B( 13-C , 14-C ) :   1.6302 B( 13-C , 75-H ) :   0.9681
B( 14-C , 76-H ) :   0.9990 B( 15-C , 16-O ) :   2.1896 B( 15-C , 17-C ) :   0.9551
B( 17-C , 18-C ) :   1.5210 B( 18-C , 19-C ) :   1.2259 B( 18-C , 77-H ) :   0.9442
B( 19-C , 20-C ) :   1.4503 B( 19-C , 78-H ) :   0.9781 B( 20-C , 21-C ) :   1.1644
B( 20-C , 24-S ) :   1.0747 B( 21-C , 22-C ) :   1.5584 B( 21-C , 79-H ) :   1.0015
B( 22-C , 23-C ) :   1.2029 B( 22-C , 80-H ) :   0.9952 B( 23-C , 24-S ) :   1.0629
B( 23-C , 25-C ) :   1.4718 B( 25-C , 26-C ) :   1.1887 B( 25-C , 29-S ) :   1.0840
B( 26-C , 27-C ) :   1.5859 B( 26-C , 81-H ) :   0.9937 B( 27-C , 28-C ) :   1.1463
B( 27-C , 82-H ) :   1.0000 B( 28-C , 29-S ) :   1.0663 B( 28-C , 30-C ) :   1.5760
B( 30-C , 31-C ) :   1.1957 B( 30-C , 83-H ) :   0.9393 B( 31-C , 32-S ) :   1.1138
B( 31-C , 35-C ) :   1.4061 B( 32-S , 33-C ) :   1.1172 B( 33-C , 34-C ) :   1.4220
B( 33-C , 40-C ) :   1.2355 B( 34-C , 35-C ) :   1.3504 B( 34-C , 38-C ) :   1.1710
B( 35-C , 36-C ) :   1.1409 B( 36-C , 37-N ) :   3.0028 B( 38-C , 39-N ) :   2.9589
B( 40-C , 41-C ) :   1.5663 B( 40-C , 84-H ) :   0.9162 B( 41-C , 42-C ) :   1.2550
B( 41-C , 85-H ) :   0.9567 B( 42-C , 43-C ) :   1.5236 B( 42-C , 86-H ) :   0.9635
B( 43-C , 44-C ) :   1.1669 B( 43-C , 47-S ) :   1.0467 B( 44-C , 45-C ) :   1.5667
B( 44-C , 87-H ) :   1.0000 B( 45-C , 46-C ) :   1.2050 B( 45-C , 88-H ) :   0.9935
B( 46-C , 47-S ) :   1.0633 B( 46-C , 48-C ) :   1.4664 B( 48-C , 49-C ) :   1.2110
B( 48-C , 52-S ) :   1.0514 B( 49-C , 50-C ) :   1.5523 B( 49-C , 89-H ) :   0.9951
B( 50-C , 51-C ) :   1.1753 B( 50-C , 90-H ) :   1.0005 B( 51-C , 52-S ) :   1.0753
B( 51-C , 53-C ) :   1.5174 B( 53-C , 54-C ) :   1.2047 B( 53-C , 91-H ) :   0.9612
B( 54-C , 55-C ) :   1.5562 B( 54-C , 92-H ) :   0.9404 B( 55-C , 56-C ) :   1.0760
B( 55-C , 64-C ) :   0.9567 B( 56-C , 57-C ) :   1.6063 B( 56-C , 62-C ) :   1.0081
B( 57-C , 58-C ) :   1.1335 B( 57-C , 60-C ) :   1.1644 B( 58-C , 59-N ) :   2.9781
B( 60-C , 61-N ) :   3.0117 B( 62-C , 63-C ) :   1.2677 B( 62-C , 69-C ) :   1.4214
B( 63-C , 64-C ) :   0.9234 B( 63-C , 66-C ) :   1.4314 B( 64-C , 65-O ) :   2.2478
B( 66-C , 67-C ) :   1.2446 B( 66-C , 93-H ) :   1.0172 B( 67-C , 68-C ) :   1.3105
B( 67-C , 72-C ) :   1.1715 B( 68-C , 69-C ) :   1.3128 B( 68-C , 70-S ) :   1.0960
B( 69-C , 94-H ) :   0.9856 B( 70-S , 71-C ) :   1.1253 B( 71-C , 72-C ) :   1.6292
B( 71-C , 95-H ) :   0.9689 B( 72-C , 96-H ) :   0.9997

-----------------------------------------------------------------------------
         ABSORPTION SPECTRUM VIA TRANSITION ELECTRIC DIPOLE MOMENTS
-----------------------------------------------------------------------------
State   Energy  Wavelength   fosc         T2         TX        TY        TZ
        (cm-1)    (nm)                  (au**2)     (au)      (au)      (au)
-----------------------------------------------------------------------------
   0    8829.4   1132.6   1.950118874  72.71173   4.79324   6.73544   2.09058
   1   12864.0    777.4   0.049553677   1.26816   0.57694  -0.91061   0.32571
   2   14281.0    700.2   0.012967301   0.29893   0.53437  -0.11208   0.02844
   3   18282.0    547.0   0.754853243  13.59298  -3.65847   0.44340  -0.10950
   4   19864.1    503.4   0.025175931   0.41725   0.10114   0.61383   0.17387
   5   21779.9    459.1   0.006828896   0.10322  -0.11361   0.15361   0.25830
   6   22483.0    444.8   0.704086872  10.30975   2.56281  -1.93296  -0.07352
   7   23122.3    432.5   0.018245929   0.25978  -0.31853  -0.39729   0.02203
   8   23541.9    424.8   0.098879138   1.38273   0.55751  -0.92616  -0.46277
   9   24463.6    408.8   0.094590940   1.27293  -0.70715   0.78890   0.38796
  10   25155.8    397.5   0.538218945   7.04363  -2.59886   0.43152   0.32143
  11   25992.7    384.7   0.033912720   0.42952  -0.64336   0.07940  -0.09648
  12   26097.0    383.2   0.034590536   0.43636   0.61619  -0.16990  -0.16673
  13   26563.1    376.5   0.042140875   0.52228  -0.07996  -0.25119  -0.67289
  14   26752.1    373.8   0.031300467   0.38518   0.56013  -0.18630   0.19165
  15   26766.9    373.6   0.044016481   0.54137   0.44872   0.42462   0.39965
  16   27232.4    367.2   0.012469788   0.15075   0.31717  -0.04841  -0.21865
  17   27541.0    363.1   0.018109641   0.21647   0.21173  -0.28757  -0.29824
  18   28380.6    352.4   0.011112209   0.12890   0.16392  -0.00562   0.31938
  19   29160.7    342.9   0.135019362   1.52431   0.77358   0.88845   0.36953
  20   29727.1    336.4   0.039585045   0.43838   0.19239   0.44662   0.44933
  21   29959.1    333.8   0.023763188   0.26113   0.47911   0.15377  -0.08908
  22   30100.0    332.2   0.147017447   1.60797   1.22136  -0.33415   0.06779
  23   30848.0    324.2   0.027397225   0.29239  -0.48173  -0.17725   0.17002
  24   31111.1    321.4   0.080631349   0.85323   0.51701  -0.09234  -0.75987
  25   31773.3    314.7   0.003019110   0.03128   0.11249   0.13337   0.02902
  26   31871.9    313.8   0.144515499   1.49273   0.71205   0.63490   0.76329
  27   32074.9    311.8   0.106682346   1.09497  -0.56884   0.63508   0.60669
  28   32267.0    309.9   0.317925492   3.24372  -1.77789  -0.18782  -0.21806
  29   32478.5    307.9   0.240402424   2.43679   1.12476   1.06788   0.17706
  30   32743.7    305.4   0.214802082   2.15966   0.85665  -0.60855  -1.02736
  31   33112.6    302.0   0.000833624   0.00829   0.02851  -0.08559   0.01224
  32   33426.3    299.2   0.040720392   0.40105   0.50280   0.38474  -0.01475
  33   33474.5    298.7   0.005838929   0.05742   0.15709   0.17257   0.05445
  34   33693.6    296.8   0.003220429   0.03147  -0.07715   0.10732   0.11831
  35   34258.2    291.9   0.119627709   1.14959  -0.32855  -0.86932  -0.53472
  36   34435.9    290.4   0.096684270   0.92431   0.22686  -0.65839  -0.66285
  37   34786.9    287.5   0.038724232   0.36647  -0.58608   0.13005   0.07791
  38   34894.4    286.6   0.043444765   0.40988   0.56477   0.15623  -0.25788
  39   35147.8    284.5   0.086667803   0.81178   0.55746  -0.28982  -0.64578
  40   35506.7    281.6   0.001546934   0.01434   0.09520   0.06602   0.03035
  41   35906.0    278.5   0.033917294   0.31098   0.15969  -0.51745  -0.13313
  42   36033.6    277.5   0.012895159   0.11781  -0.14469   0.14185   0.27705
  43   36206.1    276.2   0.001113804   0.01013   0.00085  -0.09001  -0.04500
  44   36626.2    273.0   0.035080352   0.31532   0.43135  -0.28705  -0.21646
  45   36908.6    270.9   0.027336076   0.24383  -0.39908   0.16863  -0.23691
  46   37128.9    269.3   0.028187702   0.24993   0.00313   0.49399   0.07682
  47   37165.3    269.1   0.012872643   0.11403   0.04280  -0.23661  -0.23709
  48   37225.6    268.6   0.003738827   0.03307   0.04116  -0.04643  -0.17092
  49   37483.1    266.8   0.036675698   0.32212   0.04940   0.23203   0.51560
  50   37832.7    264.3   0.032053713   0.27892   0.38235  -0.33887   0.13377
  51   37920.5    263.7   0.005402771   0.04690   0.08863  -0.15748  -0.11936
  52   37993.7    263.2   0.007893873   0.06840   0.14923   0.21119  -0.03910
  53   38206.3    261.7   0.049521342   0.42671   0.32561   0.07878  -0.56079
  54   38427.5    260.2   0.553544001   4.74226  -0.42513   1.76408   1.20397
  55   38848.8    257.4   0.043444603   0.36816  -0.36719   0.48250  -0.02283
  56   39007.2    256.4   0.071166084   0.60063   0.11016  -0.64786  -0.41081
  57   39768.6    251.5   0.008749627   0.07243   0.26840  -0.01351  -0.01449
  58   39972.5    250.2   0.012190931   0.10040   0.02004  -0.31295   0.04543
  59   40148.4    249.1   0.092003099   0.75441  -0.60157   0.36351   0.51028
  60   40241.6    248.5   0.028647479   0.23436   0.26622  -0.15087  -0.37513

FINAL SINGLE POINT ENERGY     -5486.428292099904

DIPOLE MOMENT
-------------
                                X             Y             Z
Electronic contribution:      3.24317      -0.62340      -2.14782
Nuclear contribution   :     -5.05214       1.54216       3.08093
                        -----------------------------------------
Total Dipole Moment    :     -1.80897       0.91876       0.93311
                        -----------------------------------------
Magnitude (a.u.)       :      2.23320
Magnitude (Debye)      :      5.67635

Rotational constants in cm-1:     0.001579     0.000164     0.000151
Rotational constants in MHz :    47.347716     4.929107     4.538441

                             ****ORCA TERMINATED NORMALLY****
TOTAL RUN TIME: 0 days 0 hours 10 minutes 9 seconds 560 msec
