                         Program Version 4.2.0 -  RELEASE  -
|  1> # ORCA input file
|  2> # SCF done       -191.063574899654          0.000552012341
|  3> ! CAM-B3LYP def2-SVP def2/J RIJCOSX Grid4 TightSCF
|  4> %maxcore 5000
|  5> %tddft
|  6>     Mode sTDDFT
|  7>     Ethresh 5.0
|  8>     maxcore 5000
|  9> end
| 10>
| 11> %pal
| 12>   nprocs 6
| 13>   end
| 14> * xyz 0 1
| 15>    C       -6.09227         0.00501         5.84093
| 16>    C       -6.70494         0.24728         7.04438
| 17>    C       -6.50798        -0.53219         8.20199
| 18>    N       -6.37803        -1.12383         9.17751
| 19>    C       -7.63321         1.28286         7.27700
| 20>    N       -8.40947         2.08960         7.53383
| 21>    C       -5.20366        -1.10938         5.54023
| 22>    C       -4.89127        -1.07883         4.15734
| 23>    C       -4.07208        -2.00692         3.56216
| 24>    C       -3.53439        -3.01456         4.36922
| 25>    C       -3.84796        -3.03506         5.74905
| 26>    C       -4.67780        -2.09607         6.35162
| 27>    S       -3.06736        -4.36191         6.55022
| 28>    C       -2.34607        -4.86884         5.06189
| 29>    C       -2.66885        -4.08566         4.00967
| 30>    C       -5.56847         0.06429         3.52694
| 31>    O       -5.49615         0.39788         2.35898
| 32>    C       -6.27888         0.76266         4.62038
| 33>    C       -6.79916         2.02597         4.53339
| 34>    C       -7.05711         2.75315         3.35264
| 35>    S       -6.86082         4.48527         3.36995
| 36>    C       -7.20438         4.62574         1.67161
| 37>    C       -7.51156         3.37288         1.14137
| 38>    C       -7.45844         2.33687         2.08506
| 39>    S       -8.12142         0.73110         1.85987
| 40>    C       -8.07829         0.37408         0.13928
| 41>    O       -8.51676        -0.68112        -0.23469
| 42>    C       -7.55029         1.36374        -0.86835
| 43>    O       -7.16435         1.01251        -1.94545
| 44>    S       -7.74431         3.11250        -0.58360
| 45>    C       -7.10260         5.91497         1.08799
| 46>    C       -7.47479         6.26481        -0.16489
| 47>    C       -7.31554         7.55725        -0.77116
| 48>    C       -7.81783         7.74425        -2.07307
| 49>    C       -7.65139         8.94917        -2.70401
| 50>    C       -6.97755        10.00536        -2.06134
| 51>    C       -6.48732         9.83931        -0.77112
| 52>    C       -6.65941         8.62700        -0.14029
| 53>    C       -6.91782        11.12934        -2.96107
| 54>    C       -7.56233        10.77948        -4.16291
| 55>    C       -8.08943         9.36499        -4.08909
| 56>    C       -7.45281         8.47202        -5.17020
| 57>    C       -5.93024         8.46062        -5.10683
| 58>    C       -9.62293         9.32802        -4.22627
| 59>    C      -10.33089        10.18387        -3.18286
| 60>    C       -7.63307        11.67167        -5.20082
| 61>    C       -7.03704        12.94194        -5.07926
| 62>    C       -6.40724        13.27530        -3.86661
| 63>    C       -6.34820        12.38882        -2.81513
| 64>    C       -7.08817        13.83955        -6.19569
| 65>    C       -6.39057        15.00033        -6.32244
| 66>    C       -6.45640        15.84801        -7.44076
| 67>    C       -5.70325        16.98819        -7.57363
| 68>    C       -5.70254        17.90780        -8.64905
| 69>    C       -4.83396        18.94838        -8.50163
| 70>    C       -4.09265        18.91051        -7.30253
| 71>    S       -4.54437        17.50579        -6.35719
| 72>    C       -3.12872        19.79555        -6.86066
| 73>    C       -2.65221        20.96904        -7.48029
| 74>    C       -1.68178        21.61724        -6.77536
| 75>    C       -1.32215        20.99942        -5.55419
| 76>    S       -2.29542        19.54464        -5.34196
| 77>    C       -0.36746        21.45187        -4.67628
| 78>    C        0.05575        20.88851        -3.46426
| 79>    N       -0.41730        19.72197        -2.89277
| 80>    C        0.20152        19.43771        -1.72285
| 81>    C        1.12741        20.43844        -1.48114
| 82>    C        1.03569        21.34522        -2.56941
| 83>    N        1.93181        22.34462        -2.36670
| 84>    C        2.58858        22.09985        -1.18754
| 85>    C        2.13795        20.94114        -0.59681
| 86>    C        2.55897        20.32477         0.63748
| 87>    C        3.49652        20.79001         1.45762
| 88>    H       -3.85602        -1.95864         2.50613
| 89>    H       -4.88390        -2.15127         7.40760
| 90>    H       -1.71433        -5.73568         5.06803
| 91>    H       -2.31477        -4.24675         3.00754
| 92>    H       -6.95034         2.58176         5.45102
| 93>    H       -6.69389         6.66111         1.75547
| 94>    H       -7.94114         5.52106        -0.79508
| 95>    H       -8.32554         6.92604        -2.56352
| 96>    H       -5.97271        10.64684        -0.27202
| 97>    H       -6.26892         8.49724         0.85689
| 98>    H       -7.77183         8.82996        -6.15135
| 99>    H       -7.82786         7.45383        -5.04831
|100>    H       -5.53199         9.46294        -5.24894
|101>    H       -5.52861         7.81668        -5.88572
|102>    H       -5.58843         8.08904        -4.14330
|103>    H       -9.95745         8.29264        -4.13374
|104>    H       -9.89196         9.67821        -5.22510
|105>    H      -10.09573         9.83897        -2.17830
|106>    H      -11.40809        10.12847        -3.32216
|107>    H      -10.02551        11.22446        -3.26832
|108>    H       -8.12590        11.40782        -6.12611
|109>    H       -5.96834        14.25400        -3.75106
|110>    H       -5.86253        12.66760        -1.89158
|111>    H       -7.72123        13.53437        -7.02039
|112>    H       -5.71648        15.31186        -5.53533
|113>    H       -7.13122        15.59593        -8.24812
|114>    H       -6.34645        17.77015        -9.50001
|115>    H       -4.70531        19.73603        -9.22269
|116>    H       -3.03759        21.30350        -8.42663
|117>    H       -1.20627        22.52681        -7.09868
|118>    H        0.13463        22.36845        -4.95790
|119>    H       -1.13840        19.15532        -3.30856
|120>    H       -0.05313        18.56403        -1.15713
|121>    H        2.09954        23.13384        -2.96703
|122>    H        3.34421        22.77951        -0.84555
|123>    H        2.04121        19.40577         0.88065
|124>    H        4.03327        21.70076         1.25520
|125>    H        3.75639        20.27396         2.36520
|126> *
|127>
|128>                          ****END OF INPUT****

CARTESIAN COORDINATES (ANGSTROEM)
---------------------------------
  C     -6.092270    0.005010    5.840930
  C     -6.704940    0.247280    7.044380
  C     -6.507980   -0.532190    8.201990
  N     -6.378030   -1.123830    9.177510
  C     -7.633210    1.282860    7.277000
  N     -8.409470    2.089600    7.533830
  C     -5.203660   -1.109380    5.540230
  C     -4.891270   -1.078830    4.157340
  C     -4.072080   -2.006920    3.562160
  C     -3.534390   -3.014560    4.369220
  C     -3.847960   -3.035060    5.749050
  C     -4.677800   -2.096070    6.351620
  S     -3.067360   -4.361910    6.550220
  C     -2.346070   -4.868840    5.061890
  C     -2.668850   -4.085660    4.009670
  C     -5.568470    0.064290    3.526940
  O     -5.496150    0.397880    2.358980
  C     -6.278880    0.762660    4.620380
  C     -6.799160    2.025970    4.533390
  C     -7.057110    2.753150    3.352640
  S     -6.860820    4.485270    3.369950
  C     -7.204380    4.625740    1.671610
  C     -7.511560    3.372880    1.141370
  C     -7.458440    2.336870    2.085060
  S     -8.121420    0.731100    1.859870
  C     -8.078290    0.374080    0.139280
  O     -8.516760   -0.681120   -0.234690
  C     -7.550290    1.363740   -0.868350
  O     -7.164350    1.012510   -1.945450
  S     -7.744310    3.112500   -0.583600
  C     -7.102600    5.914970    1.087990
  C     -7.474790    6.264810   -0.164890
  C     -7.315540    7.557250   -0.771160
  C     -7.817830    7.744250   -2.073070
  C     -7.651390    8.949170   -2.704010
  C     -6.977550   10.005360   -2.061340
  C     -6.487320    9.839310   -0.771120
  C     -6.659410    8.627000   -0.140290
  C     -6.917820   11.129340   -2.961070
  C     -7.562330   10.779480   -4.162910
  C     -8.089430    9.364990   -4.089090
  C     -7.452810    8.472020   -5.170200
  C     -5.930240    8.460620   -5.106830
  C     -9.622930    9.328020   -4.226270
  C    -10.330890   10.183870   -3.182860
  C     -7.633070   11.671670   -5.200820
  C     -7.037040   12.941940   -5.079260
  C     -6.407240   13.275300   -3.866610
  C     -6.348200   12.388820   -2.815130
  C     -7.088170   13.839550   -6.195690
  C     -6.390570   15.000330   -6.322440
  C     -6.456400   15.848010   -7.440760
  C     -5.703250   16.988190   -7.573630
  C     -5.702540   17.907800   -8.649050
  C     -4.833960   18.948380   -8.501630
  C     -4.092650   18.910510   -7.302530
  S     -4.544370   17.505790   -6.357190
  C     -3.128720   19.795550   -6.860660
  C     -2.652210   20.969040   -7.480290
  C     -1.681780   21.617240   -6.775360
  C     -1.322150   20.999420   -5.554190
  S     -2.295420   19.544640   -5.341960
  C     -0.367460   21.451870   -4.676280
  C      0.055750   20.888510   -3.464260
  N     -0.417300   19.721970   -2.892770
  C      0.201520   19.437710   -1.722850
  C      1.127410   20.438440   -1.481140
  C      1.035690   21.345220   -2.569410
  N      1.931810   22.344620   -2.366700
  C      2.588580   22.099850   -1.187540
  C      2.137950   20.941140   -0.596810
  C      2.558970   20.324770    0.637480
  C      3.496520   20.790010    1.457620
  H     -3.856020   -1.958640    2.506130
  H     -4.883900   -2.151270    7.407600
  H     -1.714330   -5.735680    5.068030
  H     -2.314770   -4.246750    3.007540
  H     -6.950340    2.581760    5.451020
  H     -6.693890    6.661110    1.755470
  H     -7.941140    5.521060   -0.795080
  H     -8.325540    6.926040   -2.563520
  H     -5.972710   10.646840   -0.272020
  H     -6.268920    8.497240    0.856890
  H     -7.771830    8.829960   -6.151350
  H     -7.827860    7.453830   -5.048310
  H     -5.531990    9.462940   -5.248940
  H     -5.528610    7.816680   -5.885720
  H     -5.588430    8.089040   -4.143300
  H     -9.957450    8.292640   -4.133740
  H     -9.891960    9.678210   -5.225100
  H    -10.095730    9.838970   -2.178300
  H    -11.408090   10.128470   -3.322160
  H    -10.025510   11.224460   -3.268320
  H     -8.125900   11.407820   -6.126110
  H     -5.968340   14.254000   -3.751060
  H     -5.862530   12.667600   -1.891580
  H     -7.721230   13.534370   -7.020390
  H     -5.716480   15.311860   -5.535330
  H     -7.131220   15.595930   -8.248120
  H     -6.346450   17.770150   -9.500010
  H     -4.705310   19.736030   -9.222690
  H     -3.037590   21.303500   -8.426630
  H     -1.206270   22.526810   -7.098680
  H      0.134630   22.368450   -4.957900
  H     -1.138400   19.155320   -3.308560
  H     -0.053130   18.564030   -1.157130
  H      2.099540   23.133840   -2.967030
  H      3.344210   22.779510   -0.845550
  H      2.041210   19.405770    0.880650
  H      4.033270   21.700760    1.255200
  H      3.756390   20.273960    2.365200

 Total Charge           Charge          ....    0
 Multiplicity           Mult            ....    1
 Number of Electrons    NEL             ....  546
 Basis Dimension        Dim             .... 1236

ORBITAL ENERGIES
----------------

  NO   OCC          E(Eh)            E(eV)
   0   2.0000     -88.977482     -2421.2004
   1   2.0000     -88.966097     -2420.8906
   2   2.0000     -88.965069     -2420.8626
   3   2.0000     -88.964802     -2420.8553
   4   2.0000     -88.943296     -2420.2701
   5   2.0000     -88.933379     -2420.0003
   6   2.0000     -19.244046      -523.6571
   7   2.0000     -19.233819      -523.3788
   8   2.0000     -19.215701      -522.8858
   9   2.0000     -14.461455      -393.5162
  10   2.0000     -14.458666      -393.4403
  11   2.0000     -14.414146      -392.2289
  12   2.0000     -14.413804      -392.2196
  13   2.0000     -10.403532      -283.0945
  14   2.0000     -10.398821      -282.9663
  15   2.0000     -10.364747      -282.0391
  16   2.0000     -10.341374      -281.4031
  17   2.0000     -10.339794      -281.3601
  18   2.0000     -10.337730      -281.3039
  19   2.0000     -10.335383      -281.2401
  20   2.0000     -10.329731      -281.0863
  21   2.0000     -10.326499      -280.9983
  22   2.0000     -10.326077      -280.9868
  23   2.0000     -10.318534      -280.7816
  24   2.0000     -10.316868      -280.7362
  25   2.0000     -10.316470      -280.7254
  26   2.0000     -10.312463      -280.6164
  27   2.0000     -10.306544      -280.4553
  28   2.0000     -10.304353      -280.3957
  29   2.0000     -10.301827      -280.3270
  30   2.0000     -10.301385      -280.3149
  31   2.0000     -10.301005      -280.3046
  32   2.0000     -10.300028      -280.2780
  33   2.0000     -10.299870      -280.2737
  34   2.0000     -10.297085      -280.1979
  35   2.0000     -10.296923      -280.1935
  36   2.0000     -10.296916      -280.1933
  37   2.0000     -10.296691      -280.1872
  38   2.0000     -10.296587      -280.1844
  39   2.0000     -10.293675      -280.1051
  40   2.0000     -10.292332      -280.0686
  41   2.0000     -10.291744      -280.0526
  42   2.0000     -10.288824      -279.9731
  43   2.0000     -10.288714      -279.9702
  44   2.0000     -10.287160      -279.9278
  45   2.0000     -10.282589      -279.8035
  46   2.0000     -10.280892      -279.7573
  47   2.0000     -10.279525      -279.7201
  48   2.0000     -10.276139      -279.6280
  49   2.0000     -10.276118      -279.6274
  50   2.0000     -10.275877      -279.6208
  51   2.0000     -10.274541      -279.5845
  52   2.0000     -10.274436      -279.5816
  53   2.0000     -10.273876      -279.5664
  54   2.0000     -10.273816      -279.5647
  55   2.0000     -10.272419      -279.5267
  56   2.0000     -10.268722      -279.4261
  57   2.0000     -10.268705      -279.4257
  58   2.0000     -10.266417      -279.3634
  59   2.0000     -10.265575      -279.3405
  60   2.0000     -10.264742      -279.3178
  61   2.0000     -10.264210      -279.3034
  62   2.0000     -10.264017      -279.2981
  63   2.0000     -10.263734      -279.2904
  64   2.0000     -10.263593      -279.2866
  65   2.0000     -10.262696      -279.2621
  66   2.0000     -10.261316      -279.2246
  67   2.0000     -10.260732      -279.2087
  68   2.0000     -10.258916      -279.1593
  69   2.0000     -10.251666      -278.9620
  70   2.0000     -10.248867      -278.8859
  71   2.0000     -10.244222      -278.7595
  72   2.0000     -10.243256      -278.7332
  73   2.0000      -8.073287      -219.6853
  74   2.0000      -8.062385      -219.3887
  75   2.0000      -8.061428      -219.3626
  76   2.0000      -8.061041      -219.3521
  77   2.0000      -8.039504      -218.7660
  78   2.0000      -8.029706      -218.4994
  79   2.0000      -6.042591      -164.4273
  80   2.0000      -6.038626      -164.3194
  81   2.0000      -6.035072      -164.2226
  82   2.0000      -6.032287      -164.1469
  83   2.0000      -6.031314      -164.1204
  84   2.0000      -6.030543      -164.0994
  85   2.0000      -6.027863      -164.0265
  86   2.0000      -6.026773      -163.9968
  87   2.0000      -6.026258      -163.9828
  88   2.0000      -6.023054      -163.8956
  89   2.0000      -6.022719      -163.8865
  90   2.0000      -6.022172      -163.8716
  91   2.0000      -6.009253      -163.5201
  92   2.0000      -6.005418      -163.4157
  93   2.0000      -6.000333      -163.2774
  94   2.0000      -5.999435      -163.2529
  95   2.0000      -5.995556      -163.1474
  96   2.0000      -5.990518      -163.0103
  97   2.0000      -1.175427       -31.9850
  98   2.0000      -1.143654       -31.1204
  99   2.0000      -1.129784       -30.7430
 100   2.0000      -1.086178       -29.5564
 101   2.0000      -1.055886       -28.7321
 102   2.0000      -1.022936       -27.8355
 103   2.0000      -1.018272       -27.7086
 104   2.0000      -1.006518       -27.3888
 105   2.0000      -0.992353       -27.0033
 106   2.0000      -0.986824       -26.8529
 107   2.0000      -0.986523       -26.8447
 108   2.0000      -0.984085       -26.7783
 109   2.0000      -0.964094       -26.2343
 110   2.0000      -0.948492       -25.8098
 111   2.0000      -0.937492       -25.5105
 112   2.0000      -0.934779       -25.4366
 113   2.0000      -0.924487       -25.1566
 114   2.0000      -0.916956       -24.9516
 115   2.0000      -0.898893       -24.4601
 116   2.0000      -0.896531       -24.3958
 117   2.0000      -0.893207       -24.3054
 118   2.0000      -0.888439       -24.1756
 119   2.0000      -0.880346       -23.9554
 120   2.0000      -0.879406       -23.9298
 121   2.0000      -0.870638       -23.6913
 122   2.0000      -0.863287       -23.4912
 123   2.0000      -0.855519       -23.2799
 124   2.0000      -0.846472       -23.0337
 125   2.0000      -0.838325       -22.8120
 126   2.0000      -0.834807       -22.7162
 127   2.0000      -0.834265       -22.7015
 128   2.0000      -0.833235       -22.6735
 129   2.0000      -0.827652       -22.5216
 130   2.0000      -0.823600       -22.4113
 131   2.0000      -0.821243       -22.3472
 132   2.0000      -0.814987       -22.1769
 133   2.0000      -0.808992       -22.0138
 134   2.0000      -0.799839       -21.7647
 135   2.0000      -0.789377       -21.4800
 136   2.0000      -0.772097       -21.0098
 137   2.0000      -0.759832       -20.6761
 138   2.0000      -0.758639       -20.6436
 139   2.0000      -0.755812       -20.5667
 140   2.0000      -0.747930       -20.3522
 141   2.0000      -0.736626       -20.0446
 142   2.0000      -0.724258       -19.7081
 143   2.0000      -0.720892       -19.6165
 144   2.0000      -0.716670       -19.5016
 145   2.0000      -0.713032       -19.4026
 146   2.0000      -0.701141       -19.0790
 147   2.0000      -0.690850       -18.7990
 148   2.0000      -0.689110       -18.7516
 149   2.0000      -0.683887       -18.6095
 150   2.0000      -0.675350       -18.3772
 151   2.0000      -0.674315       -18.3490
 152   2.0000      -0.671892       -18.2831
 153   2.0000      -0.662806       -18.0359
 154   2.0000      -0.660661       -17.9775
 155   2.0000      -0.657459       -17.8904
 156   2.0000      -0.656369       -17.8607
 157   2.0000      -0.649641       -17.6776
 158   2.0000      -0.640963       -17.4415
 159   2.0000      -0.635920       -17.3043
 160   2.0000      -0.625399       -17.0180
 161   2.0000      -0.621308       -16.9067
 162   2.0000      -0.618509       -16.8305
 163   2.0000      -0.614539       -16.7225
 164   2.0000      -0.609276       -16.5792
 165   2.0000      -0.607403       -16.5283
 166   2.0000      -0.603338       -16.4177
 167   2.0000      -0.603004       -16.4086
 168   2.0000      -0.592896       -16.1335
 169   2.0000      -0.591599       -16.0982
 170   2.0000      -0.586747       -15.9662
 171   2.0000      -0.583015       -15.8647
 172   2.0000      -0.580566       -15.7980
 173   2.0000      -0.574558       -15.6345
 174   2.0000      -0.571922       -15.5628
 175   2.0000      -0.559062       -15.2128
 176   2.0000      -0.554180       -15.0800
 177   2.0000      -0.548402       -14.9228
 178   2.0000      -0.547590       -14.9007
 179   2.0000      -0.544658       -14.8209
 180   2.0000      -0.543043       -14.7769
 181   2.0000      -0.540897       -14.7186
 182   2.0000      -0.539304       -14.6752
 183   2.0000      -0.538912       -14.6645
 184   2.0000      -0.536890       -14.6095
 185   2.0000      -0.532153       -14.4806
 186   2.0000      -0.530308       -14.4304
 187   2.0000      -0.528299       -14.3757
 188   2.0000      -0.527244       -14.3470
 189   2.0000      -0.520938       -14.1754
 190   2.0000      -0.519980       -14.1494
 191   2.0000      -0.516963       -14.0673
 192   2.0000      -0.516287       -14.0489
 193   2.0000      -0.515206       -14.0195
 194   2.0000      -0.513279       -13.9670
 195   2.0000      -0.512221       -13.9382
 196   2.0000      -0.511748       -13.9254
 197   2.0000      -0.507729       -13.8160
 198   2.0000      -0.505866       -13.7653
 199   2.0000      -0.498920       -13.5763
 200   2.0000      -0.498492       -13.5647
 201   2.0000      -0.493712       -13.4346
 202   2.0000      -0.493008       -13.4154
 203   2.0000      -0.490918       -13.3586
 204   2.0000      -0.489287       -13.3142
 205   2.0000      -0.487715       -13.2714
 206   2.0000      -0.485484       -13.2107
 207   2.0000      -0.482911       -13.1407
 208   2.0000      -0.481113       -13.0917
 209   2.0000      -0.476953       -12.9785
 210   2.0000      -0.471491       -12.8299
 211   2.0000      -0.470994       -12.8164
 212   2.0000      -0.469781       -12.7834
 213   2.0000      -0.467913       -12.7326
 214   2.0000      -0.467255       -12.7147
 215   2.0000      -0.466127       -12.6840
 216   2.0000      -0.464516       -12.6401
 217   2.0000      -0.456788       -12.4298
 218   2.0000      -0.456249       -12.4152
 219   2.0000      -0.453197       -12.3321
 220   2.0000      -0.451868       -12.2959
 221   2.0000      -0.449803       -12.2398
 222   2.0000      -0.447964       -12.1897
 223   2.0000      -0.446955       -12.1623
 224   2.0000      -0.443156       -12.0589
 225   2.0000      -0.441987       -12.0271
 226   2.0000      -0.437879       -11.9153
 227   2.0000      -0.435591       -11.8530
 228   2.0000      -0.434524       -11.8240
 229   2.0000      -0.430901       -11.7254
 230   2.0000      -0.429881       -11.6977
 231   2.0000      -0.427953       -11.6452
 232   2.0000      -0.425900       -11.5893
 233   2.0000      -0.425740       -11.5850
 234   2.0000      -0.422371       -11.4933
 235   2.0000      -0.422082       -11.4854
 236   2.0000      -0.420683       -11.4474
 237   2.0000      -0.419159       -11.4059
 238   2.0000      -0.418672       -11.3927
 239   2.0000      -0.416973       -11.3464
 240   2.0000      -0.413365       -11.2482
 241   2.0000      -0.409456       -11.1419
 242   2.0000      -0.407440       -11.0870
 243   2.0000      -0.405025       -11.0213
 244   2.0000      -0.401742       -10.9319
 245   2.0000      -0.395100       -10.7512
 246   2.0000      -0.391752       -10.6601
 247   2.0000      -0.389871       -10.6089
 248   2.0000      -0.388067       -10.5598
 249   2.0000      -0.387626       -10.5478
 250   2.0000      -0.385419       -10.4878
 251   2.0000      -0.380604       -10.3568
 252   2.0000      -0.379838       -10.3359
 253   2.0000      -0.372658       -10.1406
 254   2.0000      -0.364798        -9.9266
 255   2.0000      -0.352741        -9.5986
 256   2.0000      -0.339438        -9.2366
 257   2.0000      -0.334157        -9.0929
 258   2.0000      -0.332277        -9.0417
 259   2.0000      -0.330062        -8.9814
 260   2.0000      -0.322864        -8.7856
 261   2.0000      -0.317155        -8.6302
 262   2.0000      -0.316840        -8.6217
 263   2.0000      -0.312964        -8.5162
 264   2.0000      -0.312413        -8.5012
 265   2.0000      -0.303540        -8.2597
 266   2.0000      -0.299040        -8.1373
 267   2.0000      -0.294775        -8.0212
 268   2.0000      -0.289912        -7.8889
 269   2.0000      -0.274013        -7.4563
 270   2.0000      -0.255381        -6.9493
 271   2.0000      -0.237585        -6.4650
 272   2.0000      -0.190453        -5.1825
 273   0.0000      -0.096660        -2.6302
 274   0.0000      -0.069578        -1.8933
 275   0.0000      -0.061709        -1.6792
 276   0.0000      -0.048482        -1.3193
 277   0.0000      -0.037707        -1.0261

MULLIKEN ATOMIC CHARGES
-----------------------
   0 C :    0.292217
   1 C :   -0.335108
   2 C :   -0.185090
   3 N :    0.152304
   4 C :   -0.206876
   5 N :    0.160201
   6 C :    0.017103
   7 C :   -0.015530
   8 C :   -0.064074
   9 C :    0.110982
  10 C :   -0.095946
  11 C :   -0.022835
  12 S :    0.140695
  13 C :   -0.049125
  14 C :    0.027410
  15 C :    0.148965
  16 O :   -0.160250
  17 C :   -0.095383
  18 C :    0.007332
  19 C :   -0.139591
  20 S :    0.168040
  21 C :   -0.106645
  22 C :   -0.028416
  23 C :   -0.000197
  24 S :    0.123140
  25 C :    0.092197
  26 O :   -0.146962
  27 C :    0.086221
  28 O :   -0.116672
  29 S :    0.051194
  30 C :    0.062143
  31 C :   -0.014694
  32 C :    0.112755
  33 C :   -0.103940
  34 C :    0.017833
  35 C :    0.111961
  36 C :   -0.046612
  37 C :   -0.008100
  38 C :    0.098796
  39 C :    0.027638
  40 C :   -0.142373
  41 C :    0.067837
  42 C :    0.027221
  43 C :    0.073806
  44 C :    0.022181
  45 C :   -0.113652
  46 C :    0.133184
  47 C :   -0.012338
  48 C :   -0.040141
  49 C :   -0.023795
  50 C :    0.022042
  51 C :   -0.023601
  52 C :   -0.010627
  53 C :    0.026963
  54 C :    0.027618
  55 C :   -0.050429
  56 S :    0.041865
  57 C :   -0.029173
  58 C :    0.017198
  59 C :    0.035070
  60 C :   -0.036216
  61 S :    0.012030
  62 C :   -0.026385
  63 C :   -0.029230
  64 N :   -0.046814
  65 C :   -0.034903
  66 C :    0.053438
  67 C :    0.045308
  68 N :   -0.034982
  69 C :    0.005377
  70 C :    0.024641
  71 C :    0.007633
  72 C :   -0.026184
  73 H :   -0.010281
  74 H :   -0.005866
  75 H :    0.039306
  76 H :   -0.005955
  77 H :    0.032459
  78 H :   -0.015167
  79 H :    0.002193
  80 H :   -0.035569
  81 H :   -0.035127
  82 H :   -0.030851
  83 H :   -0.001920
  84 H :   -0.002761
  85 H :    0.022769
  86 H :    0.009151
  87 H :    0.018833
  88 H :   -0.003612
  89 H :   -0.002672
  90 H :    0.019413
  91 H :    0.009780
  92 H :    0.023958
  93 H :   -0.044135
  94 H :   -0.032979
  95 H :   -0.039869
  96 H :   -0.030696
  97 H :   -0.001531
  98 H :   -0.023666
  99 H :   -0.018054
 100 H :   -0.017095
 101 H :   -0.019779
 102 H :   -0.018953
 103 H :   -0.033899
 104 H :    0.128870
 105 H :   -0.004862
 106 H :    0.121246
 107 H :   -0.011954
 108 H :   -0.024674
 109 H :   -0.000368
 110 H :    0.014671
Sum of atomic charges:   -0.0000000

LOEWDIN ATOMIC CHARGES
----------------------
   0 C :    0.075695
   1 C :   -0.138960
   2 C :   -0.018202
   3 N :   -0.051803
   4 C :   -0.025296
   5 N :   -0.050712
   6 C :   -0.023630
   7 C :   -0.050507
   8 C :    0.023737
   9 C :   -0.034168
  10 C :   -0.146218
  11 C :   -0.007970
  12 S :    0.429506
  13 C :   -0.148857
  14 C :   -0.057001
  15 C :    0.073114
  16 O :   -0.157838
  17 C :   -0.094316
  18 C :    0.037285
  19 C :   -0.203427
  20 S :    0.468974
  21 C :   -0.152264
  22 C :   -0.221247
  23 C :   -0.177436
  24 S :    0.431130
  25 C :   -0.111207
  26 O :   -0.113579
  27 C :   -0.097129
  28 O :   -0.088464
  29 S :    0.375819
  30 C :   -0.067080
  31 C :    0.010682
  32 C :   -0.036617
  33 C :   -0.011422
  34 C :    0.001667
  35 C :   -0.003822
  36 C :   -0.019607
  37 C :   -0.007221
  38 C :   -0.028923
  39 C :    0.005495
  40 C :   -0.035332
  41 C :   -0.011438
  42 C :   -0.057268
  43 C :   -0.010955
  44 C :   -0.057927
  45 C :   -0.025727
  46 C :   -0.016097
  47 C :   -0.017637
  48 C :   -0.015059
  49 C :   -0.032526
  50 C :   -0.024356
  51 C :   -0.071348
  52 C :   -0.138237
  53 C :   -0.047745
  54 C :   -0.029034
  55 C :   -0.195994
  56 S :    0.352048
  57 C :   -0.167505
  58 C :   -0.056282
  59 C :   -0.027086
  60 C :   -0.180006
  61 S :    0.349307
  62 C :   -0.046613
  63 C :   -0.066342
  64 N :    0.099012
  65 C :   -0.000125
  66 C :   -0.077953
  67 C :   -0.010896
  68 N :    0.068362
  69 C :    0.016870
  70 C :   -0.083505
  71 C :   -0.016712
  72 C :   -0.062866
  73 H :    0.041051
  74 H :    0.040735
  75 H :    0.029565
  76 H :    0.035728
  77 H :    0.046429
  78 H :    0.027516
  79 H :    0.016229
  80 H :    0.025817
  81 H :    0.027586
  82 H :    0.025260
  83 H :    0.020221
  84 H :    0.019557
  85 H :    0.026156
  86 H :    0.024277
  87 H :    0.024640
  88 H :    0.019366
  89 H :    0.020180
  90 H :    0.024544
  91 H :    0.024171
  92 H :    0.026429
  93 H :    0.022780
  94 H :    0.025358
  95 H :    0.025677
  96 H :    0.024398
  97 H :    0.018056
  98 H :    0.029615
  99 H :    0.031061
 100 H :    0.030389
 101 H :    0.029949
 102 H :    0.030815
 103 H :    0.035819
 104 H :    0.065781
 105 H :    0.021825
 106 H :    0.088137
 107 H :    0.019188
 108 H :    0.027193
 109 H :    0.015583
 110 H :    0.021709

  Mayer bond orders larger than 0.100000
B(  0-C ,  1-C ) :   1.6439 B(  0-C ,  6-C ) :   1.0110 B(  0-C , 17-C ) :   1.0636
B(  1-C ,  2-C ) :   1.1408 B(  1-C ,  4-C ) :   1.1385 B(  2-C ,  3-N ) :   2.9731
B(  4-C ,  5-N ) :   2.9963 B(  6-C ,  7-C ) :   1.2613 B(  6-C , 11-C ) :   1.4142
B(  7-C ,  8-C ) :   1.4306 B(  7-C , 15-C ) :   0.9491 B(  8-C ,  9-C ) :   1.2433
B(  8-C , 73-H ) :   1.0161 B(  9-C , 10-C ) :   1.3036 B(  9-C , 14-C ) :   1.1739
B( 10-C , 11-C ) :   1.3211 B( 10-C , 12-S ) :   1.0981 B( 11-C , 74-H ) :   0.9828
B( 12-S , 13-C ) :   1.1270 B( 13-C , 14-C ) :   1.6278 B( 13-C , 75-H ) :   0.9685
B( 14-C , 76-H ) :   0.9990 B( 15-C , 16-O ) :   2.1893 B( 15-C , 17-C ) :   0.9590
B( 17-C , 18-C ) :   1.5971 B( 18-C , 19-C ) :   1.1798 B( 18-C , 77-H ) :   0.9347
B( 19-C , 20-S ) :   1.0991 B( 19-C , 21-C ) :   0.1001 B( 19-C , 23-C ) :   1.5023
B( 20-S , 21-C ) :   1.1550 B( 21-C , 22-C ) :   1.5063 B( 21-C , 30-C ) :   1.1462
B( 22-C , 23-C ) :   1.3005 B( 22-C , 29-S ) :   0.9764 B( 23-C , 24-S ) :   1.0070
B( 24-S , 25-C ) :   1.0603 B( 24-S , 26-O ) :   0.1370 B( 25-C , 26-O ) :   2.1361
B( 25-C , 27-C ) :   0.7752 B( 27-C , 28-O ) :   2.1873 B( 27-C , 29-S ) :   1.0229
B( 28-O , 29-S ) :   0.1226 B( 30-C , 31-C ) :   1.6489 B( 30-C , 78-H ) :   0.9428
B( 31-C , 32-C ) :   1.1067 B( 31-C , 79-H ) :   0.9718 B( 32-C , 33-C ) :   1.2712
B( 32-C , 37-C ) :   1.3327 B( 33-C , 34-C ) :   1.3852 B( 33-C , 80-H ) :   1.0135
B( 34-C , 35-C ) :   1.3610 B( 34-C , 40-C ) :   0.9141 B( 35-C , 36-C ) :   1.3226
B( 35-C , 38-C ) :   1.0103 B( 36-C , 37-C ) :   1.4097 B( 36-C , 81-H ) :   0.9890
B( 37-C , 82-H ) :   0.9829 B( 38-C , 39-C ) :   1.3602 B( 38-C , 48-C ) :   1.3195
B( 39-C , 40-C ) :   0.9160 B( 39-C , 45-C ) :   1.3854 B( 40-C , 41-C ) :   1.0383
B( 40-C , 43-C ) :   1.0367 B( 41-C , 42-C ) :   1.1014 B( 41-C , 83-H ) :   0.9392
B( 41-C , 84-H ) :   0.9392 B( 42-C , 85-H ) :   0.9642 B( 42-C , 86-H ) :   0.9639
B( 42-C , 87-H ) :   0.9646 B( 43-C , 44-C ) :   1.0990 B( 43-C , 88-H ) :   0.9396
B( 43-C , 89-H ) :   0.9394 B( 44-C , 90-H ) :   0.9646 B( 44-C , 91-H ) :   0.9641
B( 44-C , 92-H ) :   0.9650 B( 45-C , 46-C ) :   1.2768 B( 45-C , 93-H ) :   1.0129
B( 46-C , 47-C ) :   1.3300 B( 46-C , 49-C ) :   1.0777 B( 47-C , 48-C ) :   1.4129
B( 47-C , 94-H ) :   0.9824 B( 48-C , 95-H ) :   0.9882 B( 49-C , 50-C ) :   1.6371
B( 49-C , 96-H ) :   0.9891 B( 50-C , 51-C ) :   1.1593 B( 50-C , 97-H ) :   0.9614
B( 51-C , 52-C ) :   1.5510 B( 51-C , 98-H ) :   0.9859 B( 52-C , 53-C ) :   1.1494
B( 52-C , 56-S ) :   1.0343 B( 53-C , 54-C ) :   1.5761 B( 53-C , 99-H ) :   0.9986
B( 54-C , 55-C ) :   1.2031 B( 54-C ,100-H ) :   0.9933 B( 55-C , 56-S ) :   1.0299
B( 55-C , 57-C ) :   1.4978 B( 57-C , 58-C ) :   1.2005 B( 57-C , 61-S ) :   1.0517
B( 58-C , 59-C ) :   1.5721 B( 58-C ,101-H ) :   0.9918 B( 59-C , 60-C ) :   1.1620
B( 59-C ,102-H ) :   0.9982 B( 60-C , 61-S ) :   0.9984 B( 60-C , 62-C ) :   1.5456
B( 62-C , 63-C ) :   1.2058 B( 62-C ,103-H ) :   0.9612 B( 63-C , 64-N ) :   1.1996
B( 63-C , 65-C ) :   0.1101 B( 63-C , 67-C ) :   1.2241 B( 64-N , 65-C ) :   1.2700
B( 64-N ,104-H ) :   0.9169 B( 65-C , 66-C ) :   1.3400 B( 65-C ,105-H ) :   0.9915
B( 66-C , 67-C ) :   1.3265 B( 66-C , 70-C ) :   1.1204 B( 67-C , 68-N ) :   1.1991
B( 68-N , 69-C ) :   1.1709 B( 68-N ,106-H ) :   0.9398 B( 69-C , 70-C ) :   1.5393
B( 69-C ,107-H ) :   0.9831 B( 70-C , 71-C ) :   1.0937 B( 71-C , 72-C ) :   1.9492
B( 71-C ,108-H ) :   0.9663 B( 72-C ,109-H ) :   0.9532 B( 72-C ,110-H ) :   0.9502

-----------------------------------------------------------------------------
         ABSORPTION SPECTRUM VIA TRANSITION ELECTRIC DIPOLE MOMENTS
-----------------------------------------------------------------------------
State   Energy  Wavelength   fosc         T2         TX        TY        TZ
        (cm-1)    (nm)                  (au**2)     (au)      (au)      (au)
-----------------------------------------------------------------------------
   0   12604.9    793.3   1.236582296  32.29685   2.90811   4.87017  -0.34820
   1   14989.0    667.2   0.485960474  10.67345  -2.38358  -0.90390  -2.04327
   2   19379.1    516.0   1.438095823  24.43037  -0.93948   3.42164  -3.44095
   3   21359.4    468.2   0.091677891   1.41303  -0.66049   0.25835  -0.95395
   4   22767.6    439.2   0.075979680   1.09864   0.43615   0.91781  -0.25697
   5   24174.8    413.7   0.461584315   6.28583   0.16959  -1.61111   1.91348
   6   24471.2    408.6   0.009014528   0.12127  -0.04378   0.15411  -0.30920
   7   25247.4    396.1   0.264165166   3.44457  -0.54655   0.48067  -1.70728
   8   25702.8    389.1   0.136450124   1.74771   0.29513   1.15277  -0.57596
   9   26157.8    382.3   0.015874819   0.19979  -0.00228  -0.31015  -0.32186
  10   27045.0    369.8   0.368231902   4.48240   1.04207  -1.74336   0.59765
  11   27334.8    365.8   0.025003273   0.30113   0.47331  -0.09209   0.26197
  12   27522.1    363.3   0.098598364   1.17941  -0.22591  -0.61315   0.86742
  13   28169.1    355.0   0.103835791   1.21353   0.47239  -0.64214   0.76028
  14   28749.4    347.8   0.172182847   1.97168   0.17008   0.30455  -1.36015
  15   29325.8    341.0   0.066584995   0.74748   0.16357  -0.30308  -0.79301
  16   29643.9    337.3   0.038614167   0.42883  -0.19295   0.18096  -0.59905
  17   29898.6    334.5   0.124577938   1.37172  -0.56248   0.88457  -0.52238
  18   29950.0    333.9   0.000526128   0.00578   0.07275  -0.01936   0.01074
  19   31347.5    319.0   0.080953444   0.85017  -0.64048  -0.54013  -0.38501
  20   31771.7    314.7   0.040540484   0.42007  -0.04373  -0.23816   0.60120
  21   32203.5    310.5   0.004204604   0.04298   0.18366  -0.09306   0.02431
  22   32212.7    310.4   0.033180267   0.33910  -0.05004  -0.23913  -0.52860
  23   32694.8    305.9   0.010688482   0.10762   0.30387  -0.09388  -0.08045
  24   32946.2    303.5   0.429004600   4.28679  -1.18821   1.62587   0.48113
  25   33363.1    299.7   0.103152355   1.01786  -0.56882  -0.37797   0.74259
  26   33719.0    296.6   0.143179989   1.39792   0.33813  -0.81425  -0.78777
  27   33962.8    294.4   0.050492513   0.48944  -0.16483   0.29284   0.61361
  28   34103.2    293.2   0.029699915   0.28671  -0.08161   0.38921   0.35855
  29   34271.9    291.8   0.022985585   0.22080   0.45755  -0.09819   0.04247
  30   34668.6    288.4   0.005759174   0.05469  -0.18507  -0.02248  -0.14118
  31   34982.9    285.9   0.003666187   0.03450  -0.09537   0.10373   0.12101
  32   35047.0    285.3   0.093049400   0.87405  -0.05368  -0.18470  -0.91491
  33   35408.0    282.4   0.003196841   0.02972  -0.00948   0.17155   0.01424
  34   35513.7    281.6   0.042127665   0.39052   0.03299   0.33420  -0.52702
  35   35681.7    280.3   0.047140774   0.43494  -0.04423  -0.61811   0.22567
  36   35789.3    279.4   0.054608627   0.50232   0.06358   0.40256  -0.57985
  37   36790.5    271.8   0.048300427   0.43221   0.25849   0.57691  -0.18045
  38   37248.0    268.5   0.003441355   0.03042  -0.17238  -0.01048   0.02428
  39   37618.9    265.8   0.012041676   0.10538  -0.07050  -0.21585   0.23199
  40   37695.6    265.3   0.088948620   0.77683  -0.31819   0.22713   0.78993
  41   37973.4    263.3   0.026185811   0.22702   0.14847  -0.43058  -0.13991
  42   38373.5    260.6   0.050194560   0.43063  -0.10011   0.31933  -0.56448
  43   38694.6    258.4   0.062732922   0.53373  -0.33845  -0.53389   0.36626
  44   38828.1    257.5   0.126571353   1.07316   0.06258  -0.49951   0.90539
  45   39308.3    254.4   0.024699083   0.20686  -0.16015  -0.16747   0.39136
  46   39475.5    253.3   0.023927459   0.19955  -0.37380  -0.09410  -0.22576
  47   39636.1    252.3   0.019193645   0.15942  -0.22705  -0.16409  -0.28450
  48   39879.9    250.8   0.002021265   0.01669   0.00446   0.12910   0.00045
  49   39960.4    250.2   0.028361902   0.23366   0.31187  -0.21121   0.30297
  50   40085.3    249.5   0.007353721   0.06039  -0.24533   0.01013   0.01032
  51   40229.9    248.6   0.041229847   0.33739   0.17771   0.18974   0.51944

FINAL SINGLE POINT ENERGY     -5138.743343988915

DIPOLE MOMENT
-------------
                                X             Y             Z
Electronic contribution:     -8.83908    -106.60649      67.49645
Nuclear contribution   :     11.40846     110.01568     -69.64981
                        -----------------------------------------
Total Dipole Moment    :      2.56938       3.40919      -2.15336
                        -----------------------------------------
Magnitude (a.u.)       :      4.78135
Magnitude (Debye)      :     12.15322

Rotational constants in cm-1:     0.001091     0.000170     0.000153
Rotational constants in MHz :    32.708807     5.095030     4.601014

                             ****ORCA TERMINATED NORMALLY****
TOTAL RUN TIME: 0 days 0 hours 10 minutes 57 seconds 990 msec
