                         Program Version 4.2.0 -  RELEASE  -
|  1> # ORCA input file
|  2> # SCF done       -207.921347780956          0.000594992314
|  3> ! CAM-B3LYP def2-SVP def2/J RIJCOSX Grid4 TightSCF
|  4> %maxcore 5000
|  5> %tddft
|  6>     Mode sTDDFT
|  7>     Ethresh 5.0
|  8>     maxcore 5000
|  9> end
| 10>
| 11> %pal
| 12>   nprocs 6
| 13>   end
| 14> * xyz 0 1
| 15>    C       -3.31774         2.44485         2.39278
| 16>    C       -3.40488         1.11446         2.04854
| 17>    C       -2.31826         0.21724         2.12112
| 18>    N       -1.45858        -0.54365         2.13619
| 19>    C       -4.52775         0.45597         1.51040
| 20>    N       -5.36776        -0.16864         1.03304
| 21>    C       -2.11312         3.12120         2.86893
| 22>    C       -2.38632         4.50824         2.98918
| 23>    C       -1.44162         5.41502         3.40332
| 24>    C       -0.16650         4.93424         3.71846
| 25>    C        0.09366         3.54862         3.60501
| 26>    C       -0.86163         2.62959         3.18446
| 27>    S        1.73005         3.17823         4.04945
| 28>    C        2.04560         4.84806         4.37451
| 29>    C        0.98010         5.65106         4.16350
| 30>    C       -3.78944         4.76458         2.61185
| 31>    O       -4.35372         5.84056         2.58237
| 32>    C       -4.35655         3.43925         2.28519
| 33>    C       -5.66884         3.19765         1.95146
| 34>    C       -6.67899         4.14164         1.77425
| 35>    C       -7.93956         3.73481         1.36952
| 36>    C       -9.09231         4.49910         1.08341
| 37>    C      -10.16255         3.75680         0.65569
| 38>    C       -9.89840         2.37655         0.59820
| 39>    S       -8.26193         2.04240         1.08947
| 40>    C      -10.66029         1.27509         0.21857
| 41>    C      -11.92110         1.14472        -0.38483
| 42>    C      -12.22309        -0.15536        -0.68858
| 43>    C      -11.22303        -1.09662        -0.33491
| 44>    S       -9.92088        -0.28651         0.48465
| 45>    C      -11.24721        -2.42572        -0.71696
| 46>    C      -10.28530        -3.43694        -0.58304
| 47>    C       -9.10295        -3.39123         0.21275
| 48>    C       -8.13686        -4.46009         0.21789
| 49>    N       -6.96781        -4.29788         0.86130
| 50>    C       -6.77298        -3.22337         1.58427
| 51>    C       -7.79890        -2.24186         1.72245
| 52>    N       -8.90121        -2.34427         1.00647
| 53>    C       -7.65037        -1.16364         2.62494
| 54>    N       -7.51700        -0.32795         3.39855
| 55>    C       -5.53178        -3.04429         2.24843
| 56>    N       -4.55161        -2.87827         2.81621
| 57>    C       -8.34864        -5.65677        -0.49288
| 58>    C       -9.51020        -5.72572        -1.28604
| 59>    C      -10.46700        -4.64585        -1.31539
| 60>    N      -11.49919        -4.92275        -2.10494
| 61>    S      -11.29648        -6.39063        -2.73958
| 62>    N       -9.89016        -6.74862        -2.04994
| 63>    C       -7.38655        -6.72055        -0.45447
| 64>    O       -7.09303        -7.36934        -1.58463
| 65>    C       -6.09434        -8.24471        -1.34397
| 66>    C       -5.74375        -8.18147         0.00796
| 67>    C       -6.59700        -7.20372         0.58617
| 68>    C       -6.82348        -6.94048         2.03268
| 69>    F       -8.00187        -6.34397         2.27749
| 70>    F       -6.87209        -8.09202         2.73965
| 71>    F       -5.88712        -6.18946         2.63533
| 72>    O       -4.76165        -8.92747         0.54079
| 73>    C       -4.10057        -8.47373         1.71213
| 74>    C       -5.56493        -9.01951        -2.43554
| 75>    C       -4.53825        -9.95280        -2.22788
| 76>    C       -4.02421       -10.62643        -3.30758
| 77>    C       -4.52026       -10.39975        -4.60312
| 78>    C       -5.55670        -9.49841        -4.80991
| 79>    C       -6.07123        -8.81571        -3.72838
| 80>    C       -3.75423       -11.20051        -5.53280
| 81>    C       -2.78812       -11.92584        -4.81315
| 82>    C       -2.93969       -11.68262        -3.32855
| 83>    C       -1.63937       -11.19413        -2.67521
| 84>    C       -1.13452        -9.89409        -3.29073
| 85>    C       -3.51270       -12.92341        -2.60260
| 86>    C       -2.65128       -14.17817        -2.65505
| 87>    C       -1.86426       -12.69332        -5.48264
| 88>    C       -1.90740       -12.78543        -6.88063
| 89>    C       -2.89938       -12.08664        -7.57571
| 90>    C       -3.81414       -11.29071        -6.91612
| 91>    C       -0.90642       -13.60513        -7.54870
| 92>    C       -0.76016       -13.78139        -8.85751
| 93>    H       -1.67972         6.46460         3.48178
| 94>    H       -0.61371         1.58363         3.11828
| 95>    H        3.02564         5.12847         4.70858
| 96>    H        0.98944         6.71571         4.31271
| 97>    H       -5.95217         2.16206         1.80295
| 98>    H       -6.47184         5.19043         1.92725
| 99>    H       -9.10170         5.56896         1.19535
|100>    H      -11.12148         4.16826         0.39382
|101>    H      -12.55560         1.98432        -0.60913
|102>    H      -13.12727        -0.46376        -1.18442
|103>    H      -12.11612        -2.72779        -1.29105
|104>    H       -3.13711        -8.98212         1.71500
|105>    H       -4.64900        -8.74958         2.61443
|106>    H       -3.94057        -7.39421         1.68922
|107>    H       -4.16433       -10.11812        -1.23189
|108>    H       -5.94943        -9.32854        -5.80117
|109>    H       -6.87182        -8.10512        -3.86307
|110>    H       -0.87201       -11.96118        -2.78695
|111>    H       -1.81634       -11.04702        -1.60787
|112>    H       -0.94999       -10.02108        -4.35545
|113>    H       -0.20570        -9.58884        -2.81417
|114>    H       -1.86509        -9.09872        -3.16239
|115>    H       -4.48657       -13.14917        -3.04516
|116>    H       -3.68145       -12.64691        -1.55954
|117>    H       -2.53694       -14.52726        -3.67767
|118>    H       -3.13142       -14.96791        -2.08095
|119>    H       -1.66755       -14.00301        -2.22761
|120>    H       -1.08598       -13.21758        -4.94715
|121>    H       -2.94555       -12.15840        -8.65112
|122>    H       -4.55945       -10.73982        -7.47056
|123>    H       -0.21913       -14.10738        -6.87782
|124>    H       -1.39794       -13.31215        -9.58658
|125>    H        0.01973       -14.40978        -9.25207
|126> *
|127>
|128>                          ****END OF INPUT****

CARTESIAN COORDINATES (ANGSTROEM)
---------------------------------
  C     -3.317740    2.444850    2.392780
  C     -3.404880    1.114460    2.048540
  C     -2.318260    0.217240    2.121120
  N     -1.458580   -0.543650    2.136190
  C     -4.527750    0.455970    1.510400
  N     -5.367760   -0.168640    1.033040
  C     -2.113120    3.121200    2.868930
  C     -2.386320    4.508240    2.989180
  C     -1.441620    5.415020    3.403320
  C     -0.166500    4.934240    3.718460
  C      0.093660    3.548620    3.605010
  C     -0.861630    2.629590    3.184460
  S      1.730050    3.178230    4.049450
  C      2.045600    4.848060    4.374510
  C      0.980100    5.651060    4.163500
  C     -3.789440    4.764580    2.611850
  O     -4.353720    5.840560    2.582370
  C     -4.356550    3.439250    2.285190
  C     -5.668840    3.197650    1.951460
  C     -6.678990    4.141640    1.774250
  C     -7.939560    3.734810    1.369520
  C     -9.092310    4.499100    1.083410
  C    -10.162550    3.756800    0.655690
  C     -9.898400    2.376550    0.598200
  S     -8.261930    2.042400    1.089470
  C    -10.660290    1.275090    0.218570
  C    -11.921100    1.144720   -0.384830
  C    -12.223090   -0.155360   -0.688580
  C    -11.223030   -1.096620   -0.334910
  S     -9.920880   -0.286510    0.484650
  C    -11.247210   -2.425720   -0.716960
  C    -10.285300   -3.436940   -0.583040
  C     -9.102950   -3.391230    0.212750
  C     -8.136860   -4.460090    0.217890
  N     -6.967810   -4.297880    0.861300
  C     -6.772980   -3.223370    1.584270
  C     -7.798900   -2.241860    1.722450
  N     -8.901210   -2.344270    1.006470
  C     -7.650370   -1.163640    2.624940
  N     -7.517000   -0.327950    3.398550
  C     -5.531780   -3.044290    2.248430
  N     -4.551610   -2.878270    2.816210
  C     -8.348640   -5.656770   -0.492880
  C     -9.510200   -5.725720   -1.286040
  C    -10.467000   -4.645850   -1.315390
  N    -11.499190   -4.922750   -2.104940
  S    -11.296480   -6.390630   -2.739580
  N     -9.890160   -6.748620   -2.049940
  C     -7.386550   -6.720550   -0.454470
  O     -7.093030   -7.369340   -1.584630
  C     -6.094340   -8.244710   -1.343970
  C     -5.743750   -8.181470    0.007960
  C     -6.597000   -7.203720    0.586170
  C     -6.823480   -6.940480    2.032680
  F     -8.001870   -6.343970    2.277490
  F     -6.872090   -8.092020    2.739650
  F     -5.887120   -6.189460    2.635330
  O     -4.761650   -8.927470    0.540790
  C     -4.100570   -8.473730    1.712130
  C     -5.564930   -9.019510   -2.435540
  C     -4.538250   -9.952800   -2.227880
  C     -4.024210  -10.626430   -3.307580
  C     -4.520260  -10.399750   -4.603120
  C     -5.556700   -9.498410   -4.809910
  C     -6.071230   -8.815710   -3.728380
  C     -3.754230  -11.200510   -5.532800
  C     -2.788120  -11.925840   -4.813150
  C     -2.939690  -11.682620   -3.328550
  C     -1.639370  -11.194130   -2.675210
  C     -1.134520   -9.894090   -3.290730
  C     -3.512700  -12.923410   -2.602600
  C     -2.651280  -14.178170   -2.655050
  C     -1.864260  -12.693320   -5.482640
  C     -1.907400  -12.785430   -6.880630
  C     -2.899380  -12.086640   -7.575710
  C     -3.814140  -11.290710   -6.916120
  C     -0.906420  -13.605130   -7.548700
  C     -0.760160  -13.781390   -8.857510
  H     -1.679720    6.464600    3.481780
  H     -0.613710    1.583630    3.118280
  H      3.025640    5.128470    4.708580
  H      0.989440    6.715710    4.312710
  H     -5.952170    2.162060    1.802950
  H     -6.471840    5.190430    1.927250
  H     -9.101700    5.568960    1.195350
  H    -11.121480    4.168260    0.393820
  H    -12.555600    1.984320   -0.609130
  H    -13.127270   -0.463760   -1.184420
  H    -12.116120   -2.727790   -1.291050
  H     -3.137110   -8.982120    1.715000
  H     -4.649000   -8.749580    2.614430
  H     -3.940570   -7.394210    1.689220
  H     -4.164330  -10.118120   -1.231890
  H     -5.949430   -9.328540   -5.801170
  H     -6.871820   -8.105120   -3.863070
  H     -0.872010  -11.961180   -2.786950
  H     -1.816340  -11.047020   -1.607870
  H     -0.949990  -10.021080   -4.355450
  H     -0.205700   -9.588840   -2.814170
  H     -1.865090   -9.098720   -3.162390
  H     -4.486570  -13.149170   -3.045160
  H     -3.681450  -12.646910   -1.559540
  H     -2.536940  -14.527260   -3.677670
  H     -3.131420  -14.967910   -2.080950
  H     -1.667550  -14.003010   -2.227610
  H     -1.085980  -13.217580   -4.947150
  H     -2.945550  -12.158400   -8.651120
  H     -4.559450  -10.739820   -7.470560
  H     -0.219130  -14.107380   -6.877820
  H     -1.397940  -13.312150   -9.586580
  H      0.019730  -14.409780   -9.252070

 Total Charge           Charge          ....    0
 Multiplicity           Mult            ....    1
 Number of Electrons    NEL             ....  564
 Basis Dimension        Dim             .... 1273

ORBITAL ENERGIES
----------------

  NO   OCC          E(Eh)            E(eV)
   0   2.0000     -89.035352     -2422.7751
   1   2.0000     -88.961160     -2420.7562
   2   2.0000     -88.956450     -2420.6281
   3   2.0000     -88.955658     -2420.6065
   4   2.0000     -24.797619      -674.7775
   5   2.0000     -24.792997      -674.6517
   6   2.0000     -24.792260      -674.6317
   7   2.0000     -19.297373      -525.1082
   8   2.0000     -19.253025      -523.9014
   9   2.0000     -19.203248      -522.5470
  10   2.0000     -14.458861      -393.4456
  11   2.0000     -14.448749      -393.1705
  12   2.0000     -14.446513      -393.1096
  13   2.0000     -14.444281      -393.0489
  14   2.0000     -14.414775      -392.2460
  15   2.0000     -14.412828      -392.1930
  16   2.0000     -14.407017      -392.0349
  17   2.0000     -14.397079      -391.7644
  18   2.0000     -10.518972      -286.2358
  19   2.0000     -10.370011      -282.1823
  20   2.0000     -10.367701      -282.1195
  21   2.0000     -10.353163      -281.7239
  22   2.0000     -10.348858      -281.6067
  23   2.0000     -10.345890      -281.5260
  24   2.0000     -10.342300      -281.4283
  25   2.0000     -10.341081      -281.3951
  26   2.0000     -10.337699      -281.3031
  27   2.0000     -10.337313      -281.2926
  28   2.0000     -10.328801      -281.0610
  29   2.0000     -10.327761      -281.0327
  30   2.0000     -10.327309      -281.0204
  31   2.0000     -10.326382      -280.9951
  32   2.0000     -10.326306      -280.9931
  33   2.0000     -10.325846      -280.9806
  34   2.0000     -10.318542      -280.7818
  35   2.0000     -10.317342      -280.7492
  36   2.0000     -10.317206      -280.7455
  37   2.0000     -10.311561      -280.5918
  38   2.0000     -10.311365      -280.5865
  39   2.0000     -10.308975      -280.5215
  40   2.0000     -10.308281      -280.5026
  41   2.0000     -10.307722      -280.4874
  42   2.0000     -10.306707      -280.4597
  43   2.0000     -10.304328      -280.3950
  44   2.0000     -10.303668      -280.3771
  45   2.0000     -10.302389      -280.3423
  46   2.0000     -10.302336      -280.3408
  47   2.0000     -10.301110      -280.3074
  48   2.0000     -10.300540      -280.2919
  49   2.0000     -10.299967      -280.2763
  50   2.0000     -10.294065      -280.1157
  51   2.0000     -10.293695      -280.1057
  52   2.0000     -10.290206      -280.0107
  53   2.0000     -10.290125      -280.0085
  54   2.0000     -10.287128      -279.9270
  55   2.0000     -10.284713      -279.8613
  56   2.0000     -10.282754      -279.8080
  57   2.0000     -10.279554      -279.7209
  58   2.0000     -10.277762      -279.6721
  59   2.0000     -10.277136      -279.6551
  60   2.0000     -10.269728      -279.4535
  61   2.0000     -10.266371      -279.3622
  62   2.0000     -10.263040      -279.2715
  63   2.0000     -10.262401      -279.2541
  64   2.0000     -10.262049      -279.2446
  65   2.0000     -10.260895      -279.2131
  66   2.0000     -10.260812      -279.2109
  67   2.0000     -10.260646      -279.2064
  68   2.0000     -10.259749      -279.1820
  69   2.0000     -10.259575      -279.1772
  70   2.0000     -10.258808      -279.1564
  71   2.0000     -10.258314      -279.1429
  72   2.0000     -10.257749      -279.1276
  73   2.0000     -10.255480      -279.0658
  74   2.0000     -10.254715      -279.0450
  75   2.0000     -10.253740      -279.0184
  76   2.0000     -10.244585      -278.7693
  77   2.0000     -10.238309      -278.5986
  78   2.0000      -8.126913      -221.1445
  79   2.0000      -8.054913      -219.1853
  80   2.0000      -8.052605      -219.1225
  81   2.0000      -8.051895      -219.1032
  82   2.0000      -6.098058      -165.9366
  83   2.0000      -6.090272      -165.7247
  84   2.0000      -6.089515      -165.7041
  85   2.0000      -6.024852      -163.9446
  86   2.0000      -6.022105      -163.8698
  87   2.0000      -6.021489      -163.8530
  88   2.0000      -6.020126      -163.8160
  89   2.0000      -6.017836      -163.7536
  90   2.0000      -6.017237      -163.7373
  91   2.0000      -6.016162      -163.7081
  92   2.0000      -6.014310      -163.6577
  93   2.0000      -6.013116      -163.6252
  94   2.0000      -1.384870       -37.6842
  95   2.0000      -1.287770       -35.0420
  96   2.0000      -1.282490       -34.8983
  97   2.0000      -1.221782       -33.2464
  98   2.0000      -1.154836       -31.4247
  99   2.0000      -1.134232       -30.8640
 100   2.0000      -1.116210       -30.3736
 101   2.0000      -1.113519       -30.3004
 102   2.0000      -1.039703       -28.2918
 103   2.0000      -1.012941       -27.5635
 104   2.0000      -1.006998       -27.4018
 105   2.0000      -1.000872       -27.2351
 106   2.0000      -0.996309       -27.1109
 107   2.0000      -0.992469       -27.0064
 108   2.0000      -0.988227       -26.8910
 109   2.0000      -0.987677       -26.8761
 110   2.0000      -0.979822       -26.6623
 111   2.0000      -0.977755       -26.6061
 112   2.0000      -0.971556       -26.4374
 113   2.0000      -0.970758       -26.4157
 114   2.0000      -0.937662       -25.5151
 115   2.0000      -0.923955       -25.1421
 116   2.0000      -0.920791       -25.0560
 117   2.0000      -0.912730       -24.8367
 118   2.0000      -0.909907       -24.7598
 119   2.0000      -0.901626       -24.5345
 120   2.0000      -0.899568       -24.4785
 121   2.0000      -0.885397       -24.0929
 122   2.0000      -0.878625       -23.9086
 123   2.0000      -0.872256       -23.7353
 124   2.0000      -0.869117       -23.6499
 125   2.0000      -0.866112       -23.5681
 126   2.0000      -0.853937       -23.2368
 127   2.0000      -0.839575       -22.8460
 128   2.0000      -0.835789       -22.7430
 129   2.0000      -0.830771       -22.6064
 130   2.0000      -0.827851       -22.5270
 131   2.0000      -0.822840       -22.3906
 132   2.0000      -0.822240       -22.3743
 133   2.0000      -0.821121       -22.3438
 134   2.0000      -0.811680       -22.0869
 135   2.0000      -0.808321       -21.9955
 136   2.0000      -0.801669       -21.8145
 137   2.0000      -0.790444       -21.5091
 138   2.0000      -0.782764       -21.3001
 139   2.0000      -0.781042       -21.2532
 140   2.0000      -0.759704       -20.6726
 141   2.0000      -0.755421       -20.5561
 142   2.0000      -0.745774       -20.2935
 143   2.0000      -0.743083       -20.2203
 144   2.0000      -0.728599       -19.8262
 145   2.0000      -0.722098       -19.6493
 146   2.0000      -0.713687       -19.4204
 147   2.0000      -0.707240       -19.2450
 148   2.0000      -0.701672       -19.0935
 149   2.0000      -0.696108       -18.9421
 150   2.0000      -0.690768       -18.7967
 151   2.0000      -0.684687       -18.6313
 152   2.0000      -0.683072       -18.5873
 153   2.0000      -0.681883       -18.5550
 154   2.0000      -0.676943       -18.4206
 155   2.0000      -0.676165       -18.3994
 156   2.0000      -0.670020       -18.2322
 157   2.0000      -0.666760       -18.1435
 158   2.0000      -0.664179       -18.0732
 159   2.0000      -0.655786       -17.8449
 160   2.0000      -0.651073       -17.7166
 161   2.0000      -0.649495       -17.6737
 162   2.0000      -0.647673       -17.6241
 163   2.0000      -0.644419       -17.5355
 164   2.0000      -0.643027       -17.4977
 165   2.0000      -0.636666       -17.3246
 166   2.0000      -0.629027       -17.1167
 167   2.0000      -0.618805       -16.8385
 168   2.0000      -0.617731       -16.8093
 169   2.0000      -0.612589       -16.6694
 170   2.0000      -0.607095       -16.5199
 171   2.0000      -0.602425       -16.3928
 172   2.0000      -0.597655       -16.2630
 173   2.0000      -0.595483       -16.2039
 174   2.0000      -0.588229       -16.0065
 175   2.0000      -0.582558       -15.8522
 176   2.0000      -0.582091       -15.8395
 177   2.0000      -0.579520       -15.7696
 178   2.0000      -0.571444       -15.5498
 179   2.0000      -0.570270       -15.5178
 180   2.0000      -0.569224       -15.4894
 181   2.0000      -0.558623       -15.2009
 182   2.0000      -0.552659       -15.0386
 183   2.0000      -0.551634       -15.0107
 184   2.0000      -0.547950       -14.9105
 185   2.0000      -0.545879       -14.8541
 186   2.0000      -0.542442       -14.7606
 187   2.0000      -0.538474       -14.6526
 188   2.0000      -0.536467       -14.5980
 189   2.0000      -0.534712       -14.5503
 190   2.0000      -0.532578       -14.4922
 191   2.0000      -0.531332       -14.4583
 192   2.0000      -0.531209       -14.4549
 193   2.0000      -0.528405       -14.3786
 194   2.0000      -0.525702       -14.3051
 195   2.0000      -0.522537       -14.2189
 196   2.0000      -0.521153       -14.1813
 197   2.0000      -0.517414       -14.0795
 198   2.0000      -0.514738       -14.0067
 199   2.0000      -0.513630       -13.9766
 200   2.0000      -0.511387       -13.9155
 201   2.0000      -0.507774       -13.8172
 202   2.0000      -0.507079       -13.7983
 203   2.0000      -0.503719       -13.7069
 204   2.0000      -0.503273       -13.6948
 205   2.0000      -0.500900       -13.6302
 206   2.0000      -0.499017       -13.5789
 207   2.0000      -0.497487       -13.5373
 208   2.0000      -0.497051       -13.5254
 209   2.0000      -0.491340       -13.3700
 210   2.0000      -0.489781       -13.3276
 211   2.0000      -0.488560       -13.2944
 212   2.0000      -0.487132       -13.2555
 213   2.0000      -0.484980       -13.1970
 214   2.0000      -0.484830       -13.1929
 215   2.0000      -0.480826       -13.0840
 216   2.0000      -0.478662       -13.0250
 217   2.0000      -0.477107       -12.9828
 218   2.0000      -0.476443       -12.9647
 219   2.0000      -0.471393       -12.8273
 220   2.0000      -0.469775       -12.7832
 221   2.0000      -0.466433       -12.6923
 222   2.0000      -0.465163       -12.6577
 223   2.0000      -0.463551       -12.6139
 224   2.0000      -0.460100       -12.5199
 225   2.0000      -0.459295       -12.4980
 226   2.0000      -0.456475       -12.4213
 227   2.0000      -0.451271       -12.2797
 228   2.0000      -0.446584       -12.1522
 229   2.0000      -0.444158       -12.0862
 230   2.0000      -0.443197       -12.0600
 231   2.0000      -0.442056       -12.0289
 232   2.0000      -0.441265       -12.0074
 233   2.0000      -0.439945       -11.9715
 234   2.0000      -0.438377       -11.9289
 235   2.0000      -0.435412       -11.8482
 236   2.0000      -0.432309       -11.7637
 237   2.0000      -0.432034       -11.7562
 238   2.0000      -0.431419       -11.7395
 239   2.0000      -0.428190       -11.6517
 240   2.0000      -0.427748       -11.6396
 241   2.0000      -0.423562       -11.5257
 242   2.0000      -0.422488       -11.4965
 243   2.0000      -0.421676       -11.4744
 244   2.0000      -0.420081       -11.4310
 245   2.0000      -0.418491       -11.3877
 246   2.0000      -0.415655       -11.3105
 247   2.0000      -0.415146       -11.2967
 248   2.0000      -0.412962       -11.2373
 249   2.0000      -0.411660       -11.2018
 250   2.0000      -0.409759       -11.1501
 251   2.0000      -0.405937       -11.0461
 252   2.0000      -0.404982       -11.0201
 253   2.0000      -0.402751       -10.9594
 254   2.0000      -0.400820       -10.9069
 255   2.0000      -0.395904       -10.7731
 256   2.0000      -0.392034       -10.6678
 257   2.0000      -0.388900       -10.5825
 258   2.0000      -0.386702       -10.5227
 259   2.0000      -0.383461       -10.4345
 260   2.0000      -0.378175       -10.2907
 261   2.0000      -0.376056       -10.2330
 262   2.0000      -0.374450       -10.1893
 263   2.0000      -0.369653       -10.0588
 264   2.0000      -0.368233       -10.0201
 265   2.0000      -0.357454        -9.7268
 266   2.0000      -0.348812        -9.4917
 267   2.0000      -0.345553        -9.4030
 268   2.0000      -0.340062        -9.2536
 269   2.0000      -0.339077        -9.2268
 270   2.0000      -0.332496        -9.0477
 271   2.0000      -0.328615        -8.9421
 272   2.0000      -0.324151        -8.8206
 273   2.0000      -0.321037        -8.7359
 274   2.0000      -0.310885        -8.4596
 275   2.0000      -0.304698        -8.2913
 276   2.0000      -0.302286        -8.2256
 277   2.0000      -0.293626        -7.9900
 278   2.0000      -0.283516        -7.7149
 279   2.0000      -0.274213        -7.4617
 280   2.0000      -0.243624        -6.6293
 281   2.0000      -0.218837        -5.9549
 282   0.0000      -0.132454        -3.6043
 283   0.0000      -0.088792        -2.4162
 284   0.0000      -0.056297        -1.5319
 285   0.0000      -0.042627        -1.1600
 286   0.0000      -0.038352        -1.0436

MULLIKEN ATOMIC CHARGES
-----------------------
   0 C :    0.326682
   1 C :   -0.359732
   2 C :   -0.190548
   3 N :    0.147122
   4 C :   -0.140098
   5 N :    0.098813
   6 C :    0.015864
   7 C :   -0.014168
   8 C :   -0.074938
   9 C :    0.115454
  10 C :   -0.096989
  11 C :   -0.026252
  12 S :    0.136327
  13 C :   -0.051005
  14 C :    0.025095
  15 C :    0.138116
  16 O :   -0.161503
  17 C :   -0.067279
  18 C :   -0.061916
  19 C :   -0.000774
  20 C :    0.005291
  21 C :    0.035012
  22 C :    0.043305
  23 C :   -0.031741
  24 S :    0.093477
  25 C :   -0.010566
  26 C :    0.041692
  27 C :    0.028833
  28 C :    0.024878
  29 S :    0.115915
  30 C :   -0.101666
  31 C :    0.108173
  32 C :   -0.017122
  33 C :   -0.036253
  34 N :    0.043704
  35 C :   -0.121065
  36 C :   -0.064101
  37 N :   -0.049478
  38 C :   -0.215924
  39 N :    0.224896
  40 C :   -0.205436
  41 N :    0.243626
  42 C :    0.051209
  43 C :    0.021812
  44 C :   -0.016999
  45 N :   -0.281162
  46 S :    0.523850
  47 N :   -0.256048
  48 C :    0.045731
  49 O :   -0.171186
  50 C :    0.131218
  51 C :    0.100046
  52 C :   -0.141183
  53 C :    0.533344
  54 F :   -0.161107
  55 F :   -0.168280
  56 F :   -0.156429
  57 O :   -0.311957
  58 C :    0.178675
  59 C :    0.041907
  60 C :   -0.106129
  61 C :    0.024499
  62 C :    0.099886
  63 C :   -0.044702
  64 C :   -0.016149
  65 C :    0.106589
  66 C :    0.026950
  67 C :   -0.135207
  68 C :    0.046936
  69 C :    0.027715
  70 C :    0.084243
  71 C :    0.029979
  72 C :   -0.113112
  73 C :    0.113553
  74 C :   -0.014174
  75 C :   -0.053152
  76 C :   -0.001254
  77 C :   -0.018562
  78 H :   -0.016371
  79 H :   -0.006645
  80 H :    0.034395
  81 H :   -0.009310
  82 H :    0.041402
  83 H :    0.018051
  84 H :    0.003173
  85 H :   -0.004423
  86 H :   -0.008850
  87 H :   -0.001165
  88 H :    0.004480
  89 H :    0.034007
  90 H :    0.040740
  91 H :    0.039800
  92 H :   -0.024392
  93 H :   -0.038981
  94 H :   -0.016827
  95 H :    0.006002
  96 H :   -0.002542
  97 H :    0.019783
  98 H :    0.006934
  99 H :    0.021821
 100 H :    0.002047
 101 H :   -0.002629
 102 H :    0.019653
 103 H :    0.010723
 104 H :    0.001056
 105 H :   -0.039831
 106 H :   -0.036448
 107 H :   -0.039539
 108 H :   -0.020342
 109 H :    0.010118
 110 H :    0.019036
Sum of atomic charges:   -0.0000000

LOEWDIN ATOMIC CHARGES
----------------------
   0 C :    0.073151
   1 C :   -0.144618
   2 C :   -0.016680
   3 N :   -0.056565
   4 C :    0.000088
   5 N :   -0.075995
   6 C :   -0.019227
   7 C :   -0.052636
   8 C :    0.019603
   9 C :   -0.037485
  10 C :   -0.146294
  11 C :   -0.010173
  12 S :    0.426324
  13 C :   -0.153082
  14 C :   -0.059137
  15 C :    0.081999
  16 O :   -0.155781
  17 C :   -0.090773
  18 C :    0.043710
  19 C :   -0.048425
  20 C :   -0.112610
  21 C :   -0.026702
  22 C :   -0.014805
  23 C :   -0.166710
  24 S :    0.439962
  25 C :   -0.176720
  26 C :   -0.027597
  27 C :   -0.019919
  28 C :   -0.131782
  29 S :    0.473355
  30 C :   -0.027523
  31 C :   -0.028481
  32 C :   -0.003653
  33 C :    0.001836
  34 N :   -0.010269
  35 C :   -0.008996
  36 C :   -0.024125
  37 N :   -0.029274
  38 C :   -0.041925
  39 N :   -0.025017
  40 C :   -0.030692
  41 N :   -0.006690
  42 C :   -0.061096
  43 C :   -0.040582
  44 C :   -0.043467
  45 N :   -0.285225
  46 S :    0.659516
  47 N :   -0.280700
  48 C :    0.057015
  49 O :    0.052186
  50 C :    0.017407
  51 C :    0.023229
  52 C :   -0.141590
  53 C :    0.173267
  54 F :   -0.055299
  55 F :   -0.064285
  56 F :   -0.052044
  57 O :   -0.092140
  58 C :    0.078088
  59 C :   -0.035660
  60 C :   -0.016869
  61 C :    0.005487
  62 C :   -0.017519
  63 C :   -0.019978
  64 C :   -0.015385
  65 C :   -0.017057
  66 C :    0.002317
  67 C :   -0.034306
  68 C :   -0.016317
  69 C :   -0.056529
  70 C :   -0.008597
  71 C :   -0.059881
  72 C :   -0.022939
  73 C :   -0.027455
  74 C :   -0.013651
  75 C :   -0.019762
  76 C :   -0.019705
  77 C :   -0.048608
  78 H :    0.038473
  79 H :    0.040699
  80 H :    0.027672
  81 H :    0.034010
  82 H :    0.030383
  83 H :    0.040326
  84 H :    0.039369
  85 H :    0.036576
  86 H :    0.033645
  87 H :    0.036534
  88 H :    0.044037
  89 H :    0.027898
  90 H :    0.016691
  91 H :    0.022040
  92 H :    0.024778
  93 H :    0.025483
  94 H :    0.027924
  95 H :    0.019049
  96 H :    0.020074
  97 H :    0.025529
  98 H :    0.022947
  99 H :    0.025509
 100 H :    0.026142
 101 H :    0.020531
 102 H :    0.024039
 103 H :    0.026735
 104 H :    0.019096
 105 H :    0.022500
 106 H :    0.024722
 107 H :    0.025273
 108 H :    0.026720
 109 H :    0.018509
 110 H :    0.024545

  Mayer bond orders larger than 0.100000
B(  0-C ,  1-C ) :   1.5816 B(  0-C ,  6-C ) :   0.9920 B(  0-C , 17-C ) :   1.1086
B(  1-C ,  2-C ) :   1.1534 B(  1-C ,  4-C ) :   1.1723 B(  2-C ,  3-N ) :   2.9636
B(  4-C ,  5-N ) :   2.8779 B(  6-C ,  7-C ) :   1.2728 B(  6-C , 11-C ) :   1.4190
B(  7-C ,  8-C ) :   1.4283 B(  7-C , 15-C ) :   0.9364 B(  8-C ,  9-C ) :   1.2401
B(  8-C , 78-H ) :   1.0166 B(  9-C , 10-C ) :   1.3106 B(  9-C , 14-C ) :   1.1714
B( 10-C , 11-C ) :   1.3144 B( 10-C , 12-S ) :   1.0971 B( 11-C , 79-H ) :   0.9823
B( 12-S , 13-C ) :   1.1264 B( 13-C , 14-C ) :   1.6271 B( 13-C , 80-H ) :   0.9690
B( 14-C , 81-H ) :   0.9993 B( 15-C , 16-O ) :   2.2043 B( 15-C , 17-C ) :   0.9532
B( 17-C , 18-C ) :   1.5161 B( 18-C , 19-C ) :   1.2393 B( 18-C , 82-H ) :   0.9316
B( 19-C , 20-C ) :   1.4230 B( 19-C , 83-H ) :   0.9871 B( 20-C , 21-C ) :   1.1772
B( 20-C , 24-S ) :   1.0892 B( 21-C , 22-C ) :   1.5321 B( 21-C , 84-H ) :   1.0006
B( 22-C , 23-C ) :   1.2280 B( 22-C , 85-H ) :   0.9974 B( 23-C , 24-S ) :   1.0839
B( 23-C , 25-C ) :   1.4168 B( 25-C , 26-C ) :   1.2202 B( 25-C , 29-S ) :   1.0312
B( 26-C , 27-C ) :   1.5410 B( 26-C , 86-H ) :   0.9966 B( 27-C , 28-C ) :   1.1817
B( 27-C , 87-H ) :   0.9995 B( 28-C , 29-S ) :   1.0831 B( 28-C , 30-C ) :   1.4334
B( 30-C , 31-C ) :   1.3029 B( 30-C , 88-H ) :   0.9554 B( 31-C , 32-C ) :   1.1681
B( 31-C , 42-C ) :   0.1206 B( 31-C , 44-C ) :   1.1449 B( 32-C , 33-C ) :   1.1148
B( 32-C , 37-N ) :   1.4118 B( 33-C , 34-N ) :   1.4442 B( 33-C , 42-C ) :   1.3511
B( 34-N , 35-C ) :   1.7058 B( 35-C , 36-C ) :   1.2401 B( 35-C , 40-C ) :   1.1698
B( 36-C , 37-N ) :   1.5979 B( 36-C , 38-C ) :   1.1627 B( 38-C , 39-N ) :   2.9914
B( 40-C , 41-N ) :   3.0319 B( 42-C , 43-C ) :   1.2169 B( 42-C , 48-C ) :   1.0049
B( 43-C , 44-C ) :   1.1035 B( 43-C , 47-N ) :   1.5594 B( 44-C , 45-N ) :   1.5623
B( 45-N , 46-S ) :   1.2624 B( 45-N , 47-N ) :   0.1469 B( 46-S , 47-N ) :   1.2686
B( 48-C , 49-O ) :   1.2134 B( 48-C , 50-C ) :   0.1356 B( 48-C , 52-C ) :   1.4731
B( 49-O , 50-C ) :   1.1496 B( 50-C , 51-C ) :   1.4145 B( 50-C , 59-C ) :   1.0489
B( 51-C , 52-C ) :   1.2334 B( 51-C , 57-O ) :   1.1873 B( 52-C , 53-C ) :   0.9499
B( 53-C , 54-F ) :   1.1393 B( 53-C , 55-F ) :   1.1529 B( 53-C , 56-F ) :   1.1421
B( 57-O , 58-C ) :   0.9219 B( 58-C , 89-H ) :   0.9775 B( 58-C , 90-H ) :   0.9667
B( 58-C , 91-H ) :   0.9660 B( 59-C , 60-C ) :   1.3206 B( 59-C , 64-C ) :   1.3328
B( 60-C , 61-C ) :   1.3770 B( 60-C , 92-H ) :   0.9967 B( 61-C , 62-C ) :   1.3750
B( 61-C , 67-C ) :   0.9244 B( 62-C , 63-C ) :   1.3354 B( 62-C , 65-C ) :   0.9949
B( 63-C , 64-C ) :   1.3728 B( 63-C , 93-H ) :   0.9921 B( 64-C , 94-H ) :   0.9909
B( 65-C , 66-C ) :   1.3887 B( 65-C , 75-C ) :   1.3304 B( 66-C , 67-C ) :   0.9168
B( 66-C , 72-C ) :   1.3823 B( 67-C , 68-C ) :   1.0340 B( 67-C , 70-C ) :   1.0146
B( 68-C , 69-C ) :   1.1062 B( 68-C , 95-H ) :   0.9381 B( 68-C , 96-H ) :   0.9383
B( 69-C , 97-H ) :   0.9647 B( 69-C , 98-H ) :   0.9642 B( 69-C , 99-H ) :   0.9627
B( 70-C , 71-C ) :   1.1139 B( 70-C ,100-H ) :   0.9377 B( 70-C ,101-H ) :   0.9370
B( 71-C ,102-H ) :   0.9605 B( 71-C ,103-H ) :   0.9599 B( 71-C ,104-H ) :   0.9631
B( 72-C , 73-C ) :   1.3003 B( 72-C ,105-H ) :   1.0025 B( 73-C , 74-C ) :   1.3568
B( 73-C , 76-C ) :   1.0631 B( 74-C , 75-C ) :   1.3982 B( 74-C ,106-H ) :   0.9858
B( 75-C ,107-H ) :   0.9901 B( 76-C , 77-C ) :   1.9496 B( 76-C ,108-H ) :   0.9688
B( 77-C ,109-H ) :   0.9488 B( 77-C ,110-H ) :   0.9479

-----------------------------------------------------------------------------
         ABSORPTION SPECTRUM VIA TRANSITION ELECTRIC DIPOLE MOMENTS
-----------------------------------------------------------------------------
State   Energy  Wavelength   fosc         T2         TX        TY        TZ
        (cm-1)    (nm)                  (au**2)     (au)      (au)      (au)
-----------------------------------------------------------------------------
   0    5146.9   1942.9   0.337551087  21.59074   0.62956   4.42128   1.28321
   1   11744.7    851.4   0.168561536   4.72489  -2.01123   0.70566   0.42647
   2   13525.1    739.4   0.333358722   8.11420  -2.78421  -0.40233  -0.44778
   3   18187.4    549.8   0.132094624   2.39106   1.36983   0.01563   0.71720
   4   20555.4    486.5   0.139136681   2.22839  -1.30187   0.13594  -0.71767
   5   21231.8    471.0   0.118266697   1.83379   0.92733  -0.95697   0.24096
   6   21789.0    458.9   0.081445630   1.23057   1.07606  -0.10950   0.24630
   7   22387.3    446.7   0.391649237   5.75932  -0.87010   2.11263   0.73419
   8   22486.3    444.7   0.047749510   0.69908   0.03952   0.54501   0.63284
   9   22967.3    435.4   0.003096499   0.04439   0.03150   0.02058   0.20729
  10   23600.9    423.7   0.143037899   1.99526  -1.37896   0.01888  -0.30556
  11   24321.2    411.2   0.005713587   0.07734  -0.13871   0.24006   0.02175
  12   24712.9    404.6   0.006222474   0.08289  -0.21570  -0.13961  -0.12991
  13   25779.4    387.9   0.119829664   1.53027  -1.06407  -0.53904  -0.32780
  14   26121.8    382.8   0.088074886   1.11001   0.33563  -0.89302  -0.44706
  15   26450.8    378.1   0.000943827   0.01175   0.02271   0.10518  -0.01302
  16   27034.0    369.9   0.037209422   0.45313  -0.48666  -0.43755  -0.15759
  17   27587.3    362.5   0.401573883   4.79216  -1.95625   0.97993  -0.07041
  18   28675.9    348.7   0.009459486   0.10860   0.29114  -0.13094  -0.08181
  19   28699.7    348.4   0.100340119   1.15099  -0.11126   0.70053   0.80491
  20   28870.4    346.4   0.790060002   9.00914  -0.10723   2.10969   2.13233
  21   29243.2    342.0   0.243193217   2.73781   1.59216  -0.42095   0.16015
  22   29764.2    336.0   0.373911584   4.13571  -1.23828  -1.33106  -0.91141
  23   29931.3    334.1   0.002683431   0.02951  -0.06970   0.04555  -0.15028
  24   30005.9    333.3   0.002150532   0.02359  -0.09832  -0.06431  -0.09895
  25   30577.7    327.0   0.220761170   2.37681  -1.42956  -0.19678   0.54263
  26   31419.5    318.3   0.049011061   0.51354   0.46867   0.12555   0.52737
  27   31610.8    316.3   0.007743050   0.08064   0.25667   0.05994   0.10569
  28   31988.1    312.6   0.031106002   0.32013  -0.51873  -0.05759  -0.21848
  29   32141.0    311.1   0.006059159   0.06206  -0.14734   0.18732   0.07256
  30   32560.9    307.1   0.001385871   0.01401   0.09361   0.06585   0.03019
  31   32861.0    304.3   0.281804597   2.82321   0.28325  -1.06366  -1.26949
  32   33058.6    302.5   0.009548470   0.09509   0.07096  -0.29189  -0.06967
  33   33842.8    295.5   0.039487303   0.38412  -0.37026  -0.44806  -0.21510
  34   34071.9    293.5   0.373960371   3.61331   1.28990   1.30509   0.49620
  35   34394.1    290.7   0.068042526   0.65129  -0.55849   0.04575   0.58076
  36   34870.2    286.8   0.107228474   1.01235   0.48938   0.66113   0.57945
  37   34996.0    285.7   0.015166211   0.14267   0.13471  -0.05860  -0.34798
  38   35206.7    284.0   0.006532735   0.06109  -0.02378   0.10087   0.22438
  39   35784.8    279.4   0.066665761   0.61331  -0.66649  -0.39262   0.12228
  40   35809.1    279.3   0.028766670   0.26447  -0.00815   0.16358   0.48749
  41   36065.3    277.3   0.210509145   1.92157  -0.00772   1.04449   0.91134
  42   36487.0    274.1   0.064006999   0.57752  -0.22835   0.16984  -0.70465
  43   36725.3    272.3   0.041762836   0.37437   0.27452  -0.30330  -0.45499
  44   37245.6    268.5   0.032861342   0.29046  -0.47276   0.16101   0.20258
  45   37689.1    265.3   0.000552477   0.00483   0.00780   0.06586   0.02069
  46   37908.0    263.8   0.127249482   1.10510   0.09604   0.98120   0.36486
  47   37954.1    263.5   0.087406933   0.75816   0.47925  -0.67425  -0.27178
  48   38165.1    262.0   0.146919516   1.26733   0.90938   0.09907   0.65615
  49   38368.7    260.6   0.038268732   0.32835  -0.47141   0.28860  -0.15111
  50   38565.1    259.3   0.059878023   0.51115  -0.08196  -0.70701  -0.06764
  51   38806.3    257.7   0.022241589   0.18869   0.09374  -0.42404  -0.00924
  52   38994.5    256.4   0.021402969   0.18069  -0.30257   0.14159  -0.26286
  53   39160.6    255.4   0.146386606   1.23063  -0.03067   0.95570   0.56242
  54   39765.8    251.5   0.225270074   1.86496  -0.76245  -0.78495  -0.81700
  55   39934.9    250.4   0.008158842   0.06726   0.24826   0.04537  -0.05972
  56   40099.9    249.4   0.014517057   0.11918   0.01749  -0.33417   0.08490

FINAL SINGLE POINT ENERGY     -4857.558146237753

DIPOLE MOMENT
-------------
                                X             Y             Z
Electronic contribution:    -60.06035      84.19047      60.01484
Nuclear contribution   :     58.05033     -82.96890     -61.38211
                        -----------------------------------------
Total Dipole Moment    :     -2.01002       1.22157      -1.36727
                        -----------------------------------------
Magnitude (a.u.)       :      2.72063
Magnitude (Debye)      :      6.91530

Rotational constants in cm-1:     0.000942     0.000349     0.000282
Rotational constants in MHz :    28.249988    10.466772     8.465052

                             ****ORCA TERMINATED NORMALLY****
TOTAL RUN TIME: 0 days 0 hours 14 minutes 52 seconds 526 msec
