                         Program Version 4.2.0 -  RELEASE  -
|  1> # ORCA input file
|  2> # SCF done       -201.163115164748          0.000960796555
|  3> ! CAM-B3LYP def2-SVP def2/J RIJCOSX Grid4 TightSCF
|  4> %maxcore 5000
|  5> %tddft
|  6>     Mode sTDDFT
|  7>     Ethresh 5.0
|  8>     maxcore 5000
|  9> end
| 10>
| 11> %pal
| 12>   nprocs 6
| 13>   end
| 14> * xyz 0 1
| 15>    C       -5.19798        -2.33740        -1.24917
| 16>    C       -5.72165        -3.56676        -1.58108
| 17>    C       -5.09685        -4.79584        -1.29265
| 18>    N       -4.64525        -5.83303        -1.09198
| 19>    C       -6.93566        -3.78972        -2.25802
| 20>    N       -7.90956        -4.05957        -2.80845
| 21>    C       -3.91802        -2.12288        -0.57758
| 22>    C       -3.70995        -0.72752        -0.43763
| 23>    C       -2.58769        -0.20030         0.15097
| 24>    C       -1.61999        -1.09218         0.62656
| 25>    C       -1.83612        -2.48196         0.48446
| 26>    C       -2.97374        -3.01597        -0.11223
| 27>    S       -0.51303        -3.39396         1.14169
| 28>    C        0.30132        -1.93539         1.59060
| 29>    C       -0.37962        -0.81442         1.26736
| 30>    C       -4.86155        -0.01226        -1.01539
| 31>    O       -5.01060         1.19969        -1.06268
| 32>    C       -5.77510        -1.04067        -1.50600
| 33>    C       -6.99883        -0.81800        -2.10695
| 34>    C       -7.64738         0.36157        -2.44096
| 35>    S       -7.05325         1.97879        -2.18940
| 36>    C       -8.43604         2.69129        -2.94571
| 37>    C       -9.35216         1.71009        -3.38851
| 38>    C       -8.91570         0.39450        -3.09100
| 39>    C       -9.72512        -0.69005        -3.43280
| 40>    C      -10.93562        -0.49773        -4.07291
| 41>    C      -11.77711        -1.64519        -4.40066
| 42>    C      -11.34281        -2.88683        -4.58459
| 43>    C      -11.36375         0.82198        -4.38853
| 44>    C      -12.65906         1.05174        -5.10668
| 45>    C      -10.57871         1.89452        -4.04375
| 46>    C       -8.57649         4.08833        -3.06754
| 47>    C       -7.69532         4.97955        -2.53392
| 48>    C       -7.78418         6.38576        -2.61949
| 49>    C       -8.69162         7.18091        -3.30476
| 50>    C       -8.43008         8.53484        -3.12263
| 51>    C       -7.31759         8.79314        -2.28536
| 52>    S       -6.58942         7.33562        -1.73697
| 53>    C       -7.19313        10.17698        -2.19432
| 54>    C       -8.22663        10.73801        -2.98204
| 55>    N       -8.96738         9.72655        -3.53670
| 56>    C       -8.23452        12.12969        -2.99148
| 57>    C       -7.21536        12.65295        -2.21098
| 58>    S       -6.23362        11.39707        -1.45560
| 59>    C       -6.87610        13.99796        -1.93782
| 60>    C       -7.44785        15.08735        -2.51979
| 61>    C       -7.12673        16.43559        -2.24845
| 62>    S       -7.49882        17.62070        -3.45245
| 63>    C       -6.80694        18.93401        -2.53534
| 64>    C       -6.27652        18.44227        -1.32207
| 65>    C       -6.49475        17.04310        -1.14205
| 66>    C       -6.13566        16.45076         0.07811
| 67>    C       -5.46963        17.16991         1.04659
| 68>    C       -5.12052        16.54238         2.31901
| 69>    C       -4.83934        15.25596         2.48130
| 70>    C       -5.12043        18.52791         0.79899
| 71>    C       -4.29915        19.29711         1.78424
| 72>    C       -5.53850        19.14146        -0.35500
| 73>    C       -6.88147        20.21417        -3.09806
| 74>    C       -6.69731        21.43175        -2.48996
| 75>    C       -6.81351        22.61115        -3.23509
| 76>    C       -6.77984        23.92957        -2.84895
| 77>    C       -6.49573        24.61196        -1.61343
| 78>    C       -5.71300        24.18728        -0.56465
| 79>    C       -5.48767        24.93138         0.61081
| 80>    N       -5.27631        25.46329         1.60709
| 81>    C       -4.94235        23.01377        -0.53742
| 82>    N       -4.23742        22.10958        -0.44620
| 83>    C       -7.04058        25.96609        -1.72629
| 84>    C       -7.46331        26.17801        -3.06232
| 85>    C       -7.27223        24.93232        -3.82653
| 86>    O       -7.50266        24.74314        -5.00268
| 87>    C       -7.97870        27.37481        -3.49514
| 88>    C       -8.09442        28.41158        -2.56340
| 89>    C       -7.68739        28.18540        -1.22833
| 90>    C       -7.15816        26.97574        -0.79164
| 91>    S       -7.93202        29.59817        -0.24909
| 92>    C       -8.55853        30.46310        -1.61036
| 93>    C       -8.58895        29.73407        -2.74682
| 94>    H       -2.45848         0.86720         0.24108
| 95>    H       -3.08951        -4.08358        -0.19569
| 96>    H        1.25476        -2.00983         2.07646
| 97>    H       -0.02930         0.18189         1.46862
| 98>    H       -7.55343        -1.70547        -2.37654
| 99>    H       -9.42371        -1.69416        -3.18113
|100>    H      -12.83432        -1.44091        -4.50027
|101>    H      -10.30259        -3.15819        -4.52793
|102>    H      -12.02633        -3.68669        -4.81296
|103>    H      -13.50311         0.76344        -4.48001
|104>    H      -12.70118         0.46409        -6.02225
|105>    H      -12.77117         2.10232        -5.36346
|106>    H      -10.90892         2.89507        -4.28116
|107>    H       -9.44236         4.44941        -3.60411
|108>    H       -6.85125         4.59323        -1.97734
|109>    H       -9.48859         6.78430        -3.90563
|110>    H       -9.76166         9.83892        -4.14193
|111>    H       -8.94176        12.73688        -3.52495
|112>    H       -6.06177        14.13435        -1.24265
|113>    H       -8.16618        14.93421        -3.31456
|114>    H       -6.42166        15.43286         0.28340
|115>    H       -5.08775        17.20246         3.17505
|116>    H       -4.81787        14.56049         1.65880
|117>    H       -4.59848        14.85047         3.44886
|118>    H       -4.86737        19.48302         2.69624
|119>    H       -4.00659        20.25480         1.36235
|120>    H       -3.40312        18.74088         2.05430
|121>    H       -5.25403        20.16543        -0.53039
|122>    H       -7.16662        20.23259        -4.14487
|123>    H       -6.52628        21.48544        -1.42904
|124>    H       -7.04682        22.48703        -4.28969
|125>    H       -8.28284        27.50715        -4.52188
|126>    H       -6.86779        26.85444         0.23854
|127>    H       -8.87005        31.48009        -1.47129
|128>    H       -8.94582        30.10476        -3.69077
|129> *
|130>
|131>                          ****END OF INPUT****

CARTESIAN COORDINATES (ANGSTROEM)
---------------------------------
  C     -5.197980   -2.337400   -1.249170
  C     -5.721650   -3.566760   -1.581080
  C     -5.096850   -4.795840   -1.292650
  N     -4.645250   -5.833030   -1.091980
  C     -6.935660   -3.789720   -2.258020
  N     -7.909560   -4.059570   -2.808450
  C     -3.918020   -2.122880   -0.577580
  C     -3.709950   -0.727520   -0.437630
  C     -2.587690   -0.200300    0.150970
  C     -1.619990   -1.092180    0.626560
  C     -1.836120   -2.481960    0.484460
  C     -2.973740   -3.015970   -0.112230
  S     -0.513030   -3.393960    1.141690
  C      0.301320   -1.935390    1.590600
  C     -0.379620   -0.814420    1.267360
  C     -4.861550   -0.012260   -1.015390
  O     -5.010600    1.199690   -1.062680
  C     -5.775100   -1.040670   -1.506000
  C     -6.998830   -0.818000   -2.106950
  C     -7.647380    0.361570   -2.440960
  S     -7.053250    1.978790   -2.189400
  C     -8.436040    2.691290   -2.945710
  C     -9.352160    1.710090   -3.388510
  C     -8.915700    0.394500   -3.091000
  C     -9.725120   -0.690050   -3.432800
  C    -10.935620   -0.497730   -4.072910
  C    -11.777110   -1.645190   -4.400660
  C    -11.342810   -2.886830   -4.584590
  C    -11.363750    0.821980   -4.388530
  C    -12.659060    1.051740   -5.106680
  C    -10.578710    1.894520   -4.043750
  C     -8.576490    4.088330   -3.067540
  C     -7.695320    4.979550   -2.533920
  C     -7.784180    6.385760   -2.619490
  C     -8.691620    7.180910   -3.304760
  C     -8.430080    8.534840   -3.122630
  C     -7.317590    8.793140   -2.285360
  S     -6.589420    7.335620   -1.736970
  C     -7.193130   10.176980   -2.194320
  C     -8.226630   10.738010   -2.982040
  N     -8.967380    9.726550   -3.536700
  C     -8.234520   12.129690   -2.991480
  C     -7.215360   12.652950   -2.210980
  S     -6.233620   11.397070   -1.455600
  C     -6.876100   13.997960   -1.937820
  C     -7.447850   15.087350   -2.519790
  C     -7.126730   16.435590   -2.248450
  S     -7.498820   17.620700   -3.452450
  C     -6.806940   18.934010   -2.535340
  C     -6.276520   18.442270   -1.322070
  C     -6.494750   17.043100   -1.142050
  C     -6.135660   16.450760    0.078110
  C     -5.469630   17.169910    1.046590
  C     -5.120520   16.542380    2.319010
  C     -4.839340   15.255960    2.481300
  C     -5.120430   18.527910    0.798990
  C     -4.299150   19.297110    1.784240
  C     -5.538500   19.141460   -0.355000
  C     -6.881470   20.214170   -3.098060
  C     -6.697310   21.431750   -2.489960
  C     -6.813510   22.611150   -3.235090
  C     -6.779840   23.929570   -2.848950
  C     -6.495730   24.611960   -1.613430
  C     -5.713000   24.187280   -0.564650
  C     -5.487670   24.931380    0.610810
  N     -5.276310   25.463290    1.607090
  C     -4.942350   23.013770   -0.537420
  N     -4.237420   22.109580   -0.446200
  C     -7.040580   25.966090   -1.726290
  C     -7.463310   26.178010   -3.062320
  C     -7.272230   24.932320   -3.826530
  O     -7.502660   24.743140   -5.002680
  C     -7.978700   27.374810   -3.495140
  C     -8.094420   28.411580   -2.563400
  C     -7.687390   28.185400   -1.228330
  C     -7.158160   26.975740   -0.791640
  S     -7.932020   29.598170   -0.249090
  C     -8.558530   30.463100   -1.610360
  C     -8.588950   29.734070   -2.746820
  H     -2.458480    0.867200    0.241080
  H     -3.089510   -4.083580   -0.195690
  H      1.254760   -2.009830    2.076460
  H     -0.029300    0.181890    1.468620
  H     -7.553430   -1.705470   -2.376540
  H     -9.423710   -1.694160   -3.181130
  H    -12.834320   -1.440910   -4.500270
  H    -10.302590   -3.158190   -4.527930
  H    -12.026330   -3.686690   -4.812960
  H    -13.503110    0.763440   -4.480010
  H    -12.701180    0.464090   -6.022250
  H    -12.771170    2.102320   -5.363460
  H    -10.908920    2.895070   -4.281160
  H     -9.442360    4.449410   -3.604110
  H     -6.851250    4.593230   -1.977340
  H     -9.488590    6.784300   -3.905630
  H     -9.761660    9.838920   -4.141930
  H     -8.941760   12.736880   -3.524950
  H     -6.061770   14.134350   -1.242650
  H     -8.166180   14.934210   -3.314560
  H     -6.421660   15.432860    0.283400
  H     -5.087750   17.202460    3.175050
  H     -4.817870   14.560490    1.658800
  H     -4.598480   14.850470    3.448860
  H     -4.867370   19.483020    2.696240
  H     -4.006590   20.254800    1.362350
  H     -3.403120   18.740880    2.054300
  H     -5.254030   20.165430   -0.530390
  H     -7.166620   20.232590   -4.144870
  H     -6.526280   21.485440   -1.429040
  H     -7.046820   22.487030   -4.289690
  H     -8.282840   27.507150   -4.521880
  H     -6.867790   26.854440    0.238540
  H     -8.870050   31.480090   -1.471290
  H     -8.945820   30.104760   -3.690770

 Total Charge           Charge          ....    0
 Multiplicity           Mult            ....    1
 Number of Electrons    NEL             ....  578
 Basis Dimension        Dim             .... 1305

ORBITAL ENERGIES
----------------

  NO   OCC          E(Eh)            E(eV)
   0   2.0000     -88.973967     -2421.1047
   1   2.0000     -88.968871     -2420.9660
   2   2.0000     -88.968478     -2420.9554
   3   2.0000     -88.964267     -2420.8408
   4   2.0000     -88.958066     -2420.6721
   5   2.0000     -88.956599     -2420.6321
   6   2.0000     -19.204899      -522.5919
   7   2.0000     -19.199180      -522.4362
   8   2.0000     -14.479583      -394.0095
   9   2.0000     -14.409778      -392.1100
  10   2.0000     -14.406709      -392.0265
  11   2.0000     -14.404171      -391.9574
  12   2.0000     -14.398324      -391.7983
  13   2.0000     -10.353025      -281.7201
  14   2.0000     -10.349280      -281.6182
  15   2.0000     -10.331217      -281.1267
  16   2.0000     -10.328526      -281.0535
  17   2.0000     -10.327494      -281.0254
  18   2.0000     -10.327124      -281.0153
  19   2.0000     -10.326066      -280.9866
  20   2.0000     -10.325766      -280.9784
  21   2.0000     -10.322317      -280.8845
  22   2.0000     -10.318419      -280.7785
  23   2.0000     -10.317560      -280.7551
  24   2.0000     -10.316752      -280.7331
  25   2.0000     -10.315684      -280.7040
  26   2.0000     -10.311492      -280.5900
  27   2.0000     -10.310710      -280.5687
  28   2.0000     -10.310135      -280.5530
  29   2.0000     -10.309549      -280.5371
  30   2.0000     -10.309322      -280.5309
  31   2.0000     -10.308667      -280.5131
  32   2.0000     -10.308173      -280.4996
  33   2.0000     -10.307392      -280.4784
  34   2.0000     -10.305822      -280.4357
  35   2.0000     -10.304474      -280.3990
  36   2.0000     -10.304329      -280.3950
  37   2.0000     -10.304019      -280.3866
  38   2.0000     -10.303148      -280.3629
  39   2.0000     -10.302946      -280.3574
  40   2.0000     -10.302798      -280.3534
  41   2.0000     -10.300819      -280.2995
  42   2.0000     -10.298872      -280.2465
  43   2.0000     -10.297070      -280.1975
  44   2.0000     -10.296201      -280.1739
  45   2.0000     -10.295554      -280.1563
  46   2.0000     -10.293776      -280.1079
  47   2.0000     -10.292781      -280.0808
  48   2.0000     -10.292562      -280.0748
  49   2.0000     -10.291641      -280.0498
  50   2.0000     -10.291395      -280.0431
  51   2.0000     -10.290604      -280.0216
  52   2.0000     -10.290127      -280.0086
  53   2.0000     -10.289685      -279.9966
  54   2.0000     -10.289335      -279.9870
  55   2.0000     -10.288419      -279.9621
  56   2.0000     -10.287334      -279.9326
  57   2.0000     -10.284265      -279.8491
  58   2.0000     -10.284154      -279.8461
  59   2.0000     -10.283467      -279.8274
  60   2.0000     -10.281465      -279.7729
  61   2.0000     -10.281146      -279.7642
  62   2.0000     -10.280910      -279.7578
  63   2.0000     -10.279949      -279.7316
  64   2.0000     -10.279070      -279.7077
  65   2.0000     -10.278629      -279.6957
  66   2.0000     -10.278356      -279.6883
  67   2.0000     -10.278251      -279.6854
  68   2.0000     -10.277728      -279.6712
  69   2.0000     -10.277392      -279.6620
  70   2.0000     -10.276255      -279.6311
  71   2.0000     -10.275103      -279.5998
  72   2.0000     -10.272953      -279.5412
  73   2.0000     -10.270051      -279.4623
  74   2.0000     -10.269456      -279.4461
  75   2.0000     -10.268180      -279.4114
  76   2.0000     -10.264074      -279.2997
  77   2.0000     -10.262542      -279.2580
  78   2.0000     -10.254794      -279.0471
  79   2.0000      -8.069567      -219.5841
  80   2.0000      -8.063775      -219.4265
  81   2.0000      -8.063358      -219.4151
  82   2.0000      -8.057361      -219.2520
  83   2.0000      -8.054321      -219.1692
  84   2.0000      -8.052855      -219.1293
  85   2.0000      -6.038463      -164.3149
  86   2.0000      -6.034516      -164.2075
  87   2.0000      -6.033359      -164.1761
  88   2.0000      -6.032994      -164.1661
  89   2.0000      -6.032294      -164.1471
  90   2.0000      -6.029381      -164.0678
  91   2.0000      -6.028884      -164.0543
  92   2.0000      -6.026584      -163.9917
  93   2.0000      -6.025250      -163.9554
  94   2.0000      -6.024865      -163.9449
  95   2.0000      -6.023804      -163.9160
  96   2.0000      -6.022347      -163.8764
  97   2.0000      -6.022024      -163.8676
  98   2.0000      -6.020058      -163.8141
  99   2.0000      -6.019561      -163.8006
 100   2.0000      -6.018087      -163.7605
 101   2.0000      -6.015998      -163.7036
 102   2.0000      -6.014535      -163.6638
 103   2.0000      -1.119123       -30.4529
 104   2.0000      -1.113424       -30.2978
 105   2.0000      -1.099782       -29.9266
 106   2.0000      -1.010485       -27.4967
 107   2.0000      -1.007295       -27.4099
 108   2.0000      -1.005164       -27.3519
 109   2.0000      -1.000363       -27.2213
 110   2.0000      -0.999918       -27.2092
 111   2.0000      -0.997154       -27.1339
 112   2.0000      -0.987820       -26.8800
 113   2.0000      -0.985984       -26.8300
 114   2.0000      -0.982890       -26.7458
 115   2.0000      -0.981182       -26.6993
 116   2.0000      -0.973409       -26.4878
 117   2.0000      -0.971726       -26.4420
 118   2.0000      -0.947566       -25.7846
 119   2.0000      -0.946682       -25.7605
 120   2.0000      -0.928410       -25.2633
 121   2.0000      -0.922776       -25.1100
 122   2.0000      -0.918155       -24.9843
 123   2.0000      -0.912300       -24.8249
 124   2.0000      -0.904548       -24.6140
 125   2.0000      -0.891996       -24.2725
 126   2.0000      -0.883811       -24.0497
 127   2.0000      -0.879484       -23.9320
 128   2.0000      -0.877984       -23.8911
 129   2.0000      -0.872107       -23.7313
 130   2.0000      -0.871253       -23.7080
 131   2.0000      -0.869382       -23.6571
 132   2.0000      -0.864427       -23.5222
 133   2.0000      -0.859488       -23.3879
 134   2.0000      -0.856656       -23.3108
 135   2.0000      -0.850854       -23.1529
 136   2.0000      -0.843890       -22.9634
 137   2.0000      -0.830557       -22.6006
 138   2.0000      -0.826344       -22.4860
 139   2.0000      -0.821640       -22.3580
 140   2.0000      -0.813389       -22.1334
 141   2.0000      -0.811878       -22.0923
 142   2.0000      -0.807575       -21.9752
 143   2.0000      -0.798022       -21.7153
 144   2.0000      -0.787393       -21.4261
 145   2.0000      -0.775010       -21.0891
 146   2.0000      -0.774019       -21.0621
 147   2.0000      -0.772342       -21.0165
 148   2.0000      -0.753345       -20.4996
 149   2.0000      -0.746018       -20.3002
 150   2.0000      -0.743847       -20.2411
 151   2.0000      -0.733921       -19.9710
 152   2.0000      -0.723911       -19.6986
 153   2.0000      -0.721544       -19.6342
 154   2.0000      -0.718269       -19.5451
 155   2.0000      -0.700357       -19.0577
 156   2.0000      -0.694033       -18.8856
 157   2.0000      -0.689187       -18.7537
 158   2.0000      -0.686535       -18.6816
 159   2.0000      -0.677897       -18.4465
 160   2.0000      -0.675944       -18.3934
 161   2.0000      -0.672970       -18.3124
 162   2.0000      -0.667366       -18.1599
 163   2.0000      -0.659950       -17.9582
 164   2.0000      -0.658090       -17.9075
 165   2.0000      -0.654400       -17.8071
 166   2.0000      -0.652684       -17.7604
 167   2.0000      -0.649288       -17.6680
 168   2.0000      -0.648296       -17.6410
 169   2.0000      -0.642868       -17.4933
 170   2.0000      -0.639855       -17.4113
 171   2.0000      -0.634175       -17.2568
 172   2.0000      -0.626433       -17.0461
 173   2.0000      -0.620266       -16.8783
 174   2.0000      -0.616201       -16.7677
 175   2.0000      -0.609615       -16.5885
 176   2.0000      -0.608395       -16.5553
 177   2.0000      -0.608109       -16.5475
 178   2.0000      -0.603554       -16.4235
 179   2.0000      -0.594927       -16.1888
 180   2.0000      -0.588217       -16.0062
 181   2.0000      -0.586049       -15.9472
 182   2.0000      -0.581596       -15.8260
 183   2.0000      -0.573529       -15.6065
 184   2.0000      -0.572448       -15.5771
 185   2.0000      -0.565173       -15.3791
 186   2.0000      -0.561418       -15.2770
 187   2.0000      -0.555827       -15.1248
 188   2.0000      -0.552556       -15.0358
 189   2.0000      -0.549567       -14.9545
 190   2.0000      -0.548071       -14.9138
 191   2.0000      -0.543906       -14.8004
 192   2.0000      -0.539183       -14.6719
 193   2.0000      -0.536992       -14.6123
 194   2.0000      -0.535485       -14.5713
 195   2.0000      -0.533508       -14.5175
 196   2.0000      -0.527803       -14.3622
 197   2.0000      -0.527194       -14.3457
 198   2.0000      -0.526116       -14.3163
 199   2.0000      -0.525822       -14.3083
 200   2.0000      -0.523062       -14.2332
 201   2.0000      -0.521381       -14.1875
 202   2.0000      -0.519207       -14.1283
 203   2.0000      -0.517197       -14.0736
 204   2.0000      -0.516163       -14.0455
 205   2.0000      -0.511598       -13.9213
 206   2.0000      -0.510298       -13.8859
 207   2.0000      -0.506434       -13.7808
 208   2.0000      -0.505193       -13.7470
 209   2.0000      -0.501655       -13.6507
 210   2.0000      -0.498011       -13.5516
 211   2.0000      -0.496551       -13.5118
 212   2.0000      -0.494171       -13.4471
 213   2.0000      -0.492619       -13.4048
 214   2.0000      -0.490869       -13.3572
 215   2.0000      -0.489734       -13.3263
 216   2.0000      -0.488924       -13.3043
 217   2.0000      -0.488071       -13.2811
 218   2.0000      -0.487294       -13.2599
 219   2.0000      -0.481721       -13.1083
 220   2.0000      -0.481108       -13.0916
 221   2.0000      -0.480565       -13.0768
 222   2.0000      -0.478333       -13.0161
 223   2.0000      -0.477835       -13.0025
 224   2.0000      -0.475336       -12.9346
 225   2.0000      -0.473299       -12.8791
 226   2.0000      -0.469829       -12.7847
 227   2.0000      -0.469224       -12.7682
 228   2.0000      -0.464414       -12.6374
 229   2.0000      -0.461913       -12.5693
 230   2.0000      -0.459585       -12.5059
 231   2.0000      -0.457797       -12.4573
 232   2.0000      -0.456095       -12.4110
 233   2.0000      -0.455490       -12.3945
 234   2.0000      -0.452150       -12.3036
 235   2.0000      -0.450240       -12.2516
 236   2.0000      -0.445689       -12.1278
 237   2.0000      -0.443217       -12.0605
 238   2.0000      -0.442010       -12.0277
 239   2.0000      -0.441534       -12.0147
 240   2.0000      -0.436536       -11.8788
 241   2.0000      -0.434632       -11.8269
 242   2.0000      -0.432481       -11.7684
 243   2.0000      -0.430692       -11.7197
 244   2.0000      -0.428786       -11.6679
 245   2.0000      -0.426735       -11.6120
 246   2.0000      -0.426156       -11.5963
 247   2.0000      -0.424553       -11.5527
 248   2.0000      -0.423656       -11.5283
 249   2.0000      -0.423579       -11.5262
 250   2.0000      -0.423236       -11.5168
 251   2.0000      -0.420533       -11.4433
 252   2.0000      -0.419075       -11.4036
 253   2.0000      -0.417918       -11.3721
 254   2.0000      -0.417873       -11.3709
 255   2.0000      -0.417020       -11.3477
 256   2.0000      -0.414695       -11.2844
 257   2.0000      -0.413869       -11.2619
 258   2.0000      -0.413122       -11.2416
 259   2.0000      -0.412847       -11.2342
 260   2.0000      -0.403680       -10.9847
 261   2.0000      -0.402885       -10.9631
 262   2.0000      -0.398614       -10.8468
 263   2.0000      -0.397774       -10.8240
 264   2.0000      -0.393026       -10.6948
 265   2.0000      -0.390169       -10.6171
 266   2.0000      -0.379442       -10.3251
 267   2.0000      -0.373556       -10.1650
 268   2.0000      -0.367344        -9.9959
 269   2.0000      -0.364802        -9.9268
 270   2.0000      -0.364337        -9.9141
 271   2.0000      -0.355103        -9.6629
 272   2.0000      -0.344657        -9.3786
 273   2.0000      -0.342910        -9.3310
 274   2.0000      -0.324646        -8.8341
 275   2.0000      -0.321760        -8.7555
 276   2.0000      -0.320218        -8.7136
 277   2.0000      -0.320021        -8.7082
 278   2.0000      -0.309124        -8.4117
 279   2.0000      -0.303538        -8.2597
 280   2.0000      -0.303342        -8.2544
 281   2.0000      -0.297743        -8.1020
 282   2.0000      -0.295720        -8.0469
 283   2.0000      -0.292627        -7.9628
 284   2.0000      -0.285952        -7.7811
 285   2.0000      -0.284132        -7.7316
 286   2.0000      -0.271649        -7.3920
 287   2.0000      -0.240382        -6.5411
 288   2.0000      -0.221070        -6.0156
 289   0.0000      -0.104747        -2.8503
 290   0.0000      -0.090381        -2.4594
 291   0.0000      -0.060535        -1.6473
 292   0.0000      -0.052654        -1.4328
 293   0.0000      -0.039702        -1.0803

MULLIKEN ATOMIC CHARGES
-----------------------
   0 C :    0.330761
   1 C :   -0.373096
   2 C :   -0.188423
   3 N :    0.137721
   4 C :   -0.182003
   5 N :    0.132333
   6 C :    0.011312
   7 C :   -0.007478
   8 C :   -0.080078
   9 C :    0.118720
  10 C :   -0.095758
  11 C :   -0.030926
  12 S :    0.135056
  13 C :   -0.049183
  14 C :    0.019098
  15 C :    0.150942
  16 O :   -0.195712
  17 C :   -0.105718
  18 C :   -0.034278
  19 C :   -0.074854
  20 S :    0.191321
  21 C :   -0.044887
  22 C :    0.122190
  23 C :    0.142054
  24 C :   -0.128851
  25 C :    0.110386
  26 C :   -0.048591
  27 C :   -0.002153
  28 C :   -0.082283
  29 C :    0.099730
  30 C :   -0.094704
  31 C :   -0.033628
  32 C :    0.067607
  33 C :   -0.087996
  34 C :   -0.060699
  35 C :    0.120698
  36 C :   -0.116239
  37 S :    0.155898
  38 C :   -0.121369
  39 C :    0.119875
  40 N :   -0.017117
  41 C :   -0.059267
  42 C :   -0.092512
  43 S :    0.147098
  44 C :    0.049919
  45 C :    0.023419
  46 C :   -0.100671
  47 S :    0.162623
  48 C :   -0.137375
  49 C :    0.161525
  50 C :    0.109920
  51 C :   -0.116810
  52 C :    0.078358
  53 C :   -0.029058
  54 C :   -0.012309
  55 C :   -0.081167
  56 C :    0.098065
  57 C :   -0.075081
  58 C :    0.051965
  59 C :   -0.008665
  60 C :    0.009571
  61 C :   -0.114864
  62 C :    0.315300
  63 C :   -0.362608
  64 C :   -0.187035
  65 N :    0.137484
  66 C :   -0.153255
  67 N :    0.130771
  68 C :   -0.001594
  69 C :   -0.000569
  70 C :    0.132571
  71 O :   -0.158985
  72 C :   -0.072979
  73 C :    0.114054
  74 C :   -0.095417
  75 C :   -0.026087
  76 S :    0.133508
  77 C :   -0.051496
  78 C :    0.023874
  79 H :   -0.017565
  80 H :   -0.009407
  81 H :    0.034060
  82 H :   -0.011215
  83 H :   -0.027966
  84 H :   -0.006166
  85 H :   -0.009390
  86 H :    0.041956
  87 H :    0.025222
  88 H :    0.034096
  89 H :    0.033073
  90 H :    0.004411
  91 H :   -0.049276
  92 H :   -0.017874
  93 H :    0.011060
  94 H :   -0.024828
  95 H :    0.126194
  96 H :   -0.022609
  97 H :   -0.005040
  98 H :   -0.013233
  99 H :   -0.031620
 100 H :    0.000103
 101 H :    0.014104
 102 H :    0.025310
 103 H :    0.029446
 104 H :    0.032448
 105 H :    0.027308
 106 H :   -0.063638
 107 H :   -0.002877
 108 H :    0.010726
 109 H :    0.010211
 110 H :   -0.015884
 111 H :   -0.008238
 112 H :    0.035180
 113 H :   -0.009981
Sum of atomic charges:   -0.0000000

LOEWDIN ATOMIC CHARGES
----------------------
   0 C :    0.079493
   1 C :   -0.163519
   2 C :   -0.019593
   3 N :   -0.069103
   4 C :   -0.012216
   5 N :   -0.077463
   6 C :   -0.020542
   7 C :   -0.051023
   8 C :    0.017496
   9 C :   -0.038498
  10 C :   -0.148195
  11 C :   -0.011199
  12 S :    0.424860
  13 C :   -0.154437
  14 C :   -0.059341
  15 C :    0.080764
  16 O :   -0.185122
  17 C :   -0.126990
  18 C :    0.043306
  19 C :   -0.194600
  20 S :    0.536394
  21 C :   -0.138558
  22 C :   -0.054294
  23 C :   -0.014101
  24 C :   -0.006866
  25 C :   -0.007563
  26 C :   -0.033138
  27 C :   -0.013478
  28 C :   -0.018630
  29 C :   -0.045196
  30 C :   -0.021447
  31 C :   -0.052672
  32 C :   -0.015009
  33 C :   -0.162212
  34 C :   -0.064422
  35 C :   -0.011732
  36 C :   -0.217859
  37 S :    0.429362
  38 C :   -0.221282
  39 C :   -0.009742
  40 N :    0.058504
  41 C :   -0.068681
  42 C :   -0.158910
  43 S :    0.423081
  44 C :   -0.027370
  45 C :   -0.051834
  46 C :   -0.143907
  47 S :    0.476903
  48 C :   -0.194147
  49 C :   -0.019329
  50 C :   -0.050207
  51 C :   -0.008594
  52 C :   -0.024254
  53 C :   -0.018914
  54 C :   -0.036191
  55 C :    0.003132
  56 C :   -0.046740
  57 C :   -0.022557
  58 C :    0.015759
  59 C :   -0.054610
  60 C :    0.065739
  61 C :   -0.116564
  62 C :    0.077749
  63 C :   -0.159111
  64 C :   -0.019845
  65 N :   -0.065073
  66 C :   -0.001137
  67 N :   -0.068174
  68 C :   -0.018977
  69 C :   -0.053069
  70 C :    0.080548
  71 O :   -0.158263
  72 C :    0.020086
  73 C :   -0.038023
  74 C :   -0.146848
  75 C :   -0.014093
  76 S :    0.423688
  77 C :   -0.153438
  78 C :   -0.058679
  79 H :    0.037763
  80 H :    0.039987
  81 H :    0.027498
  82 H :    0.033373
  83 H :    0.045695
  84 H :    0.033063
  85 H :    0.027180
  86 H :    0.029353
  87 H :    0.027942
  88 H :    0.035919
  89 H :    0.036504
  90 H :    0.028235
  91 H :    0.022124
  92 H :    0.028807
  93 H :    0.029112
  94 H :    0.030535
  95 H :    0.093692
  96 H :    0.030705
  97 H :    0.030714
  98 H :    0.027981
  99 H :    0.026311
 100 H :    0.030894
 101 H :    0.018906
 102 H :    0.026479
 103 H :    0.035874
 104 H :    0.038378
 105 H :    0.035460
 106 H :    0.027536
 107 H :    0.033713
 108 H :    0.029907
 109 H :    0.040942
 110 H :    0.038934
 111 H :    0.039443
 112 H :    0.027818
 113 H :    0.033940

  Mayer bond orders larger than 0.100000
B(  0-C ,  1-C ) :   1.5724 B(  0-C ,  6-C ) :   0.9867 B(  0-C , 17-C ) :   1.1271
B(  1-C ,  2-C ) :   1.1522 B(  1-C ,  4-C ) :   1.1562 B(  2-C ,  3-N ) :   2.9632
B(  4-C ,  5-N ) :   2.9650 B(  6-C ,  7-C ) :   1.2726 B(  6-C , 11-C ) :   1.4226
B(  7-C ,  8-C ) :   1.4303 B(  7-C , 15-C ) :   0.9555 B(  8-C ,  9-C ) :   1.2322
B(  8-C , 79-H ) :   1.0181 B(  9-C , 10-C ) :   1.3144 B(  9-C , 14-C ) :   1.1702
B( 10-C , 11-C ) :   1.3083 B( 10-C , 12-S ) :   1.0973 B( 11-C , 80-H ) :   0.9840
B( 12-S , 13-C ) :   1.1265 B( 13-C , 14-C ) :   1.6281 B( 13-C , 81-H ) :   0.9684
B( 14-C , 82-H ) :   0.9999 B( 15-C , 16-O ) :   2.1200 B( 15-C , 17-C ) :   0.9902
B( 17-C , 18-C ) :   1.4104 B( 18-C , 19-C ) :   1.3840 B( 18-C , 83-H ) :   0.9304
B( 19-C , 20-S ) :   1.0778 B( 19-C , 23-C ) :   1.1863 B( 20-S , 21-C ) :   1.1548
B( 21-C , 22-C ) :   1.2274 B( 21-C , 31-C ) :   1.2205 B( 22-C , 23-C ) :   1.2484
B( 22-C , 30-C ) :   1.2147 B( 23-C , 24-C ) :   1.2489 B( 24-C , 25-C ) :   1.4618
B( 24-C , 84-H ) :   0.9862 B( 25-C , 26-C ) :   1.0457 B( 25-C , 28-C ) :   1.2323
B( 26-C , 27-C ) :   1.9621 B( 26-C , 85-H ) :   0.9536 B( 27-C , 86-H ) :   0.9532
B( 27-C , 87-H ) :   0.9491 B( 28-C , 29-C ) :   1.0848 B( 28-C , 30-C ) :   1.5229
B( 29-C , 88-H ) :   0.9403 B( 29-C , 89-H ) :   0.9447 B( 29-C , 90-H ) :   0.9536
B( 30-C , 91-H ) :   0.9884 B( 31-C , 32-C ) :   1.6114 B( 31-C , 92-H ) :   0.9707
B( 32-C , 33-C ) :   1.1648 B( 32-C , 93-H ) :   0.9585 B( 33-C , 34-C ) :   1.4411
B( 33-C , 37-S ) :   1.0888 B( 34-C , 35-C ) :   1.2552 B( 34-C , 94-H ) :   1.0088
B( 35-C , 36-C ) :   1.3796 B( 35-C , 40-N ) :   1.1600 B( 36-C , 37-S ) :   1.0473
B( 36-C , 38-C ) :   1.4004 B( 38-C , 39-C ) :   1.3844 B( 38-C , 43-S ) :   1.0432
B( 39-C , 40-N ) :   1.1623 B( 39-C , 41-C ) :   1.2509 B( 40-N , 95-H ) :   0.9345
B( 41-C , 42-C ) :   1.4532 B( 41-C , 96-H ) :   1.0065 B( 42-C , 43-S ) :   1.0902
B( 42-C , 44-C ) :   1.1607 B( 44-C , 45-C ) :   1.6487 B( 44-C , 97-H ) :   0.9552
B( 45-C , 46-C ) :   1.1711 B( 45-C , 98-H ) :   0.9496 B( 46-C , 47-S ) :   1.1840
B( 46-C , 50-C ) :   1.2767 B( 47-S , 48-C ) :   1.1054 B( 48-C , 49-C ) :   1.2646
B( 48-C , 58-C ) :   1.2175 B( 49-C , 50-C ) :   1.2310 B( 49-C , 57-C ) :   1.2175
B( 50-C , 51-C ) :   1.2043 B( 51-C , 52-C ) :   1.4967 B( 51-C , 99-H ) :   0.9891
B( 52-C , 53-C ) :   1.0332 B( 52-C , 55-C ) :   1.2133 B( 53-C , 54-C ) :   1.9740
B( 53-C ,100-H ) :   0.9526 B( 54-C ,101-H ) :   0.9574 B( 54-C ,102-H ) :   0.9499
B( 55-C , 56-C ) :   1.0862 B( 55-C , 57-C ) :   1.5304 B( 56-C ,103-H ) :   0.9358
B( 56-C ,104-H ) :   0.9470 B( 56-C ,105-H ) :   0.9399 B( 57-C ,106-H ) :   0.9768
B( 58-C , 59-C ) :   1.5393 B( 58-C ,107-H ) :   0.9555 B( 59-C , 60-C ) :   1.2301
B( 59-C ,108-H ) :   0.9638 B( 60-C , 61-C ) :   1.5037 B( 60-C ,109-H ) :   0.9454
B( 61-C , 62-C ) :   1.0707 B( 61-C , 70-C ) :   0.9619 B( 62-C , 63-C ) :   1.5866
B( 62-C , 68-C ) :   1.0084 B( 63-C , 64-C ) :   1.1273 B( 63-C , 66-C ) :   1.1942
B( 64-C , 65-N ) :   2.9754 B( 66-C , 67-N ) :   2.8676 B( 68-C , 69-C ) :   1.2719
B( 68-C , 75-C ) :   1.4180 B( 69-C , 70-C ) :   0.9267 B( 69-C , 72-C ) :   1.4352
B( 70-C , 71-O ) :   2.2335 B( 72-C , 73-C ) :   1.2425 B( 72-C ,110-H ) :   1.0163
B( 73-C , 74-C ) :   1.3108 B( 73-C , 78-C ) :   1.1709 B( 74-C , 75-C ) :   1.3173
B( 74-C , 76-S ) :   1.0959 B( 75-C ,111-H ) :   0.9823 B( 76-S , 77-C ) :   1.1256
B( 77-C , 78-C ) :   1.6298 B( 77-C ,112-H ) :   0.9682 B( 78-C ,113-H ) :   0.9993

-----------------------------------------------------------------------------
         ABSORPTION SPECTRUM VIA TRANSITION ELECTRIC DIPOLE MOMENTS
-----------------------------------------------------------------------------
State   Energy  Wavelength   fosc         T2         TX        TY        TZ
        (cm-1)    (nm)                  (au**2)     (au)      (au)      (au)
-----------------------------------------------------------------------------
   0   11973.8    835.2   3.024762325  83.16359   0.64616  -9.09233   0.27493
   1   15263.8    655.1   0.173222963   3.73611  -1.60873  -0.69033  -0.81948
   2   19316.9    517.7   0.031147406   0.53084   0.49478   0.46445   0.26517
   3   20756.7    481.8   0.179792936   2.85162   1.38180   0.64954   0.72135
   4   22588.1    442.7   0.017291131   0.25201   0.34970   0.31532   0.17404
   5   22929.4    436.1   0.037533996   0.53890   0.54961  -0.01331   0.48647
   6   24558.3    407.2   0.048953517   0.65624  -0.17742   0.70984  -0.34769
   7   26096.6    383.2   0.083016248   1.04726  -0.38626  -0.67342  -0.66677
   8   26292.7    380.3   0.028761762   0.36013   0.52146   0.26151   0.14081
   9   26596.7    376.0   0.098944997   1.22473  -0.87512  -0.29613  -0.60926
  10   27105.9    368.9   0.059596886   0.72383  -0.56021  -0.57931  -0.27274
  11   27159.0    368.2   0.017613875   0.21351  -0.38725  -0.24898  -0.03947
  12   27392.4    365.1   0.428727801   5.15262  -1.92058  -0.43322  -1.12973
  13   27700.5    361.0   0.014312125   0.17010  -0.01300  -0.41217   0.00638
  14   27761.8    360.2   0.301211564   3.57191   0.20007  -1.79115   0.56892
  15   28869.9    346.4   0.097396635   1.11064   0.64458   0.53000   0.64363
  16   29012.3    344.7   0.073649802   0.83573   0.24972  -0.17918   0.86097
  17   29326.6    341.0   0.000815064   0.00915  -0.04232  -0.08539   0.00825
  18   29726.3    336.4   0.031818712   0.35239   0.02594  -0.56159  -0.19061
  19   30087.6    332.4   0.023448435   0.25657   0.20864  -0.40521   0.22100
  20   30265.3    330.4   0.114295949   1.24326  -0.04944  -1.11110   0.07921
  21   30672.9    326.0   0.301674659   3.23787   0.12204   1.69066   0.60386
  22   30824.6    324.4   0.003886692   0.04151  -0.03550   0.02753  -0.19873
  23   31460.9    317.9   0.012710927   0.13301   0.01323   0.36011  -0.05615
  24   32018.8    312.3   0.096675409   0.99400  -0.76861   0.49357  -0.39954
  25   32186.9    310.7   0.018461627   0.18883   0.34620   0.22972  -0.12728
  26   32444.5    308.2   0.001683953   0.01709  -0.07430   0.04040  -0.09967
  27   32780.5    305.1   0.724186592   7.27296   2.34765   0.42943   1.25582
  28   32942.8    303.6   0.271402160   2.71224  -0.54724   1.44421  -0.57187
  29   33507.5    298.4   0.275616292   2.70794  -0.61382   1.46816  -0.41915
  30   34158.8    292.8   0.028348325   0.27321   0.51644  -0.02978   0.07492
  31   34629.2    288.8   0.089613513   0.85193  -0.46160   0.77781  -0.18407
  32   35275.7    283.5   0.005102456   0.04762  -0.20017  -0.01196  -0.08607
  33   35319.3    283.1   0.015375033   0.14331  -0.15306   0.32930   0.10697
  34   35557.3    281.2   0.047268117   0.43764   0.28246   0.06991   0.59411
  35   35698.0    280.1   0.059255081   0.54646  -0.21591   0.62055   0.33875
  36   36126.1    276.8   0.007877246   0.07178  -0.09351  -0.02442  -0.24989
  37   36314.9    275.4   0.035403336   0.32095   0.24715   0.02333   0.50924
  38   36513.5    273.9   0.033593871   0.30289   0.09876   0.45729   0.28985
  39   37056.9    269.9   0.129834232   1.15344   0.75077   0.30319   0.70559
  40   37217.0    268.7   0.021684560   0.19182   0.28631   0.32431  -0.06833
  41   37827.7    264.4   0.019489595   0.16962   0.06510   0.37719  -0.15200
  42   37878.9    264.0   0.153242799   1.33186   0.45585  -0.74543   0.75392
  43   38178.4    261.9   0.225206271   1.94195   0.39096   1.23225   0.52025
  44   38275.8    261.3   0.031207010   0.26841  -0.10650  -0.49760   0.09730
  45   38359.6    260.7   0.008135419   0.06982  -0.15965   0.04583  -0.20551
  46   38560.0    259.3   0.029014474   0.24772   0.25387   0.42653   0.03655
  47   38655.4    258.7   0.114874262   0.97834   0.24190   0.11782   0.95181
  48   38706.8    258.4   0.112448488   0.95641   0.50966  -0.44507   0.70609
  49   39352.7    254.1   0.007841169   0.06560  -0.08596  -0.10063   0.21927
  50   39711.8    251.8   0.111524140   0.92454   0.42993  -0.83583   0.20272
  51   39865.6    250.8   0.023844786   0.19691  -0.34072   0.23080  -0.16600
  52   39917.8    250.5   0.031151722   0.25692  -0.33027  -0.00765  -0.38442
  53   40277.4    248.3   0.004633736   0.03787  -0.06064   0.07118  -0.17068

FINAL SINGLE POINT ENERGY     -5344.813444241579

DIPOLE MOMENT
-------------
                                X             Y             Z
Electronic contribution:     22.34005       2.10406       2.63491
Nuclear contribution   :    -24.71866      -0.20336      -3.69901
                        -----------------------------------------
Total Dipole Moment    :     -2.37861       1.90070      -1.06410
                        -----------------------------------------
Magnitude (a.u.)       :      3.22533
Magnitude (Debye)      :      8.19813

Rotational constants in cm-1:     0.001624     0.000119     0.000112
Rotational constants in MHz :    48.674529     3.567768     3.359268

                             ****ORCA TERMINATED NORMALLY****
TOTAL RUN TIME: 0 days 0 hours 11 minutes 12 seconds 629 msec
