                         Program Version 4.2.0 -  RELEASE  -
|  1> # ORCA input file
|  2> # SCF done       -217.939775333829          0.000997536967
|  3> ! CAM-B3LYP def2-SVP def2/J RIJCOSX Grid4 TightSCF
|  4> %maxcore 5000
|  5> %tddft
|  6>     Mode sTDDFT
|  7>     Ethresh 5.0
|  8>     maxcore 5000
|  9> end
| 10>
| 11> %pal
| 12>   nprocs 6
| 13>   end
| 14> * xyz 0 1
| 15>    C        0.12348         2.07723        -0.41593
| 16>    C        1.18854         2.69435        -1.01432
| 17>    C        2.51388         2.21210        -0.96115
| 18>    N        3.60757         1.86477        -0.95350
| 19>    C        1.11644         3.90971        -1.72932
| 20>    N        1.14109         4.90632        -2.29813
| 21>    C        0.17699         0.88413         0.41514
| 22>    C       -1.11195         0.64501         0.95767
| 23>    C       -1.37664        -0.41512         1.79231
| 24>    C       -0.32328        -1.27661         2.11053
| 25>    C        0.95922        -1.03272         1.55980
| 26>    C        1.22768         0.03647         0.71392
| 27>    S        2.10327        -2.22902         2.07777
| 28>    C        0.88427        -3.02703         3.00911
| 29>    C       -0.32704        -2.43230         2.94096
| 30>    C       -2.05579         1.65920         0.46353
| 31>    O       -3.25303         1.68513         0.65157
| 32>    C       -1.25164         2.55305        -0.42130
| 33>    C       -1.77782         3.50486        -1.23009
| 34>    C       -3.10703         4.02814        -1.10693
| 35>    C       -3.88756         4.27958        -2.25327
| 36>    C       -5.26210         4.70405        -2.16687
| 37>    N       -6.01522         4.72148        -3.27547
| 38>    C       -5.46349         4.46200        -4.43300
| 39>    C       -4.06143         4.16729        -4.53134
| 40>    N       -3.33040         4.04895        -3.45572
| 41>    C       -3.46935         3.97853        -5.80664
| 42>    N       -3.03567         3.82469        -6.85520
| 43>    C       -6.27723         4.49294        -5.59339
| 44>    N       -6.92270         4.54109        -6.53841
| 45>    C       -5.86582         5.01690        -0.92655
| 46>    C       -5.06129         4.81506         0.21158
| 47>    C       -3.70080         4.34081         0.12654
| 48>    N       -3.12127         4.29107         1.32883
| 49>    S       -4.18050         4.73771         2.43620
| 50>    N       -5.42046         5.05446         1.47621
| 51>    C       -7.22452         5.44157        -0.78263
| 52>    S       -8.08217         4.96152         0.64281
| 53>    C       -9.55981         5.68332         0.07932
| 54>    C       -9.35671         6.31988        -1.14769
| 55>    C       -8.04003         6.20156        -1.61596
| 56>    C       -7.58161         6.99060        -2.80726
| 57>    F       -6.26185         7.37596        -2.64495
| 58>    C       -8.45325         8.23154        -2.96835
| 59>    C       -9.89534         7.78485        -3.14612
| 60>    C      -10.41941         7.07462        -1.89654
| 61>    F      -11.40478         6.18428        -2.30368
| 62>    C      -10.67947         5.56961         0.94043
| 63>    C      -11.97793         5.85991         0.65981
| 64>    C      -13.05288         5.70390         1.57541
| 65>    C      -14.37598         5.96335         1.12353
| 66>    C      -15.52571         5.80904         1.97390
| 67>    N      -16.75539         5.91940         1.44619
| 68>    C      -16.89552         6.30720         0.20447
| 69>    C      -15.74607         6.61956        -0.59399
| 70>    N      -14.54196         6.39373        -0.13404
| 71>    C      -15.90842         7.13912        -1.90270
| 72>    N      -16.08138         7.55940        -2.95382
| 73>    C      -18.21099         6.42058        -0.31139
| 74>    N      -19.27791         6.54544        -0.70870
| 75>    C      -15.40279         5.50013         3.34730
| 76>    C      -14.09711         5.22309         3.79301
| 77>    C      -12.93995         5.32098         2.93108
| 78>    N      -11.81746         5.03668         3.59777
| 79>    S      -12.17714         4.69350         5.12121
| 80>    N      -13.76263         4.87772         5.03812
| 81>    C      -16.51771         5.40478         4.23212
| 82>    C      -17.72212         6.01803         4.12712
| 83>    C      -18.19302         7.10641         3.29104
| 84>    C      -17.46468         8.19356         2.88202
| 85>    C      -18.00622         9.27443         2.15727
| 86>    N      -18.38483        10.17212         1.55065
| 87>    C      -16.08772         8.34239         3.13083
| 88>    N      -14.95897         8.48643         3.28957
| 89>    C      -19.63471         6.95765         3.17309
| 90>    C      -20.07259         5.99182         4.11908
| 91>    C      -18.90826         5.45210         4.84193
| 92>    O      -18.88989         4.67539         5.76669
| 93>    C      -21.39571         5.64361         4.25066
| 94>    C      -22.32107         6.26073         3.40311
| 95>    C      -21.86868         7.20860         2.45075
| 96>    C      -20.53382         7.57355         2.32515
| 97>    S      -23.18030         7.81960         1.49848
| 98>    C      -24.30245         6.83054         2.36546
| 99>    C      -23.72897         6.07127         3.32550
|100>    H       -2.36814        -0.57225         2.18801
|101>    H        2.21795         0.17564         0.31331
|102>    H        1.15400        -3.90787         3.55873
|103>    H       -1.20233        -2.78854         3.45326
|104>    H       -1.21075         3.88113        -2.07212
|105>    H       -7.60934         6.38265        -3.72094
|106>    H       -8.11755         8.79605        -3.83834
|107>    H       -8.34816         8.86504        -2.08472
|108>    H       -9.95766         7.08238        -3.98064
|109>    H      -10.53683         8.63533        -3.37596
|110>    H      -10.92067         7.77700        -1.21507
|111>    H      -10.45325         5.18054         1.92510
|112>    H      -12.28949         6.18098        -0.31976
|113>    H      -16.40210         4.71111         5.05832
|114>    H      -21.70655         4.91209         4.98044
|115>    H      -20.23038         8.28590         1.57562
|116>    H      -25.34045         6.87610         2.09837
|117>    H      -24.26961         5.39487         3.96248
|118> *
|119>
|120>                          ****END OF INPUT****

CARTESIAN COORDINATES (ANGSTROEM)
---------------------------------
  C      0.123480    2.077230   -0.415930
  C      1.188540    2.694350   -1.014320
  C      2.513880    2.212100   -0.961150
  N      3.607570    1.864770   -0.953500
  C      1.116440    3.909710   -1.729320
  N      1.141090    4.906320   -2.298130
  C      0.176990    0.884130    0.415140
  C     -1.111950    0.645010    0.957670
  C     -1.376640   -0.415120    1.792310
  C     -0.323280   -1.276610    2.110530
  C      0.959220   -1.032720    1.559800
  C      1.227680    0.036470    0.713920
  S      2.103270   -2.229020    2.077770
  C      0.884270   -3.027030    3.009110
  C     -0.327040   -2.432300    2.940960
  C     -2.055790    1.659200    0.463530
  O     -3.253030    1.685130    0.651570
  C     -1.251640    2.553050   -0.421300
  C     -1.777820    3.504860   -1.230090
  C     -3.107030    4.028140   -1.106930
  C     -3.887560    4.279580   -2.253270
  C     -5.262100    4.704050   -2.166870
  N     -6.015220    4.721480   -3.275470
  C     -5.463490    4.462000   -4.433000
  C     -4.061430    4.167290   -4.531340
  N     -3.330400    4.048950   -3.455720
  C     -3.469350    3.978530   -5.806640
  N     -3.035670    3.824690   -6.855200
  C     -6.277230    4.492940   -5.593390
  N     -6.922700    4.541090   -6.538410
  C     -5.865820    5.016900   -0.926550
  C     -5.061290    4.815060    0.211580
  C     -3.700800    4.340810    0.126540
  N     -3.121270    4.291070    1.328830
  S     -4.180500    4.737710    2.436200
  N     -5.420460    5.054460    1.476210
  C     -7.224520    5.441570   -0.782630
  S     -8.082170    4.961520    0.642810
  C     -9.559810    5.683320    0.079320
  C     -9.356710    6.319880   -1.147690
  C     -8.040030    6.201560   -1.615960
  C     -7.581610    6.990600   -2.807260
  F     -6.261850    7.375960   -2.644950
  C     -8.453250    8.231540   -2.968350
  C     -9.895340    7.784850   -3.146120
  C    -10.419410    7.074620   -1.896540
  F    -11.404780    6.184280   -2.303680
  C    -10.679470    5.569610    0.940430
  C    -11.977930    5.859910    0.659810
  C    -13.052880    5.703900    1.575410
  C    -14.375980    5.963350    1.123530
  C    -15.525710    5.809040    1.973900
  N    -16.755390    5.919400    1.446190
  C    -16.895520    6.307200    0.204470
  C    -15.746070    6.619560   -0.593990
  N    -14.541960    6.393730   -0.134040
  C    -15.908420    7.139120   -1.902700
  N    -16.081380    7.559400   -2.953820
  C    -18.210990    6.420580   -0.311390
  N    -19.277910    6.545440   -0.708700
  C    -15.402790    5.500130    3.347300
  C    -14.097110    5.223090    3.793010
  C    -12.939950    5.320980    2.931080
  N    -11.817460    5.036680    3.597770
  S    -12.177140    4.693500    5.121210
  N    -13.762630    4.877720    5.038120
  C    -16.517710    5.404780    4.232120
  C    -17.722120    6.018030    4.127120
  C    -18.193020    7.106410    3.291040
  C    -17.464680    8.193560    2.882020
  C    -18.006220    9.274430    2.157270
  N    -18.384830   10.172120    1.550650
  C    -16.087720    8.342390    3.130830
  N    -14.958970    8.486430    3.289570
  C    -19.634710    6.957650    3.173090
  C    -20.072590    5.991820    4.119080
  C    -18.908260    5.452100    4.841930
  O    -18.889890    4.675390    5.766690
  C    -21.395710    5.643610    4.250660
  C    -22.321070    6.260730    3.403110
  C    -21.868680    7.208600    2.450750
  C    -20.533820    7.573550    2.325150
  S    -23.180300    7.819600    1.498480
  C    -24.302450    6.830540    2.365460
  C    -23.728970    6.071270    3.325500
  H     -2.368140   -0.572250    2.188010
  H      2.217950    0.175640    0.313310
  H      1.154000   -3.907870    3.558730
  H     -1.202330   -2.788540    3.453260
  H     -1.210750    3.881130   -2.072120
  H     -7.609340    6.382650   -3.720940
  H     -8.117550    8.796050   -3.838340
  H     -8.348160    8.865040   -2.084720
  H     -9.957660    7.082380   -3.980640
  H    -10.536830    8.635330   -3.375960
  H    -10.920670    7.777000   -1.215070
  H    -10.453250    5.180540    1.925100
  H    -12.289490    6.180980   -0.319760
  H    -16.402100    4.711110    5.058320
  H    -21.706550    4.912090    4.980440
  H    -20.230380    8.285900    1.575620
  H    -25.340450    6.876100    2.098370
  H    -24.269610    5.394870    3.962480

 Total Charge           Charge          ....    0
 Multiplicity           Mult            ....    1
 Number of Electrons    NEL             ....  604
 Basis Dimension        Dim             .... 1300

ORBITAL ENERGIES
----------------

  NO   OCC          E(Eh)            E(eV)
   0   2.0000     -89.058250     -2423.3982
   1   2.0000     -89.057769     -2423.3851
   2   2.0000     -88.980000     -2421.2689
   3   2.0000     -88.973524     -2421.0927
   4   2.0000     -88.965754     -2420.8812
   5   2.0000     -24.763974      -673.8620
   6   2.0000     -24.759058      -673.7282
   7   2.0000     -19.224990      -523.1386
   8   2.0000     -19.218209      -522.9540
   9   2.0000     -14.472857      -393.8265
  10   2.0000     -14.472358      -393.8129
  11   2.0000     -14.470020      -393.7492
  12   2.0000     -14.469499      -393.7351
  13   2.0000     -14.466881      -393.6638
  14   2.0000     -14.465094      -393.6152
  15   2.0000     -14.463230      -393.5645
  16   2.0000     -14.460572      -393.4922
  17   2.0000     -14.440175      -392.9371
  18   2.0000     -14.438254      -392.8849
  19   2.0000     -14.437188      -392.8558
  20   2.0000     -14.431929      -392.7127
  21   2.0000     -14.423699      -392.4888
  22   2.0000     -14.422059      -392.4442
  23   2.0000     -14.420650      -392.4058
  24   2.0000     -14.417313      -392.3150
  25   2.0000     -10.393683      -282.8265
  26   2.0000     -10.391838      -282.7763
  27   2.0000     -10.390567      -282.7417
  28   2.0000     -10.387083      -282.6469
  29   2.0000     -10.376044      -282.3465
  30   2.0000     -10.369418      -282.1662
  31   2.0000     -10.362887      -281.9885
  32   2.0000     -10.361932      -281.9625
  33   2.0000     -10.360073      -281.9119
  34   2.0000     -10.360031      -281.9108
  35   2.0000     -10.358930      -281.8808
  36   2.0000     -10.356607      -281.8176
  37   2.0000     -10.354399      -281.7575
  38   2.0000     -10.354142      -281.7505
  39   2.0000     -10.353425      -281.7310
  40   2.0000     -10.353255      -281.7264
  41   2.0000     -10.351264      -281.6722
  42   2.0000     -10.347537      -281.5708
  43   2.0000     -10.346616      -281.5457
  44   2.0000     -10.343676      -281.4657
  45   2.0000     -10.341879      -281.4168
  46   2.0000     -10.333584      -281.1911
  47   2.0000     -10.333451      -281.1875
  48   2.0000     -10.333411      -281.1864
  49   2.0000     -10.331446      -281.1329
  50   2.0000     -10.329588      -281.0824
  51   2.0000     -10.328501      -281.0528
  52   2.0000     -10.328040      -281.0402
  53   2.0000     -10.325784      -280.9789
  54   2.0000     -10.325450      -280.9698
  55   2.0000     -10.325273      -280.9650
  56   2.0000     -10.325063      -280.9593
  57   2.0000     -10.324088      -280.9327
  58   2.0000     -10.322649      -280.8935
  59   2.0000     -10.322258      -280.8829
  60   2.0000     -10.321334      -280.8578
  61   2.0000     -10.320359      -280.8313
  62   2.0000     -10.319858      -280.8176
  63   2.0000     -10.318052      -280.7685
  64   2.0000     -10.314130      -280.6617
  65   2.0000     -10.313596      -280.6472
  66   2.0000     -10.311354      -280.5862
  67   2.0000     -10.310479      -280.5624
  68   2.0000     -10.309508      -280.5360
  69   2.0000     -10.309484      -280.5353
  70   2.0000     -10.309032      -280.5230
  71   2.0000     -10.307428      -280.4794
  72   2.0000     -10.306851      -280.4637
  73   2.0000     -10.305891      -280.4375
  74   2.0000     -10.303698      -280.3779
  75   2.0000     -10.303533      -280.3734
  76   2.0000     -10.302161      -280.3361
  77   2.0000     -10.299940      -280.2756
  78   2.0000     -10.298441      -280.2348
  79   2.0000     -10.296808      -280.1904
  80   2.0000     -10.296067      -280.1702
  81   2.0000     -10.292978      -280.0862
  82   2.0000     -10.288368      -279.9607
  83   2.0000     -10.284007      -279.8420
  84   2.0000     -10.283836      -279.8374
  85   2.0000      -8.149416      -221.7569
  86   2.0000      -8.149020      -221.7461
  87   2.0000      -8.075033      -219.7328
  88   2.0000      -8.069805      -219.5905
  89   2.0000      -8.061978      -219.3776
  90   2.0000      -6.120290      -166.5416
  91   2.0000      -6.120040      -166.5348
  92   2.0000      -6.112625      -166.3330
  93   2.0000      -6.112501      -166.3296
  94   2.0000      -6.112140      -166.3198
  95   2.0000      -6.112041      -166.3171
  96   2.0000      -6.044170      -164.4702
  97   2.0000      -6.039940      -164.3551
  98   2.0000      -6.039327      -164.3384
  99   2.0000      -6.037430      -164.2868
 100   2.0000      -6.034982      -164.2202
 101   2.0000      -6.031479      -164.1249
 102   2.0000      -6.031458      -164.1243
 103   2.0000      -6.027161      -164.0074
 104   2.0000      -6.023697      -163.9131
 105   2.0000      -1.274489       -34.6806
 106   2.0000      -1.269593       -34.5474
 107   2.0000      -1.155114       -31.4322
 108   2.0000      -1.154280       -31.4096
 109   2.0000      -1.139421       -31.0052
 110   2.0000      -1.133587       -30.8465
 111   2.0000      -1.131932       -30.8014
 112   2.0000      -1.130519       -30.7630
 113   2.0000      -1.058791       -28.8112
 114   2.0000      -1.057260       -28.7695
 115   2.0000      -1.027022       -27.9467
 116   2.0000      -1.024612       -27.8811
 117   2.0000      -1.024433       -27.8762
 118   2.0000      -1.020548       -27.7705
 119   2.0000      -1.019043       -27.7296
 120   2.0000      -1.014877       -27.6162
 121   2.0000      -1.011553       -27.5258
 122   2.0000      -1.010521       -27.4977
 123   2.0000      -1.010262       -27.4906
 124   2.0000      -1.007115       -27.4050
 125   2.0000      -1.004634       -27.3375
 126   2.0000      -0.999610       -27.2008
 127   2.0000      -0.999002       -27.1842
 128   2.0000      -0.993218       -27.0268
 129   2.0000      -0.990386       -26.9498
 130   2.0000      -0.987172       -26.8623
 131   2.0000      -0.984812       -26.7981
 132   2.0000      -0.939973       -25.5780
 133   2.0000      -0.937235       -25.5034
 134   2.0000      -0.933804       -25.4101
 135   2.0000      -0.928369       -25.2622
 136   2.0000      -0.920654       -25.0523
 137   2.0000      -0.918111       -24.9831
 138   2.0000      -0.916723       -24.9453
 139   2.0000      -0.905038       -24.6273
 140   2.0000      -0.897041       -24.4097
 141   2.0000      -0.888716       -24.1832
 142   2.0000      -0.886310       -24.1177
 143   2.0000      -0.881999       -24.0004
 144   2.0000      -0.867672       -23.6105
 145   2.0000      -0.856446       -23.3051
 146   2.0000      -0.851895       -23.1813
 147   2.0000      -0.843324       -22.9480
 148   2.0000      -0.841429       -22.8965
 149   2.0000      -0.838744       -22.8234
 150   2.0000      -0.830349       -22.5950
 151   2.0000      -0.823719       -22.4145
 152   2.0000      -0.818745       -22.2792
 153   2.0000      -0.809694       -22.0329
 154   2.0000      -0.804967       -21.9043
 155   2.0000      -0.791138       -21.5279
 156   2.0000      -0.775369       -21.0989
 157   2.0000      -0.765111       -20.8197
 158   2.0000      -0.762839       -20.7579
 159   2.0000      -0.753679       -20.5087
 160   2.0000      -0.749125       -20.3847
 161   2.0000      -0.741531       -20.1781
 162   2.0000      -0.735929       -20.0256
 163   2.0000      -0.732524       -19.9330
 164   2.0000      -0.715813       -19.4783
 165   2.0000      -0.715594       -19.4723
 166   2.0000      -0.712447       -19.3867
 167   2.0000      -0.709310       -19.3013
 168   2.0000      -0.704257       -19.1638
 169   2.0000      -0.697425       -18.9779
 170   2.0000      -0.695441       -18.9239
 171   2.0000      -0.690774       -18.7969
 172   2.0000      -0.686567       -18.6824
 173   2.0000      -0.682980       -18.5848
 174   2.0000      -0.673230       -18.3195
 175   2.0000      -0.670095       -18.2342
 176   2.0000      -0.668302       -18.1854
 177   2.0000      -0.664492       -18.0818
 178   2.0000      -0.663036       -18.0421
 179   2.0000      -0.656866       -17.8742
 180   2.0000      -0.653084       -17.7713
 181   2.0000      -0.642399       -17.4806
 182   2.0000      -0.638542       -17.3756
 183   2.0000      -0.632185       -17.2026
 184   2.0000      -0.627297       -17.0696
 185   2.0000      -0.625766       -17.0280
 186   2.0000      -0.622171       -16.9301
 187   2.0000      -0.618105       -16.8195
 188   2.0000      -0.610813       -16.6211
 189   2.0000      -0.604747       -16.4560
 190   2.0000      -0.602936       -16.4067
 191   2.0000      -0.600442       -16.3389
 192   2.0000      -0.599556       -16.3148
 193   2.0000      -0.597430       -16.2569
 194   2.0000      -0.592132       -16.1127
 195   2.0000      -0.588897       -16.0247
 196   2.0000      -0.586631       -15.9630
 197   2.0000      -0.579868       -15.7790
 198   2.0000      -0.575682       -15.6651
 199   2.0000      -0.570433       -15.5223
 200   2.0000      -0.569287       -15.4911
 201   2.0000      -0.565849       -15.3975
 202   2.0000      -0.564462       -15.3598
 203   2.0000      -0.557426       -15.1683
 204   2.0000      -0.554006       -15.0753
 205   2.0000      -0.551572       -15.0090
 206   2.0000      -0.546662       -14.8754
 207   2.0000      -0.545877       -14.8541
 208   2.0000      -0.543435       -14.7876
 209   2.0000      -0.540774       -14.7152
 210   2.0000      -0.540191       -14.6993
 211   2.0000      -0.536842       -14.6082
 212   2.0000      -0.535785       -14.5794
 213   2.0000      -0.531581       -14.4650
 214   2.0000      -0.529959       -14.4209
 215   2.0000      -0.526777       -14.3343
 216   2.0000      -0.525320       -14.2947
 217   2.0000      -0.516702       -14.0602
 218   2.0000      -0.514500       -14.0003
 219   2.0000      -0.509849       -13.8737
 220   2.0000      -0.508197       -13.8287
 221   2.0000      -0.507415       -13.8075
 222   2.0000      -0.504800       -13.7363
 223   2.0000      -0.502400       -13.6710
 224   2.0000      -0.499234       -13.5848
 225   2.0000      -0.498658       -13.5692
 226   2.0000      -0.497651       -13.5418
 227   2.0000      -0.496275       -13.5043
 228   2.0000      -0.494462       -13.4550
 229   2.0000      -0.493973       -13.4417
 230   2.0000      -0.492377       -13.3983
 231   2.0000      -0.490967       -13.3599
 232   2.0000      -0.490383       -13.3440
 233   2.0000      -0.487603       -13.2683
 234   2.0000      -0.482111       -13.1189
 235   2.0000      -0.481888       -13.1128
 236   2.0000      -0.479995       -13.0613
 237   2.0000      -0.475443       -12.9375
 238   2.0000      -0.470583       -12.8052
 239   2.0000      -0.464947       -12.6518
 240   2.0000      -0.464207       -12.6317
 241   2.0000      -0.462753       -12.5922
 242   2.0000      -0.461138       -12.5482
 243   2.0000      -0.460670       -12.5355
 244   2.0000      -0.460395       -12.5280
 245   2.0000      -0.456871       -12.4321
 246   2.0000      -0.456529       -12.4228
 247   2.0000      -0.454267       -12.3612
 248   2.0000      -0.453723       -12.3464
 249   2.0000      -0.452139       -12.3033
 250   2.0000      -0.451727       -12.2921
 251   2.0000      -0.451408       -12.2834
 252   2.0000      -0.449025       -12.2186
 253   2.0000      -0.448297       -12.1988
 254   2.0000      -0.447434       -12.1753
 255   2.0000      -0.445983       -12.1358
 256   2.0000      -0.445505       -12.1228
 257   2.0000      -0.442379       -12.0377
 258   2.0000      -0.439479       -11.9588
 259   2.0000      -0.438487       -11.9318
 260   2.0000      -0.433958       -11.8086
 261   2.0000      -0.433681       -11.8011
 262   2.0000      -0.432617       -11.7721
 263   2.0000      -0.431721       -11.7477
 264   2.0000      -0.431072       -11.7301
 265   2.0000      -0.430457       -11.7133
 266   2.0000      -0.429093       -11.6762
 267   2.0000      -0.427024       -11.6199
 268   2.0000      -0.425764       -11.5856
 269   2.0000      -0.422845       -11.5062
 270   2.0000      -0.421921       -11.4811
 271   2.0000      -0.420604       -11.4452
 272   2.0000      -0.420147       -11.4328
 273   2.0000      -0.419100       -11.4043
 274   2.0000      -0.416686       -11.3386
 275   2.0000      -0.415313       -11.3012
 276   2.0000      -0.414004       -11.2656
 277   2.0000      -0.409932       -11.1548
 278   2.0000      -0.407376       -11.0853
 279   2.0000      -0.406256       -11.0548
 280   2.0000      -0.398136       -10.8338
 281   2.0000      -0.394177       -10.7261
 282   2.0000      -0.390404       -10.6234
 283   2.0000      -0.386195       -10.5089
 284   2.0000      -0.383271       -10.4293
 285   2.0000      -0.376453       -10.2438
 286   2.0000      -0.371827       -10.1179
 287   2.0000      -0.366669        -9.9776
 288   2.0000      -0.359773        -9.7899
 289   2.0000      -0.356064        -9.6890
 290   2.0000      -0.354714        -9.6523
 291   2.0000      -0.350248        -9.5307
 292   2.0000      -0.344093        -9.3633
 293   2.0000      -0.337696        -9.1892
 294   2.0000      -0.336949        -9.1688
 295   2.0000      -0.329599        -8.9688
 296   2.0000      -0.320287        -8.7155
 297   2.0000      -0.312934        -8.5154
 298   2.0000      -0.302960        -8.2440
 299   2.0000      -0.295040        -8.0285
 300   2.0000      -0.294364        -8.0101
 301   2.0000      -0.263028        -7.1573
 302   0.0000      -0.144927        -3.9437
 303   0.0000      -0.128379        -3.4934
 304   0.0000      -0.088493        -2.4080
 305   0.0000      -0.081192        -2.2093
 306   0.0000      -0.064371        -1.7516

MULLIKEN ATOMIC CHARGES
-----------------------
   0 C :    0.296673
   1 C :   -0.331055
   2 C :   -0.185204
   3 N :    0.154905
   4 C :   -0.197767
   5 N :    0.171278
   6 C :    0.019190
   7 C :   -0.021683
   8 C :   -0.064884
   9 C :    0.114835
  10 C :   -0.093900
  11 C :   -0.020347
  12 S :    0.146741
  13 C :   -0.048546
  14 C :    0.026394
  15 C :    0.156164
  16 O :   -0.157120
  17 C :   -0.050489
  18 C :   -0.071673
  19 C :    0.055278
  20 C :   -0.030926
  21 C :   -0.072218
  22 N :    0.041678
  23 C :   -0.120460
  24 C :   -0.124267
  25 N :    0.059401
  26 C :   -0.203175
  27 N :    0.244049
  28 C :   -0.218450
  29 N :    0.243828
  30 C :    0.170210
  31 C :   -0.014280
  32 C :    0.040647
  33 N :   -0.267485
  34 S :    0.567116
  35 N :   -0.291617
  36 C :   -0.245686
  37 S :    0.211239
  38 C :   -0.091856
  39 C :   -0.095666
  40 C :   -0.014490
  41 C :    0.300187
  42 F :   -0.254465
  43 C :    0.028337
  44 C :    0.021536
  45 C :    0.300180
  46 F :   -0.246540
  47 C :    0.082417
  48 C :   -0.117230
  49 C :    0.112459
  50 C :   -0.012263
  51 C :   -0.093833
  52 N :    0.034500
  53 C :   -0.120578
  54 C :   -0.121609
  55 N :    0.067004
  56 C :   -0.215708
  57 N :    0.241062
  58 C :   -0.194368
  59 N :    0.236977
  60 C :    0.079687
  61 C :    0.027596
  62 C :    0.022340
  63 N :   -0.289917
  64 S :    0.562868
  65 N :   -0.263706
  66 C :   -0.030240
  67 C :   -0.091081
  68 C :    0.299910
  69 C :   -0.358159
  70 C :   -0.196224
  71 N :    0.168921
  72 C :   -0.177748
  73 N :    0.151582
  74 C :   -0.000297
  75 C :    0.013213
  76 C :    0.126791
  77 O :   -0.137428
  78 C :   -0.074894
  79 C :    0.110664
  80 C :   -0.093203
  81 C :   -0.009288
  82 S :    0.155052
  83 C :   -0.050718
  84 C :    0.025115
  85 H :   -0.014670
  86 H :   -0.005150
  87 H :    0.040627
  88 H :   -0.006366
  89 H :    0.049640
  90 H :    0.028701
  91 H :    0.024347
  92 H :    0.022029
  93 H :    0.029978
  94 H :    0.027485
  95 H :    0.016062
  96 H :    0.007422
  97 H :    0.016675
  98 H :    0.031427
  99 H :   -0.009986
 100 H :    0.002270
 101 H :    0.040414
 102 H :   -0.006187
Sum of atomic charges:   -0.0000000

LOEWDIN ATOMIC CHARGES
----------------------
   0 C :    0.072794
   1 C :   -0.127193
   2 C :   -0.017481
   3 N :   -0.045489
   4 C :   -0.023446
   5 N :   -0.040179
   6 C :   -0.021744
   7 C :   -0.052908
   8 C :    0.023691
   9 C :   -0.033738
  10 C :   -0.144158
  11 C :   -0.006995
  12 S :    0.434253
  13 C :   -0.146721
  14 C :   -0.057945
  15 C :    0.086343
  16 O :   -0.147032
  17 C :   -0.064605
  18 C :    0.075829
  19 C :   -0.029927
  20 C :    0.010985
  21 C :   -0.008279
  22 N :    0.015755
  23 C :   -0.027846
  24 C :   -0.015519
  25 N :    0.001930
  26 C :   -0.035437
  27 N :    0.006458
  28 C :   -0.040247
  29 N :   -0.002305
  30 C :   -0.009275
  31 C :   -0.046646
  32 C :   -0.026157
  33 N :   -0.272435
  34 S :    0.704372
  35 N :   -0.295682
  36 C :   -0.160227
  37 S :    0.513359
  38 C :   -0.151544
  39 C :   -0.067693
  40 C :   -0.041543
  41 C :    0.106347
  42 F :   -0.128162
  43 C :   -0.034176
  44 C :   -0.035550
  45 C :    0.114476
  46 F :   -0.124552
  47 C :   -0.003762
  48 C :   -0.016556
  49 C :    0.012803
  50 C :   -0.001169
  51 C :    0.004160
  52 N :    0.007111
  53 C :   -0.019649
  54 C :   -0.029051
  55 N :    0.012860
  56 C :   -0.036611
  57 N :   -0.001294
  58 C :   -0.032043
  59 N :   -0.002545
  60 C :   -0.039722
  61 C :   -0.026966
  62 C :   -0.036847
  63 N :   -0.277365
  64 S :    0.693718
  65 N :   -0.277769
  66 C :    0.062144
  67 C :   -0.058344
  68 C :    0.081474
  69 C :   -0.153092
  70 C :   -0.026890
  71 N :   -0.047141
  72 C :   -0.014982
  73 N :   -0.061194
  74 C :   -0.020270
  75 C :   -0.053919
  76 C :    0.085408
  77 O :   -0.136331
  78 C :    0.023482
  79 C :   -0.032729
  80 C :   -0.141940
  81 C :   -0.000121
  82 S :    0.441580
  83 C :   -0.147590
  84 C :   -0.058577
  85 H :    0.039511
  86 H :    0.041412
  87 H :    0.030448
  88 H :    0.035498
  89 H :    0.051010
  90 H :    0.024088
  91 H :    0.035886
  92 H :    0.029003
  93 H :    0.037291
  94 H :    0.037498
  95 H :    0.024517
  96 H :    0.029144
  97 H :    0.030739
  98 H :    0.051844
  99 H :    0.040930
 100 H :    0.041805
 101 H :    0.030022
 102 H :    0.035330

  Mayer bond orders larger than 0.100000
B(  0-C ,  1-C ) :   1.6609 B(  0-C ,  6-C ) :   1.0124 B(  0-C , 17-C ) :   1.0435
B(  1-C ,  2-C ) :   1.1383 B(  1-C ,  4-C ) :   1.1413 B(  2-C ,  3-N ) :   2.9733
B(  4-C ,  5-N ) :   2.9882 B(  6-C ,  7-C ) :   1.2656 B(  6-C , 11-C ) :   1.4064
B(  7-C ,  8-C ) :   1.4219 B(  7-C , 15-C ) :   0.9572 B(  8-C ,  9-C ) :   1.2494
B(  8-C , 85-H ) :   1.0166 B(  9-C , 10-C ) :   1.2966 B(  9-C , 14-C ) :   1.1697
B( 10-C , 11-C ) :   1.3282 B( 10-C , 12-S ) :   1.1004 B( 11-C , 86-H ) :   0.9826
B( 12-S , 13-C ) :   1.1280 B( 13-C , 14-C ) :   1.6281 B( 13-C , 87-H ) :   0.9690
B( 14-C , 88-H ) :   0.9999 B( 15-C , 16-O ) :   2.2112 B( 15-C , 17-C ) :   0.9291
B( 17-C , 18-C ) :   1.6669 B( 18-C , 19-C ) :   1.1160 B( 18-C , 89-H ) :   0.9276
B( 19-C , 20-C ) :   1.2833 B( 19-C , 30-C ) :   0.1294 B( 19-C , 32-C ) :   1.2291
B( 20-C , 21-C ) :   1.1097 B( 20-C , 25-N ) :   1.4432 B( 21-C , 22-N ) :   1.4405
B( 21-C , 30-C ) :   1.2744 B( 22-N , 23-C ) :   1.7177 B( 23-C , 24-C ) :   1.1924
B( 23-C , 28-C ) :   1.1448 B( 24-C , 25-N ) :   1.7568 B( 24-C , 26-C ) :   1.1518
B( 26-C , 27-N ) :   3.0464 B( 28-C , 29-N ) :   3.0473 B( 30-C , 31-C ) :   1.2316
B( 30-C , 36-C ) :   1.1022 B( 31-C , 32-C ) :   1.1121 B( 31-C , 35-N ) :   1.4815
B( 32-C , 33-N ) :   1.4909 B( 33-N , 34-S ) :   1.3070 B( 33-N , 35-N ) :   0.1556
B( 34-S , 35-N ) :   1.3008 B( 36-C , 37-S ) :   1.1608 B( 36-C , 38-C ) :   0.1075
B( 36-C , 40-C ) :   1.4722 B( 37-S , 38-C ) :   1.1507 B( 38-C , 39-C ) :   1.4446
B( 38-C , 47-C ) :   1.1460 B( 39-C , 40-C ) :   1.3762 B( 39-C , 45-C ) :   1.0005
B( 40-C , 41-C ) :   0.9804 B( 41-C , 42-F ) :   1.0142 B( 41-C , 43-C ) :   1.0559
B( 41-C , 90-H ) :   0.9087 B( 43-C , 44-C ) :   1.0581 B( 43-C , 91-H ) :   0.9260
B( 43-C , 92-H ) :   0.9386 B( 44-C , 45-C ) :   1.0620 B( 44-C , 93-H ) :   0.9220
B( 44-C , 94-H ) :   0.9259 B( 45-C , 46-F ) :   0.9892 B( 45-C , 95-H ) :   0.9231
B( 47-C , 48-C ) :   1.5605 B( 47-C , 96-H ) :   0.9264 B( 48-C , 49-C ) :   1.2248
B( 48-C , 97-H ) :   0.9422 B( 49-C , 50-C ) :   1.2188 B( 49-C , 60-C ) :   0.1320
B( 49-C , 62-C ) :   1.1695 B( 50-C , 51-C ) :   1.1191 B( 50-C , 55-N ) :   1.4519
B( 51-C , 52-N ) :   1.4361 B( 51-C , 60-C ) :   1.2581 B( 52-N , 53-C ) :   1.6981
B( 53-C , 54-C ) :   1.1985 B( 53-C , 58-C ) :   1.1684 B( 54-C , 55-N ) :   1.7387
B( 54-C , 56-C ) :   1.1581 B( 56-C , 57-N ) :   3.0446 B( 58-C , 59-N ) :   3.0030
B( 60-C , 61-C ) :   1.2158 B( 60-C , 66-C ) :   1.1042 B( 61-C , 62-C ) :   1.1166
B( 61-C , 65-N ) :   1.5437 B( 62-C , 63-N ) :   1.4900 B( 63-N , 64-S ) :   1.2905
B( 63-N , 65-N ) :   0.1528 B( 64-S , 65-N ) :   1.2921 B( 66-C , 67-C ) :   1.6821
B( 66-C , 98-H ) :   0.9456 B( 67-C , 68-C ) :   1.0142 B( 67-C , 76-C ) :   0.9317
B( 68-C , 69-C ) :   1.6327 B( 68-C , 74-C ) :   1.0333 B( 69-C , 70-C ) :   1.1349
B( 69-C , 72-C ) :   1.1733 B( 70-C , 71-N ) :   2.9986 B( 72-C , 73-N ) :   2.9813
B( 74-C , 75-C ) :   1.2632 B( 74-C , 81-C ) :   1.4113 B( 75-C , 76-C ) :   0.9231
B( 75-C , 78-C ) :   1.4214 B( 76-C , 77-O ) :   2.2748 B( 78-C , 79-C ) :   1.2515
B( 78-C , 99-H ) :   1.0165 B( 79-C , 80-C ) :   1.2960 B( 79-C , 84-C ) :   1.1764
B( 80-C , 81-C ) :   1.3281 B( 80-C , 82-S ) :   1.1027 B( 81-C ,100-H ) :   0.9839
B( 82-S , 83-C ) :   1.1320 B( 83-C , 84-C ) :   1.6252 B( 83-C ,101-H ) :   0.9679
B( 84-C ,102-H ) :   0.9994

-----------------------------------------------------------------------------
         ABSORPTION SPECTRUM VIA TRANSITION ELECTRIC DIPOLE MOMENTS
-----------------------------------------------------------------------------
State   Energy  Wavelength   fosc         T2         TX        TY        TZ
        (cm-1)    (nm)                  (au**2)     (au)      (au)      (au)
-----------------------------------------------------------------------------
   0   10834.7    923.0   1.103885068  33.54149  -5.47540   1.14275   1.50187
   1   14491.5    690.1   0.051858698   1.17811  -0.55384   0.67211  -0.64780
   2   18181.9    550.0   0.050992117   0.92329   0.92793   0.04570  -0.24525
   3   19200.9    520.8   0.012483513   0.21404  -0.14973   0.29502  -0.32339
   4   21475.3    465.7   0.011715609   0.17960  -0.33138   0.26205  -0.03341
   5   22320.7    448.0   0.031680078   0.46726   0.19912   0.53457  -0.37662
   6   22786.1    438.9   0.004896094   0.07074   0.22292  -0.07110  -0.12646
   7   23103.6    432.8   0.175616269   2.50243  -1.36642   0.59280   0.53284
   8   23365.8    428.0   0.006872334   0.09683   0.14314   0.08483  -0.26295
   9   23959.9    417.4   0.269291275   3.70010  -1.66217   0.79499  -0.55254
  10   24459.1    408.8   0.011680823   0.15722  -0.17899   0.33439  -0.11561
  11   24840.6    402.6   0.044272568   0.58674  -0.08868  -0.46306   0.60370
  12   25097.0    398.5   0.046848456   0.61454   0.66858  -0.14103   0.38425
  13   25812.6    387.4   0.041407861   0.52811   0.70532  -0.16268   0.06454
  14   26331.8    379.8   0.016495145   0.20623  -0.28849   0.34974   0.02613
  15   26746.0    373.9   0.005466434   0.06729  -0.02798   0.25521   0.03704
  16   26864.5    372.2   0.032038998   0.39262  -0.17224  -0.21505   0.56277
  17   27748.8    360.4   0.101727588   1.20690   0.96960  -0.04075   0.51489
  18   27955.5    357.7   0.004425961   0.05212  -0.21768   0.06883   0.00110
  19   28370.1    352.5   0.070366323   0.81654  -0.76283   0.48036   0.06239
  20   28710.9    348.3   0.125195605   1.43555   1.16224  -0.23101  -0.17716
  21   28894.9    346.1   0.025557743   0.29119   0.23145  -0.17998  -0.45302
  22   29085.3    343.8   0.091513084   1.03582  -0.06427  -0.59292   0.82470
  23   29261.8    341.7   0.168030727   1.89044   1.16517   0.41313   0.60179
  24   29560.5    338.3   0.164778397   1.83512   0.65248  -0.50535   1.07425
  25   29737.1    336.3   0.090623238   1.00327  -0.74510  -0.49621   0.44930
  26   30067.8    332.6   0.169725134   1.85832  -0.31715   1.23500  -0.48220
  27   30128.0    331.9   0.311303942   3.40165  -0.78074  -0.41067   1.61971
  28   30621.5    326.6   0.014449459   0.15535  -0.12408   0.29314  -0.23242
  29   30743.2    325.3   0.124608380   1.33436  -1.07068   0.22444   0.37099
  30   31039.6    322.2   0.075174109   0.79731   0.87060  -0.19722  -0.02158
  31   31298.0    319.5   0.096980492   1.02010   0.97791   0.24936   0.04011
  32   31735.4    315.1   0.195334829   2.02634   1.05113  -0.82260   0.49477
  33   31795.5    314.5   0.056910166   0.58925   0.19044  -0.13569  -0.73114
  34   32072.6    311.8   0.096250152   0.98797  -0.04661   0.88101  -0.45784
  35   32100.0    311.5   0.014824476   0.15204  -0.33908  -0.14569   0.12585
  36   32344.2    309.2   0.216011190   2.19865   1.25836   0.13533   0.77256
  37   32883.3    304.1   0.684787297   6.85577  -0.86778   0.10195  -2.46827
  38   33029.3    302.8   0.010207020   0.10174   0.19335  -0.22783  -0.11156
  39   33402.9    299.4   0.048176351   0.47482   0.27929  -0.03080  -0.62918
  40   33726.4    296.5   0.164518346   1.60591   0.77164   0.94680  -0.33771
  41   33879.4    295.2   0.142715341   1.38679  -0.09195   0.78147  -0.87615
  42   34001.5    294.1   0.214258642   2.07451  -1.35285  -0.41952  -0.26138
  43   34505.8    289.8   0.041214299   0.39322  -0.22114  -0.41162   0.41819
  44   34772.3    287.6   0.025574529   0.24213  -0.41812   0.24015   0.09817
  45   34919.7    286.4   0.100900620   0.95126   0.49230  -0.62219   0.56726
  46   34946.3    286.2   0.667844889   6.29144   1.83985   1.42813  -0.93103
  47   35108.2    284.8   0.054405766   0.51017  -0.22760  -0.05457  -0.67483
  48   35229.2    283.9   0.068882738   0.64370  -0.75222  -0.27898  -0.00548
  49   35419.2    282.3   0.030339842   0.28200  -0.10682   0.17211  -0.49089
  50   35983.7    277.9   0.005846964   0.05349  -0.22701  -0.04400   0.00497
  51   36717.2    272.4   0.242917044   2.17803   0.25012  -0.12470   1.44911
  52   37174.6    269.0   0.052355888   0.46365  -0.24287   0.17829  -0.61064
  53   37442.7    267.1   0.046956985   0.41287  -0.26361   0.11699   0.57419
  54   37462.2    266.9   0.003129355   0.02750  -0.06973  -0.14690  -0.03255
  55   37703.5    265.2   0.075544198   0.65962   0.21863  -0.08988   0.77701
  56   37913.6    263.8   0.034209907   0.29705  -0.51205  -0.01981  -0.18566
  57   37994.7    263.2   0.070910161   0.61441   0.03691  -0.22200  -0.75084
  58   38324.7    260.9   0.013108355   0.11260  -0.29768   0.15469  -0.00765
  59   38500.7    259.7   0.054660277   0.46739   0.42349  -0.27366   0.46169
  60   38518.8    259.6   0.017448228   0.14913   0.11107  -0.04251   0.36740
  61   38880.1    257.2   0.016834235   0.14254   0.24650  -0.09175   0.27085
  62   38953.1    256.7   0.002807758   0.02373  -0.11262   0.07488  -0.07375
  63   39097.5    255.8   0.018262545   0.15378   0.14606  -0.28318  -0.22859
  64   39194.5    255.1   0.011965737   0.10051   0.02004  -0.19382  -0.25008
  65   39361.9    254.1   0.037107927   0.31036  -0.29666   0.46673  -0.06723
  66   39403.5    253.8   0.023506839   0.19640   0.02352  -0.30680  -0.31893
  67   39689.3    252.0   0.010933371   0.09069  -0.01851   0.12238  -0.27454
  68   39705.6    251.9   0.052498326   0.43528   0.23599  -0.35607   0.50279
  69   39815.1    251.2   0.067729356   0.56002  -0.66401   0.33764  -0.07148
  70   39898.8    250.6   0.005649911   0.04662   0.14006   0.01415  -0.16371
  71   40050.6    249.7   0.016692300   0.13721   0.15429  -0.04130  -0.33421
  72   40187.9    248.8   0.107895192   0.88386  -0.93371   0.10372   0.03593

FINAL SINGLE POINT ENERGY     -5509.147668673028

DIPOLE MOMENT
-------------
                                X             Y             Z
Electronic contribution:     14.16548       1.25569       0.49981
Nuclear contribution   :    -14.98428      -4.08217       4.24641
                        -----------------------------------------
Total Dipole Moment    :     -0.81880      -2.82648       4.74622
                        -----------------------------------------
Magnitude (a.u.)       :      5.58445
Magnitude (Debye)      :     14.19454

Rotational constants in cm-1:     0.001466     0.000214     0.000195
Rotational constants in MHz :    43.956891     6.408534     5.848608

                             ****ORCA TERMINATED NORMALLY****
TOTAL RUN TIME: 0 days 0 hours 12 minutes 34 seconds 381 msec
