                         Program Version 4.2.0 -  RELEASE  -
|  1> # ORCA input file
|  2> # SCF done       -178.619478904124          0.000955815098
|  3> ! CAM-B3LYP def2-SVP def2/J RIJCOSX Grid4 TightSCF
|  4> %maxcore 5000
|  5> %tddft
|  6>     Mode sTDDFT
|  7>     Ethresh 5.0
|  8>     maxcore 5000
|  9> end
| 10>
| 11> %pal
| 12>   nprocs 6
| 13>   end
| 14> * xyz 0 1
| 15>    C       -1.01078        -5.36071        -0.17799
| 16>    C       -1.51779        -5.03428         1.05969
| 17>    C       -0.74253        -4.93357         2.23121
| 18>    N       -0.17405        -4.83215         3.22478
| 19>    C       -2.86622        -4.74990         1.35027
| 20>    N       -3.93954        -4.50468         1.68113
| 21>    C        0.39469        -5.64601        -0.45996
| 22>    C        0.53104        -5.92826        -1.84166
| 23>    C        1.73774        -6.23735        -2.41902
| 24>    C        2.86744        -6.27089        -1.59466
| 25>    C        2.72196        -5.98825        -0.21708
| 26>    C        1.49969        -5.67468         0.36785
| 27>    S        4.24591        -6.08869         0.60920
| 28>    C        5.04752        -6.49942        -0.86818
| 29>    C        4.21961        -6.56062        -1.93355
| 30>    C       -0.79146        -5.83357        -2.49039
| 31>    O       -1.02771        -6.01436        -3.67047
| 32>    C       -1.73950        -5.48028        -1.41459
| 33>    C       -3.09790        -5.30941        -1.59274
| 34>    C       -3.76308        -5.43684        -2.80775
| 35>    C       -5.12807        -5.27136        -2.94412
| 36>    C       -5.87299        -5.38937        -4.13884
| 37>    C       -7.21289        -5.18199        -3.98398
| 38>    C       -7.59019        -4.88967        -2.65701
| 39>    S       -6.18991        -4.88179        -1.60918
| 40>    C       -8.86399        -4.63984        -2.17205
| 41>    C      -10.07771        -4.63620        -2.89495
| 42>    C      -11.17710        -4.36182        -2.13811
| 43>    C      -10.89763        -4.12948        -0.77049
| 44>    S       -9.16423        -4.28794        -0.49309
| 45>    C      -11.71416        -3.84719         0.29846
| 46>    C      -13.10676        -3.65138         0.33455
| 47>    C      -14.04606        -3.49794        -0.65141
| 48>    C      -15.37448        -3.33504        -0.11560
| 49>    C      -15.25667        -3.38718         1.25973
| 50>    C      -13.81526        -3.48874         1.65661
| 51>    C      -13.76475        -4.58919         2.71259
| 52>    C      -14.93792        -4.28682         3.63696
| 53>    S      -16.32374        -3.73450         2.55654
| 54>    C      -16.51023        -3.26219        -0.96552
| 55>    C      -17.78221        -2.86117        -0.67398
| 56>    C      -18.33308        -2.26775         0.49248
| 57>    C      -19.65815        -1.98265         0.40178
| 58>    C      -20.24335        -2.33363        -0.84008
| 59>    S      -19.04097        -3.01457        -1.90227
| 60>    C      -21.56485        -2.20518        -1.21744
| 61>    C      -22.66006        -1.73692        -0.45898
| 62>    C      -23.84828        -1.80454        -1.11953
| 63>    C      -23.76710        -2.34959        -2.42662
| 64>    S      -22.10504        -2.72116        -2.80135
| 65>    C      -24.83783        -2.47890        -3.29145
| 66>    C      -24.88906        -2.99701        -4.58487
| 67>    C      -24.03458        -3.81254        -5.30033
| 68>    C      -22.99203        -4.72147        -4.93509
| 69>    C      -22.83557        -5.34702        -3.71530
| 70>    C      -21.78059        -6.22187        -3.40118
| 71>    N      -20.92723        -6.91743        -3.07200
| 72>    C      -23.77254        -5.24234        -2.67190
| 73>    N      -24.52513        -5.19481        -1.80543
| 74>    C      -22.22909        -5.03414        -6.14182
| 75>    C      -22.91487        -4.49639        -7.25944
| 76>    C      -24.11262        -3.77506        -6.78337
| 77>    O      -24.96422        -3.23122        -7.45351
| 78>    C      -22.46287        -4.65376        -8.54601
| 79>    C      -21.27024        -5.36092        -8.73717
| 80>    C      -20.58626        -5.87750        -7.61352
| 81>    C      -21.05046        -5.73017        -6.31003
| 82>    S      -19.13177        -6.69906        -8.08717
| 83>    C      -19.44997        -6.35548        -9.75369
| 84>    C      -20.58817        -5.65693        -9.95206
| 85>    H        1.80783        -6.44757        -3.47512
| 86>    H        1.44336        -5.46768         1.42335
| 87>    H        6.10579        -6.67318        -0.84497
| 88>    H        4.53904        -6.80189        -2.93137
| 89>    H       -3.70352        -5.06140        -0.72950
| 90>    H       -3.19293        -5.68006        -3.69278
| 91>    H       -5.39555        -5.62528        -5.07313
| 92>    H       -7.92892        -5.23296        -4.78441
| 93>    H      -10.11027        -4.84072        -3.95002
| 94>    H      -12.17572        -4.34452        -2.53057
| 95>    H      -11.21608        -3.78637         1.25813
| 96>    H      -13.86500        -3.49190        -1.70948
| 97>    H      -13.49566        -2.54206         2.11343
| 98>    H      -12.82834        -4.59661         3.26879
| 99>    H      -13.89787        -5.56070         2.23282
|100>    H      -14.71190        -3.46768         4.32034
|101>    H      -15.28087        -5.14804         4.20551
|102>    H      -16.32737        -3.57277        -1.98630
|103>    H      -17.72980        -2.04310         1.35188
|104>    H      -20.23384        -1.52941         1.18843
|105>    H      -22.54507        -1.37840         0.54781
|106>    H      -24.79322        -1.50564        -0.70251
|107>    H      -25.75692        -2.03350        -2.92994
|108>    H      -25.72854        -2.64923        -5.18203
|109>    H      -23.00975        -4.24373        -9.38093
|110>    H      -20.49449        -6.13922        -5.48268
|111>    H      -18.75276        -6.70445       -10.49036
|112>    H      -20.94722        -5.35334       -10.91892
|113> *
|114>
|115>                          ****END OF INPUT****

CARTESIAN COORDINATES (ANGSTROEM)
---------------------------------
  C     -1.010780   -5.360710   -0.177990
  C     -1.517790   -5.034280    1.059690
  C     -0.742530   -4.933570    2.231210
  N     -0.174050   -4.832150    3.224780
  C     -2.866220   -4.749900    1.350270
  N     -3.939540   -4.504680    1.681130
  C      0.394690   -5.646010   -0.459960
  C      0.531040   -5.928260   -1.841660
  C      1.737740   -6.237350   -2.419020
  C      2.867440   -6.270890   -1.594660
  C      2.721960   -5.988250   -0.217080
  C      1.499690   -5.674680    0.367850
  S      4.245910   -6.088690    0.609200
  C      5.047520   -6.499420   -0.868180
  C      4.219610   -6.560620   -1.933550
  C     -0.791460   -5.833570   -2.490390
  O     -1.027710   -6.014360   -3.670470
  C     -1.739500   -5.480280   -1.414590
  C     -3.097900   -5.309410   -1.592740
  C     -3.763080   -5.436840   -2.807750
  C     -5.128070   -5.271360   -2.944120
  C     -5.872990   -5.389370   -4.138840
  C     -7.212890   -5.181990   -3.983980
  C     -7.590190   -4.889670   -2.657010
  S     -6.189910   -4.881790   -1.609180
  C     -8.863990   -4.639840   -2.172050
  C    -10.077710   -4.636200   -2.894950
  C    -11.177100   -4.361820   -2.138110
  C    -10.897630   -4.129480   -0.770490
  S     -9.164230   -4.287940   -0.493090
  C    -11.714160   -3.847190    0.298460
  C    -13.106760   -3.651380    0.334550
  C    -14.046060   -3.497940   -0.651410
  C    -15.374480   -3.335040   -0.115600
  C    -15.256670   -3.387180    1.259730
  C    -13.815260   -3.488740    1.656610
  C    -13.764750   -4.589190    2.712590
  C    -14.937920   -4.286820    3.636960
  S    -16.323740   -3.734500    2.556540
  C    -16.510230   -3.262190   -0.965520
  C    -17.782210   -2.861170   -0.673980
  C    -18.333080   -2.267750    0.492480
  C    -19.658150   -1.982650    0.401780
  C    -20.243350   -2.333630   -0.840080
  S    -19.040970   -3.014570   -1.902270
  C    -21.564850   -2.205180   -1.217440
  C    -22.660060   -1.736920   -0.458980
  C    -23.848280   -1.804540   -1.119530
  C    -23.767100   -2.349590   -2.426620
  S    -22.105040   -2.721160   -2.801350
  C    -24.837830   -2.478900   -3.291450
  C    -24.889060   -2.997010   -4.584870
  C    -24.034580   -3.812540   -5.300330
  C    -22.992030   -4.721470   -4.935090
  C    -22.835570   -5.347020   -3.715300
  C    -21.780590   -6.221870   -3.401180
  N    -20.927230   -6.917430   -3.072000
  C    -23.772540   -5.242340   -2.671900
  N    -24.525130   -5.194810   -1.805430
  C    -22.229090   -5.034140   -6.141820
  C    -22.914870   -4.496390   -7.259440
  C    -24.112620   -3.775060   -6.783370
  O    -24.964220   -3.231220   -7.453510
  C    -22.462870   -4.653760   -8.546010
  C    -21.270240   -5.360920   -8.737170
  C    -20.586260   -5.877500   -7.613520
  C    -21.050460   -5.730170   -6.310030
  S    -19.131770   -6.699060   -8.087170
  C    -19.449970   -6.355480   -9.753690
  C    -20.588170   -5.656930   -9.952060
  H      1.807830   -6.447570   -3.475120
  H      1.443360   -5.467680    1.423350
  H      6.105790   -6.673180   -0.844970
  H      4.539040   -6.801890   -2.931370
  H     -3.703520   -5.061400   -0.729500
  H     -3.192930   -5.680060   -3.692780
  H     -5.395550   -5.625280   -5.073130
  H     -7.928920   -5.232960   -4.784410
  H    -10.110270   -4.840720   -3.950020
  H    -12.175720   -4.344520   -2.530570
  H    -11.216080   -3.786370    1.258130
  H    -13.865000   -3.491900   -1.709480
  H    -13.495660   -2.542060    2.113430
  H    -12.828340   -4.596610    3.268790
  H    -13.897870   -5.560700    2.232820
  H    -14.711900   -3.467680    4.320340
  H    -15.280870   -5.148040    4.205510
  H    -16.327370   -3.572770   -1.986300
  H    -17.729800   -2.043100    1.351880
  H    -20.233840   -1.529410    1.188430
  H    -22.545070   -1.378400    0.547810
  H    -24.793220   -1.505640   -0.702510
  H    -25.756920   -2.033500   -2.929940
  H    -25.728540   -2.649230   -5.182030
  H    -23.009750   -4.243730   -9.380930
  H    -20.494490   -6.139220   -5.482680
  H    -18.752760   -6.704450  -10.490360
  H    -20.947220   -5.353340  -10.918920

 Total Charge           Charge          ....    0
 Multiplicity           Mult            ....    1
 Number of Electrons    NEL             ....  526
 Basis Dimension        Dim             .... 1148

ORBITAL ENERGIES
----------------

  NO   OCC          E(Eh)            E(eV)
   0   2.0000     -88.962982     -2420.8058
   1   2.0000     -88.962949     -2420.8049
   2   2.0000     -88.961593     -2420.7680
   3   2.0000     -88.961404     -2420.7629
   4   2.0000     -88.957749     -2420.6634
   5   2.0000     -88.955111     -2420.5916
   6   2.0000     -88.954217     -2420.5673
   7   2.0000     -19.197734      -522.3969
   8   2.0000     -19.196968      -522.3761
   9   2.0000     -14.399207      -391.8223
  10   2.0000     -14.399097      -391.8193
  11   2.0000     -14.396435      -391.7469
  12   2.0000     -14.395688      -391.7266
  13   2.0000     -10.347868      -281.5798
  14   2.0000     -10.346653      -281.5468
  15   2.0000     -10.336109      -281.2598
  16   2.0000     -10.334926      -281.2276
  17   2.0000     -10.327450      -281.0242
  18   2.0000     -10.326536      -280.9993
  19   2.0000     -10.325746      -280.9778
  20   2.0000     -10.324619      -280.9472
  21   2.0000     -10.324140      -280.9341
  22   2.0000     -10.324075      -280.9324
  23   2.0000     -10.322251      -280.8827
  24   2.0000     -10.321700      -280.8677
  25   2.0000     -10.321379      -280.8590
  26   2.0000     -10.319790      -280.8157
  27   2.0000     -10.318153      -280.7712
  28   2.0000     -10.316591      -280.7287
  29   2.0000     -10.308956      -280.5210
  30   2.0000     -10.307160      -280.4721
  31   2.0000     -10.307024      -280.4684
  32   2.0000     -10.306979      -280.4672
  33   2.0000     -10.306749      -280.4609
  34   2.0000     -10.306669      -280.4587
  35   2.0000     -10.306410      -280.4517
  36   2.0000     -10.306264      -280.4477
  37   2.0000     -10.306060      -280.4421
  38   2.0000     -10.305277      -280.4208
  39   2.0000     -10.304266      -280.3933
  40   2.0000     -10.303464      -280.3715
  41   2.0000     -10.303328      -280.3678
  42   2.0000     -10.303232      -280.3652
  43   2.0000     -10.302156      -280.3359
  44   2.0000     -10.302041      -280.3328
  45   2.0000     -10.300834      -280.3000
  46   2.0000     -10.298969      -280.2492
  47   2.0000     -10.298291      -280.2307
  48   2.0000     -10.297934      -280.2210
  49   2.0000     -10.297186      -280.2007
  50   2.0000     -10.295724      -280.1609
  51   2.0000     -10.292423      -280.0711
  52   2.0000     -10.291252      -280.0392
  53   2.0000     -10.290028      -280.0059
  54   2.0000     -10.290009      -280.0054
  55   2.0000     -10.288389      -279.9613
  56   2.0000     -10.287586      -279.9394
  57   2.0000     -10.287452      -279.9358
  58   2.0000     -10.286846      -279.9193
  59   2.0000     -10.286550      -279.9113
  60   2.0000     -10.284659      -279.8598
  61   2.0000     -10.283878      -279.8385
  62   2.0000     -10.281135      -279.7639
  63   2.0000     -10.278153      -279.6828
  64   2.0000     -10.277571      -279.6669
  65   2.0000     -10.275601      -279.6133
  66   2.0000     -10.274807      -279.5917
  67   2.0000     -10.273747      -279.5629
  68   2.0000     -10.273440      -279.5545
  69   2.0000     -10.271786      -279.5095
  70   2.0000      -8.058804      -219.2912
  71   2.0000      -8.058112      -219.2724
  72   2.0000      -8.057952      -219.2680
  73   2.0000      -8.057779      -219.2633
  74   2.0000      -8.053752      -219.1537
  75   2.0000      -8.051328      -219.0878
  76   2.0000      -8.050466      -219.0643
  77   2.0000      -6.028691      -164.0490
  78   2.0000      -6.027811      -164.0251
  79   2.0000      -6.027693      -164.0219
  80   2.0000      -6.027266      -164.0102
  81   2.0000      -6.024560      -163.9366
  82   2.0000      -6.023734      -163.9141
  83   2.0000      -6.023630      -163.9113
  84   2.0000      -6.023323      -163.9030
  85   2.0000      -6.023136      -163.8979
  86   2.0000      -6.020837      -163.8353
  87   2.0000      -6.019954      -163.8113
  88   2.0000      -6.019504      -163.7990
  89   2.0000      -6.019448      -163.7975
  90   2.0000      -6.019346      -163.7947
  91   2.0000      -6.019050      -163.7867
  92   2.0000      -6.018769      -163.7790
  93   2.0000      -6.016592      -163.7198
  94   2.0000      -6.015716      -163.6960
  95   2.0000      -6.014924      -163.6744
  96   2.0000      -6.013004      -163.6222
  97   2.0000      -6.012137      -163.5986
  98   2.0000      -1.110766       -30.2255
  99   2.0000      -1.110749       -30.2250
 100   2.0000      -1.016449       -27.6590
 101   2.0000      -1.011724       -27.5304
 102   2.0000      -1.009522       -27.4705
 103   2.0000      -1.003121       -27.2963
 104   2.0000      -1.003058       -27.2946
 105   2.0000      -0.993599       -27.0372
 106   2.0000      -0.993304       -27.0292
 107   2.0000      -0.988139       -26.8886
 108   2.0000      -0.986148       -26.8345
 109   2.0000      -0.976787       -26.5797
 110   2.0000      -0.975759       -26.5517
 111   2.0000      -0.967994       -26.3404
 112   2.0000      -0.967651       -26.3311
 113   2.0000      -0.943179       -25.6652
 114   2.0000      -0.921062       -25.0634
 115   2.0000      -0.917614       -24.9695
 116   2.0000      -0.914039       -24.8723
 117   2.0000      -0.903676       -24.5903
 118   2.0000      -0.896973       -24.4079
 119   2.0000      -0.885776       -24.1032
 120   2.0000      -0.876360       -23.8470
 121   2.0000      -0.870353       -23.6835
 122   2.0000      -0.866835       -23.5878
 123   2.0000      -0.866305       -23.5734
 124   2.0000      -0.864093       -23.5132
 125   2.0000      -0.862697       -23.4752
 126   2.0000      -0.860981       -23.4285
 127   2.0000      -0.839479       -22.8434
 128   2.0000      -0.838388       -22.8137
 129   2.0000      -0.835879       -22.7454
 130   2.0000      -0.832937       -22.6654
 131   2.0000      -0.815874       -22.2011
 132   2.0000      -0.809178       -22.0188
 133   2.0000      -0.808869       -22.0104
 134   2.0000      -0.808480       -21.9999
 135   2.0000      -0.796784       -21.6816
 136   2.0000      -0.779616       -21.2144
 137   2.0000      -0.768544       -20.9131
 138   2.0000      -0.750181       -20.4135
 139   2.0000      -0.740942       -20.1621
 140   2.0000      -0.739054       -20.1107
 141   2.0000      -0.731080       -19.8937
 142   2.0000      -0.724053       -19.7025
 143   2.0000      -0.708162       -19.2701
 144   2.0000      -0.701886       -19.0993
 145   2.0000      -0.700945       -19.0737
 146   2.0000      -0.687301       -18.7024
 147   2.0000      -0.680950       -18.5296
 148   2.0000      -0.674618       -18.3573
 149   2.0000      -0.672194       -18.2913
 150   2.0000      -0.671395       -18.2696
 151   2.0000      -0.670192       -18.2368
 152   2.0000      -0.659503       -17.9460
 153   2.0000      -0.655678       -17.8419
 154   2.0000      -0.647252       -17.6126
 155   2.0000      -0.646308       -17.5869
 156   2.0000      -0.645342       -17.5607
 157   2.0000      -0.641444       -17.4546
 158   2.0000      -0.633214       -17.2306
 159   2.0000      -0.629178       -17.1208
 160   2.0000      -0.622380       -16.9358
 161   2.0000      -0.619355       -16.8535
 162   2.0000      -0.611130       -16.6297
 163   2.0000      -0.604035       -16.4366
 164   2.0000      -0.604001       -16.4357
 165   2.0000      -0.598362       -16.2823
 166   2.0000      -0.596493       -16.2314
 167   2.0000      -0.591750       -16.1023
 168   2.0000      -0.580808       -15.8046
 169   2.0000      -0.579272       -15.7628
 170   2.0000      -0.578730       -15.7480
 171   2.0000      -0.568344       -15.4654
 172   2.0000      -0.564829       -15.3698
 173   2.0000      -0.559788       -15.2326
 174   2.0000      -0.553449       -15.0601
 175   2.0000      -0.549770       -14.9600
 176   2.0000      -0.544528       -14.8174
 177   2.0000      -0.535966       -14.5844
 178   2.0000      -0.534951       -14.5568
 179   2.0000      -0.530662       -14.4401
 180   2.0000      -0.528784       -14.3889
 181   2.0000      -0.524959       -14.2849
 182   2.0000      -0.524120       -14.2620
 183   2.0000      -0.522952       -14.2302
 184   2.0000      -0.521739       -14.1972
 185   2.0000      -0.517558       -14.0835
 186   2.0000      -0.515811       -14.0359
 187   2.0000      -0.514453       -13.9990
 188   2.0000      -0.511974       -13.9315
 189   2.0000      -0.511028       -13.9058
 190   2.0000      -0.509766       -13.8714
 191   2.0000      -0.509246       -13.8573
 192   2.0000      -0.508011       -13.8237
 193   2.0000      -0.503276       -13.6948
 194   2.0000      -0.497622       -13.5410
 195   2.0000      -0.496106       -13.4997
 196   2.0000      -0.492908       -13.4127
 197   2.0000      -0.491061       -13.3625
 198   2.0000      -0.487316       -13.2605
 199   2.0000      -0.486765       -13.2456
 200   2.0000      -0.483984       -13.1699
 201   2.0000      -0.482366       -13.1259
 202   2.0000      -0.480365       -13.0714
 203   2.0000      -0.477594       -12.9960
 204   2.0000      -0.474730       -12.9181
 205   2.0000      -0.473332       -12.8800
 206   2.0000      -0.472481       -12.8569
 207   2.0000      -0.471687       -12.8353
 208   2.0000      -0.469857       -12.7855
 209   2.0000      -0.464872       -12.6498
 210   2.0000      -0.464196       -12.6314
 211   2.0000      -0.457013       -12.4360
 212   2.0000      -0.454743       -12.3742
 213   2.0000      -0.448201       -12.1962
 214   2.0000      -0.445963       -12.1353
 215   2.0000      -0.443040       -12.0557
 216   2.0000      -0.440914       -11.9979
 217   2.0000      -0.439848       -11.9689
 218   2.0000      -0.438079       -11.9207
 219   2.0000      -0.437607       -11.9079
 220   2.0000      -0.435829       -11.8595
 221   2.0000      -0.434058       -11.8113
 222   2.0000      -0.433131       -11.7861
 223   2.0000      -0.432375       -11.7655
 224   2.0000      -0.427256       -11.6262
 225   2.0000      -0.426919       -11.6171
 226   2.0000      -0.424104       -11.5405
 227   2.0000      -0.420927       -11.4540
 228   2.0000      -0.419070       -11.4035
 229   2.0000      -0.418988       -11.4012
 230   2.0000      -0.418803       -11.3962
 231   2.0000      -0.418194       -11.3796
 232   2.0000      -0.415403       -11.3037
 233   2.0000      -0.412612       -11.2277
 234   2.0000      -0.410883       -11.1807
 235   2.0000      -0.409922       -11.1545
 236   2.0000      -0.409047       -11.1307
 237   2.0000      -0.406098       -11.0505
 238   2.0000      -0.400949       -10.9104
 239   2.0000      -0.398130       -10.8337
 240   2.0000      -0.390570       -10.6280
 241   2.0000      -0.388141       -10.5619
 242   2.0000      -0.377053       -10.2601
 243   2.0000      -0.376343       -10.2408
 244   2.0000      -0.364449        -9.9172
 245   2.0000      -0.362313        -9.8590
 246   2.0000      -0.353711        -9.6250
 247   2.0000      -0.352082        -9.5806
 248   2.0000      -0.350969        -9.5503
 249   2.0000      -0.346985        -9.4419
 250   2.0000      -0.335576        -9.1315
 251   2.0000      -0.332414        -9.0454
 252   2.0000      -0.322412        -8.7733
 253   2.0000      -0.317944        -8.6517
 254   2.0000      -0.316099        -8.6015
 255   2.0000      -0.301247        -8.1973
 256   2.0000      -0.298592        -8.1251
 257   2.0000      -0.295936        -8.0528
 258   2.0000      -0.282441        -7.6856
 259   2.0000      -0.278541        -7.5795
 260   2.0000      -0.273658        -7.4466
 261   2.0000      -0.235482        -6.4078
 262   2.0000      -0.219173        -5.9640
 263   0.0000      -0.110140        -2.9971
 264   0.0000      -0.102190        -2.7807
 265   0.0000      -0.058921        -1.6033
 266   0.0000      -0.050988        -1.3875
 267   0.0000      -0.041968        -1.1420

MULLIKEN ATOMIC CHARGES
-----------------------
   0 C :    0.330189
   1 C :   -0.364889
   2 C :   -0.192308
   3 N :    0.136412
   4 C :   -0.191556
   5 N :    0.131675
   6 C :    0.012248
   7 C :   -0.007977
   8 C :   -0.074972
   9 C :    0.114577
  10 C :   -0.095600
  11 C :   -0.028174
  12 S :    0.131445
  13 C :   -0.053259
  14 C :    0.023605
  15 C :    0.136483
  16 O :   -0.168514
  17 C :   -0.088755
  18 C :   -0.039505
  19 C :   -0.027876
  20 C :    0.005842
  21 C :    0.025109
  22 C :    0.041314
  23 C :   -0.050045
  24 S :    0.110639
  25 C :   -0.033735
  26 C :    0.017185
  27 C :    0.042804
  28 C :   -0.069187
  29 S :    0.119630
  30 C :    0.067568
  31 C :    0.030779
  32 C :   -0.060221
  33 C :    0.056130
  34 C :   -0.147287
  35 C :   -0.023157
  36 C :    0.066410
  37 C :   -0.051008
  38 S :    0.051693
  39 C :    0.027429
  40 C :   -0.063741
  41 C :    0.042572
  42 C :    0.013655
  43 C :   -0.021753
  44 S :    0.117878
  45 C :   -0.061583
  46 C :    0.041985
  47 C :    0.054215
  48 C :   -0.032231
  49 S :    0.122325
  50 C :   -0.002275
  51 C :    0.024691
  52 C :   -0.138781
  53 C :    0.278116
  54 C :   -0.365428
  55 C :   -0.175960
  56 N :    0.138569
  57 C :   -0.208004
  58 N :    0.158078
  59 C :    0.009661
  60 C :    0.003598
  61 C :    0.130375
  62 O :   -0.154062
  63 C :   -0.073363
  64 C :    0.107859
  65 C :   -0.091551
  66 C :   -0.037362
  67 S :    0.121642
  68 C :   -0.056093
  69 C :    0.026271
  70 H :   -0.017896
  71 H :   -0.011224
  72 H :    0.034664
  73 H :   -0.011231
  74 H :    0.013245
  75 H :    0.015749
  76 H :   -0.001450
  77 H :   -0.006575
  78 H :   -0.006995
  79 H :   -0.016759
  80 H :   -0.014347
  81 H :   -0.025952
  82 H :    0.053634
  83 H :    0.032478
  84 H :    0.033513
  85 H :    0.062459
  86 H :    0.067416
  87 H :   -0.007726
  88 H :    0.001439
  89 H :   -0.005486
  90 H :   -0.010857
  91 H :   -0.006271
  92 H :   -0.002909
  93 H :    0.022530
  94 H :   -0.017335
  95 H :   -0.014832
  96 H :    0.031861
  97 H :   -0.011584
Sum of atomic charges:   -0.0000000

LOEWDIN ATOMIC CHARGES
----------------------
   0 C :    0.073580
   1 C :   -0.157489
   2 C :   -0.018955
   3 N :   -0.070008
   4 C :   -0.020683
   5 N :   -0.069605
   6 C :   -0.020009
   7 C :   -0.051274
   8 C :    0.017808
   9 C :   -0.038626
  10 C :   -0.147580
  11 C :   -0.012948
  12 S :    0.422375
  13 C :   -0.155005
  14 C :   -0.059343
  15 C :    0.082275
  16 O :   -0.160683
  17 C :   -0.106683
  18 C :    0.048104
  19 C :   -0.072470
  20 C :   -0.105127
  21 C :   -0.042410
  22 C :   -0.010830
  23 C :   -0.193056
  24 S :    0.410998
  25 C :   -0.154623
  26 C :   -0.027375
  27 C :   -0.023651
  28 C :   -0.150488
  29 S :    0.399784
  30 C :   -0.036590
  31 C :   -0.043339
  32 C :    0.006579
  33 C :   -0.072249
  34 C :   -0.143280
  35 C :   -0.027016
  36 C :   -0.023289
  37 C :   -0.109536
  38 S :    0.351542
  39 C :   -0.033114
  40 C :   -0.145662
  41 C :   -0.022604
  42 C :   -0.028068
  43 C :   -0.144496
  44 S :    0.395293
  45 C :   -0.195196
  46 C :   -0.020437
  47 C :   -0.029637
  48 C :   -0.112938
  49 S :    0.459676
  50 C :   -0.070021
  51 C :    0.036962
  52 C :   -0.109119
  53 C :    0.038001
  54 C :   -0.167668
  55 C :   -0.020750
  56 N :   -0.071591
  57 C :   -0.026857
  58 N :   -0.063391
  59 C :   -0.013552
  60 C :   -0.056678
  61 C :    0.083239
  62 O :   -0.152627
  63 C :    0.020839
  64 C :   -0.043444
  65 C :   -0.146524
  66 C :   -0.022104
  67 S :    0.414675
  68 C :   -0.159321
  69 C :   -0.057671
  70 H :    0.037752
  71 H :    0.039434
  72 H :    0.027349
  73 H :    0.033349
  74 H :    0.031495
  75 H :    0.038282
  76 H :    0.038350
  77 H :    0.034305
  78 H :    0.034865
  79 H :    0.032668
  80 H :    0.032002
  81 H :    0.021467
  82 H :    0.057651
  83 H :    0.034313
  84 H :    0.036503
  85 H :    0.027744
  86 H :    0.032770
  87 H :    0.034636
  88 H :    0.023218
  89 H :    0.036035
  90 H :    0.033642
  91 H :    0.037150
  92 H :    0.040352
  93 H :    0.045674
  94 H :    0.038164
  95 H :    0.037274
  96 H :    0.026235
  97 H :    0.033280

  Mayer bond orders larger than 0.100000
B(  0-C ,  1-C ) :   1.5799 B(  0-C ,  6-C ) :   0.9893 B(  0-C , 17-C ) :   1.1122
B(  1-C ,  2-C ) :   1.1515 B(  1-C ,  4-C ) :   1.1554 B(  2-C ,  3-N ) :   2.9622
B(  4-C ,  5-N ) :   2.9559 B(  6-C ,  7-C ) :   1.2719 B(  6-C , 11-C ) :   1.4222
B(  7-C ,  8-C ) :   1.4314 B(  7-C , 15-C ) :   0.9402 B(  8-C ,  9-C ) :   1.2394
B(  8-C , 70-H ) :   1.0161 B(  9-C , 10-C ) :   1.3110 B(  9-C , 14-C ) :   1.1709
B( 10-C , 11-C ) :   1.3147 B( 10-C , 12-S ) :   1.0956 B( 11-C , 71-H ) :   0.9818
B( 12-S , 13-C ) :   1.1251 B( 13-C , 14-C ) :   1.6275 B( 13-C , 72-H ) :   0.9689
B( 14-C , 73-H ) :   0.9995 B( 15-C , 16-O ) :   2.1801 B( 15-C , 17-C ) :   0.9647
B( 17-C , 18-C ) :   1.4825 B( 18-C , 19-C ) :   1.2577 B( 18-C , 74-H ) :   0.9431
B( 19-C , 20-C ) :   1.4162 B( 19-C , 75-H ) :   0.9773 B( 20-C , 21-C ) :   1.1817
B( 20-C , 24-S ) :   1.0832 B( 21-C , 22-C ) :   1.5368 B( 21-C , 76-H ) :   1.0021
B( 22-C , 23-C ) :   1.2213 B( 22-C , 77-H ) :   0.9946 B( 23-C , 24-S ) :   1.0486
B( 23-C , 25-C ) :   1.4484 B( 25-C , 26-C ) :   1.2021 B( 25-C , 29-S ) :   1.0905
B( 26-C , 27-C ) :   1.5889 B( 26-C , 78-H ) :   0.9930 B( 27-C , 28-C ) :   1.1585
B( 27-C , 79-H ) :   0.9954 B( 28-C , 29-S ) :   1.0319 B( 28-C , 30-C ) :   1.5516
B( 30-C , 31-C ) :   1.2053 B( 30-C , 80-H ) :   0.9445 B( 31-C , 32-C ) :   1.5666
B( 31-C , 35-C ) :   1.0233 B( 32-C , 33-C ) :   1.1050 B( 32-C , 81-H ) :   1.0116
B( 33-C , 34-C ) :   1.5807 B( 33-C , 39-C ) :   1.1482 B( 34-C , 35-C ) :   1.0022
B( 34-C , 38-S ) :   1.1136 B( 35-C , 36-C ) :   1.0458 B( 35-C , 82-H ) :   0.8614
B( 36-C , 37-C ) :   1.0627 B( 36-C , 83-H ) :   0.9358 B( 36-C , 84-H ) :   0.9392
B( 37-C , 38-S ) :   0.9700 B( 37-C , 85-H ) :   0.9481 B( 37-C , 86-H ) :   0.9526
B( 39-C , 40-C ) :   1.5923 B( 39-C , 87-H ) :   0.9470 B( 40-C , 41-C ) :   1.1444
B( 40-C , 44-S ) :   1.0302 B( 41-C , 42-C ) :   1.6150 B( 41-C , 88-H ) :   0.9734
B( 42-C , 43-C ) :   1.1840 B( 42-C , 89-H ) :   0.9943 B( 43-C , 44-S ) :   1.0864
B( 43-C , 45-C ) :   1.4815 B( 45-C , 46-C ) :   1.1985 B( 45-C , 49-S ) :   1.0373
B( 46-C , 47-C ) :   1.5739 B( 46-C , 90-H ) :   0.9904 B( 47-C , 48-C ) :   1.1669
B( 47-C , 91-H ) :   0.9977 B( 48-C , 49-S ) :   1.1118 B( 48-C , 50-C ) :   1.4540
B( 50-C , 51-C ) :   1.3185 B( 50-C , 92-H ) :   0.9537 B( 51-C , 52-C ) :   1.4831
B( 51-C , 93-H ) :   0.9296 B( 52-C , 53-C ) :   1.1334 B( 52-C , 61-C ) :   0.9574
B( 53-C , 54-C ) :   1.5489 B( 53-C , 59-C ) :   1.0044 B( 54-C , 55-C ) :   1.1446
B( 54-C , 57-C ) :   1.1705 B( 55-C , 56-N ) :   2.9773 B( 57-C , 58-N ) :   3.0054
B( 59-C , 60-C ) :   1.2726 B( 59-C , 66-C ) :   1.4315 B( 60-C , 61-C ) :   0.9190
B( 60-C , 63-C ) :   1.4345 B( 61-C , 62-O ) :   2.2518 B( 63-C , 64-C ) :   1.2403
B( 63-C , 94-H ) :   1.0165 B( 64-C , 65-C ) :   1.3213 B( 64-C , 69-C ) :   1.1679
B( 65-C , 66-C ) :   1.3026 B( 65-C , 67-S ) :   1.0929 B( 66-C , 95-H ) :   0.9866
B( 67-S , 68-C ) :   1.1204 B( 68-C , 69-C ) :   1.6333 B( 68-C , 96-H ) :   0.9686
B( 69-C , 97-H ) :   0.9995

-----------------------------------------------------------------------------
         ABSORPTION SPECTRUM VIA TRANSITION ELECTRIC DIPOLE MOMENTS
-----------------------------------------------------------------------------
State   Energy  Wavelength   fosc         T2         TX        TY        TZ
        (cm-1)    (nm)                  (au**2)     (au)      (au)      (au)
-----------------------------------------------------------------------------
   0   10426.2    959.1   2.009486398  63.45052   7.90915  -0.65537   0.68286
   1   13451.5    743.4   0.257880980   6.31136   0.39800   0.93120   2.29909
   2   16529.0    605.0   0.156157663   3.11022   1.15924   0.66323   1.15174
   3   17097.3    584.9   0.045108814   0.86858   0.76541  -0.36899   0.38285
   4   21077.6    474.4   0.080915089   1.26382  -0.40843   0.25041   1.01700
   5   22008.3    454.4   0.056357970   0.84303  -0.84055   0.30647   0.20633
   6   22857.3    437.5   0.336241563   4.84285   0.76965  -0.79940  -1.90038
   7   23658.6    422.7   0.173678658   2.41675  -0.93476   0.82479  -0.92881
   8   23982.6    417.0   0.086322307   1.18495  -0.53607   0.34916   0.88072
   9   24562.8    407.1   0.020198519   0.27072  -0.12996  -0.24761   0.43877
  10   25559.0    391.3   0.077041352   0.99233   0.87599  -0.04431   0.47224
  11   26049.0    383.9   0.140793190   1.77937   0.91400  -0.96705  -0.09375
  12   26730.3    374.1   0.000002053   0.00003   0.00017   0.00499   0.00059
  13   27220.6    367.4   0.022221677   0.26875   0.42914  -0.29049  -0.01451
  14   27681.2    361.3   0.034552422   0.41093   0.42660  -0.25125  -0.40721
  15   28305.7    353.3   0.071045590   0.82630   0.71272  -0.53123  -0.19006
  16   28797.2    347.3   0.031324446   0.35810  -0.48457   0.16739   0.30866
  17   28967.8    345.2   0.006051275   0.06877   0.21886  -0.06478   0.12913
  18   29183.7    342.7   0.028548615   0.32205  -0.49115   0.21497   0.18604
  19   29605.0    337.8   0.030771966   0.34219  -0.43985   0.05782  -0.38129
  20   30082.7    332.4   0.127911616   1.39981   0.96560  -0.68368   0.00391
  21   30809.7    324.6   0.000546854   0.00584  -0.02953  -0.06987  -0.00947
  22   30980.0    322.8   0.054688027   0.58115   0.35001   0.27438   0.61916
  23   31279.4    319.7   0.121638391   1.28023   0.82319  -0.09203   0.77080
  24   32186.9    310.7   0.248963956   2.54644   0.34769  -0.10808  -1.55366
  25   32396.3    308.7   0.661890506   6.72615  -2.19656   0.51982   1.27713
  26   32530.4    307.4   0.177846373   1.79983  -1.22544   0.30385   0.45366
  27   32553.7    307.2   0.127722213   1.29164  -1.03981   0.23222   0.39561
  28   32943.2    303.6   0.012219359   0.12211  -0.33968   0.02573   0.07790
  29   33167.7    301.5   0.007427977   0.07373  -0.24978   0.05150  -0.09319
  30   33438.2    299.1   0.017322289   0.17054  -0.33328   0.18988  -0.15302
  31   33589.2    297.7   0.050663495   0.49656  -0.41652   0.03652   0.56722
  32   34152.3    292.8   0.072191369   0.69589  -0.00155   0.13055   0.82392
  33   34199.8    292.4   0.024488767   0.23573  -0.25025   0.02157  -0.41550
  34   34473.7    290.1   0.064843406   0.61923  -0.62167   0.05735   0.47902
  35   34492.8    289.9   0.208534309   1.99033  -1.22771   0.35000  -0.60047
  36   34863.1    286.8   0.028952787   0.27340   0.46613   0.11019  -0.20971
  37   35170.7    284.3   0.035287695   0.33031  -0.40211   0.29256  -0.28814
  38   35263.4    283.6   0.000769576   0.00718  -0.04139  -0.07254   0.01447
  39   35408.4    282.4   0.008643617   0.08036  -0.07190  -0.09825   0.25601
  40   35621.5    280.7   0.019876592   0.18370  -0.02905   0.15984  -0.39662
  41   36094.2    277.1   0.027229972   0.24836   0.48887  -0.03885  -0.08867
  42   36540.7    273.7   0.279474750   2.51792   1.39951  -0.50318  -0.55326
  43   37007.0    270.2   0.039065455   0.34752   0.39535  -0.20863  -0.38431
  44   37150.9    269.2   0.304049385   2.69433   0.15065  -0.11272   1.63062
  45   37837.6    264.3   0.028017934   0.24377   0.31786  -0.09249  -0.36632
  46   37963.9    263.4   0.140761745   1.22064  -0.15254   0.05794   1.09271
  47   38199.2    261.8   0.014723922   0.12690  -0.19617   0.13600  -0.26442
  48   38623.6    258.9   0.076974642   0.65610  -0.49389   0.46294   0.44481
  49   38830.9    257.5   0.050004919   0.42395   0.07131   0.08211   0.64197
  50   39291.8    254.5   0.029948241   0.25093  -0.38768  -0.09925   0.30130
  51   39400.0    253.8   0.092204879   0.77043   0.07779  -0.09747  -0.86884
  52   39775.2    251.4   0.023429390   0.19392  -0.32020  -0.11687  -0.27880
  53   39823.8    251.1   0.014911632   0.12327   0.09771  -0.11773  -0.31601
  54   40245.0    248.5   0.032568975   0.26642  -0.34510   0.38316  -0.02266

FINAL SINGLE POINT ENERGY     -5341.431472397296

DIPOLE MOMENT
-------------
                                X             Y             Z
Electronic contribution:      6.92399      -4.17742      -4.77133
Nuclear contribution   :     -6.76843       5.45590       4.33047
                        -----------------------------------------
Total Dipole Moment    :      0.15556       1.27847      -0.44086
                        -----------------------------------------
Magnitude (a.u.)       :      1.36127
Magnitude (Debye)      :      3.46007

Rotational constants in cm-1:     0.001777     0.000177     0.000163
Rotational constants in MHz :    53.278901     5.307989     4.892920

                             ****ORCA TERMINATED NORMALLY****
TOTAL RUN TIME: 0 days 0 hours 10 minutes 23 seconds 529 msec
