                         Program Version 4.2.0 -  RELEASE  -
|  1> # ORCA input file
|  2> # SCF done       -201.291722500951          0.000586623508
|  3> ! CAM-B3LYP def2-SVP def2/J RIJCOSX Grid4 TightSCF
|  4> %maxcore 5000
|  5> %tddft
|  6>     Mode sTDDFT
|  7>     Ethresh 5.0
|  8>     maxcore 5000
|  9> end
| 10>
| 11> %pal
| 12>   nprocs 6
| 13>   end
| 14> * xyz 0 1
| 15>    C      -11.69147        11.64486        -6.43620
| 16>    C      -11.37198        10.94630        -5.30673
| 17>    C      -10.60958         9.75848        -5.30300
| 18>    N       -9.99125         8.79287        -5.24086
| 19>    C      -11.79111        11.29329        -4.00386
| 20>    N      -12.09541        11.51082        -2.91889
| 21>    C      -11.28110        11.32417        -7.79273
| 22>    C      -11.96883        12.17217        -8.69849
| 23>    C      -11.74687        12.13338       -10.05395
| 24>    C      -10.78066        11.24414       -10.53259
| 25>    C      -10.08849        10.41496        -9.61670
| 26>    C      -10.33298        10.42817        -8.25081
| 27>    S       -8.91502         9.42510       -10.42660
| 28>    C       -9.35758        10.10825       -11.95413
| 29>    C      -10.33522        11.03608       -11.86894
| 30>    C      -12.84704        13.08729        -7.94273
| 31>    O      -13.70165        13.82083        -8.38215
| 32>    C      -12.46563        12.88151        -6.51667
| 33>    C      -12.55709        13.80339        -5.53864
| 34>    C      -13.08952        15.15658        -5.65523
| 35>    C      -12.69225        16.08032        -6.67694
| 36>    C      -13.32607        17.30568        -6.74326
| 37>    C      -14.30394        17.68517        -5.81221
| 38>    C      -14.65566        16.78319        -4.76974
| 39>    C      -14.02407        15.52777        -4.71746
| 40>    N      -15.57881        17.11719        -3.84644
| 41>    C      -16.13206        18.29559        -3.96103
| 42>    C      -15.78948        19.18859        -4.99814
| 43>    N      -14.89498        18.89658        -5.90362
| 44>    C      -11.69579        15.79518        -7.68748
| 45>    C      -10.54579        15.08484        -7.60789
| 46>    C       -9.75133        14.68091        -8.72917
| 47>    C       -8.79008        13.77473        -8.43678
| 48>    C       -8.72857        13.42378        -7.06161
| 49>    S       -9.82437        14.43790        -6.13174
| 50>    C       -8.06121        12.37556        -6.48245
| 51>    C       -7.20259        11.42746        -7.09702
| 52>    C       -6.82151        10.42089        -6.27397
| 53>    C       -7.35574        10.48597        -4.95228
| 54>    S       -8.32302        11.95130        -4.80200
| 55>    C       -7.14689         9.54178        -3.99370
| 56>    C       -7.68484         9.41573        -2.67390
| 57>    C       -7.17066         8.38924        -1.85532
| 58>    C       -7.66675         8.20251        -0.59096
| 59>    C       -8.68170         9.04671        -0.09792
| 60>    C       -9.20947        10.05344        -0.89598
| 61>    C       -8.70946        10.23046        -2.16701
| 62>    C       -8.95659         8.68789         1.27305
| 63>    C       -8.09553         7.63742         1.64044
| 64>    C       -7.26870         7.18652         0.45556
| 65>    C       -7.76027         5.76430         0.09282
| 66>    C       -7.19284         5.17425        -1.19107
| 67>    C       -5.76227         7.21093         0.74980
| 68>    C       -5.28978         8.57741         1.23366
| 69>    C       -8.11578         7.12699         2.91312
| 70>    C       -9.02265         7.64877         3.84924
| 71>    C       -9.90089         8.67064         3.45820
| 72>    C       -9.86723         9.20329         2.18693
| 73>    C       -9.10277         7.12502         5.18757
| 74>    C       -8.12023         6.46533         5.84005
| 75>    C       -8.23748         5.96784         7.16858
| 76>    C       -9.34884         5.52162         7.81245
| 77>    C      -10.66934         5.15140         7.34256
| 78>    C      -10.98731         4.63409         6.11346
| 79>    C      -12.27588         4.18394         5.76231
| 80>    N      -13.30866         3.81359         5.42386
| 81>    C      -10.05435         4.40563         5.08210
| 82>    N       -9.34492         4.15122         4.21604
| 83>    C      -11.55847         5.16821         8.49923
| 84>    C      -10.77498         5.30306         9.67443
| 85>    C       -9.35520         5.43964         9.29853
| 86>    O       -8.39538         5.51767        10.03218
| 87>    C      -11.33002         5.31203        10.93137
| 88>    C      -12.71962         5.19427        11.03344
| 89>    C      -13.49288         5.07692         9.85364
| 90>    C      -12.93294         5.05946         8.58168
| 91>    S      -15.18514         4.95768        10.22030
| 92>    C      -14.84979         5.05745        11.91448
| 93>    C      -13.53524         5.17738        12.20032
| 94>    H      -12.28866        12.78474       -10.72200
| 95>    H       -9.78198         9.77907        -7.59058
| 96>    H       -8.84895         9.76627       -12.83447
| 97>    H      -10.73797        11.56467       -12.71391
| 98>    H      -12.21022        13.54136        -4.54594
| 99>    H      -13.06091        18.01668        -7.51107
|100>    H      -14.32392        14.84173        -3.93942
|101>    H      -16.87240        18.55840        -3.21736
|102>    H      -16.26072        20.15934        -5.07803
|103>    H      -11.91878        16.21825        -8.65987
|104>    H       -9.97926        15.03361        -9.71934
|105>    H       -8.14731        13.31187        -9.16435
|106>    H       -6.90769        11.51724        -8.12723
|107>    H       -6.19059         9.60164        -6.57096
|108>    H       -6.47419         8.74411        -4.28828
|109>    H       -6.36920         7.77283        -2.23480
|110>    H       -9.99882        10.69297        -0.53240
|111>    H       -9.12889        11.00995        -2.78103
|112>    H       -8.84945         5.79873         0.00944
|113>    H       -7.51764         5.10620         0.92962
|114>    H       -7.50528         5.75367        -2.05554
|115>    H       -7.56669         4.15998        -1.31268
|116>    H       -6.10702         5.13061        -1.16421
|117>    H       -5.21568         6.94704        -0.15633
|118>    H       -5.53933         6.45761         1.50800
|119>    H       -5.49215         9.33970         0.48420
|120>    H       -4.21935         8.55914         1.42596
|121>    H       -5.80013         8.85862         2.15227
|122>    H       -7.47455         6.30604         3.19219
|123>    H      -10.60643         9.05517         4.18124
|124>    H      -10.54116         9.99762         1.90428
|125>    H      -10.02516         7.33313         5.71847
|126>    H       -7.14195         6.38058         5.38760
|127>    H       -7.33893         5.99601         7.77804
|128>    H      -10.71024         5.40701        11.80945
|129>    H      -13.56139         4.97495         7.71042
|130>    H      -15.67238         5.01977        12.60193
|131>    H      -13.14018         5.25264        13.19725
|132> *
|133>
|134>                          ****END OF INPUT****

CARTESIAN COORDINATES (ANGSTROEM)
---------------------------------
  C    -11.691470   11.644860   -6.436200
  C    -11.371980   10.946300   -5.306730
  C    -10.609580    9.758480   -5.303000
  N     -9.991250    8.792870   -5.240860
  C    -11.791110   11.293290   -4.003860
  N    -12.095410   11.510820   -2.918890
  C    -11.281100   11.324170   -7.792730
  C    -11.968830   12.172170   -8.698490
  C    -11.746870   12.133380  -10.053950
  C    -10.780660   11.244140  -10.532590
  C    -10.088490   10.414960   -9.616700
  C    -10.332980   10.428170   -8.250810
  S     -8.915020    9.425100  -10.426600
  C     -9.357580   10.108250  -11.954130
  C    -10.335220   11.036080  -11.868940
  C    -12.847040   13.087290   -7.942730
  O    -13.701650   13.820830   -8.382150
  C    -12.465630   12.881510   -6.516670
  C    -12.557090   13.803390   -5.538640
  C    -13.089520   15.156580   -5.655230
  C    -12.692250   16.080320   -6.676940
  C    -13.326070   17.305680   -6.743260
  C    -14.303940   17.685170   -5.812210
  C    -14.655660   16.783190   -4.769740
  C    -14.024070   15.527770   -4.717460
  N    -15.578810   17.117190   -3.846440
  C    -16.132060   18.295590   -3.961030
  C    -15.789480   19.188590   -4.998140
  N    -14.894980   18.896580   -5.903620
  C    -11.695790   15.795180   -7.687480
  C    -10.545790   15.084840   -7.607890
  C     -9.751330   14.680910   -8.729170
  C     -8.790080   13.774730   -8.436780
  C     -8.728570   13.423780   -7.061610
  S     -9.824370   14.437900   -6.131740
  C     -8.061210   12.375560   -6.482450
  C     -7.202590   11.427460   -7.097020
  C     -6.821510   10.420890   -6.273970
  C     -7.355740   10.485970   -4.952280
  S     -8.323020   11.951300   -4.802000
  C     -7.146890    9.541780   -3.993700
  C     -7.684840    9.415730   -2.673900
  C     -7.170660    8.389240   -1.855320
  C     -7.666750    8.202510   -0.590960
  C     -8.681700    9.046710   -0.097920
  C     -9.209470   10.053440   -0.895980
  C     -8.709460   10.230460   -2.167010
  C     -8.956590    8.687890    1.273050
  C     -8.095530    7.637420    1.640440
  C     -7.268700    7.186520    0.455560
  C     -7.760270    5.764300    0.092820
  C     -7.192840    5.174250   -1.191070
  C     -5.762270    7.210930    0.749800
  C     -5.289780    8.577410    1.233660
  C     -8.115780    7.126990    2.913120
  C     -9.022650    7.648770    3.849240
  C     -9.900890    8.670640    3.458200
  C     -9.867230    9.203290    2.186930
  C     -9.102770    7.125020    5.187570
  C     -8.120230    6.465330    5.840050
  C     -8.237480    5.967840    7.168580
  C     -9.348840    5.521620    7.812450
  C    -10.669340    5.151400    7.342560
  C    -10.987310    4.634090    6.113460
  C    -12.275880    4.183940    5.762310
  N    -13.308660    3.813590    5.423860
  C    -10.054350    4.405630    5.082100
  N     -9.344920    4.151220    4.216040
  C    -11.558470    5.168210    8.499230
  C    -10.774980    5.303060    9.674430
  C     -9.355200    5.439640    9.298530
  O     -8.395380    5.517670   10.032180
  C    -11.330020    5.312030   10.931370
  C    -12.719620    5.194270   11.033440
  C    -13.492880    5.076920    9.853640
  C    -12.932940    5.059460    8.581680
  S    -15.185140    4.957680   10.220300
  C    -14.849790    5.057450   11.914480
  C    -13.535240    5.177380   12.200320
  H    -12.288660   12.784740  -10.722000
  H     -9.781980    9.779070   -7.590580
  H     -8.848950    9.766270  -12.834470
  H    -10.737970   11.564670  -12.713910
  H    -12.210220   13.541360   -4.545940
  H    -13.060910   18.016680   -7.511070
  H    -14.323920   14.841730   -3.939420
  H    -16.872400   18.558400   -3.217360
  H    -16.260720   20.159340   -5.078030
  H    -11.918780   16.218250   -8.659870
  H     -9.979260   15.033610   -9.719340
  H     -8.147310   13.311870   -9.164350
  H     -6.907690   11.517240   -8.127230
  H     -6.190590    9.601640   -6.570960
  H     -6.474190    8.744110   -4.288280
  H     -6.369200    7.772830   -2.234800
  H     -9.998820   10.692970   -0.532400
  H     -9.128890   11.009950   -2.781030
  H     -8.849450    5.798730    0.009440
  H     -7.517640    5.106200    0.929620
  H     -7.505280    5.753670   -2.055540
  H     -7.566690    4.159980   -1.312680
  H     -6.107020    5.130610   -1.164210
  H     -5.215680    6.947040   -0.156330
  H     -5.539330    6.457610    1.508000
  H     -5.492150    9.339700    0.484200
  H     -4.219350    8.559140    1.425960
  H     -5.800130    8.858620    2.152270
  H     -7.474550    6.306040    3.192190
  H    -10.606430    9.055170    4.181240
  H    -10.541160    9.997620    1.904280
  H    -10.025160    7.333130    5.718470
  H     -7.141950    6.380580    5.387600
  H     -7.338930    5.996010    7.778040
  H    -10.710240    5.407010   11.809450
  H    -13.561390    4.974950    7.710420
  H    -15.672380    5.019770   12.601930
  H    -13.140180    5.252640   13.197250

 Total Charge           Charge          ....    0
 Multiplicity           Mult            ....    1
 Number of Electrons    NEL             ....  562
 Basis Dimension        Dim             .... 1312

ORBITAL ENERGIES
----------------

  NO   OCC          E(Eh)            E(eV)
   0   2.0000     -88.969287     -2420.9774
   1   2.0000     -88.961874     -2420.7757
   2   2.0000     -88.947790     -2420.3924
   3   2.0000     -88.945166     -2420.3210
   4   2.0000     -19.210753      -522.7512
   5   2.0000     -19.206071      -522.6238
   6   2.0000     -14.418386      -392.3442
   7   2.0000     -14.417629      -392.3236
   8   2.0000     -14.415591      -392.2682
   9   2.0000     -14.412686      -392.1891
  10   2.0000     -14.407609      -392.0510
  11   2.0000     -14.406966      -392.0335
  12   2.0000     -10.363741      -282.0117
  13   2.0000     -10.357274      -281.8358
  14   2.0000     -10.340608      -281.3823
  15   2.0000     -10.335315      -281.2382
  16   2.0000     -10.334786      -281.2238
  17   2.0000     -10.333643      -281.1927
  18   2.0000     -10.321761      -280.8694
  19   2.0000     -10.318174      -280.7718
  20   2.0000     -10.316518      -280.7267
  21   2.0000     -10.315774      -280.7065
  22   2.0000     -10.315156      -280.6897
  23   2.0000     -10.312986      -280.6306
  24   2.0000     -10.311866      -280.6001
  25   2.0000     -10.311737      -280.5966
  26   2.0000     -10.311670      -280.5948
  27   2.0000     -10.310695      -280.5683
  28   2.0000     -10.310628      -280.5665
  29   2.0000     -10.310557      -280.5645
  30   2.0000     -10.310335      -280.5585
  31   2.0000     -10.310138      -280.5531
  32   2.0000     -10.309693      -280.5410
  33   2.0000     -10.309196      -280.5275
  34   2.0000     -10.306033      -280.4414
  35   2.0000     -10.304981      -280.4128
  36   2.0000     -10.303463      -280.3715
  37   2.0000     -10.302681      -280.3502
  38   2.0000     -10.301353      -280.3141
  39   2.0000     -10.301000      -280.3045
  40   2.0000     -10.298261      -280.2299
  41   2.0000     -10.297980      -280.2223
  42   2.0000     -10.297976      -280.2222
  43   2.0000     -10.296527      -280.1827
  44   2.0000     -10.296316      -280.1770
  45   2.0000     -10.293722      -280.1064
  46   2.0000     -10.292482      -280.0727
  47   2.0000     -10.291756      -280.0529
  48   2.0000     -10.290912      -280.0300
  49   2.0000     -10.289671      -279.9962
  50   2.0000     -10.289382      -279.9883
  51   2.0000     -10.287263      -279.9306
  52   2.0000     -10.287013      -279.9238
  53   2.0000     -10.286864      -279.9198
  54   2.0000     -10.286119      -279.8995
  55   2.0000     -10.284896      -279.8662
  56   2.0000     -10.284671      -279.8601
  57   2.0000     -10.282088      -279.7898
  58   2.0000     -10.281787      -279.7816
  59   2.0000     -10.279706      -279.7250
  60   2.0000     -10.278305      -279.6869
  61   2.0000     -10.276146      -279.6282
  62   2.0000     -10.275657      -279.6148
  63   2.0000     -10.274960      -279.5959
  64   2.0000     -10.272477      -279.5283
  65   2.0000     -10.270414      -279.4722
  66   2.0000     -10.269513      -279.4477
  67   2.0000     -10.267415      -279.3906
  68   2.0000     -10.266677      -279.3705
  69   2.0000     -10.265806      -279.3468
  70   2.0000     -10.264959      -279.3237
  71   2.0000     -10.264129      -279.3012
  72   2.0000     -10.263769      -279.2914
  73   2.0000     -10.263106      -279.2733
  74   2.0000     -10.262897      -279.2676
  75   2.0000     -10.257712      -279.1265
  76   2.0000     -10.253696      -279.0172
  77   2.0000     -10.242776      -278.7201
  78   2.0000     -10.242371      -278.7091
  79   2.0000      -8.065352      -219.4694
  80   2.0000      -8.058206      -219.2749
  81   2.0000      -8.042471      -218.8467
  82   2.0000      -8.040546      -218.7944
  83   2.0000      -6.034889      -164.2177
  84   2.0000      -6.030565      -164.1000
  85   2.0000      -6.027719      -164.0226
  86   2.0000      -6.027061      -164.0047
  87   2.0000      -6.023422      -163.9056
  88   2.0000      -6.019846      -163.8083
  89   2.0000      -6.012275      -163.6023
  90   2.0000      -6.010415      -163.5517
  91   2.0000      -6.008257      -163.4930
  92   2.0000      -6.006566      -163.4470
  93   2.0000      -6.003463      -163.3625
  94   2.0000      -6.001122      -163.2988
  95   2.0000      -1.126849       -30.6631
  96   2.0000      -1.120841       -30.4996
  97   2.0000      -1.073088       -29.2002
  98   2.0000      -1.019212       -27.7342
  99   2.0000      -1.013215       -27.5710
 100   2.0000      -1.008431       -27.4408
 101   2.0000      -1.001739       -27.2587
 102   2.0000      -0.996158       -27.1068
 103   2.0000      -0.995966       -27.1016
 104   2.0000      -0.992476       -27.0066
 105   2.0000      -0.985883       -26.8272
 106   2.0000      -0.985051       -26.8046
 107   2.0000      -0.982507       -26.7354
 108   2.0000      -0.978196       -26.6181
 109   2.0000      -0.973169       -26.4813
 110   2.0000      -0.960706       -26.1421
 111   2.0000      -0.944021       -25.6881
 112   2.0000      -0.928509       -25.2660
 113   2.0000      -0.927676       -25.2434
 114   2.0000      -0.917397       -24.9636
 115   2.0000      -0.902806       -24.5666
 116   2.0000      -0.900594       -24.5064
 117   2.0000      -0.893050       -24.3011
 118   2.0000      -0.885001       -24.0821
 119   2.0000      -0.881897       -23.9976
 120   2.0000      -0.877600       -23.8807
 121   2.0000      -0.875777       -23.8311
 122   2.0000      -0.874879       -23.8067
 123   2.0000      -0.862434       -23.4680
 124   2.0000      -0.848904       -23.0998
 125   2.0000      -0.840190       -22.8627
 126   2.0000      -0.833878       -22.6910
 127   2.0000      -0.832639       -22.6573
 128   2.0000      -0.829189       -22.5634
 129   2.0000      -0.828252       -22.5379
 130   2.0000      -0.824570       -22.4377
 131   2.0000      -0.823737       -22.4150
 132   2.0000      -0.818809       -22.2809
 133   2.0000      -0.817580       -22.2475
 134   2.0000      -0.802598       -21.8398
 135   2.0000      -0.784107       -21.3366
 136   2.0000      -0.781855       -21.2753
 137   2.0000      -0.767180       -20.8760
 138   2.0000      -0.758641       -20.6437
 139   2.0000      -0.755429       -20.5563
 140   2.0000      -0.751867       -20.4593
 141   2.0000      -0.745307       -20.2808
 142   2.0000      -0.740108       -20.1394
 143   2.0000      -0.728353       -19.8195
 144   2.0000      -0.708880       -19.2896
 145   2.0000      -0.708043       -19.2668
 146   2.0000      -0.700205       -19.0536
 147   2.0000      -0.695800       -18.9337
 148   2.0000      -0.690031       -18.7767
 149   2.0000      -0.686286       -18.6748
 150   2.0000      -0.683613       -18.6021
 151   2.0000      -0.680880       -18.5277
 152   2.0000      -0.680178       -18.5086
 153   2.0000      -0.675020       -18.3682
 154   2.0000      -0.673004       -18.3134
 155   2.0000      -0.665840       -18.1184
 156   2.0000      -0.661353       -17.9963
 157   2.0000      -0.655818       -17.8457
 158   2.0000      -0.654646       -17.8138
 159   2.0000      -0.645591       -17.5674
 160   2.0000      -0.639789       -17.4095
 161   2.0000      -0.633073       -17.2268
 162   2.0000      -0.628464       -17.1014
 163   2.0000      -0.621985       -16.9251
 164   2.0000      -0.618804       -16.8385
 165   2.0000      -0.617939       -16.8150
 166   2.0000      -0.613643       -16.6981
 167   2.0000      -0.613225       -16.6867
 168   2.0000      -0.600851       -16.3500
 169   2.0000      -0.595848       -16.2138
 170   2.0000      -0.591619       -16.0988
 171   2.0000      -0.589494       -16.0410
 172   2.0000      -0.588625       -16.0173
 173   2.0000      -0.587834       -15.9958
 174   2.0000      -0.583552       -15.8793
 175   2.0000      -0.578966       -15.7545
 176   2.0000      -0.566273       -15.4091
 177   2.0000      -0.561849       -15.2887
 178   2.0000      -0.556594       -15.1457
 179   2.0000      -0.549642       -14.9565
 180   2.0000      -0.547026       -14.8853
 181   2.0000      -0.543407       -14.7869
 182   2.0000      -0.539884       -14.6910
 183   2.0000      -0.536981       -14.6120
 184   2.0000      -0.535712       -14.5775
 185   2.0000      -0.534100       -14.5336
 186   2.0000      -0.531836       -14.4720
 187   2.0000      -0.530778       -14.4432
 188   2.0000      -0.529105       -14.3977
 189   2.0000      -0.527018       -14.3409
 190   2.0000      -0.525356       -14.2957
 191   2.0000      -0.523794       -14.2532
 192   2.0000      -0.522344       -14.2137
 193   2.0000      -0.519517       -14.1368
 194   2.0000      -0.516878       -14.0650
 195   2.0000      -0.513670       -13.9777
 196   2.0000      -0.512630       -13.9494
 197   2.0000      -0.510765       -13.8986
 198   2.0000      -0.509003       -13.8507
 199   2.0000      -0.506897       -13.7934
 200   2.0000      -0.505641       -13.7592
 201   2.0000      -0.503643       -13.7048
 202   2.0000      -0.502086       -13.6625
 203   2.0000      -0.497274       -13.5315
 204   2.0000      -0.496273       -13.5043
 205   2.0000      -0.495182       -13.4746
 206   2.0000      -0.492068       -13.3898
 207   2.0000      -0.490794       -13.3552
 208   2.0000      -0.489622       -13.3233
 209   2.0000      -0.487952       -13.2779
 210   2.0000      -0.486073       -13.2267
 211   2.0000      -0.485493       -13.2109
 212   2.0000      -0.484345       -13.1797
 213   2.0000      -0.478649       -13.0247
 214   2.0000      -0.474814       -12.9203
 215   2.0000      -0.472354       -12.8534
 216   2.0000      -0.470541       -12.8041
 217   2.0000      -0.464969       -12.6525
 218   2.0000      -0.462443       -12.5837
 219   2.0000      -0.458623       -12.4798
 220   2.0000      -0.457750       -12.4560
 221   2.0000      -0.457400       -12.4465
 222   2.0000      -0.453095       -12.3293
 223   2.0000      -0.449558       -12.2331
 224   2.0000      -0.448681       -12.2092
 225   2.0000      -0.448058       -12.1923
 226   2.0000      -0.445691       -12.1279
 227   2.0000      -0.444162       -12.0863
 228   2.0000      -0.442570       -12.0429
 229   2.0000      -0.442145       -12.0314
 230   2.0000      -0.440082       -11.9752
 231   2.0000      -0.438921       -11.9436
 232   2.0000      -0.436163       -11.8686
 233   2.0000      -0.435474       -11.8499
 234   2.0000      -0.433118       -11.7857
 235   2.0000      -0.432534       -11.7698
 236   2.0000      -0.430050       -11.7023
 237   2.0000      -0.427898       -11.6437
 238   2.0000      -0.426437       -11.6039
 239   2.0000      -0.426106       -11.5949
 240   2.0000      -0.424372       -11.5478
 241   2.0000      -0.423019       -11.5109
 242   2.0000      -0.422436       -11.4951
 243   2.0000      -0.420774       -11.4499
 244   2.0000      -0.418195       -11.3797
 245   2.0000      -0.416919       -11.3449
 246   2.0000      -0.415706       -11.3119
 247   2.0000      -0.414869       -11.2891
 248   2.0000      -0.409926       -11.1547
 249   2.0000      -0.408400       -11.1131
 250   2.0000      -0.406196       -11.0531
 251   2.0000      -0.402357       -10.9487
 252   2.0000      -0.397448       -10.8151
 253   2.0000      -0.395843       -10.7714
 254   2.0000      -0.392792       -10.6884
 255   2.0000      -0.385157       -10.4807
 256   2.0000      -0.381028       -10.3683
 257   2.0000      -0.378807       -10.3079
 258   2.0000      -0.377328       -10.2676
 259   2.0000      -0.375558       -10.2194
 260   2.0000      -0.372691       -10.1414
 261   2.0000      -0.366539        -9.9740
 262   2.0000      -0.354955        -9.6588
 263   2.0000      -0.349669        -9.5150
 264   2.0000      -0.340159        -9.2562
 265   2.0000      -0.335302        -9.1240
 266   2.0000      -0.331837        -9.0297
 267   2.0000      -0.326963        -8.8971
 268   2.0000      -0.320112        -8.7107
 269   2.0000      -0.317072        -8.6280
 270   2.0000      -0.316408        -8.6099
 271   2.0000      -0.312639        -8.5073
 272   2.0000      -0.310287        -8.4433
 273   2.0000      -0.308324        -8.3899
 274   2.0000      -0.307365        -8.3638
 275   2.0000      -0.299220        -8.1422
 276   2.0000      -0.293857        -7.9963
 277   2.0000      -0.289640        -7.8815
 278   2.0000      -0.285983        -7.7820
 279   2.0000      -0.260166        -7.0795
 280   2.0000      -0.217560        -5.9201
 281   0.0000      -0.085141        -2.3168
 282   0.0000      -0.080777        -2.1981
 283   0.0000      -0.069507        -1.8914
 284   0.0000      -0.051689        -1.4065
 285   0.0000      -0.049155        -1.3376

MULLIKEN ATOMIC CHARGES
-----------------------
   0 C :    0.293679
   1 C :   -0.339600
   2 C :   -0.183147
   3 N :    0.158057
   4 C :   -0.195821
   5 N :    0.160836
   6 C :    0.036580
   7 C :   -0.009881
   8 C :   -0.082004
   9 C :    0.114792
  10 C :   -0.098994
  11 C :   -0.019086
  12 S :    0.128847
  13 C :   -0.051036
  14 C :    0.024341
  15 C :    0.146647
  16 O :   -0.135601
  17 C :   -0.061200
  18 C :   -0.069831
  19 C :    0.098395
  20 C :    0.135064
  21 C :   -0.081622
  22 C :    0.017587
  23 C :   -0.003463
  24 C :   -0.055466
  25 N :   -0.011577
  26 C :    0.019524
  27 C :    0.026067
  28 N :   -0.018064
  29 C :   -0.031085
  30 C :   -0.071390
  31 C :    0.062935
  32 C :    0.031652
  33 C :   -0.076059
  34 S :    0.076654
  35 C :   -0.034340
  36 C :    0.020277
  37 C :    0.050674
  38 C :   -0.021992
  39 S :    0.040868
  40 C :   -0.000342
  41 C :    0.136298
  42 C :   -0.120058
  43 C :    0.039784
  44 C :    0.099611
  45 C :   -0.046854
  46 C :   -0.021606
  47 C :    0.106243
  48 C :    0.012126
  49 C :   -0.134712
  50 C :    0.075753
  51 C :    0.030054
  52 C :    0.049107
  53 C :    0.024964
  54 C :   -0.067469
  55 C :    0.094722
  56 C :   -0.009044
  57 C :   -0.049279
  58 C :    0.021836
  59 C :   -0.001823
  60 C :    0.046368
  61 C :   -0.118428
  62 C :    0.259497
  63 C :   -0.338704
  64 C :   -0.182178
  65 N :    0.152965
  66 C :   -0.191504
  67 N :    0.168838
  68 C :   -0.001663
  69 C :    0.002664
  70 C :    0.130767
  71 O :   -0.146964
  72 C :   -0.068020
  73 C :    0.107883
  74 C :   -0.091951
  75 C :   -0.022125
  76 S :    0.137580
  77 C :   -0.051789
  78 C :    0.025643
  79 H :   -0.016061
  80 H :   -0.008744
  81 H :    0.037630
  82 H :   -0.007804
  83 H :    0.047343
  84 H :   -0.031653
  85 H :   -0.017498
  86 H :    0.011562
  87 H :    0.010297
  88 H :    0.004542
  89 H :   -0.014055
  90 H :   -0.011330
  91 H :   -0.017856
  92 H :   -0.011726
  93 H :   -0.021571
  94 H :   -0.039403
  95 H :   -0.025072
  96 H :   -0.019171
  97 H :    0.010269
  98 H :    0.009864
  99 H :    0.021543
 100 H :    0.015096
 101 H :   -0.000076
 102 H :    0.005956
 103 H :   -0.001984
 104 H :    0.021606
 105 H :    0.008336
 106 H :    0.017691
 107 H :   -0.024955
 108 H :   -0.027875
 109 H :   -0.027554
 110 H :    0.006122
 111 H :    0.006133
 112 H :    0.025604
 113 H :   -0.011766
 114 H :   -0.004704
 115 H :    0.038506
 116 H :   -0.007649
Sum of atomic charges:   -0.0000000

LOEWDIN ATOMIC CHARGES
----------------------
   0 C :    0.072029
   1 C :   -0.137853
   2 C :   -0.023348
   3 N :   -0.051663
   4 C :   -0.017472
   5 N :   -0.055885
   6 C :   -0.016825
   7 C :   -0.048099
   8 C :    0.019636
   9 C :   -0.037200
  10 C :   -0.146361
  11 C :   -0.007847
  12 S :    0.420149
  13 C :   -0.151977
  14 C :   -0.058178
  15 C :    0.082747
  16 O :   -0.135633
  17 C :   -0.080815
  18 C :    0.057959
  19 C :   -0.022351
  20 C :   -0.008877
  21 C :   -0.000267
  22 C :   -0.010234
  23 C :   -0.015947
  24 C :    0.010991
  25 N :   -0.037215
  26 C :   -0.000345
  27 C :    0.003927
  28 N :   -0.041939
  29 C :   -0.049061
  30 C :   -0.147857
  31 C :   -0.029681
  32 C :   -0.031267
  33 C :   -0.186967
  34 S :    0.383937
  35 C :   -0.176871
  36 C :   -0.047163
  37 C :   -0.018272
  38 C :   -0.149952
  39 S :    0.395743
  40 C :   -0.020934
  41 C :   -0.026080
  42 C :   -0.014980
  43 C :    0.003932
  44 C :   -0.013969
  45 C :   -0.007233
  46 C :   -0.017832
  47 C :   -0.004178
  48 C :    0.007878
  49 C :   -0.034647
  50 C :   -0.007810
  51 C :   -0.059792
  52 C :   -0.016058
  53 C :   -0.057516
  54 C :    0.000630
  55 C :   -0.035763
  56 C :   -0.008383
  57 C :   -0.018769
  58 C :    0.041685
  59 C :   -0.044832
  60 C :    0.071230
  61 C :   -0.096297
  62 C :    0.067663
  63 C :   -0.142592
  64 C :   -0.020239
  65 N :   -0.056294
  66 C :   -0.012216
  67 N :   -0.050116
  68 C :   -0.020089
  69 C :   -0.054682
  70 C :    0.082530
  71 O :   -0.147112
  72 C :    0.022627
  73 C :   -0.036440
  74 C :   -0.145243
  75 C :   -0.011725
  76 S :    0.427006
  77 C :   -0.151049
  78 C :   -0.057999
  79 H :    0.037995
  80 H :    0.039445
  81 H :    0.028937
  82 H :    0.034987
  83 H :    0.044582
  84 H :    0.035558
  85 H :    0.040690
  86 H :    0.025852
  87 H :    0.025669
  88 H :    0.039600
  89 H :    0.031859
  90 H :    0.032488
  91 H :    0.029447
  92 H :    0.034444
  93 H :    0.035226
  94 H :    0.023383
  95 H :    0.032133
  96 H :    0.009056
  97 H :    0.029240
  98 H :    0.024866
  99 H :    0.024524
 100 H :    0.028988
 101 H :    0.018237
 102 H :    0.019633
 103 H :    0.020487
 104 H :    0.025814
 105 H :    0.023207
 106 H :    0.023791
 107 H :    0.027682
 108 H :    0.027184
 109 H :    0.030131
 110 H :    0.032062
 111 H :    0.034553
 112 H :    0.045978
 113 H :    0.040213
 114 H :    0.040236
 115 H :    0.028916
 116 H :    0.034897

  Mayer bond orders larger than 0.100000
B(  0-C ,  1-C ) :   1.6776 B(  0-C ,  6-C ) :   1.0192 B(  0-C , 17-C ) :   1.0186
B(  1-C ,  2-C ) :   1.1322 B(  1-C ,  4-C ) :   1.1527 B(  2-C ,  3-N ) :   2.9332
B(  4-C ,  5-N ) :   2.9655 B(  6-C ,  7-C ) :   1.2655 B(  6-C , 11-C ) :   1.4109
B(  7-C ,  8-C ) :   1.4140 B(  7-C , 15-C ) :   0.9306 B(  8-C ,  9-C ) :   1.2539
B(  8-C , 79-H ) :   1.0176 B(  9-C , 10-C ) :   1.2958 B(  9-C , 14-C ) :   1.1678
B( 10-C , 11-C ) :   1.3381 B( 10-C , 12-S ) :   1.0903 B( 11-C , 80-H ) :   0.9777
B( 12-S , 13-C ) :   1.1195 B( 13-C , 14-C ) :   1.6303 B( 13-C , 81-H ) :   0.9693
B( 14-C , 82-H ) :   1.0004 B( 15-C , 16-O ) :   2.2534 B( 15-C , 17-C ) :   0.9176
B( 17-C , 18-C ) :   1.7636 B( 18-C , 19-C ) :   1.0076 B( 18-C , 83-H ) :   0.9327
B( 19-C , 20-C ) :   1.2224 B( 19-C , 24-C ) :   1.4333 B( 20-C , 21-C ) :   1.3953
B( 20-C , 29-C ) :   1.0444 B( 21-C , 22-C ) :   1.2074 B( 21-C , 24-C ) :   0.1000
B( 21-C , 84-H ) :   1.0221 B( 22-C , 23-C ) :   1.2435 B( 22-C , 28-N ) :   1.4239
B( 23-C , 24-C ) :   1.2023 B( 23-C , 25-N ) :   1.4349 B( 24-C , 85-H ) :   1.0188
B( 25-N , 26-C ) :   1.6649 B( 26-C , 27-C ) :   1.2277 B( 26-C , 86-H ) :   0.9742
B( 27-C , 28-N ) :   1.6708 B( 27-C , 87-H ) :   0.9734 B( 29-C , 30-C ) :   1.6770
B( 29-C , 88-H ) :   0.9596 B( 30-C , 31-C ) :   1.0946 B( 30-C , 34-S ) :   1.0245
B( 31-C , 32-C ) :   1.6329 B( 31-C , 89-H ) :   0.9993 B( 32-C , 33-C ) :   1.1493
B( 32-C , 90-H ) :   0.9925 B( 33-C , 34-S ) :   1.0361 B( 33-C , 35-C ) :   1.5505
B( 35-C , 36-C ) :   1.1512 B( 35-C , 39-S ) :   1.0466 B( 36-C , 37-C ) :   1.6107
B( 36-C , 91-H ) :   0.9947 B( 37-C , 38-C ) :   1.1209 B( 37-C , 92-H ) :   1.0004
B( 38-C , 39-S ) :   1.0132 B( 38-C , 40-C ) :   1.6051 B( 40-C , 41-C ) :   1.0998
B( 40-C , 93-H ) :   0.9698 B( 41-C , 42-C ) :   1.2612 B( 41-C , 46-C ) :   1.3155
B( 42-C , 43-C ) :   1.3887 B( 42-C , 94-H ) :   1.0096 B( 43-C , 44-C ) :   1.3679
B( 43-C , 49-C ) :   0.9184 B( 44-C , 45-C ) :   1.3192 B( 44-C , 47-C ) :   1.0047
B( 45-C , 46-C ) :   1.4234 B( 45-C , 95-H ) :   0.9937 B( 46-C , 96-H ) :   0.9710
B( 47-C , 48-C ) :   1.3552 B( 47-C , 57-C ) :   1.3380 B( 48-C , 49-C ) :   0.9269
B( 48-C , 54-C ) :   1.4086 B( 49-C , 50-C ) :   1.0141 B( 49-C , 52-C ) :   1.0324
B( 50-C , 51-C ) :   1.1152 B( 50-C , 97-H ) :   0.9381 B( 50-C , 98-H ) :   0.9379
B( 51-C , 99-H ) :   0.9603 B( 51-C ,100-H ) :   0.9594 B( 51-C ,101-H ) :   0.9624
B( 52-C , 53-C ) :   1.1050 B( 52-C ,102-H ) :   0.9381 B( 52-C ,103-H ) :   0.9395
B( 53-C ,104-H ) :   0.9646 B( 53-C ,105-H ) :   0.9647 B( 53-C ,106-H ) :   0.9626
B( 54-C , 55-C ) :   1.2997 B( 54-C ,107-H ) :   0.9961 B( 55-C , 56-C ) :   1.3255
B( 55-C , 58-C ) :   1.0882 B( 56-C , 57-C ) :   1.3786 B( 56-C ,108-H ) :   0.9950
B( 57-C ,109-H ) :   0.9935 B( 58-C , 59-C ) :   1.6757 B( 58-C ,110-H ) :   0.9728
B( 59-C , 60-C ) :   1.1295 B( 59-C ,111-H ) :   0.9545 B( 60-C , 61-C ) :   1.6785
B( 60-C ,112-H ) :   0.9321 B( 61-C , 62-C ) :   1.0319 B( 61-C , 70-C ) :   0.9438
B( 62-C , 63-C ) :   1.6536 B( 62-C , 68-C ) :   1.0105 B( 63-C , 64-C ) :   1.1310
B( 63-C , 66-C ) :   1.1627 B( 64-C , 65-N ) :   2.9906 B( 66-C , 67-N ) :   3.0032
B( 68-C , 69-C ) :   1.2697 B( 68-C , 75-C ) :   1.4163 B( 69-C , 70-C ) :   0.9201
B( 69-C , 72-C ) :   1.4266 B( 70-C , 71-O ) :   2.2679 B( 72-C , 73-C ) :   1.2535
B( 72-C ,113-H ) :   1.0162 B( 73-C , 74-C ) :   1.3038 B( 73-C , 78-C ) :   1.1693
B( 74-C , 75-C ) :   1.3221 B( 74-C , 76-S ) :   1.0951 B( 75-C ,114-H ) :   0.9866
B( 76-S , 77-C ) :   1.1252 B( 77-C , 78-C ) :   1.6316 B( 77-C ,115-H ) :   0.9684
B( 78-C ,116-H ) :   1.0002

-----------------------------------------------------------------------------
         ABSORPTION SPECTRUM VIA TRANSITION ELECTRIC DIPOLE MOMENTS
-----------------------------------------------------------------------------
State   Energy  Wavelength   fosc         T2         TX        TY        TZ
        (cm-1)    (nm)                  (au**2)     (au)      (au)      (au)
-----------------------------------------------------------------------------
   0   11516.4    868.3   0.025471925   0.72815   0.37888   0.12796   0.75381
   1   16687.4    599.3   1.304458441  25.73456   1.20250  -3.31408   3.64766
   2   18111.5    552.1   0.235966478   4.28915   0.23454   1.35297  -1.55036
   3   19589.9    510.5   0.276361656   4.64432  -1.94644   0.81953   0.42903
   4   23398.7    427.4   0.123511694   1.73777   0.62431   0.82020  -0.82176
   5   24237.4    412.6   0.110222216   1.49713  -0.13818   0.34317  -1.16631
   6   24827.6    402.8   0.073684435   0.97705  -0.73046  -0.09095   0.65970
   7   26889.9    371.9   0.227897290   2.79013   0.11168   1.01548  -1.32154
   8   27271.6    366.7   0.119161165   1.43847   0.35620  -1.14524   0.00247
   9   27843.4    359.2   0.096402611   1.13983  -0.54426   0.76817   0.50351
  10   28157.6    355.1   0.582607869   6.81171  -1.33965   0.43021   2.19818
  11   28601.4    349.6   0.152891043   1.75983   0.38631  -0.32258  -1.22741
  12   29005.4    344.8   0.002484129   0.02819   0.05245  -0.14282  -0.07103
  13   29585.7    338.0   0.070765507   0.78744   0.04008   0.12958   0.87695
  14   29656.9    337.2   0.157665454   1.75019  -0.80773   0.04853   1.04662
  15   29943.8    334.0   0.030930809   0.34006  -0.02901   0.57024  -0.11852
  16   30079.4    332.5   0.009658231   0.10571  -0.11300  -0.20884  -0.22209
  17   30774.7    324.9   0.035845032   0.38345   0.01183   0.26111  -0.56137
  18   30859.2    324.1   0.075768270   0.80831  -0.26192  -0.09064   0.85527
  19   30896.6    323.7   0.038332588   0.40844   0.41938  -0.45672  -0.15482
  20   31547.5    317.0   0.004407787   0.04600  -0.02653  -0.17915  -0.11489
  21   31826.0    314.2   0.129598762   1.34059  -0.42675   0.26292  -1.04372
  22   31951.2    313.0   0.006106694   0.06292   0.17504  -0.14271  -0.10916
  23   32239.6    310.2   0.050297014   0.51360  -0.22725  -0.06490   0.67657
  24   32423.9    308.4   0.063970085   0.64951  -0.73306  -0.29519  -0.15811
  25   32565.1    307.1   0.044848821   0.45339  -0.13029   0.37373   0.54474
  26   32845.5    304.5   0.129680679   1.29980  -0.66808   0.16616   0.90877
  27   33172.2    301.5   0.284027763   2.81879   0.39990  -0.26516  -1.60890
  28   33363.9    299.7   0.358071365   3.53320  -0.85581   1.24334   1.12022
  29   33784.4    296.0   0.046944775   0.45745   0.40038  -0.29831  -0.45625
  30   33923.7    294.8   0.259741026   2.52065   0.13818   0.03975  -1.58113
  31   34328.7    291.3   0.109599232   1.05105  -0.49121  -0.06574   0.89747
  32   34727.3    288.0   0.174856950   1.65763   0.20497   0.25014  -1.24621
  33   34915.1    286.4   0.069914919   0.65922  -0.26421   0.21916  -0.73579
  34   34962.6    286.0   0.064023302   0.60285  -0.49392   0.16132   0.57695
  35   35044.2    285.4   0.187402680   1.76050   0.96985  -0.65830  -0.62171
  36   35125.2    284.7   0.092264879   0.86476  -0.21034  -0.67068   0.60885
  37   35231.7    283.8   0.096989823   0.90629   0.37097   0.21110  -0.85095
  38   35538.5    281.4   0.026520470   0.24567  -0.11777   0.30838  -0.36974
  39   35859.7    278.9   0.175593813   1.61205   0.65115  -0.38134  -1.02109
  40   36273.2    275.7   0.054281270   0.49265   0.22197   0.28044  -0.60393
  41   36696.2    272.5   0.036716646   0.32940   0.12497   0.21555  -0.51702
  42   36987.9    270.4   0.026607931   0.23682  -0.15802   0.27311   0.37049
  43   37300.6    268.1   0.056084694   0.49500   0.36802  -0.42594   0.42206
  44   37648.5    265.6   0.159428416   1.39410   0.50751  -0.44733  -0.96769
  45   37921.1    263.7   0.115961202   1.00672  -0.61644  -0.00656   0.79163
  46   37992.4    263.2   0.003207369   0.02779   0.05092  -0.13312   0.08649
  47   38028.6    263.0   0.070653051   0.61164   0.60810  -0.23702  -0.43090
  48   38208.3    261.7   0.026341665   0.22697  -0.26162   0.35751   0.17524
  49   38290.0    261.2   0.016075975   0.13822   0.22529  -0.29501   0.02087
  50   38437.5    260.2   0.008597534   0.07364  -0.11129   0.24595  -0.02759
  51   38845.0    257.4   0.176572300   1.49645   0.73723  -0.91896  -0.32933
  52   38958.2    256.7   0.027036015   0.22846   0.35692  -0.18435   0.25901
  53   39098.1    255.8   0.025742035   0.21675   0.14249  -0.33646  -0.28852
  54   39324.4    254.3   0.043536196   0.36447   0.44745  -0.37011   0.16515
  55   39585.4    252.6   0.160070783   1.33123   0.81880  -0.65579   0.48035
  56   39769.9    251.4   0.103883261   0.85994   0.54914   0.48207   0.57095
  57   39973.7    250.2   0.041420749   0.34113   0.16644  -0.16963  -0.53353
  58   40050.0    249.7   0.040390013   0.33201  -0.44500   0.25546   0.26216
  59   40145.0    249.1   0.038213645   0.31337   0.33115  -0.36550   0.26481

FINAL SINGLE POINT ENERGY     -4643.224768762978

DIPOLE MOMENT
-------------
                                X             Y             Z
Electronic contribution:    -37.92179      15.18610      -7.72483
Nuclear contribution   :     38.76334     -13.79517       6.02392
                        -----------------------------------------
Total Dipole Moment    :      0.84155       1.39093      -1.70091
                        -----------------------------------------
Magnitude (a.u.)       :      2.35287
Magnitude (Debye)      :      5.98052

Rotational constants in cm-1:     0.001238     0.000258     0.000230
Rotational constants in MHz :    37.104272     7.748359     6.893226

                             ****ORCA TERMINATED NORMALLY****
TOTAL RUN TIME: 0 days 0 hours 13 minutes 26 seconds 625 msec
