                         Program Version 4.2.0 -  RELEASE  -
|  1> # ORCA input file
|  2> # SCF done       -198.563760461024          0.000477537839
|  3> ! CAM-B3LYP def2-SVP def2/J RIJCOSX Grid4 TightSCF
|  4> %maxcore 5000
|  5> %tddft
|  6>     Mode sTDDFT
|  7>     Ethresh 5.0
|  8>     maxcore 5000
|  9> end
| 10>
| 11> %pal
| 12>   nprocs 6
| 13>   end
| 14> * xyz 0 1
| 15>    C       -3.30796        -1.20611         1.07240
| 16>    C       -3.16163        -2.04741         0.00011
| 17>    C       -2.46885        -3.27430         0.04688
| 18>    N       -1.91103        -4.27773         0.02497
| 19>    C       -3.72002        -1.82443        -1.27633
| 20>    N       -4.17078        -1.73432        -2.32850
| 21>    C       -2.85486        -1.46381         2.43242
| 22>    C       -3.33130        -0.42707         3.27343
| 23>    C       -3.07147        -0.39281         4.62213
| 24>    C       -2.31102        -1.43107         5.16874
| 25>    C       -1.83645        -2.45934         4.32009
| 26>    C       -2.09565        -2.49365         2.95505
| 27>    S       -0.91087        -3.62926         5.20779
| 28>    C       -1.16431        -2.75140         6.67673
| 29>    C       -1.90564        -1.63344         6.51835
| 30>    C       -4.07915         0.55894         2.47118
| 31>    O       -4.52350         1.61559         2.86798
| 32>    C       -4.03548         0.04797         1.07558
| 33>    C       -4.42675         0.75763        -0.01825
| 34>    C       -5.28711         1.89451         0.01592
| 35>    C       -5.09503         2.96942        -0.87692
| 36>    C       -5.89641         4.16747        -0.81004
| 37>    N       -5.57110         5.21576        -1.58223
| 38>    C       -4.58131         5.11217        -2.43587
| 39>    C       -3.84507         3.88988        -2.56113
| 40>    N       -4.09629         2.87452        -1.77253
| 41>    C       -2.82135         3.78506        -3.53526
| 42>    N       -2.00195         3.75416        -4.33544
| 43>    C       -4.26917         6.23681        -3.23792
| 44>    N       -4.02810         7.13607        -3.90631
| 45>    C       -6.96904         4.30394         0.10489
| 46>    C       -7.21081         3.19021         0.93183
| 47>    C       -6.39228         1.99948         0.88236
| 48>    N       -6.85431         1.04389         1.68726
| 49>    S       -8.14634         1.59436         2.45898
| 50>    N       -8.21762         3.05388         1.80165
| 51>    C       -7.72461         5.53411         0.21389
| 52>    C       -7.95663         6.34322        -0.91095
| 53>    C       -8.55206         7.56642        -0.74942
| 54>    C       -8.95613         8.00967         0.52442
| 55>    C       -8.78861         7.18805         1.63393
| 56>    C       -8.17993         5.96313         1.47132
| 57>    C       -9.47713         9.34682         0.40016
| 58>    C       -9.38753         9.74184        -0.95046
| 59>    C       -8.82969         8.61972        -1.79482
| 60>    C       -7.53816         9.03575        -2.52354
| 61>    C       -6.43959         9.49405        -1.57297
| 62>    C       -9.86638         8.13173        -2.82505
| 63>    C      -11.17841         7.69256        -2.18619
| 64>    C       -9.76946        10.99741        -1.34195
| 65>    C      -10.25927        11.90782        -0.38495
| 66>    C      -10.36767        11.48438         0.95382
| 67>    C       -9.98271        10.22484         1.35284
| 68>    C      -10.63325        13.24965        -0.71050
| 69>    C      -10.51864        13.85601        -1.92489
| 70>    C      -10.87084        15.19462        -2.15633
| 71>    C      -10.74020        15.83002        -3.36719
| 72>    C      -11.05811        17.17761        -3.66190
| 73>    C      -10.82323        17.53947        -4.95393
| 74>    C      -10.31010        16.49670        -5.75642
| 75>    S      -10.12651        15.03661        -4.81098
| 76>    C       -9.98900        16.53617        -7.09949
| 77>    C      -10.13296        17.61691        -7.99899
| 78>    C       -9.75788        17.31877        -9.27150
| 79>    C       -9.30533        15.98395        -9.45932
| 80>    S       -9.34986        15.13193        -7.92873
| 81>    C       -8.84879        15.49005       -10.65360
| 82>    C       -8.36822        14.21200       -11.01053
| 83>    O       -7.57911        14.19262       -12.12635
| 84>    C       -7.11508        12.94301       -12.27464
| 85>    C       -7.58291        12.11531       -11.29930
| 86>    C       -7.31319        10.66206       -11.13721
| 87>    C       -8.43213        12.91773       -10.47669
| 88>    C       -9.24866        12.39079        -9.42194
| 89>    C      -10.48927        12.82172        -9.13149
| 90>    C      -11.32891        12.29547        -8.07896
| 91>    C      -10.89980        11.63199        -7.00817
| 92>    H       -3.44552         0.41129         5.23692
| 93>    H       -1.70534        -3.29354         2.34801
| 94>    H       -0.73432        -3.13340         7.58221
| 95>    H       -2.16386        -0.96381         7.31879
| 96>    H       -4.03248         0.50472        -0.99453
| 97>    H       -7.66756         5.99909        -1.89011
| 98>    H       -9.10624         7.51335         2.61323
| 99>    H       -8.00858         5.33140         2.32792
|100>    H       -7.77411         9.84149        -3.22172
|101>    H       -7.17289         8.18690        -3.10438
|102>    H       -6.76579        10.35185        -0.98805
|103>    H       -5.55535         9.77477        -2.13960
|104>    H       -6.16614         8.69292        -0.89032
|105>    H       -9.43608         7.29610        -3.38061
|106>    H      -10.06025         8.93978        -3.53369
|107>    H      -11.01153         6.87562        -1.48760
|108>    H      -11.87192         7.35340        -2.95237
|109>    H      -11.63921         8.51687        -1.64597
|110>    H       -9.69211        11.29151        -2.37698
|111>    H      -10.75393        12.18044         1.68499
|112>    H      -10.06450         9.92656         2.38737
|113>    H      -11.02527        13.83992         0.10949
|114>    H      -10.12638        13.31246        -2.77370
|115>    H      -11.26325        15.77501        -1.33126
|116>    H      -11.44992        17.83666        -2.90719
|117>    H      -11.00494        18.52242        -5.34983
|118>    H      -10.51488        18.57224        -7.68742
|119>    H       -9.79949        18.01062       -10.09435
|120>    H       -8.75548        16.21597       -11.45353
|121>    H       -6.46391        12.75921       -13.10706
|122>    H       -6.64859        10.31298       -11.92268
|123>    H       -8.24268        10.09622       -11.18353
|124>    H       -6.84818        10.46698       -10.17180
|125>    H       -8.84141        11.53753        -8.89768
|126>    H      -10.93149        13.59077        -9.75186
|127>    H      -12.38640        12.50428        -8.18269
|128>    H       -9.85460        11.43794        -6.83907
|129>    H      -11.58139        11.27843        -6.25405
|130> *
|131>
|132>                          ****END OF INPUT****

CARTESIAN COORDINATES (ANGSTROEM)
---------------------------------
  C     -3.307960   -1.206110    1.072400
  C     -3.161630   -2.047410    0.000110
  C     -2.468850   -3.274300    0.046880
  N     -1.911030   -4.277730    0.024970
  C     -3.720020   -1.824430   -1.276330
  N     -4.170780   -1.734320   -2.328500
  C     -2.854860   -1.463810    2.432420
  C     -3.331300   -0.427070    3.273430
  C     -3.071470   -0.392810    4.622130
  C     -2.311020   -1.431070    5.168740
  C     -1.836450   -2.459340    4.320090
  C     -2.095650   -2.493650    2.955050
  S     -0.910870   -3.629260    5.207790
  C     -1.164310   -2.751400    6.676730
  C     -1.905640   -1.633440    6.518350
  C     -4.079150    0.558940    2.471180
  O     -4.523500    1.615590    2.867980
  C     -4.035480    0.047970    1.075580
  C     -4.426750    0.757630   -0.018250
  C     -5.287110    1.894510    0.015920
  C     -5.095030    2.969420   -0.876920
  C     -5.896410    4.167470   -0.810040
  N     -5.571100    5.215760   -1.582230
  C     -4.581310    5.112170   -2.435870
  C     -3.845070    3.889880   -2.561130
  N     -4.096290    2.874520   -1.772530
  C     -2.821350    3.785060   -3.535260
  N     -2.001950    3.754160   -4.335440
  C     -4.269170    6.236810   -3.237920
  N     -4.028100    7.136070   -3.906310
  C     -6.969040    4.303940    0.104890
  C     -7.210810    3.190210    0.931830
  C     -6.392280    1.999480    0.882360
  N     -6.854310    1.043890    1.687260
  S     -8.146340    1.594360    2.458980
  N     -8.217620    3.053880    1.801650
  C     -7.724610    5.534110    0.213890
  C     -7.956630    6.343220   -0.910950
  C     -8.552060    7.566420   -0.749420
  C     -8.956130    8.009670    0.524420
  C     -8.788610    7.188050    1.633930
  C     -8.179930    5.963130    1.471320
  C     -9.477130    9.346820    0.400160
  C     -9.387530    9.741840   -0.950460
  C     -8.829690    8.619720   -1.794820
  C     -7.538160    9.035750   -2.523540
  C     -6.439590    9.494050   -1.572970
  C     -9.866380    8.131730   -2.825050
  C    -11.178410    7.692560   -2.186190
  C     -9.769460   10.997410   -1.341950
  C    -10.259270   11.907820   -0.384950
  C    -10.367670   11.484380    0.953820
  C     -9.982710   10.224840    1.352840
  C    -10.633250   13.249650   -0.710500
  C    -10.518640   13.856010   -1.924890
  C    -10.870840   15.194620   -2.156330
  C    -10.740200   15.830020   -3.367190
  C    -11.058110   17.177610   -3.661900
  C    -10.823230   17.539470   -4.953930
  C    -10.310100   16.496700   -5.756420
  S    -10.126510   15.036610   -4.810980
  C     -9.989000   16.536170   -7.099490
  C    -10.132960   17.616910   -7.998990
  C     -9.757880   17.318770   -9.271500
  C     -9.305330   15.983950   -9.459320
  S     -9.349860   15.131930   -7.928730
  C     -8.848790   15.490050  -10.653600
  C     -8.368220   14.212000  -11.010530
  O     -7.579110   14.192620  -12.126350
  C     -7.115080   12.943010  -12.274640
  C     -7.582910   12.115310  -11.299300
  C     -7.313190   10.662060  -11.137210
  C     -8.432130   12.917730  -10.476690
  C     -9.248660   12.390790   -9.421940
  C    -10.489270   12.821720   -9.131490
  C    -11.328910   12.295470   -8.078960
  C    -10.899800   11.631990   -7.008170
  H     -3.445520    0.411290    5.236920
  H     -1.705340   -3.293540    2.348010
  H     -0.734320   -3.133400    7.582210
  H     -2.163860   -0.963810    7.318790
  H     -4.032480    0.504720   -0.994530
  H     -7.667560    5.999090   -1.890110
  H     -9.106240    7.513350    2.613230
  H     -8.008580    5.331400    2.327920
  H     -7.774110    9.841490   -3.221720
  H     -7.172890    8.186900   -3.104380
  H     -6.765790   10.351850   -0.988050
  H     -5.555350    9.774770   -2.139600
  H     -6.166140    8.692920   -0.890320
  H     -9.436080    7.296100   -3.380610
  H    -10.060250    8.939780   -3.533690
  H    -11.011530    6.875620   -1.487600
  H    -11.871920    7.353400   -2.952370
  H    -11.639210    8.516870   -1.645970
  H     -9.692110   11.291510   -2.376980
  H    -10.753930   12.180440    1.684990
  H    -10.064500    9.926560    2.387370
  H    -11.025270   13.839920    0.109490
  H    -10.126380   13.312460   -2.773700
  H    -11.263250   15.775010   -1.331260
  H    -11.449920   17.836660   -2.907190
  H    -11.004940   18.522420   -5.349830
  H    -10.514880   18.572240   -7.687420
  H     -9.799490   18.010620  -10.094350
  H     -8.755480   16.215970  -11.453530
  H     -6.463910   12.759210  -13.107060
  H     -6.648590   10.312980  -11.922680
  H     -8.242680   10.096220  -11.183530
  H     -6.848180   10.466980  -10.171800
  H     -8.841410   11.537530   -8.897680
  H    -10.931490   13.590770   -9.751860
  H    -12.386400   12.504280   -8.182690
  H     -9.854600   11.437940   -6.839070
  H    -11.581390   11.278430   -6.254050

 Total Charge           Charge          ....    0
 Multiplicity           Mult            ....    1
 Number of Electrons    NEL             ....  552
 Basis Dimension        Dim             .... 1284

ORBITAL ENERGIES
----------------

  NO   OCC          E(Eh)            E(eV)
   0   2.0000     -89.047404     -2423.1031
   1   2.0000     -88.966982     -2420.9147
   2   2.0000     -88.938621     -2420.1429
   3   2.0000     -88.938523     -2420.1403
   4   2.0000     -19.270293      -524.3713
   5   2.0000     -19.215434      -522.8785
   6   2.0000     -14.465499      -393.6262
   7   2.0000     -14.464831      -393.6081
   8   2.0000     -14.455832      -393.3632
   9   2.0000     -14.449631      -393.1944
  10   2.0000     -14.432147      -392.7187
  11   2.0000     -14.431028      -392.6882
  12   2.0000     -14.414588      -392.2409
  13   2.0000     -14.412661      -392.1885
  14   2.0000     -10.387108      -282.6476
  15   2.0000     -10.381585      -282.4973
  16   2.0000     -10.366705      -282.0924
  17   2.0000     -10.354718      -281.7662
  18   2.0000     -10.351201      -281.6705
  19   2.0000     -10.343882      -281.4713
  20   2.0000     -10.343620      -281.4642
  21   2.0000     -10.342160      -281.4245
  22   2.0000     -10.339143      -281.3424
  23   2.0000     -10.329969      -281.0927
  24   2.0000     -10.324830      -280.9529
  25   2.0000     -10.324551      -280.9453
  26   2.0000     -10.321002      -280.8487
  27   2.0000     -10.317239      -280.7464
  28   2.0000     -10.316951      -280.7385
  29   2.0000     -10.316422      -280.7241
  30   2.0000     -10.315028      -280.6862
  31   2.0000     -10.314935      -280.6837
  32   2.0000     -10.312537      -280.6184
  33   2.0000     -10.306975      -280.4670
  34   2.0000     -10.306173      -280.4452
  35   2.0000     -10.304787      -280.4075
  36   2.0000     -10.303247      -280.3656
  37   2.0000     -10.302345      -280.3411
  38   2.0000     -10.302253      -280.3386
  39   2.0000     -10.302235      -280.3381
  40   2.0000     -10.300574      -280.2929
  41   2.0000     -10.299500      -280.2637
  42   2.0000     -10.299170      -280.2547
  43   2.0000     -10.291813      -280.0545
  44   2.0000     -10.290417      -280.0165
  45   2.0000     -10.289810      -280.0000
  46   2.0000     -10.284131      -279.8454
  47   2.0000     -10.280263      -279.7402
  48   2.0000     -10.280205      -279.7386
  49   2.0000     -10.279593      -279.7219
  50   2.0000     -10.278994      -279.7056
  51   2.0000     -10.278462      -279.6912
  52   2.0000     -10.277500      -279.6650
  53   2.0000     -10.277420      -279.6628
  54   2.0000     -10.276939      -279.6497
  55   2.0000     -10.276561      -279.6394
  56   2.0000     -10.274819      -279.5921
  57   2.0000     -10.273373      -279.5527
  58   2.0000     -10.273204      -279.5481
  59   2.0000     -10.272858      -279.5387
  60   2.0000     -10.271074      -279.4901
  61   2.0000     -10.270628      -279.4780
  62   2.0000     -10.269799      -279.4554
  63   2.0000     -10.269754      -279.4542
  64   2.0000     -10.269420      -279.4451
  65   2.0000     -10.267971      -279.4057
  66   2.0000     -10.265251      -279.3317
  67   2.0000     -10.262258      -279.2502
  68   2.0000     -10.262208      -279.2489
  69   2.0000     -10.261486      -279.2292
  70   2.0000     -10.260894      -279.2131
  71   2.0000     -10.260799      -279.2105
  72   2.0000     -10.260651      -279.2065
  73   2.0000     -10.257642      -279.1246
  74   2.0000     -10.252781      -278.9924
  75   2.0000     -10.245859      -278.8040
  76   2.0000     -10.239285      -278.6251
  77   2.0000      -8.138626      -221.4633
  78   2.0000      -8.063216      -219.4113
  79   2.0000      -8.034706      -218.6355
  80   2.0000      -8.033905      -218.6137
  81   2.0000      -6.109555      -166.2494
  82   2.0000      -6.101775      -166.0377
  83   2.0000      -6.101715      -166.0361
  84   2.0000      -6.032752      -164.1595
  85   2.0000      -6.028416      -164.0415
  86   2.0000      -6.024876      -163.9452
  87   2.0000      -6.004461      -163.3897
  88   2.0000      -6.003578      -163.3657
  89   2.0000      -6.000444      -163.2804
  90   2.0000      -5.999430      -163.2528
  91   2.0000      -5.995580      -163.1480
  92   2.0000      -5.995062      -163.1339
  93   2.0000      -1.188478       -32.3401
  94   2.0000      -1.143466       -31.1153
  95   2.0000      -1.129361       -30.7315
  96   2.0000      -1.123784       -30.5797
  97   2.0000      -1.050410       -28.5831
  98   2.0000      -1.019289       -27.7363
  99   2.0000      -1.015791       -27.6411
 100   2.0000      -1.007598       -27.4181
 101   2.0000      -1.005793       -27.3690
 102   2.0000      -0.997884       -27.1538
 103   2.0000      -0.992013       -26.9940
 104   2.0000      -0.990737       -26.9593
 105   2.0000      -0.988653       -26.9026
 106   2.0000      -0.985385       -26.8137
 107   2.0000      -0.980216       -26.6730
 108   2.0000      -0.966688       -26.3049
 109   2.0000      -0.947536       -25.7838
 110   2.0000      -0.931577       -25.3495
 111   2.0000      -0.923028       -25.1169
 112   2.0000      -0.914782       -24.8925
 113   2.0000      -0.911394       -24.8003
 114   2.0000      -0.905391       -24.6369
 115   2.0000      -0.900661       -24.5082
 116   2.0000      -0.890307       -24.2265
 117   2.0000      -0.886132       -24.1129
 118   2.0000      -0.881219       -23.9792
 119   2.0000      -0.878008       -23.8918
 120   2.0000      -0.872525       -23.7426
 121   2.0000      -0.856270       -23.3003
 122   2.0000      -0.847099       -23.0507
 123   2.0000      -0.837039       -22.7770
 124   2.0000      -0.836433       -22.7605
 125   2.0000      -0.833919       -22.6921
 126   2.0000      -0.833573       -22.6827
 127   2.0000      -0.829484       -22.5714
 128   2.0000      -0.825846       -22.4724
 129   2.0000      -0.823062       -22.3966
 130   2.0000      -0.816545       -22.2193
 131   2.0000      -0.811780       -22.0896
 132   2.0000      -0.801294       -21.8043
 133   2.0000      -0.794509       -21.6197
 134   2.0000      -0.780915       -21.2498
 135   2.0000      -0.777544       -21.1581
 136   2.0000      -0.760939       -20.7062
 137   2.0000      -0.759634       -20.6707
 138   2.0000      -0.756177       -20.5766
 139   2.0000      -0.745002       -20.2725
 140   2.0000      -0.736432       -20.0393
 141   2.0000      -0.722783       -19.6679
 142   2.0000      -0.720850       -19.6153
 143   2.0000      -0.712136       -19.3782
 144   2.0000      -0.707310       -19.2469
 145   2.0000      -0.697603       -18.9827
 146   2.0000      -0.694372       -18.8948
 147   2.0000      -0.689663       -18.7667
 148   2.0000      -0.685322       -18.6486
 149   2.0000      -0.676674       -18.4132
 150   2.0000      -0.674470       -18.3532
 151   2.0000      -0.670811       -18.2537
 152   2.0000      -0.669590       -18.2205
 153   2.0000      -0.662253       -18.0208
 154   2.0000      -0.659290       -17.9402
 155   2.0000      -0.653525       -17.7833
 156   2.0000      -0.651648       -17.7322
 157   2.0000      -0.642727       -17.4895
 158   2.0000      -0.641901       -17.4670
 159   2.0000      -0.633300       -17.2330
 160   2.0000      -0.627830       -17.0841
 161   2.0000      -0.624439       -16.9918
 162   2.0000      -0.619520       -16.8580
 163   2.0000      -0.617909       -16.8142
 164   2.0000      -0.613909       -16.7053
 165   2.0000      -0.608550       -16.5595
 166   2.0000      -0.604435       -16.4475
 167   2.0000      -0.596167       -16.2225
 168   2.0000      -0.593866       -16.1599
 169   2.0000      -0.592271       -16.1165
 170   2.0000      -0.582426       -15.8486
 171   2.0000      -0.581299       -15.8179
 172   2.0000      -0.577856       -15.7243
 173   2.0000      -0.575191       -15.6518
 174   2.0000      -0.568137       -15.4598
 175   2.0000      -0.565240       -15.3810
 176   2.0000      -0.559680       -15.2297
 177   2.0000      -0.551803       -15.0153
 178   2.0000      -0.546192       -14.8626
 179   2.0000      -0.543715       -14.7952
 180   2.0000      -0.541294       -14.7294
 181   2.0000      -0.539527       -14.6813
 182   2.0000      -0.539003       -14.6670
 183   2.0000      -0.536802       -14.6071
 184   2.0000      -0.535727       -14.5779
 185   2.0000      -0.533311       -14.5121
 186   2.0000      -0.531841       -14.4721
 187   2.0000      -0.524684       -14.2774
 188   2.0000      -0.522381       -14.2147
 189   2.0000      -0.519730       -14.1426
 190   2.0000      -0.517410       -14.0795
 191   2.0000      -0.515837       -14.0366
 192   2.0000      -0.514365       -13.9966
 193   2.0000      -0.513629       -13.9766
 194   2.0000      -0.510221       -13.8838
 195   2.0000      -0.507370       -13.8062
 196   2.0000      -0.500255       -13.6126
 197   2.0000      -0.497452       -13.5364
 198   2.0000      -0.495590       -13.4857
 199   2.0000      -0.492486       -13.4012
 200   2.0000      -0.491615       -13.3775
 201   2.0000      -0.490453       -13.3459
 202   2.0000      -0.489664       -13.3244
 203   2.0000      -0.486770       -13.2457
 204   2.0000      -0.484731       -13.1902
 205   2.0000      -0.484320       -13.1790
 206   2.0000      -0.484170       -13.1749
 207   2.0000      -0.482828       -13.1384
 208   2.0000      -0.479794       -13.0559
 209   2.0000      -0.479040       -13.0353
 210   2.0000      -0.473560       -12.8862
 211   2.0000      -0.472648       -12.8614
 212   2.0000      -0.467901       -12.7322
 213   2.0000      -0.467010       -12.7080
 214   2.0000      -0.466191       -12.6857
 215   2.0000      -0.461519       -12.5586
 216   2.0000      -0.458492       -12.4762
 217   2.0000      -0.457037       -12.4366
 218   2.0000      -0.455318       -12.3898
 219   2.0000      -0.454440       -12.3659
 220   2.0000      -0.453903       -12.3513
 221   2.0000      -0.452936       -12.3250
 222   2.0000      -0.449266       -12.2251
 223   2.0000      -0.448345       -12.2001
 224   2.0000      -0.446645       -12.1538
 225   2.0000      -0.444881       -12.1058
 226   2.0000      -0.442081       -12.0296
 227   2.0000      -0.441820       -12.0225
 228   2.0000      -0.439411       -11.9570
 229   2.0000      -0.437187       -11.8965
 230   2.0000      -0.434385       -11.8202
 231   2.0000      -0.432995       -11.7824
 232   2.0000      -0.432468       -11.7681
 233   2.0000      -0.432121       -11.7586
 234   2.0000      -0.428509       -11.6603
 235   2.0000      -0.427711       -11.6386
 236   2.0000      -0.424910       -11.5624
 237   2.0000      -0.423063       -11.5121
 238   2.0000      -0.421591       -11.4721
 239   2.0000      -0.420452       -11.4411
 240   2.0000      -0.418627       -11.3914
 241   2.0000      -0.417849       -11.3702
 242   2.0000      -0.415314       -11.3013
 243   2.0000      -0.412655       -11.2289
 244   2.0000      -0.412295       -11.2191
 245   2.0000      -0.411608       -11.2004
 246   2.0000      -0.408124       -11.1056
 247   2.0000      -0.405166       -11.0251
 248   2.0000      -0.402812       -10.9611
 249   2.0000      -0.398298       -10.8382
 250   2.0000      -0.397687       -10.8216
 251   2.0000      -0.391371       -10.6498
 252   2.0000      -0.386811       -10.5256
 253   2.0000      -0.381559       -10.3827
 254   2.0000      -0.381099       -10.3702
 255   2.0000      -0.379780       -10.3343
 256   2.0000      -0.375853       -10.2275
 257   2.0000      -0.375521       -10.2184
 258   2.0000      -0.363717        -9.8973
 259   2.0000      -0.357093        -9.7170
 260   2.0000      -0.352262        -9.5855
 261   2.0000      -0.346246        -9.4218
 262   2.0000      -0.342405        -9.3173
 263   2.0000      -0.334152        -9.0927
 264   2.0000      -0.328737        -8.9454
 265   2.0000      -0.324885        -8.8406
 266   2.0000      -0.320318        -8.7163
 267   2.0000      -0.315213        -8.5774
 268   2.0000      -0.314859        -8.5678
 269   2.0000      -0.312882        -8.5140
 270   2.0000      -0.299240        -8.1427
 271   2.0000      -0.293581        -7.9888
 272   2.0000      -0.279900        -7.6165
 273   2.0000      -0.266339        -7.2475
 274   2.0000      -0.249711        -6.7950
 275   2.0000      -0.201135        -5.4732
 276   0.0000      -0.127788        -3.4773
 277   0.0000      -0.081031        -2.2050
 278   0.0000      -0.075147        -2.0448
 279   0.0000      -0.057013        -1.5514
 280   0.0000      -0.048580        -1.3219

MULLIKEN ATOMIC CHARGES
-----------------------
   0 C :    0.294200
   1 C :   -0.338311
   2 C :   -0.183660
   3 N :    0.151855
   4 C :   -0.200065
   5 N :    0.167234
   6 C :    0.019765
   7 C :   -0.017389
   8 C :   -0.067721
   9 C :    0.114289
  10 C :   -0.095083
  11 C :   -0.024097
  12 S :    0.141904
  13 C :   -0.047041
  14 C :    0.023443
  15 C :    0.153573
  16 O :   -0.158315
  17 C :   -0.053945
  18 C :   -0.070947
  19 C :    0.066295
  20 C :   -0.042559
  21 C :   -0.063811
  22 N :    0.041422
  23 C :   -0.151968
  24 C :   -0.118634
  25 N :    0.059802
  26 C :   -0.206597
  27 N :    0.242669
  28 C :   -0.193327
  29 N :    0.228823
  30 C :    0.126844
  31 C :   -0.003300
  32 C :    0.033508
  33 N :   -0.272811
  34 S :    0.554875
  35 N :   -0.276637
  36 C :   -0.007560
  37 C :   -0.025361
  38 C :   -0.014359
  39 C :    0.125321
  40 C :   -0.062526
  41 C :    0.028420
  42 C :    0.095079
  43 C :    0.025475
  44 C :   -0.137773
  45 C :    0.064021
  46 C :    0.028214
  47 C :    0.073724
  48 C :    0.021279
  49 C :   -0.093494
  50 C :    0.134311
  51 C :   -0.016059
  52 C :   -0.042684
  53 C :   -0.023451
  54 C :    0.022800
  55 C :   -0.013729
  56 C :   -0.019782
  57 C :    0.035935
  58 C :    0.027392
  59 C :   -0.045617
  60 S :    0.069668
  61 C :   -0.051985
  62 C :    0.024543
  63 C :    0.035490
  64 C :   -0.030806
  65 S :    0.104820
  66 C :   -0.063049
  67 C :    0.115989
  68 O :   -0.204236
  69 C :    0.069472
  70 C :   -0.110595
  71 C :    0.122724
  72 C :    0.022656
  73 C :   -0.029322
  74 C :    0.012802
  75 C :   -0.014680
  76 C :   -0.017193
  77 H :   -0.015715
  78 H :   -0.005668
  79 H :    0.038645
  80 H :   -0.007449
  81 H :    0.046977
  82 H :   -0.031482
  83 H :   -0.033918
  84 H :   -0.014350
  85 H :   -0.000830
  86 H :    0.001487
  87 H :    0.016548
  88 H :    0.018626
  89 H :    0.015924
  90 H :   -0.002437
  91 H :   -0.000286
  92 H :    0.019694
  93 H :    0.009813
  94 H :    0.023463
  95 H :   -0.042978
  96 H :   -0.029036
  97 H :   -0.035354
  98 H :   -0.029344
  99 H :    0.002058
 100 H :   -0.021179
 101 H :   -0.015109
 102 H :   -0.015043
 103 H :   -0.019885
 104 H :   -0.014005
 105 H :   -0.001853
 106 H :   -0.004356
 107 H :    0.007622
 108 H :    0.028639
 109 H :    0.028246
 110 H :   -0.017909
 111 H :    0.002220
 112 H :   -0.005524
 113 H :    0.014662
 114 H :    0.018930
Sum of atomic charges:   -0.0000000

LOEWDIN ATOMIC CHARGES
----------------------
   0 C :    0.074097
   1 C :   -0.132223
   2 C :   -0.017396
   3 N :   -0.050464
   4 C :   -0.023956
   5 N :   -0.045501
   6 C :   -0.021752
   7 C :   -0.051167
   8 C :    0.021666
   9 C :   -0.034838
  10 C :   -0.144839
  11 C :   -0.008609
  12 S :    0.429861
  13 C :   -0.148645
  14 C :   -0.058559
  15 C :    0.085163
  16 O :   -0.149271
  17 C :   -0.072248
  18 C :    0.079009
  19 C :   -0.044539
  20 C :    0.012515
  21 C :   -0.015681
  22 N :    0.016757
  23 C :   -0.038313
  24 C :   -0.016601
  25 N :   -0.002276
  26 C :   -0.034538
  27 N :    0.002992
  28 C :   -0.035316
  29 N :   -0.009948
  30 C :    0.029045
  31 C :   -0.045255
  32 C :   -0.023893
  33 N :   -0.275081
  34 S :    0.693601
  35 N :   -0.273629
  36 C :   -0.030927
  37 C :    0.008083
  38 C :   -0.002667
  39 C :    0.006798
  40 C :   -0.026992
  41 C :    0.010095
  42 C :   -0.026249
  43 C :    0.011857
  44 C :   -0.035773
  45 C :   -0.010771
  46 C :   -0.057257
  47 C :   -0.010191
  48 C :   -0.058581
  49 C :   -0.018804
  50 C :   -0.015689
  51 C :   -0.019666
  52 C :   -0.014090
  53 C :   -0.024028
  54 C :   -0.024168
  55 C :   -0.059977
  56 C :   -0.142382
  57 C :   -0.036547
  58 C :   -0.030011
  59 C :   -0.179223
  60 S :    0.369637
  61 C :   -0.178677
  62 C :   -0.047171
  63 C :   -0.027445
  64 C :   -0.159300
  65 S :    0.431465
  66 C :   -0.069338
  67 C :    0.020139
  68 O :    0.004594
  69 C :    0.027220
  70 C :   -0.069775
  71 C :   -0.044721
  72 C :   -0.062669
  73 C :   -0.037207
  74 C :   -0.038227
  75 C :   -0.031701
  76 C :   -0.044557
  77 H :    0.038979
  78 H :    0.040970
  79 H :    0.029452
  80 H :    0.035018
  81 H :    0.049055
  82 H :    0.024067
  83 H :    0.027943
  84 H :    0.028469
  85 H :    0.020709
  86 H :    0.021587
  87 H :    0.023605
  88 H :    0.028133
  89 H :    0.023296
  90 H :    0.020056
  91 H :    0.020879
  92 H :    0.024274
  93 H :    0.024471
  94 H :    0.025909
  95 H :    0.024304
  96 H :    0.026039
  97 H :    0.027123
  98 H :    0.025822
  99 H :    0.020150
 100 H :    0.031003
 101 H :    0.032531
 102 H :    0.031454
 103 H :    0.029220
 104 H :    0.032300
 105 H :    0.042212
 106 H :    0.019667
 107 H :    0.033235
 108 H :    0.036537
 109 H :    0.035552
 110 H :    0.025350
 111 H :    0.026472
 112 H :    0.028336
 113 H :    0.018265
 114 H :    0.022278

  Mayer bond orders larger than 0.100000
B(  0-C ,  1-C ) :   1.6527 B(  0-C ,  6-C ) :   1.0074 B(  0-C , 17-C ) :   1.0540
B(  1-C ,  2-C ) :   1.1400 B(  1-C ,  4-C ) :   1.1420 B(  2-C ,  3-N ) :   2.9723
B(  4-C ,  5-N ) :   2.9920 B(  6-C ,  7-C ) :   1.2677 B(  6-C , 11-C ) :   1.4102
B(  7-C ,  8-C ) :   1.4250 B(  7-C , 15-C ) :   0.9525 B(  8-C ,  9-C ) :   1.2478
B(  8-C , 77-H ) :   1.0161 B(  9-C , 10-C ) :   1.3014 B(  9-C , 14-C ) :   1.1702
B( 10-C , 11-C ) :   1.3242 B( 10-C , 12-S ) :   1.0986 B( 11-C , 78-H ) :   0.9827
B( 12-S , 13-C ) :   1.1260 B( 13-C , 14-C ) :   1.6302 B( 13-C , 79-H ) :   0.9685
B( 14-C , 80-H ) :   0.9992 B( 15-C , 16-O ) :   2.2132 B( 15-C , 17-C ) :   0.9395
B( 17-C , 18-C ) :   1.6231 B( 18-C , 19-C ) :   1.1482 B( 18-C , 81-H ) :   0.9297
B( 19-C , 20-C ) :   1.2761 B( 19-C , 30-C ) :   0.1249 B( 19-C , 32-C ) :   1.2123
B( 20-C , 21-C ) :   1.1104 B( 20-C , 25-N ) :   1.4505 B( 21-C , 22-N ) :   1.4292
B( 21-C , 30-C ) :   1.2678 B( 22-N , 23-C ) :   1.7286 B( 23-C , 24-C ) :   1.1992
B( 23-C , 28-C ) :   1.1590 B( 24-C , 25-N ) :   1.7465 B( 24-C , 26-C ) :   1.1551
B( 26-C , 27-N ) :   3.0439 B( 28-C , 29-N ) :   3.0163 B( 30-C , 31-C ) :   1.2297
B( 30-C , 36-C ) :   1.0593 B( 31-C , 32-C ) :   1.0982 B( 31-C , 35-N ) :   1.4901
B( 32-C , 33-N ) :   1.5026 B( 33-N , 34-S ) :   1.2886 B( 33-N , 35-N ) :   0.1540
B( 34-S , 35-N ) :   1.3065 B( 36-C , 37-C ) :   1.2757 B( 36-C , 41-C ) :   1.3394
B( 37-C , 38-C ) :   1.4298 B( 37-C , 82-H ) :   0.9900 B( 38-C , 39-C ) :   1.3462
B( 38-C , 44-C ) :   0.9081 B( 39-C , 40-C ) :   1.3212 B( 39-C , 42-C ) :   1.0092
B( 40-C , 41-C ) :   1.4034 B( 40-C , 83-H ) :   0.9931 B( 41-C , 84-H ) :   0.9791
B( 42-C , 43-C ) :   1.3433 B( 42-C , 52-C ) :   1.3272 B( 43-C , 44-C ) :   0.9147
B( 43-C , 49-C ) :   1.4244 B( 44-C , 45-C ) :   1.0418 B( 44-C , 47-C ) :   1.0339
B( 45-C , 46-C ) :   1.1054 B( 45-C , 85-H ) :   0.9386 B( 45-C , 86-H ) :   0.9370
B( 46-C , 87-H ) :   0.9642 B( 46-C , 88-H ) :   0.9631 B( 46-C , 89-H ) :   0.9619
B( 47-C , 48-C ) :   1.0993 B( 47-C , 90-H ) :   0.9399 B( 47-C , 91-H ) :   0.9405
B( 48-C , 92-H ) :   0.9645 B( 48-C , 93-H ) :   0.9636 B( 48-C , 94-H ) :   0.9647
B( 49-C , 50-C ) :   1.2831 B( 49-C , 95-H ) :   0.9998 B( 50-C , 51-C ) :   1.3187
B( 50-C , 53-C ) :   1.0824 B( 51-C , 52-C ) :   1.3904 B( 51-C , 96-H ) :   0.9916
B( 52-C , 97-H ) :   0.9912 B( 53-C , 54-C ) :   1.6330 B( 53-C , 98-H ) :   0.9878
B( 54-C , 55-C ) :   1.1628 B( 54-C , 99-H ) :   0.9620 B( 55-C , 56-C ) :   1.5489
B( 55-C ,100-H ) :   0.9850 B( 56-C , 57-C ) :   1.1459 B( 56-C , 60-S ) :   1.0343
B( 57-C , 58-C ) :   1.5839 B( 57-C ,101-H ) :   0.9985 B( 58-C , 59-C ) :   1.1925
B( 58-C ,102-H ) :   0.9939 B( 59-C , 60-S ) :   1.0446 B( 59-C , 61-C ) :   1.5091
B( 61-C , 62-C ) :   1.1775 B( 61-C , 65-S ) :   1.0409 B( 62-C , 63-C ) :   1.5966
B( 62-C ,103-H ) :   0.9925 B( 63-C , 64-C ) :   1.1316 B( 63-C ,104-H ) :   0.9996
B( 64-C , 65-S ) :   1.0485 B( 64-C , 66-C ) :   1.5836 B( 66-C , 67-C ) :   1.1659
B( 66-C ,105-H ) :   0.9462 B( 67-C , 68-O ) :   1.1153 B( 67-C , 72-C ) :   1.3846
B( 68-O , 69-C ) :   1.1418 B( 69-C , 70-C ) :   1.5491 B( 69-C ,106-H ) :   1.0080
B( 70-C , 71-C ) :   1.0955 B( 70-C , 72-C ) :   1.2437 B( 71-C ,107-H ) :   0.9504
B( 71-C ,108-H ) :   0.9447 B( 71-C ,109-H ) :   0.9443 B( 72-C , 73-C ) :   1.1165
B( 73-C , 74-C ) :   1.7373 B( 73-C ,110-H ) :   0.9500 B( 74-C , 75-C ) :   1.0859
B( 74-C ,111-H ) :   0.9718 B( 75-C , 76-C ) :   1.9581 B( 75-C ,112-H ) :   0.9642
B( 76-C ,113-H ) :   0.9490 B( 76-C ,114-H ) :   0.9522

-----------------------------------------------------------------------------
         ABSORPTION SPECTRUM VIA TRANSITION ELECTRIC DIPOLE MOMENTS
-----------------------------------------------------------------------------
State   Energy  Wavelength   fosc         T2         TX        TY        TZ
        (cm-1)    (nm)                  (au**2)     (au)      (au)      (au)
-----------------------------------------------------------------------------
   0    7240.4   1381.1   0.349175641  15.87660  -1.27196   3.28082  -1.86949
   1   13688.4    730.5   0.611766729  14.71329  -0.91763   2.42216  -2.82920
   2   14391.0    694.9   0.748892416  17.13189   1.62192  -1.43633  -3.52678
   3   18945.3    527.8   0.004748183   0.08251  -0.20498  -0.15715  -0.12567
   4   19031.5    525.4   0.070865717   1.22585  -0.44512   0.97246  -0.28642
   5   21557.8    463.9   0.020328155   0.31043  -0.23073  -0.06213   0.50333
   6   22320.7    448.0   0.042563941   0.62778   0.02492   0.26417  -0.74658
   7   22505.0    444.3   0.027206189   0.39798   0.32600  -0.25233   0.47753
   8   23004.5    434.7   0.069479210   0.99430  -0.37417   0.77937  -0.49687
   9   23267.8    429.8   0.183067971   2.59019   0.26189  -1.56364   0.27682
  10   23601.4    423.7   0.156559168   2.18382  -0.54513   1.35954   0.19571
  11   24021.4    416.3   0.510330972   6.99406   0.64580  -2.38033   0.95447
  12   24375.2    410.3   0.024719666   0.33386   0.28711   0.50110  -0.01818
  13   25485.6    392.4   0.010016695   0.12939   0.25544  -0.25268   0.01708
  14   25651.5    389.8   0.116876905   1.50000  -0.13248  -1.13872   0.43101
  15   25969.8    385.1   0.055478855   0.70329   0.02224  -0.54959   0.63304
  16   27061.5    369.5   0.639104571   7.77491   0.66026  -2.69433   0.28210
  17   27142.5    368.4   0.000857162   0.01040   0.09475   0.00677  -0.03705
  18   27814.4    359.5   0.002587941   0.03063   0.14381   0.07734  -0.06300
  19   28217.5    354.4   0.018856553   0.22000  -0.35956  -0.14227   0.26547
  20   28603.5    349.6   0.006957783   0.08008  -0.08210  -0.08052  -0.25857
  21   29310.1    341.2   0.114447295   1.28547   0.04204  -0.48265   1.02507
  22   29592.4    337.9   0.155133948   1.72585  -0.44062   0.19239   1.22257
  23   29762.2    336.0   0.144676999   1.60033  -0.92887   0.65413   0.55646
  24   30234.1    330.8   0.112020538   1.21977   0.04464   0.07299   1.10111
  25   30418.2    328.8   0.128655519   1.39242  -0.68383   0.24986  -0.92864
  26   30651.0    326.3   0.124276615   1.33481  -0.62367   0.61899  -0.75013
  27   30982.8    322.8   0.231533971   2.46019  -0.90589  -0.20922   1.26324
  28   31350.7    319.0   0.025047183   0.26302   0.30141   0.30213   0.28441
  29   32092.3    311.6   0.158670870   1.62769   0.30140   0.38558  -1.17821
  30   32303.5    309.6   0.131094022   1.33601   0.45473   0.19091  -1.04536
  31   32465.5    308.0   0.116150134   1.17780  -0.62377  -0.86344   0.20782
  32   32669.0    306.1   0.062247758   0.62728  -0.56853  -0.20239   0.51293
  33   33147.1    301.7   0.004730141   0.04698  -0.09643  -0.10450  -0.16358
  34   33227.8    301.0   0.054029034   0.53530  -0.62751  -0.14170   0.34851
  35   33546.7    298.1   0.057249997   0.56183  -0.74905   0.02071   0.01773
  36   34013.6    294.0   0.000076024   0.00074   0.00057  -0.01513   0.02251
  37   34150.1    292.8   0.019387174   0.18690   0.04960  -0.19170   0.38430
  38   34344.3    291.2   0.082985248   0.79547   0.00798  -0.18373   0.87272
  39   34430.9    290.4   0.052492641   0.50191  -0.39814  -0.23228   0.53800
  40   35011.2    285.6   0.190897706   1.79502   0.40824  -0.07291  -1.27399
  41   35189.0    284.2   0.312581397   2.92436  -0.13280  -0.91541  -1.43831
  42   35369.5    282.7   0.262931661   2.44732  -0.28421  -0.68049   1.37967
  43   35667.1    280.4   0.114399522   1.05592   0.78923   0.41315  -0.51219
  44   35981.2    277.9   0.003880961   0.03551   0.04284  -0.17658  -0.04994
  45   36625.5    273.0   0.005376130   0.04832   0.01152  -0.15855   0.15183
  46   36784.0    271.9   0.020288594   0.18158   0.04066  -0.29261  -0.30710
  47   37120.5    269.4   0.097703472   0.86651   0.76610  -0.32674  -0.41573
  48   37325.2    267.9   0.018533597   0.16347  -0.20850  -0.24213   0.24773
  49   37564.1    266.2   0.053433681   0.46829  -0.19592   0.32063   0.57193
  50   37683.1    265.4   0.007152305   0.06248  -0.01726  -0.13731   0.20817
  51   37711.8    265.2   0.022047739   0.19247  -0.00544   0.35005  -0.26440
  52   38254.4    261.4   0.103087005   0.88715   0.34078   0.58439  -0.65537
  53   38342.8    260.8   0.158995452   1.36514  -0.32306  -0.77900   0.80866
  54   38785.9    257.8   0.016760111   0.14226  -0.02074   0.32605   0.18846
  55   38860.0    257.3   0.093592781   0.79289   0.19099  -0.74054   0.45609
  56   39140.3    255.5   0.081204211   0.68301  -0.17843   0.70753  -0.38805
  57   39243.8    254.8   0.065996309   0.55364   0.28166   0.52448  -0.44635
  58   39340.5    254.2   0.035598313   0.29790   0.05275  -0.53198   0.11004
  59   39699.3    251.9   0.040468492   0.33559   0.01968  -0.52517   0.24372
  60   39811.4    251.2   0.040224436   0.33263  -0.03052  -0.50035   0.28520
  61   40244.1    248.5   0.006116096   0.05003   0.11898  -0.13604  -0.13179

FINAL SINGLE POINT ENERGY     -4600.313442817968

DIPOLE MOMENT
-------------
                                X             Y             Z
Electronic contribution:     51.52965     -95.70520      45.93277
Nuclear contribution   :    -53.72691      97.60887     -42.60498
                        -----------------------------------------
Total Dipole Moment    :     -2.19726       1.90367       3.32779
                        -----------------------------------------
Magnitude (a.u.)       :      4.41883
Magnitude (Debye)      :     11.23178

Rotational constants in cm-1:     0.001562     0.000236     0.000214
Rotational constants in MHz :    46.820474     7.068755     6.400905

                             ****ORCA TERMINATED NORMALLY****
TOTAL RUN TIME: 0 days 0 hours 26 minutes 54 seconds 668 msec
