                         Program Version 4.2.0 -  RELEASE  -
|  1> # ORCA input file
|  2> # SCF done       -192.651617387597          0.000810102051
|  3> ! CAM-B3LYP def2-SVP def2/J RIJCOSX Grid4 TightSCF
|  4> %maxcore 5000
|  5> %tddft
|  6>     Mode sTDDFT
|  7>     Ethresh 5.0
|  8>     maxcore 5000
|  9> end
| 10>
| 11> %pal
| 12>   nprocs 6
| 13>   end
| 14> * xyz 0 1
| 15>    C        8.43070        -2.23107       -12.25671
| 16>    C        8.51978        -2.07917       -13.61236
| 17>    F        8.35744        -3.14925       -14.41049
| 18>    C        8.77745        -0.83975       -14.21485
| 19>    C        8.94646         0.25969       -13.42039
| 20>    C        8.86588         0.16045       -12.01595
| 21>    C        8.60072        -1.10874       -11.42259
| 22>    C        8.50708        -1.23236       -10.01714
| 23>    C        8.67534        -0.12268        -9.23294
| 24>    C        8.95702         1.14019        -9.83094
| 25>    C        9.04674         1.28842       -11.18536
| 26>    C        9.13645         2.15443        -8.77478
| 27>    O        9.33639         3.33893        -8.90429
| 28>    C        9.08755         1.39187        -7.49310
| 29>    C        8.60544         0.05355        -7.78567
| 30>    C        7.97542        -0.79054        -6.91202
| 31>    C        7.71238        -0.47852        -5.56149
| 32>    N        7.42558        -0.26545        -4.47071
| 33>    C        7.43909        -2.04113        -7.28350
| 34>    N        6.99774        -3.06916        -7.53867
| 35>    C        9.54602         1.95180        -6.34948
| 36>    C        9.92090         1.27713        -5.14190
| 37>    C       10.53217         0.02793        -5.11003
| 38>    N       10.89508        -0.61997        -4.01725
| 39>    C       10.70985        -0.12487        -2.80487
| 40>    C       10.15657         1.18239        -2.68230
| 41>    C        9.76643         1.88558        -3.87482
| 42>    N        9.24478         3.08182        -3.61199
| 43>    S        9.24617         3.30336        -2.02410
| 44>    N        9.90636         1.90733        -1.59108
| 45>    C       11.10133        -0.95713        -1.67885
| 46>    C       11.61423        -2.24245        -1.94412
| 47>    C       12.02441        -3.08135        -0.93615
| 48>    C       11.92729        -2.63481         0.37965
| 49>    C       11.40347        -1.34873         0.64158
| 50>    C       10.98741        -0.50203        -0.36320
| 51>    O       11.38525        -1.07978         1.97598
| 52>    C       11.89953        -2.17593         2.59350
| 53>    C       12.25571        -3.17787         1.66308
| 54>    C       12.80473        -4.37285         2.12039
| 55>    C       12.99942        -4.53632         3.47170
| 56>    C       12.65277        -3.53646         4.40166
| 57>    C       12.08009        -2.34205         3.94920
| 58>    C       12.86688        -3.69029         5.82158
| 59>    C       13.60940        -4.64645         6.41362
| 60>    C       13.83270        -4.77840         7.82455
| 61>    C       13.21018        -4.03370         8.82785
| 62>    N       13.40352        -4.17317        10.12779
| 63>    C       14.26596        -5.05652        10.61110
| 64>    C       14.99913        -5.87225         9.70943
| 65>    C       14.75769        -5.74192         8.30074
| 66>    N       15.49906        -6.59270         7.58982
| 67>    S       16.39727        -7.46002         8.59808
| 68>    N       15.90629        -6.80769         9.98054
| 69>    C       14.49480        -5.14690        12.02204
| 70>    C       13.73380        -4.64721        13.02511
| 71>    C       14.32765        -4.45869        14.38231
| 72>    O       15.34947        -4.94902        14.80108
| 73>    C       13.43313        -3.50121        15.06035
| 74>    C       13.58784        -2.89553        16.27453
| 75>    C       12.60856        -1.97930        16.71780
| 76>    C       11.48443        -1.70134        15.88571
| 77>    C       10.51646        -0.77970        16.33090
| 78>    C       10.67315        -0.17664        17.54757
| 79>    C       11.76961        -0.43837        18.38103
| 80>    C       12.71929        -1.32881        17.96423
| 81>    F        9.74967         0.70374        17.97429
| 82>    C       11.34608        -2.34832        14.63594
| 83>    C       12.30231        -3.24098        14.23230
| 84>    C       12.40178        -4.07147        13.03608
| 85>    C       11.35967        -4.42867        12.22786
| 86>    C       11.43450        -5.45348        11.26018
| 87>    N       11.40899        -6.33293        10.52326
| 88>    C       10.06234        -3.88775        12.33693
| 89>    N        8.99686        -3.46275        12.37687
| 90>    H        8.22718        -3.19975       -11.82762
| 91>    H        8.83669        -0.78118       -15.29007
| 92>    H        9.14601         1.22486       -13.86109
| 93>    H        8.31481        -2.20552        -9.59359
| 94>    H        9.25389         2.25576       -11.61794
| 95>    H        9.70081         3.02551        -6.36472
| 96>    H       10.77479        -0.47778        -6.03684
| 97>    H       11.67795        -2.54947        -2.97543
| 98>    H       12.41678        -4.06284        -1.15279
| 99>    H       10.59294         0.47542        -0.14310
|100>    H       13.07151        -5.15193         1.42321
|101>    H       13.41647        -5.46306         3.83150
|102>    H       11.79974        -1.56267         4.64022
|103>    H       12.40031        -2.93067         6.43438
|104>    H       14.12731        -5.38669         5.82031
|105>    H       12.48509        -3.27377         8.57268
|106>    H       15.43146        -5.61174        12.30958
|107>    H       14.44854        -3.11206        16.88949
|108>    H        9.65753        -0.55689        15.71730
|109>    H       11.83951         0.06767        19.33081
|110>    H       13.57273        -1.54690        18.58854
|111>    H       10.49032        -2.11519        14.02224
|112> *
|113>
|114>                          ****END OF INPUT****

CARTESIAN COORDINATES (ANGSTROEM)
---------------------------------
  C      8.430700   -2.231070  -12.256710
  C      8.519780   -2.079170  -13.612360
  F      8.357440   -3.149250  -14.410490
  C      8.777450   -0.839750  -14.214850
  C      8.946460    0.259690  -13.420390
  C      8.865880    0.160450  -12.015950
  C      8.600720   -1.108740  -11.422590
  C      8.507080   -1.232360  -10.017140
  C      8.675340   -0.122680   -9.232940
  C      8.957020    1.140190   -9.830940
  C      9.046740    1.288420  -11.185360
  C      9.136450    2.154430   -8.774780
  O      9.336390    3.338930   -8.904290
  C      9.087550    1.391870   -7.493100
  C      8.605440    0.053550   -7.785670
  C      7.975420   -0.790540   -6.912020
  C      7.712380   -0.478520   -5.561490
  N      7.425580   -0.265450   -4.470710
  C      7.439090   -2.041130   -7.283500
  N      6.997740   -3.069160   -7.538670
  C      9.546020    1.951800   -6.349480
  C      9.920900    1.277130   -5.141900
  C     10.532170    0.027930   -5.110030
  N     10.895080   -0.619970   -4.017250
  C     10.709850   -0.124870   -2.804870
  C     10.156570    1.182390   -2.682300
  C      9.766430    1.885580   -3.874820
  N      9.244780    3.081820   -3.611990
  S      9.246170    3.303360   -2.024100
  N      9.906360    1.907330   -1.591080
  C     11.101330   -0.957130   -1.678850
  C     11.614230   -2.242450   -1.944120
  C     12.024410   -3.081350   -0.936150
  C     11.927290   -2.634810    0.379650
  C     11.403470   -1.348730    0.641580
  C     10.987410   -0.502030   -0.363200
  O     11.385250   -1.079780    1.975980
  C     11.899530   -2.175930    2.593500
  C     12.255710   -3.177870    1.663080
  C     12.804730   -4.372850    2.120390
  C     12.999420   -4.536320    3.471700
  C     12.652770   -3.536460    4.401660
  C     12.080090   -2.342050    3.949200
  C     12.866880   -3.690290    5.821580
  C     13.609400   -4.646450    6.413620
  C     13.832700   -4.778400    7.824550
  C     13.210180   -4.033700    8.827850
  N     13.403520   -4.173170   10.127790
  C     14.265960   -5.056520   10.611100
  C     14.999130   -5.872250    9.709430
  C     14.757690   -5.741920    8.300740
  N     15.499060   -6.592700    7.589820
  S     16.397270   -7.460020    8.598080
  N     15.906290   -6.807690    9.980540
  C     14.494800   -5.146900   12.022040
  C     13.733800   -4.647210   13.025110
  C     14.327650   -4.458690   14.382310
  O     15.349470   -4.949020   14.801080
  C     13.433130   -3.501210   15.060350
  C     13.587840   -2.895530   16.274530
  C     12.608560   -1.979300   16.717800
  C     11.484430   -1.701340   15.885710
  C     10.516460   -0.779700   16.330900
  C     10.673150   -0.176640   17.547570
  C     11.769610   -0.438370   18.381030
  C     12.719290   -1.328810   17.964230
  F      9.749670    0.703740   17.974290
  C     11.346080   -2.348320   14.635940
  C     12.302310   -3.240980   14.232300
  C     12.401780   -4.071470   13.036080
  C     11.359670   -4.428670   12.227860
  C     11.434500   -5.453480   11.260180
  N     11.408990   -6.332930   10.523260
  C     10.062340   -3.887750   12.336930
  N      8.996860   -3.462750   12.376870
  H      8.227180   -3.199750  -11.827620
  H      8.836690   -0.781180  -15.290070
  H      9.146010    1.224860  -13.861090
  H      8.314810   -2.205520   -9.593590
  H      9.253890    2.255760  -11.617940
  H      9.700810    3.025510   -6.364720
  H     10.774790   -0.477780   -6.036840
  H     11.677950   -2.549470   -2.975430
  H     12.416780   -4.062840   -1.152790
  H     10.592940    0.475420   -0.143100
  H     13.071510   -5.151930    1.423210
  H     13.416470   -5.463060    3.831500
  H     11.799740   -1.562670    4.640220
  H     12.400310   -2.930670    6.434380
  H     14.127310   -5.386690    5.820310
  H     12.485090   -3.273770    8.572680
  H     15.431460   -5.611740   12.309580
  H     14.448540   -3.112060   16.889490
  H      9.657530   -0.556890   15.717300
  H     11.839510    0.067670   19.330810
  H     13.572730   -1.546900   18.588540
  H     10.490320   -2.115190   14.022240

 Total Charge           Charge          ....    0
 Multiplicity           Mult            ....    1
 Number of Electrons    NEL             ....  514
 Basis Dimension        Dim             .... 1168

ORBITAL ENERGIES
----------------

  NO   OCC          E(Eh)            E(eV)
   0   2.0000     -89.038861     -2422.8706
   1   2.0000     -89.038683     -2422.8657
   2   2.0000     -24.788660      -674.5337
   3   2.0000     -24.784917      -674.4319
   4   2.0000     -19.282716      -524.7094
   5   2.0000     -19.217669      -522.9394
   6   2.0000     -19.213835      -522.8350
   7   2.0000     -14.455018      -393.3410
   8   2.0000     -14.451528      -393.2461
   9   2.0000     -14.449397      -393.1881
  10   2.0000     -14.448429      -393.1617
  11   2.0000     -14.425222      -392.5302
  12   2.0000     -14.419220      -392.3669
  13   2.0000     -14.419149      -392.3650
  14   2.0000     -14.418893      -392.3580
  15   2.0000     -14.414397      -392.2357
  16   2.0000     -14.409811      -392.1109
  17   2.0000     -10.372817      -282.2587
  18   2.0000     -10.369114      -282.1579
  19   2.0000     -10.368533      -282.1421
  20   2.0000     -10.364811      -282.0408
  21   2.0000     -10.348137      -281.5871
  22   2.0000     -10.346349      -281.5385
  23   2.0000     -10.344009      -281.4748
  24   2.0000     -10.340913      -281.3906
  25   2.0000     -10.337296      -281.2921
  26   2.0000     -10.337097      -281.2867
  27   2.0000     -10.336190      -281.2620
  28   2.0000     -10.335262      -281.2368
  29   2.0000     -10.334218      -281.2084
  30   2.0000     -10.333664      -281.1933
  31   2.0000     -10.333557      -281.1904
  32   2.0000     -10.332365      -281.1579
  33   2.0000     -10.327192      -281.0172
  34   2.0000     -10.321469      -280.8615
  35   2.0000     -10.321349      -280.8582
  36   2.0000     -10.320409      -280.8326
  37   2.0000     -10.316954      -280.7386
  38   2.0000     -10.316352      -280.7222
  39   2.0000     -10.312971      -280.6302
  40   2.0000     -10.310257      -280.5564
  41   2.0000     -10.309834      -280.5449
  42   2.0000     -10.309306      -280.5305
  43   2.0000     -10.307324      -280.4765
  44   2.0000     -10.304978      -280.4127
  45   2.0000     -10.304920      -280.4111
  46   2.0000     -10.304519      -280.4002
  47   2.0000     -10.304386      -280.3966
  48   2.0000     -10.303645      -280.3764
  49   2.0000     -10.302732      -280.3516
  50   2.0000     -10.302405      -280.3427
  51   2.0000     -10.300952      -280.3031
  52   2.0000     -10.300024      -280.2779
  53   2.0000     -10.299920      -280.2751
  54   2.0000     -10.298906      -280.2475
  55   2.0000     -10.297793      -280.2172
  56   2.0000     -10.296688      -280.1871
  57   2.0000     -10.296027      -280.1691
  58   2.0000     -10.293782      -280.1081
  59   2.0000     -10.293303      -280.0950
  60   2.0000     -10.292210      -280.0653
  61   2.0000     -10.292076      -280.0616
  62   2.0000     -10.291124      -280.0357
  63   2.0000     -10.288650      -279.9684
  64   2.0000     -10.287697      -279.9425
  65   2.0000     -10.287525      -279.9378
  66   2.0000     -10.285292      -279.8770
  67   2.0000     -10.284786      -279.8632
  68   2.0000     -10.284695      -279.8608
  69   2.0000     -10.284252      -279.8487
  70   2.0000     -10.283591      -279.8307
  71   2.0000     -10.279570      -279.7213
  72   2.0000     -10.277795      -279.6730
  73   2.0000     -10.277394      -279.6621
  74   2.0000     -10.271211      -279.4938
  75   2.0000      -8.130525      -221.2428
  76   2.0000      -8.130235      -221.2349
  77   2.0000      -6.101692      -166.0355
  78   2.0000      -6.101325      -166.0255
  79   2.0000      -6.093782      -165.8202
  80   2.0000      -6.093537      -165.8136
  81   2.0000      -6.093163      -165.8034
  82   2.0000      -6.092961      -165.7979
  83   2.0000      -1.303769       -35.4774
  84   2.0000      -1.299766       -35.3684
  85   2.0000      -1.202644       -32.7256
  86   2.0000      -1.139118       -30.9970
  87   2.0000      -1.137692       -30.9582
  88   2.0000      -1.133119       -30.8337
  89   2.0000      -1.129047       -30.7229
  90   2.0000      -1.057131       -28.7660
  91   2.0000      -1.056109       -28.7382
  92   2.0000      -1.022726       -27.8298
  93   2.0000      -1.014725       -27.6121
  94   2.0000      -1.004257       -27.3272
  95   2.0000      -0.998402       -27.1679
  96   2.0000      -0.998077       -27.1591
  97   2.0000      -0.993174       -27.0256
  98   2.0000      -0.991606       -26.9830
  99   2.0000      -0.990155       -26.9435
 100   2.0000      -0.979985       -26.6667
 101   2.0000      -0.974071       -26.5058
 102   2.0000      -0.965765       -26.2798
 103   2.0000      -0.958075       -26.0705
 104   2.0000      -0.936163       -25.4743
 105   2.0000      -0.928904       -25.2768
 106   2.0000      -0.923082       -25.1183
 107   2.0000      -0.922064       -25.0906
 108   2.0000      -0.905273       -24.6337
 109   2.0000      -0.903294       -24.5799
 110   2.0000      -0.899841       -24.4859
 111   2.0000      -0.891937       -24.2708
 112   2.0000      -0.889387       -24.2014
 113   2.0000      -0.886141       -24.1131
 114   2.0000      -0.881507       -23.9870
 115   2.0000      -0.870844       -23.6969
 116   2.0000      -0.857115       -23.3233
 117   2.0000      -0.854468       -23.2513
 118   2.0000      -0.840574       -22.8732
 119   2.0000      -0.836946       -22.7745
 120   2.0000      -0.832594       -22.6560
 121   2.0000      -0.830106       -22.5883
 122   2.0000      -0.818996       -22.2860
 123   2.0000      -0.802761       -21.8442
 124   2.0000      -0.789130       -21.4733
 125   2.0000      -0.773791       -21.0559
 126   2.0000      -0.766908       -20.8686
 127   2.0000      -0.762365       -20.7450
 128   2.0000      -0.756752       -20.5923
 129   2.0000      -0.745038       -20.2735
 130   2.0000      -0.740239       -20.1429
 131   2.0000      -0.736379       -20.0379
 132   2.0000      -0.727762       -19.8034
 133   2.0000      -0.725267       -19.7355
 134   2.0000      -0.717574       -19.5262
 135   2.0000      -0.712778       -19.3957
 136   2.0000      -0.710826       -19.3425
 137   2.0000      -0.709458       -19.3053
 138   2.0000      -0.707198       -19.2438
 139   2.0000      -0.694696       -18.9036
 140   2.0000      -0.685100       -18.6425
 141   2.0000      -0.682359       -18.5679
 142   2.0000      -0.677122       -18.4254
 143   2.0000      -0.672600       -18.3024
 144   2.0000      -0.666466       -18.1355
 145   2.0000      -0.652692       -17.7606
 146   2.0000      -0.641837       -17.4653
 147   2.0000      -0.639717       -17.4076
 148   2.0000      -0.636015       -17.3068
 149   2.0000      -0.633040       -17.2259
 150   2.0000      -0.632918       -17.2226
 151   2.0000      -0.629531       -17.1304
 152   2.0000      -0.626675       -17.0527
 153   2.0000      -0.620815       -16.8932
 154   2.0000      -0.612327       -16.6623
 155   2.0000      -0.608203       -16.5500
 156   2.0000      -0.603019       -16.4090
 157   2.0000      -0.597722       -16.2648
 158   2.0000      -0.593743       -16.1566
 159   2.0000      -0.588898       -16.0247
 160   2.0000      -0.586218       -15.9518
 161   2.0000      -0.581632       -15.8270
 162   2.0000      -0.571896       -15.5621
 163   2.0000      -0.570122       -15.5138
 164   2.0000      -0.565803       -15.3963
 165   2.0000      -0.565642       -15.3919
 166   2.0000      -0.562677       -15.3112
 167   2.0000      -0.562221       -15.2988
 168   2.0000      -0.561245       -15.2722
 169   2.0000      -0.558213       -15.1897
 170   2.0000      -0.557549       -15.1717
 171   2.0000      -0.557298       -15.1648
 172   2.0000      -0.552869       -15.0443
 173   2.0000      -0.551186       -14.9985
 174   2.0000      -0.549955       -14.9650
 175   2.0000      -0.547122       -14.8879
 176   2.0000      -0.540094       -14.6967
 177   2.0000      -0.537724       -14.6322
 178   2.0000      -0.533265       -14.5109
 179   2.0000      -0.531056       -14.4508
 180   2.0000      -0.526996       -14.3403
 181   2.0000      -0.526563       -14.3285
 182   2.0000      -0.525955       -14.3120
 183   2.0000      -0.525430       -14.2977
 184   2.0000      -0.522174       -14.2091
 185   2.0000      -0.518208       -14.1011
 186   2.0000      -0.516861       -14.0645
 187   2.0000      -0.510122       -13.8811
 188   2.0000      -0.509627       -13.8676
 189   2.0000      -0.507196       -13.8015
 190   2.0000      -0.504900       -13.7390
 191   2.0000      -0.503847       -13.7104
 192   2.0000      -0.503020       -13.6879
 193   2.0000      -0.494199       -13.4478
 194   2.0000      -0.492994       -13.4151
 195   2.0000      -0.492152       -13.3921
 196   2.0000      -0.489370       -13.3164
 197   2.0000      -0.487257       -13.2589
 198   2.0000      -0.485515       -13.2115
 199   2.0000      -0.483415       -13.1544
 200   2.0000      -0.480562       -13.0768
 201   2.0000      -0.478033       -13.0079
 202   2.0000      -0.476051       -12.9540
 203   2.0000      -0.471463       -12.8292
 204   2.0000      -0.469036       -12.7631
 205   2.0000      -0.465930       -12.6786
 206   2.0000      -0.463916       -12.6238
 207   2.0000      -0.461249       -12.5512
 208   2.0000      -0.460079       -12.5194
 209   2.0000      -0.456218       -12.4143
 210   2.0000      -0.455342       -12.3905
 211   2.0000      -0.452548       -12.3145
 212   2.0000      -0.448941       -12.2163
 213   2.0000      -0.447317       -12.1721
 214   2.0000      -0.445967       -12.1354
 215   2.0000      -0.441586       -12.0162
 216   2.0000      -0.440620       -11.9899
 217   2.0000      -0.440126       -11.9764
 218   2.0000      -0.436054       -11.8656
 219   2.0000      -0.432816       -11.7775
 220   2.0000      -0.432310       -11.7637
 221   2.0000      -0.431839       -11.7509
 222   2.0000      -0.428743       -11.6667
 223   2.0000      -0.426004       -11.5922
 224   2.0000      -0.424440       -11.5496
 225   2.0000      -0.422573       -11.4988
 226   2.0000      -0.421583       -11.4718
 227   2.0000      -0.418113       -11.3774
 228   2.0000      -0.412380       -11.2214
 229   2.0000      -0.411309       -11.1923
 230   2.0000      -0.407408       -11.0861
 231   2.0000      -0.406270       -11.0552
 232   2.0000      -0.398298       -10.8382
 233   2.0000      -0.395273       -10.7559
 234   2.0000      -0.391098       -10.6423
 235   2.0000      -0.384158       -10.4535
 236   2.0000      -0.381931       -10.3929
 237   2.0000      -0.380818       -10.3626
 238   2.0000      -0.379103       -10.3159
 239   2.0000      -0.367512       -10.0005
 240   2.0000      -0.363700        -9.8968
 241   2.0000      -0.359638        -9.7862
 242   2.0000      -0.355426        -9.6716
 243   2.0000      -0.348441        -9.4816
 244   2.0000      -0.346588        -9.4311
 245   2.0000      -0.342807        -9.3282
 246   2.0000      -0.337782        -9.1915
 247   2.0000      -0.337531        -9.1847
 248   2.0000      -0.333396        -9.0722
 249   2.0000      -0.320150        -8.7117
 250   2.0000      -0.314679        -8.5628
 251   2.0000      -0.309155        -8.4125
 252   2.0000      -0.301981        -8.2173
 253   2.0000      -0.298652        -8.1267
 254   2.0000      -0.296271        -8.0620
 255   2.0000      -0.284750        -7.7484
 256   2.0000      -0.258207        -7.0262
 257   0.0000      -0.108861        -2.9623
 258   0.0000      -0.102528        -2.7899
 259   0.0000      -0.072831        -1.9818
 260   0.0000      -0.065370        -1.7788
 261   0.0000      -0.054200        -1.4749

MULLIKEN ATOMIC CHARGES
-----------------------
   0 C :   -0.095336
   1 C :    0.304109
   2 F :   -0.188836
   3 C :   -0.032052
   4 C :   -0.006266
   5 C :    0.099210
   6 C :    0.099176
   7 C :   -0.083181
   8 C :    0.039181
   9 C :    0.006454
  10 C :   -0.076699
  11 C :    0.140925
  12 O :   -0.135660
  13 C :   -0.124390
  14 C :    0.267580
  15 C :   -0.334919
  16 C :   -0.175704
  17 N :    0.164167
  18 C :   -0.178987
  19 N :    0.159208
  20 C :    0.047868
  21 C :   -0.061475
  22 C :    0.008762
  23 N :   -0.041253
  24 C :    0.015210
  25 C :    0.024736
  26 C :    0.080697
  27 N :   -0.269703
  28 S :    0.541243
  29 N :   -0.274815
  30 C :    0.050347
  31 C :   -0.006357
  32 C :   -0.032195
  33 C :    0.075936
  34 C :    0.224365
  35 C :   -0.121641
  36 O :   -0.209803
  37 C :    0.235480
  38 C :    0.054491
  39 C :   -0.028658
  40 C :   -0.008522
  41 C :    0.110916
  42 C :   -0.141680
  43 C :    0.030763
  44 C :   -0.003360
  45 C :    0.056826
  46 C :   -0.023778
  47 N :   -0.049267
  48 C :   -0.062509
  49 C :    0.047363
  50 C :    0.032517
  51 N :   -0.277514
  52 S :    0.531919
  53 N :   -0.247049
  54 C :    0.015381
  55 C :   -0.086566
  56 C :    0.137772
  57 O :   -0.135093
  58 C :    0.001679
  59 C :   -0.079344
  60 C :    0.099836
  61 C :    0.102800
  62 C :   -0.098354
  63 C :    0.302995
  64 C :   -0.028533
  65 C :   -0.008370
  66 F :   -0.190560
  67 C :   -0.086151
  68 C :    0.044968
  69 C :    0.287467
  70 C :   -0.296384
  71 C :   -0.182005
  72 N :    0.156035
  73 C :   -0.188485
  74 N :    0.152693
  75 H :   -0.001288
  76 H :    0.006545
  77 H :   -0.008065
  78 H :   -0.003172
  79 H :   -0.009701
  80 H :    0.037441
  81 H :    0.011839
  82 H :   -0.006357
  83 H :   -0.025749
  84 H :   -0.008122
  85 H :   -0.023272
  86 H :   -0.019341
  87 H :   -0.020585
  88 H :   -0.015017
  89 H :    0.001537
  90 H :    0.001561
  91 H :    0.026317
  92 H :   -0.011272
  93 H :   -0.002695
  94 H :    0.003205
  95 H :   -0.008860
  96 H :   -0.004572
Sum of atomic charges:   -0.0000000

LOEWDIN ATOMIC CHARGES
----------------------
   0 C :   -0.041408
   1 C :    0.094029
   2 F :   -0.063414
   3 C :   -0.035334
   4 C :    0.005457
   5 C :   -0.017713
   6 C :    0.003610
   7 C :    0.013088
   8 C :   -0.018813
   9 C :   -0.060343
  10 C :    0.036071
  11 C :    0.083399
  12 O :   -0.137226
  13 C :   -0.083339
  14 C :    0.067516
  15 C :   -0.131957
  16 C :   -0.013937
  17 N :   -0.047212
  18 C :   -0.018770
  19 N :   -0.047571
  20 C :    0.086893
  21 C :   -0.075659
  22 C :    0.043740
  23 N :   -0.063611
  24 C :    0.055401
  25 C :   -0.055542
  26 C :   -0.026994
  27 N :   -0.282859
  28 S :    0.672313
  29 N :   -0.266387
  30 C :   -0.036854
  31 C :    0.002347
  32 C :   -0.015549
  33 C :   -0.032534
  34 C :    0.055074
  35 C :   -0.019320
  36 O :   -0.018472
  37 C :    0.061455
  38 C :   -0.043407
  39 C :   -0.005939
  40 C :   -0.018792
  41 C :   -0.019467
  42 C :   -0.033505
  43 C :    0.014447
  44 C :   -0.019888
  45 C :   -0.024033
  46 C :    0.021157
  47 N :   -0.039996
  48 C :   -0.008512
  49 C :   -0.056763
  50 C :   -0.037944
  51 N :   -0.284458
  52 S :    0.670732
  53 N :   -0.274651
  54 C :    0.061419
  55 C :   -0.058495
  56 C :    0.083337
  57 O :   -0.136860
  58 C :   -0.060845
  59 C :    0.035287
  60 C :   -0.019006
  61 C :    0.004394
  62 C :   -0.042481
  63 C :    0.093443
  64 C :   -0.037331
  65 C :    0.004929
  66 F :   -0.064845
  67 C :    0.009860
  68 C :   -0.014624
  69 C :    0.071951
  70 C :   -0.115693
  71 C :   -0.014708
  72 N :   -0.054325
  73 C :   -0.017521
  74 N :   -0.050822
  75 H :    0.043607
  76 H :    0.042821
  77 H :    0.036276
  78 H :    0.039605
  79 H :    0.040443
  80 H :    0.052659
  81 H :    0.026376
  82 H :    0.031792
  83 H :    0.030933
  84 H :    0.035261
  85 H :    0.032501
  86 H :    0.029766
  87 H :    0.035843
  88 H :    0.029128
  89 H :    0.033378
  90 H :    0.023505
  91 H :    0.050950
  92 H :    0.039761
  93 H :    0.043090
  94 H :    0.041812
  95 H :    0.035782
  96 H :    0.039092

  Mayer bond orders larger than 0.100000
B(  0-C ,  1-C ) :   1.4430 B(  0-C ,  6-C ) :   1.2005 B(  0-C , 75-H ) :   1.0067
B(  1-C ,  2-F ) :   1.0905 B(  1-C ,  3-C ) :   1.2522 B(  3-C ,  4-C ) :   1.4627
B(  3-C , 76-H ) :   0.9933 B(  4-C ,  5-C ) :   1.2335 B(  4-C , 77-H ) :   0.9973
B(  5-C ,  6-C ) :   1.2531 B(  5-C , 10-C ) :   1.1952 B(  6-C ,  7-C ) :   1.2087
B(  7-C ,  8-C ) :   1.4558 B(  7-C , 78-H ) :   0.9952 B(  8-C ,  9-C ) :   1.2176
B(  8-C , 14-C ) :   1.0010 B(  9-C , 10-C ) :   1.4687 B(  9-C , 11-C ) :   0.9188
B( 10-C , 79-H ) :   1.0151 B( 11-C , 12-O ) :   2.2845 B( 11-C , 13-C ) :   0.9286
B( 13-C , 14-C ) :   1.0177 B( 13-C , 20-C ) :   1.7056 B( 14-C , 15-C ) :   1.6723
B( 15-C , 16-C ) :   1.1618 B( 15-C , 18-C ) :   1.1333 B( 16-C , 17-N ) :   2.9875
B( 18-C , 19-N ) :   2.9886 B( 20-C , 21-C ) :   1.0281 B( 20-C , 80-H ) :   0.9483
B( 21-C , 22-C ) :   1.4047 B( 21-C , 24-C ) :   0.1096 B( 21-C , 26-C ) :   1.2123
B( 22-C , 23-N ) :   1.4673 B( 22-C , 81-H ) :   0.9786 B( 23-N , 24-C ) :   1.6542
B( 24-C , 25-C ) :   1.1402 B( 24-C , 30-C ) :   1.0698 B( 25-C , 26-C ) :   1.1850
B( 25-C , 29-N ) :   1.5182 B( 26-C , 27-N ) :   1.5554 B( 27-N , 28-S ) :   1.2693
B( 27-N , 29-N ) :   0.1480 B( 28-S , 29-N ) :   1.2849 B( 30-C , 31-C ) :   1.3051
B( 30-C , 35-C ) :   1.3231 B( 31-C , 32-C ) :   1.4039 B( 31-C , 82-H ) :   0.9852
B( 32-C , 33-C ) :   1.2953 B( 32-C , 83-H ) :   1.0009 B( 33-C , 34-C ) :   1.2845
B( 33-C , 38-C ) :   1.0625 B( 34-C , 35-C ) :   1.3272 B( 34-C , 36-O ) :   1.0971
B( 35-C , 84-H ) :   0.9916 B( 36-O , 37-C ) :   1.1029 B( 37-C , 38-C ) :   1.2845
B( 37-C , 42-C ) :   1.3295 B( 38-C , 39-C ) :   1.3008 B( 39-C , 40-C ) :   1.4372
B( 39-C , 85-H ) :   0.9973 B( 40-C , 41-C ) :   1.3132 B( 40-C , 86-H ) :   0.9857
B( 41-C , 42-C ) :   1.2996 B( 41-C , 43-C ) :   1.0866 B( 42-C , 87-H ) :   1.0209
B( 43-C , 44-C ) :   1.6557 B( 43-C , 88-H ) :   0.9789 B( 44-C , 45-C ) :   1.1164
B( 44-C , 89-H ) :   0.9777 B( 45-C , 46-C ) :   1.3843 B( 45-C , 48-C ) :   0.1081
B( 45-C , 50-C ) :   1.1866 B( 46-C , 47-N ) :   1.4546 B( 46-C , 90-H ) :   0.9787
B( 47-N , 48-C ) :   1.5793 B( 48-C , 49-C ) :   1.1398 B( 48-C , 54-C ) :   1.0946
B( 49-C , 50-C ) :   1.1789 B( 49-C , 53-N ) :   1.5662 B( 50-C , 51-N ) :   1.5227
B( 51-N , 52-S ) :   1.2799 B( 51-N , 53-N ) :   0.1529 B( 52-S , 53-N ) :   1.2823
B( 54-C , 55-C ) :   1.6627 B( 54-C , 91-H ) :   0.9513 B( 55-C , 56-C ) :   0.9270
B( 55-C , 69-C ) :   1.0170 B( 56-C , 57-O ) :   2.2817 B( 56-C , 58-C ) :   0.9184
B( 58-C , 59-C ) :   1.4664 B( 58-C , 68-C ) :   1.2164 B( 59-C , 60-C ) :   1.1974
B( 59-C , 92-H ) :   1.0154 B( 60-C , 61-C ) :   1.2537 B( 60-C , 65-C ) :   1.2318
B( 61-C , 62-C ) :   1.2025 B( 61-C , 67-C ) :   1.2049 B( 62-C , 63-C ) :   1.4416
B( 62-C , 93-H ) :   1.0069 B( 63-C , 64-C ) :   1.2523 B( 63-C , 66-F ) :   1.0888
B( 64-C , 65-C ) :   1.4633 B( 64-C , 94-H ) :   0.9925 B( 65-C , 95-H ) :   0.9971
B( 67-C , 68-C ) :   1.4585 B( 67-C , 96-H ) :   0.9949 B( 68-C , 69-C ) :   0.9977
B( 69-C , 70-C ) :   1.6937 B( 70-C , 71-C ) :   1.1529 B( 70-C , 73-C ) :   1.1382
B( 71-C , 72-N ) :   2.9897 B( 73-C , 74-N ) :   2.9840

-----------------------------------------------------------------------------
         ABSORPTION SPECTRUM VIA TRANSITION ELECTRIC DIPOLE MOMENTS
-----------------------------------------------------------------------------
State   Energy  Wavelength   fosc         T2         TX        TY        TZ
        (cm-1)    (nm)                  (au**2)     (au)      (au)      (au)
-----------------------------------------------------------------------------
   0   17552.1    569.7   1.557539445  29.21369   0.61893  -0.97548   5.28006
   1   19855.4    503.6   0.284635864   4.71941  -1.47591   0.75016  -1.40655
   2   23899.7    418.4   0.059390770   0.81809  -0.50199   0.01487  -0.75225
   3   25628.8    390.2   0.185114471   2.37787   0.09050  -1.27245   0.86634
   4   26203.8    381.6   0.110963999   1.39410   0.88383  -0.72138   0.30422
   5   26252.1    380.9   0.019628700   0.24615  -0.36372   0.33275   0.05601
   6   26510.7    377.2   0.045367078   0.56337   0.60070  -0.16137   0.42010
   7   26764.1    373.6   0.036048362   0.44341  -0.07881  -0.57680  -0.32327
   8   27299.3    366.3   0.005825738   0.07025   0.18656   0.07542   0.17251
   9   27825.6    359.4   0.018200763   0.21534   0.35930  -0.27782  -0.09516
  10   28007.8    357.0   0.029819451   0.35051   0.11041  -0.58145  -0.01532
  11   28172.1    355.0   0.021183000   0.24754   0.01455  -0.29850   0.39778
  12   28666.4    348.8   0.057869272   0.66459   0.29258   0.38573  -0.65589
  13   28993.5    344.9   0.142345377   1.61629   0.14835   0.55015   1.13649
  14   29690.4    336.8   0.072571046   0.80468  -0.01686  -0.20686   0.87270
  15   29727.9    336.4   0.013316879   0.14747  -0.10569   0.17931   0.32273
  16   31652.8    315.9   0.546612508   5.68517   0.30510   0.43760   2.32392
  17   31833.0    314.1   0.190272806   1.96777  -0.02515   0.33892  -1.36098
  18   32576.2    307.0   0.245496325   2.48096   0.16616  -0.59489  -1.44895
  19   33062.8    302.5   0.124930444   1.24396  -0.61217  -0.60619   0.70834
  20   33153.8    301.6   0.051958835   0.51594   0.39162  -0.18080   0.57436
  21   33306.2    300.2   0.819014647   8.09548  -0.47144   1.17933   2.54606
  22   33832.5    295.6   0.105291632   1.02455  -0.39838   0.62311  -0.69107
  23   34407.4    290.6   0.346307495   3.31349   0.28480  -0.21192   1.78535
  24   34606.3    289.0   0.114396898   1.08827   0.10904   0.93735   0.44470
  25   34708.3    288.1   0.318898413   3.02478   0.85472  -1.16052   0.97336
  26   35058.3    285.2   0.037606478   0.35314  -0.13104   0.24037   0.52744
  27   35596.8    280.9   0.002464340   0.02279   0.02373   0.03041  -0.14596
  28   35883.9    278.7   0.105636777   0.96915   0.18818  -0.60618  -0.75252
  29   36376.3    274.9   0.013247020   0.11989  -0.14063   0.31635   0.00603
  30   36570.6    273.4   0.050426722   0.45395  -0.12041  -0.32091  -0.58006
  31   36636.7    273.0   0.038543791   0.34635   0.09186  -0.29889  -0.49857
  32   37084.7    269.7   0.175984199   1.56226   0.54550  -0.82265  -0.76678
  33   37299.2    268.1   0.057504879   0.50755   0.57831  -0.14462  -0.39011
  34   37351.4    267.7   0.071604337   0.63111  -0.05846   0.60304   0.51384
  35   37894.9    263.9   0.024310305   0.21120   0.17007   0.33154   0.26898
  36   37910.6    263.8   0.051247396   0.44503   0.03442  -0.15627   0.64763
  37   38018.8    263.0   0.094206272   0.81575   0.38587   0.60341   0.55022
  38   38196.9    261.8   0.270721385   2.33330   0.57984  -0.25453   1.39007
  39   38512.3    259.7   0.204177090   1.74535   0.40369   0.45214  -1.17386
  40   38711.9    258.3   0.016222182   0.13796   0.09116   0.35881  -0.03009
  41   38999.6    256.4   0.020053053   0.16928   0.35056  -0.04487  -0.21065
  42   39104.5    255.7   0.091825289   0.77306  -0.79209  -0.30110  -0.23449
  43   39204.3    255.1   0.002010989   0.01689   0.01088   0.12516  -0.03320
  44   39403.8    253.8   0.039356387   0.32882  -0.24095   0.50696   0.11725
  45   39716.2    251.8   0.074530694   0.61779  -0.39952   0.53093  -0.41987
  46   39860.0    250.9   0.042640411   0.35218   0.23069   0.53990   0.08641
  47   40115.3    249.3   0.103895066   0.85263  -0.19299   0.62904   0.64784
  48   40197.2    248.8   0.033112367   0.27119  -0.38308  -0.35222  -0.01957

FINAL SINGLE POINT ENERGY     -3988.367837296714

DIPOLE MOMENT
-------------
                                X             Y             Z
Electronic contribution:     -6.20103       2.21368       2.93574
Nuclear contribution   :      8.69178      -0.79917      -4.16257
                        -----------------------------------------
Total Dipole Moment    :      2.49076       1.41451      -1.22684
                        -----------------------------------------
Magnitude (a.u.)       :      3.11606
Magnitude (Debye)      :      7.92040

Rotational constants in cm-1:     0.001989     0.000163     0.000154
Rotational constants in MHz :    59.616192     4.875961     4.628984

                             ****ORCA TERMINATED NORMALLY****
TOTAL RUN TIME: 0 days 0 hours 8 minutes 52 seconds 759 msec
