                         Program Version 4.2.0 -  RELEASE  -
|  1> # ORCA input file
|  2> # SCF done       -185.457488634824          0.000550713211
|  3> ! CAM-B3LYP def2-SVP def2/J RIJCOSX Grid4 TightSCF
|  4> %maxcore 5000
|  5> %tddft
|  6>     Mode sTDDFT
|  7>     Ethresh 5.0
|  8>     maxcore 5000
|  9> end
| 10>
| 11> %pal
| 12>   nprocs 6
| 13>   end
| 14> * xyz 0 1
| 15>    C       13.83374        10.49479        -5.92216
| 16>    C       13.50733        11.64306        -6.58832
| 17>    F       14.15583        12.78587        -6.29576
| 18>    C       12.51292        11.68317        -7.57482
| 19>    C       11.84283        10.53239        -7.88461
| 20>    C       12.13767         9.32019        -7.22787
| 21>    C       13.15371         9.29999        -6.22829
| 22>    C       13.46985         8.09499        -5.55771
| 23>    C       12.78562         6.95308        -5.87320
| 24>    C       11.76147         6.98217        -6.86372
| 25>    C       11.44319         8.12791        -7.53343
| 26>    C       11.15584         5.64085        -6.97575
| 27>    O       10.30364         5.27020        -7.75057
| 28>    C       11.77525         4.84330        -5.87960
| 29>    C       12.89932         5.58909        -5.36666
| 30>    C       13.98619         5.06758        -4.71495
| 31>    C       14.15394         3.68972        -4.47537
| 32>    N       14.33358         2.57196        -4.28348
| 33>    C       15.08062         5.83482        -4.27189
| 34>    N       15.98387         6.41746        -3.86798
| 35>    C       11.17396         3.68703        -5.48716
| 36>    C       11.28865         2.95874        -4.27035
| 37>    C       10.85663         1.62577        -4.21113
| 38>    N       10.88429         0.85570        -3.14874
| 39>    C       11.32596         1.30370        -1.96769
| 40>    C       11.77322         2.65167        -1.86900
| 41>    C       11.74513         3.49201        -3.03358
| 42>    N       12.13433         4.73328        -2.75217
| 43>    S       12.52266         4.81869        -1.18770
| 44>    N       12.19648         3.29370        -0.78876
| 45>    C       11.27966         0.41760        -0.87875
| 46>    C       10.78150        -0.85443        -1.03704
| 47>    C       10.62461        -1.84603        -0.03699
| 48>    C       10.07841        -3.00572        -0.49350
| 49>    C        9.79281        -2.97645        -1.87743
| 50>    S       10.22563        -1.42088        -2.58546
| 51>    C        9.23209        -3.99505        -2.62204
| 52>    C        8.91353        -3.98056        -3.99971
| 53>    C        8.33807        -5.12984        -4.44399
| 54>    C        8.16145        -6.12071        -3.44094
| 55>    S        8.80443        -5.53484        -1.91431
| 56>    C        7.46936        -7.29570        -3.58882
| 57>    C        7.20285        -8.22291        -2.55656
| 58>    C        7.97885        -8.36667        -1.39170
| 59>    N        7.57315        -8.93874        -0.28468
| 60>    C        6.37799        -9.51390        -0.18787
| 61>    C        5.62047        -9.71095        -1.37125
| 62>    C        6.03405        -9.03209        -2.57202
| 63>    N        5.17587        -9.22079        -3.56855
| 64>    S        3.98156       -10.16752        -3.05178
| 65>    N        4.48037       -10.37278        -1.53732
| 66>    C        5.89258        -9.86592         1.11181
| 67>    C        6.27150        -9.23906         2.25492
| 68>    C        6.09692        -9.87575         3.59034
| 69>    O        5.37387       -10.80249         3.86950
| 70>    C        7.05022        -9.16856         4.47128
| 71>    C        7.37905        -9.43565         5.76914
| 72>    C        8.34266        -8.63036         6.41716
| 73>    C        8.95616        -7.56060         5.70140
| 74>    C        9.92077        -6.76715         6.35259
| 75>    C       10.24439        -7.03589         7.65325
| 76>    C        9.65073        -8.08055         8.37489
| 77>    C        8.71378        -8.86181         7.75772
| 78>    F       11.16449        -6.27768         8.27645
| 79>    C        8.59137        -7.30121         4.36024
| 80>    C        7.64936        -8.08970         3.75661
| 81>    C        7.04754        -8.02494         2.43090
| 82>    C        7.01723        -6.91799         1.62471
| 83>    C        6.14579        -6.78358         0.52282
| 84>    N        5.40582        -6.59526        -0.33471
| 85>    C        7.81450        -5.77438         1.80978
| 86>    N        8.47675        -4.83743         1.87217
| 87>    H       14.60722        10.50075        -5.17013
| 88>    H       12.29809        12.61865        -8.06655
| 89>    H       11.07219        10.53803        -8.64077
| 90>    H       14.23722         8.10764        -4.79989
| 91>    H       10.66773         8.12762        -8.28484
| 92>    H       10.43600         3.30378        -6.18664
| 93>    H       10.48403         1.15240        -5.11042
| 94>    H       11.62562         0.75862         0.08391
| 95>    H       10.91150        -1.66386         0.98318
| 96>    H        9.85739        -3.86265         0.12022
| 97>    H        9.10973        -3.11135        -4.60216
| 98>    H        8.01487        -5.30129        -5.45543
| 99>    H        6.97602        -7.47175        -4.53544
|100>    H        8.98852        -7.98098        -1.35937
|101>    H        5.20978       -10.70254         1.18425
|102>    H        6.90819       -10.25092         6.29770
|103>    H       10.39581        -5.95246         5.82875
|104>    H        9.94568        -8.24490         9.39909
|105>    H        8.24291        -9.67231         8.29324
|106>    H        9.07242        -6.49004         3.83639
|107> *
|108>
|109>                          ****END OF INPUT****

CARTESIAN COORDINATES (ANGSTROEM)
---------------------------------
  C     13.833740   10.494790   -5.922160
  C     13.507330   11.643060   -6.588320
  F     14.155830   12.785870   -6.295760
  C     12.512920   11.683170   -7.574820
  C     11.842830   10.532390   -7.884610
  C     12.137670    9.320190   -7.227870
  C     13.153710    9.299990   -6.228290
  C     13.469850    8.094990   -5.557710
  C     12.785620    6.953080   -5.873200
  C     11.761470    6.982170   -6.863720
  C     11.443190    8.127910   -7.533430
  C     11.155840    5.640850   -6.975750
  O     10.303640    5.270200   -7.750570
  C     11.775250    4.843300   -5.879600
  C     12.899320    5.589090   -5.366660
  C     13.986190    5.067580   -4.714950
  C     14.153940    3.689720   -4.475370
  N     14.333580    2.571960   -4.283480
  C     15.080620    5.834820   -4.271890
  N     15.983870    6.417460   -3.867980
  C     11.173960    3.687030   -5.487160
  C     11.288650    2.958740   -4.270350
  C     10.856630    1.625770   -4.211130
  N     10.884290    0.855700   -3.148740
  C     11.325960    1.303700   -1.967690
  C     11.773220    2.651670   -1.869000
  C     11.745130    3.492010   -3.033580
  N     12.134330    4.733280   -2.752170
  S     12.522660    4.818690   -1.187700
  N     12.196480    3.293700   -0.788760
  C     11.279660    0.417600   -0.878750
  C     10.781500   -0.854430   -1.037040
  C     10.624610   -1.846030   -0.036990
  C     10.078410   -3.005720   -0.493500
  C      9.792810   -2.976450   -1.877430
  S     10.225630   -1.420880   -2.585460
  C      9.232090   -3.995050   -2.622040
  C      8.913530   -3.980560   -3.999710
  C      8.338070   -5.129840   -4.443990
  C      8.161450   -6.120710   -3.440940
  S      8.804430   -5.534840   -1.914310
  C      7.469360   -7.295700   -3.588820
  C      7.202850   -8.222910   -2.556560
  C      7.978850   -8.366670   -1.391700
  N      7.573150   -8.938740   -0.284680
  C      6.377990   -9.513900   -0.187870
  C      5.620470   -9.710950   -1.371250
  C      6.034050   -9.032090   -2.572020
  N      5.175870   -9.220790   -3.568550
  S      3.981560  -10.167520   -3.051780
  N      4.480370  -10.372780   -1.537320
  C      5.892580   -9.865920    1.111810
  C      6.271500   -9.239060    2.254920
  C      6.096920   -9.875750    3.590340
  O      5.373870  -10.802490    3.869500
  C      7.050220   -9.168560    4.471280
  C      7.379050   -9.435650    5.769140
  C      8.342660   -8.630360    6.417160
  C      8.956160   -7.560600    5.701400
  C      9.920770   -6.767150    6.352590
  C     10.244390   -7.035890    7.653250
  C      9.650730   -8.080550    8.374890
  C      8.713780   -8.861810    7.757720
  F     11.164490   -6.277680    8.276450
  C      8.591370   -7.301210    4.360240
  C      7.649360   -8.089700    3.756610
  C      7.047540   -8.024940    2.430900
  C      7.017230   -6.917990    1.624710
  C      6.145790   -6.783580    0.522820
  N      5.405820   -6.595260   -0.334710
  C      7.814500   -5.774380    1.809780
  N      8.476750   -4.837430    1.872170
  H     14.607220   10.500750   -5.170130
  H     12.298090   12.618650   -8.066550
  H     11.072190   10.538030   -8.640770
  H     14.237220    8.107640   -4.799890
  H     10.667730    8.127620   -8.284840
  H     10.436000    3.303780   -6.186640
  H     10.484030    1.152400   -5.110420
  H     11.625620    0.758620    0.083910
  H     10.911500   -1.663860    0.983180
  H      9.857390   -3.862650    0.120220
  H      9.109730   -3.111350   -4.602160
  H      8.014870   -5.301290   -5.455430
  H      6.976020   -7.471750   -4.535440
  H      8.988520   -7.980980   -1.359370
  H      5.209780  -10.702540    1.184250
  H      6.908190  -10.250920    6.297700
  H     10.395810   -5.952460    5.828750
  H      9.945680   -8.244900    9.399090
  H      8.242910   -9.672310    8.293240
  H      9.072420   -6.490040    3.836390

 Total Charge           Charge          ....    0
 Multiplicity           Mult            ....    1
 Number of Electrons    NEL             ....  512
 Basis Dimension        Dim             .... 1124

ORBITAL ENERGIES
----------------

  NO   OCC          E(Eh)            E(eV)
   0   2.0000     -89.038471     -2422.8600
   1   2.0000     -89.024979     -2422.4928
   2   2.0000     -88.963818     -2420.8286
   3   2.0000     -88.955172     -2420.5933
   4   2.0000     -24.789610      -674.5596
   5   2.0000     -24.779053      -674.2723
   6   2.0000     -19.218316      -522.9570
   7   2.0000     -19.204011      -522.5677
   8   2.0000     -14.452983      -393.2857
   9   2.0000     -14.450826      -393.2270
  10   2.0000     -14.446236      -393.1021
  11   2.0000     -14.435867      -392.8199
  12   2.0000     -14.427095      -392.5812
  13   2.0000     -14.425646      -392.5418
  14   2.0000     -14.417163      -392.3110
  15   2.0000     -14.415497      -392.2656
  16   2.0000     -14.405223      -391.9861
  17   2.0000     -14.403477      -391.9385
  18   2.0000     -10.373644      -282.2812
  19   2.0000     -10.370222      -282.1881
  20   2.0000     -10.361934      -281.9626
  21   2.0000     -10.355128      -281.7774
  22   2.0000     -10.345391      -281.5124
  23   2.0000     -10.344810      -281.4966
  24   2.0000     -10.338157      -281.3156
  25   2.0000     -10.336971      -281.2833
  26   2.0000     -10.336160      -281.2612
  27   2.0000     -10.334232      -281.2088
  28   2.0000     -10.330652      -281.1113
  29   2.0000     -10.329911      -281.0912
  30   2.0000     -10.329356      -281.0761
  31   2.0000     -10.327939      -281.0375
  32   2.0000     -10.327753      -281.0324
  33   2.0000     -10.327374      -281.0221
  34   2.0000     -10.325224      -280.9636
  35   2.0000     -10.325193      -280.9628
  36   2.0000     -10.322571      -280.8914
  37   2.0000     -10.320659      -280.8394
  38   2.0000     -10.320602      -280.8378
  39   2.0000     -10.316686      -280.7313
  40   2.0000     -10.312635      -280.6211
  41   2.0000     -10.310707      -280.5686
  42   2.0000     -10.310525      -280.5637
  43   2.0000     -10.309801      -280.5440
  44   2.0000     -10.308173      -280.4996
  45   2.0000     -10.306242      -280.4471
  46   2.0000     -10.305845      -280.4363
  47   2.0000     -10.305547      -280.4282
  48   2.0000     -10.304869      -280.4097
  49   2.0000     -10.304607      -280.4026
  50   2.0000     -10.303995      -280.3860
  51   2.0000     -10.303505      -280.3726
  52   2.0000     -10.302882      -280.3557
  53   2.0000     -10.301582      -280.3203
  54   2.0000     -10.300563      -280.2926
  55   2.0000     -10.298437      -280.2347
  56   2.0000     -10.297592      -280.2117
  57   2.0000     -10.295312      -280.1497
  58   2.0000     -10.294564      -280.1293
  59   2.0000     -10.293109      -280.0897
  60   2.0000     -10.293005      -280.0869
  61   2.0000     -10.292462      -280.0721
  62   2.0000     -10.291393      -280.0430
  63   2.0000     -10.291072      -280.0343
  64   2.0000     -10.290441      -280.0171
  65   2.0000     -10.290343      -280.0145
  66   2.0000     -10.287830      -279.9461
  67   2.0000     -10.286849      -279.9194
  68   2.0000     -10.284081      -279.8441
  69   2.0000     -10.281396      -279.7710
  70   2.0000     -10.281080      -279.7624
  71   2.0000     -10.280128      -279.7365
  72   2.0000      -8.130220      -221.2345
  73   2.0000      -8.116603      -220.8640
  74   2.0000      -8.059255      -219.3035
  75   2.0000      -8.048176      -219.0020
  76   2.0000      -6.101362      -166.0265
  77   2.0000      -6.093570      -165.8145
  78   2.0000      -6.092761      -165.7925
  79   2.0000      -6.087886      -165.6598
  80   2.0000      -6.080159      -165.4495
  81   2.0000      -6.078839      -165.4136
  82   2.0000      -6.029015      -164.0578
  83   2.0000      -6.024846      -163.9444
  84   2.0000      -6.020306      -163.8209
  85   2.0000      -6.018293      -163.7661
  86   2.0000      -6.013350      -163.6316
  87   2.0000      -6.009555      -163.5283
  88   2.0000      -1.304507       -35.4975
  89   2.0000      -1.293691       -35.2031
  90   2.0000      -1.138490       -30.9799
  91   2.0000      -1.133480       -30.8435
  92   2.0000      -1.126816       -30.6622
  93   2.0000      -1.119092       -30.4520
  94   2.0000      -1.062700       -28.9175
  95   2.0000      -1.054313       -28.6893
  96   2.0000      -1.022796       -27.8317
  97   2.0000      -1.008781       -27.4503
  98   2.0000      -1.008010       -27.4293
  99   2.0000      -1.005986       -27.3743
 100   2.0000      -0.999082       -27.1864
 101   2.0000      -0.993516       -27.0349
 102   2.0000      -0.990648       -26.9569
 103   2.0000      -0.986373       -26.8406
 104   2.0000      -0.983295       -26.7568
 105   2.0000      -0.980294       -26.6751
 106   2.0000      -0.979412       -26.6512
 107   2.0000      -0.965642       -26.2764
 108   2.0000      -0.934693       -25.4343
 109   2.0000      -0.926813       -25.2199
 110   2.0000      -0.922848       -25.1120
 111   2.0000      -0.911517       -24.8036
 112   2.0000      -0.911348       -24.7990
 113   2.0000      -0.901525       -24.5317
 114   2.0000      -0.895327       -24.3631
 115   2.0000      -0.889754       -24.2114
 116   2.0000      -0.886627       -24.1263
 117   2.0000      -0.881793       -23.9948
 118   2.0000      -0.876504       -23.8509
 119   2.0000      -0.868308       -23.6279
 120   2.0000      -0.855851       -23.2889
 121   2.0000      -0.849674       -23.1208
 122   2.0000      -0.839400       -22.8412
 123   2.0000      -0.834343       -22.7036
 124   2.0000      -0.831920       -22.6377
 125   2.0000      -0.824705       -22.4414
 126   2.0000      -0.811904       -22.0930
 127   2.0000      -0.798432       -21.7264
 128   2.0000      -0.780970       -21.2513
 129   2.0000      -0.771587       -20.9960
 130   2.0000      -0.763191       -20.7675
 131   2.0000      -0.758381       -20.6366
 132   2.0000      -0.749314       -20.3899
 133   2.0000      -0.741317       -20.1723
 134   2.0000      -0.737433       -20.0666
 135   2.0000      -0.725747       -19.7486
 136   2.0000      -0.724269       -19.7084
 137   2.0000      -0.718285       -19.5455
 138   2.0000      -0.713042       -19.4028
 139   2.0000      -0.711059       -19.3489
 140   2.0000      -0.700518       -19.0621
 141   2.0000      -0.699962       -19.0469
 142   2.0000      -0.686316       -18.6756
 143   2.0000      -0.683922       -18.6105
 144   2.0000      -0.673936       -18.3387
 145   2.0000      -0.669111       -18.2074
 146   2.0000      -0.658839       -17.9279
 147   2.0000      -0.652449       -17.7540
 148   2.0000      -0.644686       -17.5428
 149   2.0000      -0.642047       -17.4710
 150   2.0000      -0.637519       -17.3478
 151   2.0000      -0.633948       -17.2506
 152   2.0000      -0.631714       -17.1898
 153   2.0000      -0.626656       -17.0522
 154   2.0000      -0.624654       -16.9977
 155   2.0000      -0.621473       -16.9111
 156   2.0000      -0.617710       -16.8087
 157   2.0000      -0.610783       -16.6202
 158   2.0000      -0.606933       -16.5155
 159   2.0000      -0.602536       -16.3958
 160   2.0000      -0.599115       -16.3027
 161   2.0000      -0.586487       -15.9591
 162   2.0000      -0.583716       -15.8837
 163   2.0000      -0.576332       -15.6828
 164   2.0000      -0.572251       -15.5717
 165   2.0000      -0.568771       -15.4770
 166   2.0000      -0.567149       -15.4329
 167   2.0000      -0.565475       -15.3873
 168   2.0000      -0.562168       -15.2974
 169   2.0000      -0.560033       -15.2393
 170   2.0000      -0.558559       -15.1992
 171   2.0000      -0.556413       -15.1408
 172   2.0000      -0.553220       -15.0539
 173   2.0000      -0.552752       -15.0412
 174   2.0000      -0.551416       -15.0048
 175   2.0000      -0.541890       -14.7456
 176   2.0000      -0.541387       -14.7319
 177   2.0000      -0.537476       -14.6255
 178   2.0000      -0.536385       -14.5958
 179   2.0000      -0.529730       -14.4147
 180   2.0000      -0.527798       -14.3621
 181   2.0000      -0.527225       -14.3465
 182   2.0000      -0.524113       -14.2618
 183   2.0000      -0.517845       -14.0913
 184   2.0000      -0.516607       -14.0576
 185   2.0000      -0.515541       -14.0286
 186   2.0000      -0.515396       -14.0246
 187   2.0000      -0.512496       -13.9457
 188   2.0000      -0.509298       -13.8587
 189   2.0000      -0.506139       -13.7727
 190   2.0000      -0.502907       -13.6848
 191   2.0000      -0.500984       -13.6325
 192   2.0000      -0.498644       -13.5688
 193   2.0000      -0.495457       -13.4821
 194   2.0000      -0.492964       -13.4142
 195   2.0000      -0.490612       -13.3502
 196   2.0000      -0.487029       -13.2527
 197   2.0000      -0.485066       -13.1993
 198   2.0000      -0.484384       -13.1807
 199   2.0000      -0.481454       -13.1010
 200   2.0000      -0.479279       -13.0419
 201   2.0000      -0.479033       -13.0351
 202   2.0000      -0.475395       -12.9362
 203   2.0000      -0.474746       -12.9185
 204   2.0000      -0.470964       -12.8156
 205   2.0000      -0.468101       -12.7377
 206   2.0000      -0.466481       -12.6936
 207   2.0000      -0.461387       -12.5550
 208   2.0000      -0.458348       -12.4723
 209   2.0000      -0.457446       -12.4477
 210   2.0000      -0.451104       -12.2752
 211   2.0000      -0.449976       -12.2445
 212   2.0000      -0.448965       -12.2170
 213   2.0000      -0.445231       -12.1154
 214   2.0000      -0.443600       -12.0710
 215   2.0000      -0.439871       -11.9695
 216   2.0000      -0.436508       -11.8780
 217   2.0000      -0.434396       -11.8205
 218   2.0000      -0.432576       -11.7710
 219   2.0000      -0.430802       -11.7227
 220   2.0000      -0.429341       -11.6830
 221   2.0000      -0.428628       -11.6636
 222   2.0000      -0.426473       -11.6049
 223   2.0000      -0.422051       -11.4846
 224   2.0000      -0.418715       -11.3938
 225   2.0000      -0.417241       -11.3537
 226   2.0000      -0.416499       -11.3335
 227   2.0000      -0.412996       -11.2382
 228   2.0000      -0.408858       -11.1256
 229   2.0000      -0.404056       -10.9949
 230   2.0000      -0.399671       -10.8756
 231   2.0000      -0.397166       -10.8074
 232   2.0000      -0.394752       -10.7418
 233   2.0000      -0.388743       -10.5782
 234   2.0000      -0.384858       -10.4725
 235   2.0000      -0.383993       -10.4490
 236   2.0000      -0.373606       -10.1663
 237   2.0000      -0.370676       -10.0866
 238   2.0000      -0.366970        -9.9858
 239   2.0000      -0.359847        -9.7919
 240   2.0000      -0.354389        -9.6434
 241   2.0000      -0.353085        -9.6079
 242   2.0000      -0.351541        -9.5659
 243   2.0000      -0.346442        -9.4272
 244   2.0000      -0.338684        -9.2161
 245   2.0000      -0.335418        -9.1272
 246   2.0000      -0.330820        -9.0021
 247   2.0000      -0.328984        -8.9521
 248   2.0000      -0.322765        -8.7829
 249   2.0000      -0.316270        -8.6061
 250   2.0000      -0.307396        -8.3647
 251   2.0000      -0.301082        -8.1929
 252   2.0000      -0.298508        -8.1228
 253   2.0000      -0.288022        -7.8375
 254   2.0000      -0.277543        -7.5523
 255   2.0000      -0.231362        -6.2957
 256   0.0000      -0.125308        -3.4098
 257   0.0000      -0.098640        -2.6841
 258   0.0000      -0.073264        -1.9936
 259   0.0000      -0.061307        -1.6682
 260   0.0000      -0.053495        -1.4557

MULLIKEN ATOMIC CHARGES
-----------------------
   0 C :   -0.104179
   1 C :    0.303213
   2 F :   -0.192802
   3 C :   -0.030899
   4 C :   -0.014094
   5 C :    0.103927
   6 C :    0.107966
   7 C :   -0.097313
   8 C :    0.043516
   9 C :    0.012942
  10 C :   -0.088476
  11 C :    0.136388
  12 O :   -0.149690
  13 C :   -0.128985
  14 C :    0.325944
  15 C :   -0.322480
  16 C :   -0.212811
  17 N :    0.162167
  18 C :   -0.197151
  19 N :    0.150826
  20 C :    0.005780
  21 C :    0.011751
  22 C :    0.028756
  23 N :   -0.142796
  24 C :    0.055204
  25 C :    0.026954
  26 C :    0.056047
  27 N :   -0.294440
  28 S :    0.516051
  29 N :   -0.247900
  30 C :   -0.066893
  31 C :    0.025817
  32 C :    0.035654
  33 C :    0.045093
  34 C :   -0.035874
  35 S :    0.143155
  36 C :   -0.050039
  37 C :    0.036556
  38 C :    0.050282
  39 C :   -0.016071
  40 S :    0.088917
  41 C :   -0.010622
  42 C :    0.038415
  43 C :   -0.052748
  44 N :   -0.033350
  45 C :   -0.111385
  46 C :    0.077381
  47 C :    0.035908
  48 N :   -0.272667
  49 S :    0.528744
  50 N :   -0.251675
  51 C :    0.043857
  52 C :   -0.103396
  53 C :    0.141542
  54 O :   -0.133276
  55 C :   -0.000883
  56 C :   -0.076232
  57 C :    0.100510
  58 C :    0.104615
  59 C :   -0.099365
  60 C :    0.305052
  61 C :   -0.029406
  62 C :   -0.008329
  63 F :   -0.189667
  64 C :   -0.086532
  65 C :    0.046053
  66 C :    0.307621
  67 C :   -0.340398
  68 C :   -0.185993
  69 N :    0.154650
  70 C :   -0.138332
  71 N :    0.126533
  72 H :   -0.003370
  73 H :    0.000313
  74 H :   -0.009805
  75 H :   -0.006418
  76 H :   -0.013426
  77 H :    0.015500
  78 H :   -0.000428
  79 H :   -0.005060
  80 H :   -0.000685
  81 H :   -0.000062
  82 H :    0.011617
  83 H :    0.002789
  84 H :    0.009934
  85 H :    0.022573
  86 H :    0.031404
  87 H :   -0.009024
  88 H :   -0.003862
  89 H :    0.005287
  90 H :   -0.007114
  91 H :   -0.006798
Sum of atomic charges:   -0.0000000

LOEWDIN ATOMIC CHARGES
----------------------
   0 C :   -0.043859
   1 C :    0.091658
   2 F :   -0.067285
   3 C :   -0.040399
   4 C :    0.003576
   5 C :   -0.020400
   6 C :    0.003563
   7 C :    0.006728
   8 C :   -0.011448
   9 C :   -0.058843
  10 C :    0.031858
  11 C :    0.084299
  12 O :   -0.149360
  13 C :   -0.090875
  14 C :    0.076015
  15 C :   -0.137176
  16 C :   -0.018804
  17 N :   -0.062025
  18 C :   -0.019659
  19 N :   -0.061453
  20 C :    0.068338
  21 C :   -0.088350
  22 C :    0.070658
  23 N :   -0.107266
  24 C :    0.034657
  25 C :   -0.060381
  26 C :   -0.032987
  27 N :   -0.284866
  28 S :    0.645387
  29 N :   -0.263369
  30 C :   -0.069392
  31 C :   -0.102281
  32 C :   -0.024454
  33 C :   -0.009751
  34 C :   -0.184596
  35 S :    0.450758
  36 C :   -0.152756
  37 C :   -0.022298
  38 C :   -0.013775
  39 C :   -0.123894
  40 S :    0.419323
  41 C :   -0.033176
  42 C :   -0.031756
  43 C :   -0.006672
  44 N :   -0.044145
  45 C :   -0.014499
  46 C :   -0.055257
  47 C :   -0.032493
  48 N :   -0.280759
  49 S :    0.666824
  50 N :   -0.274936
  51 C :    0.071029
  52 C :   -0.061161
  53 C :    0.082954
  54 O :   -0.135522
  55 C :   -0.058850
  56 C :    0.035898
  57 C :   -0.017606
  58 C :    0.004080
  59 C :   -0.043021
  60 C :    0.094270
  61 C :   -0.035595
  62 C :    0.005770
  63 F :   -0.064125
  64 C :    0.010212
  65 C :   -0.014821
  66 C :    0.084996
  67 C :   -0.131328
  68 C :   -0.018138
  69 N :   -0.059531
  70 C :   -0.003543
  71 N :   -0.066932
  72 H :    0.042305
  73 H :    0.040589
  74 H :    0.034915
  75 H :    0.038164
  76 H :    0.038449
  77 H :    0.045306
  78 H :    0.027574
  79 H :    0.040577
  80 H :    0.038847
  81 H :    0.028833
  82 H :    0.036181
  83 H :    0.039466
  84 H :    0.043525
  85 H :    0.015728
  86 H :    0.052033
  87 H :    0.040594
  88 H :    0.042410
  89 H :    0.042674
  90 H :    0.036549
  91 H :    0.038294

  Mayer bond orders larger than 0.100000
B(  0-C ,  1-C ) :   1.4412 B(  0-C ,  6-C ) :   1.2018 B(  0-C , 72-H ) :   1.0075
B(  1-C ,  2-F ) :   1.0861 B(  1-C ,  3-C ) :   1.2553 B(  3-C ,  4-C ) :   1.4590
B(  3-C , 73-H ) :   0.9929 B(  4-C ,  5-C ) :   1.2349 B(  4-C , 74-H ) :   0.9977
B(  5-C ,  6-C ) :   1.2570 B(  5-C , 10-C ) :   1.1886 B(  6-C ,  7-C ) :   1.1978
B(  7-C ,  8-C ) :   1.4649 B(  7-C , 75-H ) :   0.9961 B(  8-C ,  9-C ) :   1.2143
B(  8-C , 14-C ) :   1.0007 B(  9-C , 10-C ) :   1.4720 B(  9-C , 11-C ) :   0.9187
B( 10-C , 76-H ) :   1.0161 B( 11-C , 12-O ) :   2.2615 B( 11-C , 13-C ) :   0.9429
B( 13-C , 14-C ) :   1.0539 B( 13-C , 20-C ) :   1.6292 B( 14-C , 15-C ) :   1.6347
B( 15-C , 16-C ) :   1.1658 B( 15-C , 18-C ) :   1.1506 B( 16-C , 17-N ) :   3.0082
B( 18-C , 19-N ) :   2.9845 B( 20-C , 21-C ) :   1.1233 B( 20-C , 77-H ) :   0.9416
B( 21-C , 22-C ) :   1.3457 B( 21-C , 26-C ) :   1.1772 B( 22-C , 23-N ) :   1.4856
B( 22-C , 78-H ) :   0.9760 B( 23-N , 24-C ) :   1.4391 B( 23-N , 35-S ) :   0.1172
B( 24-C , 25-C ) :   1.0927 B( 24-C , 30-C ) :   1.2763 B( 25-C , 26-C ) :   1.1938
B( 25-C , 29-N ) :   1.6024 B( 26-C , 27-N ) :   1.5305 B( 27-N , 28-S ) :   1.2329
B( 27-N , 29-N ) :   0.1324 B( 28-S , 29-N ) :   1.2664 B( 30-C , 31-C ) :   1.4342
B( 30-C , 79-H ) :   0.9884 B( 31-C , 32-C ) :   1.1413 B( 31-C , 35-S ) :   1.1156
B( 32-C , 33-C ) :   1.5823 B( 32-C , 80-H ) :   1.0056 B( 33-C , 34-C ) :   1.1561
B( 33-C , 81-H ) :   0.9808 B( 34-C , 35-S ) :   0.9758 B( 34-C , 36-C ) :   1.5571
B( 36-C , 37-C ) :   1.1581 B( 36-C , 40-S ) :   1.0636 B( 37-C , 38-C ) :   1.5939
B( 37-C , 82-H ) :   0.9926 B( 38-C , 39-C ) :   1.1397 B( 38-C , 83-H ) :   1.0000
B( 39-C , 40-S ) :   1.0520 B( 39-C , 41-C ) :   1.5501 B( 41-C , 42-C ) :   1.1648
B( 41-C , 84-H ) :   0.9692 B( 42-C , 43-C ) :   1.3144 B( 42-C , 45-C ) :   0.1014
B( 42-C , 47-C ) :   1.1897 B( 43-C , 44-N ) :   1.4845 B( 43-C , 85-H ) :   0.9687
B( 44-N , 45-C ) :   1.5718 B( 45-C , 46-C ) :   1.1299 B( 45-C , 51-C ) :   1.0815
B( 46-C , 47-C ) :   1.1810 B( 46-C , 50-N ) :   1.5698 B( 47-C , 48-N ) :   1.5542
B( 48-N , 49-S ) :   1.2686 B( 48-N , 50-N ) :   0.1480 B( 49-S , 50-N ) :   1.2753
B( 51-C , 52-C ) :   1.6763 B( 51-C , 86-H ) :   0.9609 B( 52-C , 53-C ) :   0.9309
B( 52-C , 66-C ) :   1.0189 B( 53-C , 54-O ) :   2.2911 B( 53-C , 55-C ) :   0.9168
B( 55-C , 56-C ) :   1.4678 B( 55-C , 65-C ) :   1.2145 B( 56-C , 57-C ) :   1.1966
B( 56-C , 87-H ) :   1.0154 B( 57-C , 58-C ) :   1.2553 B( 57-C , 62-C ) :   1.2312
B( 58-C , 59-C ) :   1.2009 B( 58-C , 64-C ) :   1.2046 B( 59-C , 60-C ) :   1.4411
B( 59-C , 88-H ) :   1.0072 B( 60-C , 61-C ) :   1.2543 B( 60-C , 63-F ) :   1.0894
B( 61-C , 62-C ) :   1.4628 B( 61-C , 89-H ) :   0.9921 B( 62-C , 90-H ) :   0.9977
B( 64-C , 65-C ) :   1.4552 B( 64-C , 91-H ) :   0.9948 B( 65-C , 66-C ) :   1.0146
B( 66-C , 67-C ) :   1.6562 B( 67-C , 68-C ) :   1.1577 B( 67-C , 70-C ) :   1.1606
B( 68-C , 69-N ) :   2.9823 B( 70-C , 71-N ) :   2.8947

-----------------------------------------------------------------------------
         ABSORPTION SPECTRUM VIA TRANSITION ELECTRIC DIPOLE MOMENTS
-----------------------------------------------------------------------------
State   Energy  Wavelength   fosc         T2         TX        TY        TZ
        (cm-1)    (nm)                  (au**2)     (au)      (au)      (au)
-----------------------------------------------------------------------------
   0    9102.1   1098.7   1.056355754  38.20731  -2.39893  -5.38154   1.86855
   1   14836.7    674.0   0.544811346  12.08882  -1.03977  -3.31373  -0.16399
   2   18987.1    526.7   0.064284922   1.11462  -0.20075  -0.96362  -0.38178
   3   20601.2    485.4   0.073011082   1.16673  -0.37516  -0.57957  -0.83071
   4   22174.0    451.0   0.059217415   0.87919   0.05244  -0.75372  -0.55529
   5   23023.9    434.3   0.024461285   0.34976  -0.22563  -0.07334   0.54173
   6   23773.2    420.6   0.053636210   0.74276   0.10671  -0.36474  -0.77352
   7   24458.0    408.9   0.020536390   0.27643  -0.04380   0.52059   0.05906
   8   24897.0    401.7   0.047884360   0.63317  -0.20384   0.03715  -0.76827
   9   25325.9    394.9   0.180259652   2.34320  -0.04047   0.20590  -1.51630
  10   25759.2    388.2   0.036806308   0.47040  -0.29388  -0.34077   0.51760
  11   26151.7    382.4   0.049410484   0.62201  -0.27253   0.15906  -0.72279
  12   26200.5    381.7   0.055067361   0.69193  -0.11035   0.04728  -0.82311
  13   26821.6    372.8   0.040666115   0.49914  -0.32264   0.40923  -0.47705
  14   27043.6    369.8   0.016213765   0.19738   0.11276   0.38351   0.19386
  15   27755.5    360.3   0.032482540   0.38528   0.09152  -0.56030   0.25093
  16   28105.6    355.8   0.057376547   0.67208  -0.06003   0.48871  -0.65547
  17   28300.9    353.3   0.118991054   1.38417   0.74870   0.45492   0.78528
  18   28880.7    346.3   0.011343067   0.12930  -0.00140  -0.15391   0.32498
  19   29369.8    340.5   0.254603202   2.85390  -0.12659   0.37537  -1.64225
  20   30177.0    331.4   0.026316703   0.28710   0.33594   0.18671   0.37334
  21   31077.2    321.8   0.245508695   2.60076   0.16836   1.47696  -0.62530
  22   31250.4    320.0   0.190895693   2.01102   0.69213   0.21452   1.21900
  23   31409.6    318.4   0.029534101   0.30955   0.39866  -0.16471   0.35142
  24   31790.5    314.6   0.014755085   0.15280   0.25095   0.27082   0.12837
  25   31980.0    312.7   0.299358151   3.08169  -0.89956  -0.36815  -1.46183
  26   32469.4    308.0   0.048716345   0.49394   0.38824  -0.41632   0.41218
  27   32711.9    305.7   0.076842006   0.77334  -0.50248   0.32459  -0.64458
  28   33096.5    302.1   0.024624404   0.24494  -0.12300   0.25717  -0.40457
  29   33685.1    296.9   0.105398459   1.03008   0.20885  -0.08780   0.98932
  30   33853.0    295.4   0.049090584   0.47739  -0.16376   0.46697  -0.48220
  31   33966.8    294.4   0.019111038   0.18523  -0.42363   0.04699   0.05967
  32   34111.5    293.2   0.284048845   2.74137   0.55597  -1.28876   0.87828
  33   34199.8    292.4   0.049168136   0.47330  -0.19659  -0.31630   0.57845
  34   34515.1    289.7   0.002322947   0.02216   0.13156  -0.05978   0.03572
  35   34694.7    288.2   0.042256167   0.40096  -0.45878   0.06515  -0.43155
  36   34892.7    286.6   0.098507188   0.92941   0.07775  -0.95060   0.14043
  37   34994.9    285.8   0.035495110   0.33392  -0.02082   0.57648  -0.03406
  38   35301.0    283.3   0.353004677   3.29207   0.20192  -1.19007   1.35463
  39   35491.7    281.8   0.144164861   1.33724  -0.42705  -0.16142  -1.06246
  40   35828.5    279.1   0.099640646   0.91555  -0.53505  -0.19718  -0.76837
  41   36124.1    276.8   0.024990474   0.22775  -0.04224   0.47529   0.00818
  42   36248.9    275.9   0.030168476   0.27399   0.19000  -0.12951  -0.47023
  43   36279.0    275.6   0.018466023   0.16757  -0.01506  -0.21912  -0.34544
  44   36777.3    271.9   0.013256677   0.11867   0.18201  -0.29243  -0.00475
  45   36962.1    270.5   0.026242112   0.23373  -0.05026   0.36097  -0.31766
  46   37041.9    270.0   0.037694058   0.33501  -0.20864   0.51583  -0.15935
  47   37240.6    268.5   0.033576221   0.29682  -0.12892  -0.52519   0.06617
  48   37401.9    267.4   0.189479722   1.66780  -0.43903   0.63317  -1.03642
  49   37596.8    266.0   0.015649499   0.13703  -0.20353   0.13041  -0.28036
  50   37802.8    264.5   0.251693376   2.19191  -0.73221   0.93065  -0.88863
  51   38057.3    262.8   0.038635558   0.33421   0.50191   0.15381  -0.24217
  52   38264.1    261.3   0.007284546   0.06267  -0.21034   0.11282  -0.07552
  53   38457.5    260.0   0.012298753   0.10528   0.11811  -0.27814  -0.11818
  54   38591.8    259.1   0.161506974   1.37775   0.51821   0.96516   0.42152
  55   39076.8    255.9   0.034930730   0.29428  -0.17984  -0.20023  -0.47101
  56   39126.7    255.6   0.031496105   0.26501  -0.44376  -0.26032   0.01804
  57   39187.5    255.2   0.167934449   1.41081  -0.18837  -1.05386   0.51448
  58   39542.7    252.9   0.162723306   1.35475   0.60301   0.93327   0.34659
  59   39786.7    251.3   0.004903719   0.04058  -0.08799  -0.04088  -0.17653
  60   40168.2    249.0   0.053554759   0.43893   0.33720   0.18514   0.53940

FINAL SINGLE POINT ENERGY     -4555.871945620482

DIPOLE MOMENT
-------------
                                X             Y             Z
Electronic contribution:      0.30936       0.65132       1.80773
Nuclear contribution   :     -1.95448      -2.64182      -1.00744
                        -----------------------------------------
Total Dipole Moment    :     -1.64512      -1.99050       0.80029
                        -----------------------------------------
Magnitude (a.u.)       :      2.70351
Magnitude (Debye)      :      6.87178

Rotational constants in cm-1:     0.001690     0.000252     0.000225
Rotational constants in MHz :    50.658191     7.560257     6.741546

                             ****ORCA TERMINATED NORMALLY****
TOTAL RUN TIME: 0 days 0 hours 10 minutes 54 seconds 352 msec
