                         Program Version 4.2.0 -  RELEASE  -
|  1> # ORCA input file
|  2> # SCF done       -173.902909525636          0.000715716167
|  3> ! CAM-B3LYP def2-SVP def2/J RIJCOSX Grid4 TightSCF
|  4> %maxcore 5000
|  5> %tddft
|  6>     Mode sTDDFT
|  7>     Ethresh 5.0
|  8>     maxcore 5000
|  9> end
| 10>
| 11> %pal
| 12>   nprocs 6
| 13>   end
| 14> * xyz 0 1
| 15>    C        6.64052         2.98276        10.55063
| 16>    C        6.31100         4.14277        11.19497
| 17>    F        5.79744         4.08688        12.43750
| 18>    C        6.48755         5.40362        10.60996
| 19>    C        7.00942         5.47978         9.34824
| 20>    C        7.36766         4.31598         8.63852
| 21>    C        7.17683         3.04272         9.24989
| 22>    C        7.51658         1.85963         8.55267
| 23>    C        8.03749         1.95288         7.29108
| 24>    C        8.24433         3.22854         6.69222
| 25>    C        7.91408         4.38461         7.33647
| 26>    C        8.84938         3.04412         5.35999
| 27>    O        9.13503         3.89637         4.54663
| 28>    C        9.11123         1.58521         5.24570
| 29>    C        8.42853         0.92878         6.32718
| 30>    C        7.94684        -0.36333         6.32740
| 31>    C        8.00923        -1.18299         5.18991
| 32>    N        8.00536        -1.84820         4.25078
| 33>    C        7.22981        -0.93972         7.39234
| 34>    N        6.66687        -1.46722         8.24306
| 35>    C        9.97181         1.21598         4.24688
| 36>    N       10.76297         0.14904         4.06834
| 37>    C       11.71912         0.19878         3.02682
| 38>    C       12.51989         1.27493         2.78219
| 39>    S       13.53152         1.03655         1.42559
| 40>    C       12.90385        -0.54418         1.18820
| 41>    C       11.93785        -0.87293         2.10057
| 42>    N       11.21486        -2.05130         2.10284
| 43>    C       10.82339        -2.66979         3.35609
| 44>    C       11.58691        -2.12504         4.54721
| 45>    O       12.48829        -2.71947         5.07111
| 46>    C       11.07434        -0.80605         5.10672
| 47>    C       10.86076        -2.65656         0.92004
| 48>    C       10.06226        -3.72683         0.79325
| 49>    C        9.66352        -4.30169        -0.47119
| 50>    C       10.36692        -4.40392        -1.60508
| 51>    C       11.80409        -4.01495        -1.76578
| 52>    C        9.72564        -5.04147        -2.82098
| 53>    N        9.82486        -6.48463        -2.79487
| 54>    C        8.88752        -7.28001        -2.24655
| 55>    C        9.04204        -8.61103        -2.00754
| 56>    C        8.01298        -9.41619        -1.49184
| 57>    C        8.10076       -10.76683        -1.27831
| 58>    C        7.09633       -11.61590        -0.75665
| 59>    C        7.45165       -12.92772        -0.67955
| 60>    C        8.76112       -13.19685        -1.14010
| 61>    S        9.53580       -11.71922        -1.66047
| 62>    C        9.39226       -14.42291        -1.21490
| 63>    C        8.88045       -15.68505        -0.84407
| 64>    C        9.73958       -16.71735        -1.06375
| 65>    C       10.98433       -16.33223        -1.62431
| 66>    S       11.02245       -14.59349        -1.84841
| 67>    C       12.00809       -17.17845        -1.95911
| 68>    C       13.24633       -16.83581        -2.52790
| 69>    S       13.77324       -15.20479        -2.91089
| 70>    C       15.29971       -15.70668        -3.53158
| 71>    C       15.42336       -17.07374        -3.45911
| 72>    C       14.26831       -17.69526        -2.89435
| 73>    O       14.41720       -19.03729        -2.84023
| 74>    C       15.64985       -19.27808        -3.36263
| 75>    N       16.08135       -20.61905        -3.43791
| 76>    O       17.18901       -20.80801        -3.91105
| 77>    O       15.33309       -21.48656        -3.03694
| 78>    C       16.31106       -18.14325        -3.75509
| 79>    H        6.48675         2.02887        11.03052
| 80>    H        6.20867         6.28449        11.16608
| 81>    H        7.15497         6.43998         8.87657
| 82>    H        7.36567         0.90902         9.03958
| 83>    H        8.06536         5.34138         6.85972
| 84>    H       10.10550         1.98488         3.49019
| 85>    H       12.55155         2.20116         3.32108
| 86>    H       13.27657        -1.13923         0.38020
| 87>    H       11.05129        -3.74008         3.28818
| 88>    H        9.74401        -2.53434         3.53104
| 89>    H       11.83350        -0.39452         5.78704
| 90>    H       10.18525        -1.03801         5.69984
| 91>    H       11.21996        -2.13747         0.04674
| 92>    H        9.60058        -4.17445         1.66029
| 93>    H        8.66213        -4.71684        -0.46433
| 94>    H       12.30934        -3.99652        -0.80297
| 95>    H       11.89198        -3.02871        -2.22358
| 96>    H       12.31494        -4.72348        -2.41695
| 97>    H       10.21313        -4.68129        -3.73165
| 98>    H        8.66564        -4.78250        -2.86918
| 99>    H       10.75139        -6.87485        -2.89175
|100>    H        7.93786        -6.80227        -2.04599
|101>    H        9.98873        -9.08653        -2.22635
|102>    H        7.07302        -8.93972        -1.24370
|103>    H        6.13883       -11.22725        -0.45627
|104>    H        6.81021       -13.70771        -0.31089
|105>    H        7.89488       -15.79853        -0.42928
|106>    H        9.52352       -17.74848        -0.84715
|107>    H       11.86281       -18.23561        -1.78028
|108>    H       15.99108       -14.97984        -3.90215
|109>    H       17.28805       -18.10477        -4.18993
|110> *
|111>
|112>                          ****END OF INPUT****

CARTESIAN COORDINATES (ANGSTROEM)
---------------------------------
  C      6.640520    2.982760   10.550630
  C      6.311000    4.142770   11.194970
  F      5.797440    4.086880   12.437500
  C      6.487550    5.403620   10.609960
  C      7.009420    5.479780    9.348240
  C      7.367660    4.315980    8.638520
  C      7.176830    3.042720    9.249890
  C      7.516580    1.859630    8.552670
  C      8.037490    1.952880    7.291080
  C      8.244330    3.228540    6.692220
  C      7.914080    4.384610    7.336470
  C      8.849380    3.044120    5.359990
  O      9.135030    3.896370    4.546630
  C      9.111230    1.585210    5.245700
  C      8.428530    0.928780    6.327180
  C      7.946840   -0.363330    6.327400
  C      8.009230   -1.182990    5.189910
  N      8.005360   -1.848200    4.250780
  C      7.229810   -0.939720    7.392340
  N      6.666870   -1.467220    8.243060
  C      9.971810    1.215980    4.246880
  N     10.762970    0.149040    4.068340
  C     11.719120    0.198780    3.026820
  C     12.519890    1.274930    2.782190
  S     13.531520    1.036550    1.425590
  C     12.903850   -0.544180    1.188200
  C     11.937850   -0.872930    2.100570
  N     11.214860   -2.051300    2.102840
  C     10.823390   -2.669790    3.356090
  C     11.586910   -2.125040    4.547210
  O     12.488290   -2.719470    5.071110
  C     11.074340   -0.806050    5.106720
  C     10.860760   -2.656560    0.920040
  C     10.062260   -3.726830    0.793250
  C      9.663520   -4.301690   -0.471190
  C     10.366920   -4.403920   -1.605080
  C     11.804090   -4.014950   -1.765780
  C      9.725640   -5.041470   -2.820980
  N      9.824860   -6.484630   -2.794870
  C      8.887520   -7.280010   -2.246550
  C      9.042040   -8.611030   -2.007540
  C      8.012980   -9.416190   -1.491840
  C      8.100760  -10.766830   -1.278310
  C      7.096330  -11.615900   -0.756650
  C      7.451650  -12.927720   -0.679550
  C      8.761120  -13.196850   -1.140100
  S      9.535800  -11.719220   -1.660470
  C      9.392260  -14.422910   -1.214900
  C      8.880450  -15.685050   -0.844070
  C      9.739580  -16.717350   -1.063750
  C     10.984330  -16.332230   -1.624310
  S     11.022450  -14.593490   -1.848410
  C     12.008090  -17.178450   -1.959110
  C     13.246330  -16.835810   -2.527900
  S     13.773240  -15.204790   -2.910890
  C     15.299710  -15.706680   -3.531580
  C     15.423360  -17.073740   -3.459110
  C     14.268310  -17.695260   -2.894350
  O     14.417200  -19.037290   -2.840230
  C     15.649850  -19.278080   -3.362630
  N     16.081350  -20.619050   -3.437910
  O     17.189010  -20.808010   -3.911050
  O     15.333090  -21.486560   -3.036940
  C     16.311060  -18.143250   -3.755090
  H      6.486750    2.028870   11.030520
  H      6.208670    6.284490   11.166080
  H      7.154970    6.439980    8.876570
  H      7.365670    0.909020    9.039580
  H      8.065360    5.341380    6.859720
  H     10.105500    1.984880    3.490190
  H     12.551550    2.201160    3.321080
  H     13.276570   -1.139230    0.380200
  H     11.051290   -3.740080    3.288180
  H      9.744010   -2.534340    3.531040
  H     11.833500   -0.394520    5.787040
  H     10.185250   -1.038010    5.699840
  H     11.219960   -2.137470    0.046740
  H      9.600580   -4.174450    1.660290
  H      8.662130   -4.716840   -0.464330
  H     12.309340   -3.996520   -0.802970
  H     11.891980   -3.028710   -2.223580
  H     12.314940   -4.723480   -2.416950
  H     10.213130   -4.681290   -3.731650
  H      8.665640   -4.782500   -2.869180
  H     10.751390   -6.874850   -2.891750
  H      7.937860   -6.802270   -2.045990
  H      9.988730   -9.086530   -2.226350
  H      7.073020   -8.939720   -1.243700
  H      6.138830  -11.227250   -0.456270
  H      6.810210  -13.707710   -0.310890
  H      7.894880  -15.798530   -0.429280
  H      9.523520  -17.748480   -0.847150
  H     11.862810  -18.235610   -1.780280
  H     15.991080  -14.979840   -3.902150
  H     17.288050  -18.104770   -4.189930

 Total Charge           Charge          ....    0
 Multiplicity           Mult            ....    1
 Number of Electrons    NEL             ....  474
 Basis Dimension        Dim             .... 1067

ORBITAL ENERGIES
----------------

  NO   OCC          E(Eh)            E(eV)
   0   2.0000     -88.980406     -2421.2800
   1   2.0000     -88.956124     -2420.6192
   2   2.0000     -88.928423     -2419.8654
   3   2.0000     -88.928294     -2419.8619
   4   2.0000     -24.789792      -674.5645
   5   2.0000     -19.290869      -524.9312
   6   2.0000     -19.238667      -523.5107
   7   2.0000     -19.229333      -523.2568
   8   2.0000     -19.226969      -523.1924
   9   2.0000     -19.217619      -522.9380
  10   2.0000     -14.640588      -398.3907
  11   2.0000     -14.506385      -394.7388
  12   2.0000     -14.461117      -393.5070
  13   2.0000     -14.440355      -392.9420
  14   2.0000     -14.430633      -392.6775
  15   2.0000     -14.420709      -392.4074
  16   2.0000     -10.387215      -282.6505
  17   2.0000     -10.373909      -282.2884
  18   2.0000     -10.372223      -282.2425
  19   2.0000     -10.370346      -282.1915
  20   2.0000     -10.369640      -282.1722
  21   2.0000     -10.353837      -281.7422
  22   2.0000     -10.348054      -281.5849
  23   2.0000     -10.342335      -281.4292
  24   2.0000     -10.340816      -281.3879
  25   2.0000     -10.339133      -281.3421
  26   2.0000     -10.335587      -281.2456
  27   2.0000     -10.324173      -280.9350
  28   2.0000     -10.324086      -280.9327
  29   2.0000     -10.322129      -280.8794
  30   2.0000     -10.320025      -280.8222
  31   2.0000     -10.315493      -280.6988
  32   2.0000     -10.314707      -280.6775
  33   2.0000     -10.314690      -280.6770
  34   2.0000     -10.311417      -280.5879
  35   2.0000     -10.310912      -280.5742
  36   2.0000     -10.308800      -280.5167
  37   2.0000     -10.305931      -280.4386
  38   2.0000     -10.305168      -280.4179
  39   2.0000     -10.304423      -280.3976
  40   2.0000     -10.302259      -280.3387
  41   2.0000     -10.298939      -280.2484
  42   2.0000     -10.298559      -280.2380
  43   2.0000     -10.298480      -280.2359
  44   2.0000     -10.298063      -280.2245
  45   2.0000     -10.296126      -280.1718
  46   2.0000     -10.295378      -280.1515
  47   2.0000     -10.293725      -280.1065
  48   2.0000     -10.291485      -280.0455
  49   2.0000     -10.289536      -279.9925
  50   2.0000     -10.285260      -279.8761
  51   2.0000     -10.283075      -279.8167
  52   2.0000     -10.279289      -279.7137
  53   2.0000     -10.276844      -279.6471
  54   2.0000     -10.273860      -279.5659
  55   2.0000     -10.273251      -279.5494
  56   2.0000     -10.273197      -279.5479
  57   2.0000     -10.269840      -279.4566
  58   2.0000     -10.269564      -279.4490
  59   2.0000     -10.267154      -279.3835
  60   2.0000     -10.264754      -279.3182
  61   2.0000     -10.262417      -279.2546
  62   2.0000     -10.262296      -279.2513
  63   2.0000     -10.255433      -279.0645
  64   2.0000      -8.076361      -219.7690
  65   2.0000      -8.050457      -219.0641
  66   2.0000      -8.024552      -218.3592
  67   2.0000      -8.024424      -218.3557
  68   2.0000      -6.045634      -164.5101
  69   2.0000      -6.041365      -164.3939
  70   2.0000      -6.038601      -164.3187
  71   2.0000      -6.019818      -163.8076
  72   2.0000      -6.015403      -163.6874
  73   2.0000      -6.012919      -163.6198
  74   2.0000      -5.994289      -163.1129
  75   2.0000      -5.994220      -163.1110
  76   2.0000      -5.990343      -163.0055
  77   2.0000      -5.990144      -163.0001
  78   2.0000      -5.985429      -162.8718
  79   2.0000      -5.985317      -162.8688
  80   2.0000      -1.311172       -35.6788
  81   2.0000      -1.304572       -35.4992
  82   2.0000      -1.210287       -32.9336
  83   2.0000      -1.158613       -31.5275
  84   2.0000      -1.134296       -30.8658
  85   2.0000      -1.127063       -30.6689
  86   2.0000      -1.115048       -30.3420
  87   2.0000      -1.073402       -29.2087
  88   2.0000      -1.040816       -28.3220
  89   2.0000      -1.028471       -27.9861
  90   2.0000      -1.009974       -27.4828
  91   2.0000      -1.002410       -27.2770
  92   2.0000      -0.997382       -27.1401
  93   2.0000      -0.981490       -26.7077
  94   2.0000      -0.979938       -26.6655
  95   2.0000      -0.973405       -26.4877
  96   2.0000      -0.954047       -25.9609
  97   2.0000      -0.933249       -25.3950
  98   2.0000      -0.918861       -25.0035
  99   2.0000      -0.917737       -24.9729
 100   2.0000      -0.911587       -24.8055
 101   2.0000      -0.894470       -24.3398
 102   2.0000      -0.891219       -24.2513
 103   2.0000      -0.887695       -24.1554
 104   2.0000      -0.879596       -23.9350
 105   2.0000      -0.874765       -23.8036
 106   2.0000      -0.865450       -23.5501
 107   2.0000      -0.857450       -23.3324
 108   2.0000      -0.854485       -23.2517
 109   2.0000      -0.840868       -22.8812
 110   2.0000      -0.836314       -22.7573
 111   2.0000      -0.830555       -22.6006
 112   2.0000      -0.823061       -22.3966
 113   2.0000      -0.811593       -22.0846
 114   2.0000      -0.807286       -21.9674
 115   2.0000      -0.799953       -21.7678
 116   2.0000      -0.787449       -21.4276
 117   2.0000      -0.782707       -21.2985
 118   2.0000      -0.769620       -20.9424
 119   2.0000      -0.765441       -20.8287
 120   2.0000      -0.762312       -20.7436
 121   2.0000      -0.745349       -20.2820
 122   2.0000      -0.733359       -19.9557
 123   2.0000      -0.718657       -19.5557
 124   2.0000      -0.716756       -19.5039
 125   2.0000      -0.714091       -19.4314
 126   2.0000      -0.700333       -19.0570
 127   2.0000      -0.693920       -18.8825
 128   2.0000      -0.691212       -18.8088
 129   2.0000      -0.688366       -18.7314
 130   2.0000      -0.686819       -18.6893
 131   2.0000      -0.676090       -18.3973
 132   2.0000      -0.667236       -18.1564
 133   2.0000      -0.662327       -18.0228
 134   2.0000      -0.659585       -17.9482
 135   2.0000      -0.654763       -17.8170
 136   2.0000      -0.640509       -17.4291
 137   2.0000      -0.634219       -17.2580
 138   2.0000      -0.628887       -17.1129
 139   2.0000      -0.625340       -17.0164
 140   2.0000      -0.622956       -16.9515
 141   2.0000      -0.616269       -16.7695
 142   2.0000      -0.612673       -16.6717
 143   2.0000      -0.609891       -16.5960
 144   2.0000      -0.607685       -16.5360
 145   2.0000      -0.605114       -16.4660
 146   2.0000      -0.602962       -16.4074
 147   2.0000      -0.600539       -16.3415
 148   2.0000      -0.599136       -16.3033
 149   2.0000      -0.588531       -16.0147
 150   2.0000      -0.583614       -15.8809
 151   2.0000      -0.580664       -15.8007
 152   2.0000      -0.571858       -15.5610
 153   2.0000      -0.571748       -15.5581
 154   2.0000      -0.570546       -15.5253
 155   2.0000      -0.569198       -15.4887
 156   2.0000      -0.562458       -15.3052
 157   2.0000      -0.561274       -15.2730
 158   2.0000      -0.561165       -15.2701
 159   2.0000      -0.556315       -15.1381
 160   2.0000      -0.553739       -15.0680
 161   2.0000      -0.548913       -14.9367
 162   2.0000      -0.547622       -14.9015
 163   2.0000      -0.543235       -14.7822
 164   2.0000      -0.541614       -14.7381
 165   2.0000      -0.537424       -14.6240
 166   2.0000      -0.533942       -14.5293
 167   2.0000      -0.528741       -14.3878
 168   2.0000      -0.528244       -14.3742
 169   2.0000      -0.527073       -14.3424
 170   2.0000      -0.521827       -14.1996
 171   2.0000      -0.517936       -14.0938
 172   2.0000      -0.514357       -13.9964
 173   2.0000      -0.510085       -13.8801
 174   2.0000      -0.507246       -13.8029
 175   2.0000      -0.503279       -13.6949
 176   2.0000      -0.500965       -13.6320
 177   2.0000      -0.499434       -13.5903
 178   2.0000      -0.497309       -13.5325
 179   2.0000      -0.494367       -13.4524
 180   2.0000      -0.491747       -13.3811
 181   2.0000      -0.488293       -13.2871
 182   2.0000      -0.487062       -13.2536
 183   2.0000      -0.484225       -13.1764
 184   2.0000      -0.480747       -13.0818
 185   2.0000      -0.479443       -13.0463
 186   2.0000      -0.478444       -13.0191
 187   2.0000      -0.473207       -12.8766
 188   2.0000      -0.472884       -12.8678
 189   2.0000      -0.465653       -12.6711
 190   2.0000      -0.464465       -12.6387
 191   2.0000      -0.462440       -12.5836
 192   2.0000      -0.461104       -12.5473
 193   2.0000      -0.459291       -12.4979
 194   2.0000      -0.459054       -12.4915
 195   2.0000      -0.458052       -12.4642
 196   2.0000      -0.452543       -12.3143
 197   2.0000      -0.449646       -12.2355
 198   2.0000      -0.448705       -12.2099
 199   2.0000      -0.445823       -12.1315
 200   2.0000      -0.441602       -12.0166
 201   2.0000      -0.440643       -11.9905
 202   2.0000      -0.438080       -11.9208
 203   2.0000      -0.437453       -11.9037
 204   2.0000      -0.434666       -11.8279
 205   2.0000      -0.433655       -11.8004
 206   2.0000      -0.430010       -11.7012
 207   2.0000      -0.425241       -11.5714
 208   2.0000      -0.419165       -11.4061
 209   2.0000      -0.415229       -11.2990
 210   2.0000      -0.413512       -11.2522
 211   2.0000      -0.411312       -11.1924
 212   2.0000      -0.400098       -10.8872
 213   2.0000      -0.392236       -10.6733
 214   2.0000      -0.392141       -10.6707
 215   2.0000      -0.383732       -10.4419
 216   2.0000      -0.378358       -10.2957
 217   2.0000      -0.374054       -10.1785
 218   2.0000      -0.371329       -10.1044
 219   2.0000      -0.367010        -9.9868
 220   2.0000      -0.364559        -9.9201
 221   2.0000      -0.356668        -9.7054
 222   2.0000      -0.354483        -9.6460
 223   2.0000      -0.350275        -9.5315
 224   2.0000      -0.341200        -9.2845
 225   2.0000      -0.337708        -9.1895
 226   2.0000      -0.323278        -8.7968
 227   2.0000      -0.321865        -8.7584
 228   2.0000      -0.321159        -8.7392
 229   2.0000      -0.312973        -8.5164
 230   2.0000      -0.307341        -8.3632
 231   2.0000      -0.301187        -8.1957
 232   2.0000      -0.296226        -8.0607
 233   2.0000      -0.288120        -7.8401
 234   2.0000      -0.256743        -6.9863
 235   2.0000      -0.248033        -6.7493
 236   2.0000      -0.187723        -5.1082
 237   0.0000      -0.086590        -2.3562
 238   0.0000      -0.059478        -1.6185
 239   0.0000      -0.056166        -1.5284
 240   0.0000      -0.041794        -1.1373
 241   0.0000      -0.021751        -0.5919

MULLIKEN ATOMIC CHARGES
-----------------------
   0 C :   -0.098523
   1 C :    0.305035
   2 F :   -0.189376
   3 C :   -0.027081
   4 C :   -0.012335
   5 C :    0.102164
   6 C :    0.102687
   7 C :   -0.088363
   8 C :    0.041114
   9 C :    0.020852
  10 C :   -0.083993
  11 C :    0.132421
  12 O :   -0.162534
  13 C :   -0.173267
  14 C :    0.285139
  15 C :   -0.375093
  16 C :   -0.169462
  17 N :    0.133156
  18 C :   -0.167495
  19 N :    0.158876
  20 C :    0.093856
  21 N :   -0.186884
  22 C :    0.081616
  23 C :   -0.142727
  24 S :    0.151267
  25 C :   -0.196459
  26 C :    0.207766
  27 N :   -0.237944
  28 C :    0.221088
  29 C :   -0.112635
  30 O :   -0.132214
  31 C :    0.232763
  32 C :    0.095487
  33 C :   -0.050850
  34 C :    0.017137
  35 C :   -0.206080
  36 C :    0.082196
  37 C :    0.189553
  38 N :   -0.132552
  39 C :    0.062687
  40 C :   -0.030313
  41 C :   -0.004121
  42 C :   -0.043104
  43 C :    0.047216
  44 C :    0.007429
  45 C :   -0.036691
  46 S :    0.058355
  47 C :   -0.054942
  48 C :    0.034886
  49 C :    0.020554
  50 C :   -0.016160
  51 S :    0.047358
  52 C :   -0.031424
  53 C :   -0.180706
  54 S :    0.129343
  55 C :   -0.145798
  56 C :    0.130970
  57 C :    0.181264
  58 O :   -0.187083
  59 C :    0.227983
  60 N :    0.277353
  61 O :   -0.257701
  62 O :   -0.236941
  63 C :   -0.073392
  64 H :   -0.002501
  65 H :    0.004376
  66 H :   -0.008656
  67 H :   -0.002444
  68 H :   -0.012260
  69 H :    0.051445
  70 H :    0.031852
  71 H :    0.021826
  72 H :    0.033475
  73 H :    0.046469
  74 H :    0.038754
  75 H :    0.071153
  76 H :    0.006103
  77 H :    0.003579
  78 H :   -0.021335
  79 H :    0.027211
  80 H :    0.026913
  81 H :    0.000684
  82 H :    0.006618
  83 H :    0.017408
  84 H :    0.119874
  85 H :    0.000333
  86 H :   -0.015020
  87 H :   -0.022303
  88 H :   -0.020461
  89 H :   -0.021334
  90 H :   -0.020658
  91 H :   -0.018607
  92 H :   -0.005154
  93 H :    0.021468
  94 H :    0.005864
Sum of atomic charges:   -0.0000000

LOEWDIN ATOMIC CHARGES
----------------------
   0 C :   -0.041196
   1 C :    0.093727
   2 F :   -0.064346
   3 C :   -0.035665
   4 C :    0.004597
   5 C :   -0.018913
   6 C :    0.002423
   7 C :    0.012253
   8 C :   -0.019037
   9 C :   -0.058751
  10 C :    0.034398
  11 C :    0.085485
  12 O :   -0.162274
  13 C :   -0.162372
  14 C :    0.079365
  15 C :   -0.168826
  16 C :   -0.009116
  17 N :   -0.062393
  18 C :   -0.023487
  19 N :   -0.053344
  20 C :    0.124887
  21 N :    0.031792
  22 C :   -0.049010
  23 C :   -0.189283
  24 S :    0.471208
  25 C :   -0.219599
  26 C :   -0.020273
  27 N :   -0.012358
  28 C :    0.017715
  29 C :    0.069847
  30 O :   -0.097175
  31 C :    0.026533
  32 C :    0.039093
  33 C :   -0.104655
  34 C :   -0.033478
  35 C :   -0.066229
  36 C :   -0.055139
  37 C :    0.044794
  38 N :    0.009041
  39 C :    0.055443
  40 C :   -0.126736
  41 C :   -0.024880
  42 C :   -0.183063
  43 C :   -0.022080
  44 C :   -0.057405
  45 C :   -0.160779
  46 S :    0.355473
  47 C :   -0.204824
  48 C :   -0.030195
  49 C :   -0.051247
  50 C :   -0.143859
  51 S :    0.351415
  52 C :   -0.097061
  53 C :   -0.196234
  54 S :    0.462954
  55 C :   -0.209109
  56 C :   -0.084669
  57 C :    0.009918
  58 O :   -0.001554
  59 C :    0.020745
  60 N :    0.273319
  61 O :   -0.218523
  62 O :   -0.197711
  63 C :   -0.011425
  64 H :    0.043364
  65 H :    0.042410
  66 H :    0.035871
  67 H :    0.039616
  68 H :    0.039792
  69 H :    0.048517
  70 H :    0.031740
  71 H :    0.025454
  72 H :    0.038831
  73 H :    0.028636
  74 H :    0.040273
  75 H :    0.049767
  76 H :    0.028261
  77 H :    0.029465
  78 H :    0.023717
  79 H :    0.031066
  80 H :    0.031509
  81 H :    0.022887
  82 H :    0.024583
  83 H :    0.031930
  84 H :    0.079550
  85 H :    0.026826
  86 H :    0.018318
  87 H :    0.030529
  88 H :    0.030681
  89 H :    0.028321
  90 H :    0.029645
  91 H :    0.030657
  92 H :    0.041863
  93 H :    0.023757
  94 H :    0.044009

  Mayer bond orders larger than 0.100000
B(  0-C ,  1-C ) :   1.4381 B(  0-C ,  6-C ) :   1.2028 B(  0-C , 64-H ) :   1.0075
B(  1-C ,  2-F ) :   1.0905 B(  1-C ,  3-C ) :   1.2578 B(  3-C ,  4-C ) :   1.4569
B(  3-C , 65-H ) :   0.9932 B(  4-C ,  5-C ) :   1.2363 B(  4-C , 66-H ) :   0.9977
B(  5-C ,  6-C ) :   1.2606 B(  5-C , 10-C ) :   1.1831 B(  6-C ,  7-C ) :   1.1983
B(  7-C ,  8-C ) :   1.4615 B(  7-C , 67-H ) :   0.9959 B(  8-C ,  9-C ) :   1.2186
B(  8-C , 14-C ) :   1.0051 B(  9-C , 10-C ) :   1.4782 B(  9-C , 11-C ) :   0.9282
B( 10-C , 68-H ) :   1.0172 B( 11-C , 12-O ) :   2.2341 B( 11-C , 13-C ) :   0.9735
B( 13-C , 14-C ) :   1.0526 B( 13-C , 20-C ) :   1.5287 B( 14-C , 15-C ) :   1.5918
B( 15-C , 16-C ) :   1.1834 B( 15-C , 18-C ) :   1.1385 B( 16-C , 17-N ) :   2.8908
B( 17-N , 73-H ) :   0.1184 B( 18-C , 19-N ) :   2.9903 B( 20-C , 21-N ) :   1.3166
B( 20-C , 69-H ) :   0.9102 B( 21-N , 22-C ) :   0.9732 B( 21-N , 31-C ) :   0.9407
B( 22-C , 23-C ) :   1.5394 B( 22-C , 26-C ) :   1.2680 B( 23-C , 24-S ) :   1.1957
B( 23-C , 70-H ) :   0.9715 B( 24-S , 25-C ) :   1.1545 B( 25-C , 26-C ) :   1.5081
B( 25-C , 71-H ) :   0.9677 B( 26-C , 27-N ) :   1.0808 B( 27-N , 28-C ) :   0.9597
B( 27-N , 32-C ) :   1.1070 B( 28-C , 29-C ) :   0.9319 B( 28-C , 72-H ) :   0.9131
B( 28-C , 73-H ) :   0.8939 B( 29-C , 30-O ) :   2.2600 B( 29-C , 31-C ) :   0.9543
B( 31-C , 74-H ) :   0.9178 B( 31-C , 75-H ) :   0.9070 B( 32-C , 33-C ) :   1.7178
B( 32-C , 76-H ) :   0.9637 B( 33-C , 34-C ) :   1.0753 B( 33-C , 77-H ) :   0.9521
B( 34-C , 35-C ) :   1.8623 B( 34-C , 78-H ) :   0.9480 B( 35-C , 36-C ) :   1.0791
B( 35-C , 37-C ) :   1.0241 B( 36-C , 79-H ) :   0.9495 B( 36-C , 80-H ) :   0.9437
B( 36-C , 81-H ) :   0.9479 B( 37-C , 38-N ) :   1.0184 B( 37-C , 82-H ) :   0.9409
B( 37-C , 83-H ) :   0.9394 B( 38-N , 39-C ) :   1.2486 B( 38-N , 84-H ) :   0.9376
B( 39-C , 40-C ) :   1.5736 B( 39-C , 85-H ) :   0.9670 B( 40-C , 41-C ) :   1.1882
B( 40-C , 86-H ) :   0.9643 B( 41-C , 42-C ) :   1.5746 B( 41-C , 87-H ) :   0.9766
B( 42-C , 43-C ) :   1.1547 B( 42-C , 46-S ) :   1.0046 B( 43-C , 44-C ) :   1.5831
B( 43-C , 88-H ) :   0.9969 B( 44-C , 45-C ) :   1.1912 B( 44-C , 89-H ) :   0.9929
B( 45-C , 46-S ) :   1.0607 B( 45-C , 47-C ) :   1.5074 B( 47-C , 48-C ) :   1.1956
B( 47-C , 51-S ) :   1.0194 B( 48-C , 49-C ) :   1.5841 B( 48-C , 90-H ) :   0.9912
B( 49-C , 50-C ) :   1.1464 B( 49-C , 91-H ) :   1.0005 B( 50-C , 51-S ) :   1.0431
B( 50-C , 52-C ) :   1.5563 B( 52-C , 53-C ) :   1.1765 B( 52-C , 92-H ) :   0.9735
B( 53-C , 54-S ) :   1.1110 B( 53-C , 55-C ) :   0.1086 B( 53-C , 57-C ) :   1.4423
B( 54-S , 55-C ) :   1.1700 B( 55-C , 56-C ) :   1.4162 B( 55-C , 93-H ) :   0.9757
B( 56-C , 57-C ) :   1.2300 B( 56-C , 63-C ) :   1.0641 B( 57-C , 58-O ) :   1.1116
B( 58-O , 59-C ) :   1.1298 B( 59-C , 60-N ) :   0.9231 B( 59-C , 63-C ) :   1.5664
B( 60-N , 61-O ) :   1.5269 B( 60-N , 62-O ) :   1.5105 B( 61-O , 62-O ) :   0.2764
B( 63-C , 94-H ) :   1.0242

-----------------------------------------------------------------------------
         ABSORPTION SPECTRUM VIA TRANSITION ELECTRIC DIPOLE MOMENTS
-----------------------------------------------------------------------------
State   Energy  Wavelength   fosc         T2         TX        TY        TZ
        (cm-1)    (nm)                  (au**2)     (au)      (au)      (au)
-----------------------------------------------------------------------------
   0   14415.9    693.7   0.812119573  18.54610  -2.43215   3.50039   0.61485
   1   15083.0    663.0   0.000115071   0.00251   0.04798  -0.01385  -0.00421
   2   18193.5    549.6   0.731155993  13.23026   1.09471  -3.46806  -0.06656
   3   21405.3    467.2   0.013852005   0.21304  -0.35849  -0.15027   0.24889
   4   22497.9    444.5   0.000049859   0.00073   0.00167   0.02444   0.01138
   5   25341.6    394.6   0.033906016   0.44047  -0.45178  -0.43594   0.21524
   6   27124.7    368.7   0.165379411   2.00721   1.06220   0.45699  -0.81860
   7   27900.0    358.4   0.060516799   0.71408   0.61552   0.55763  -0.15575
   8   28584.9    349.8   0.003172213   0.03653   0.06095  -0.07437  -0.16519
   9   28969.9    345.2   0.163557923   1.85866  -0.62369   0.19202   1.19700
  10   29512.2    338.8   0.295522048   3.29658   0.99455   1.49096  -0.29067
  11   29705.4    336.6   0.204632627   2.26785  -1.13931  -0.52629   0.83237
  12   30064.9    332.6   0.000231989   0.00254   0.03680   0.02121   0.02714
  13   30392.9    329.0   0.313906617   3.40019  -1.68270  -0.50015   0.56443
  14   30580.5    327.0   0.017895099   0.19265   0.18185  -0.39193  -0.07726
  15   31490.9    317.6   0.038716302   0.40475  -0.52164  -0.13044   0.34004
  16   31686.1    315.6   0.083350066   0.86599   0.24141   0.85217   0.28552
  17   31833.0    314.1   0.040616228   0.42005   0.04501  -0.56897  -0.30707
  18   32453.3    308.1   0.124998249   1.26800   0.76623   0.20850  -0.79839
  19   32785.4    305.0   0.007338773   0.07369  -0.02378   0.27017  -0.01166
  20   33368.0    299.7   0.099990623   0.98652   0.19926  -0.96853  -0.09357
  21   33568.9    297.9   0.092658204   0.90870  -0.03324   0.82365   0.47876
  22   34224.8    292.2   0.087286925   0.83962   0.13878   0.89800  -0.11814
  23   34573.3    289.2   0.819418947   7.80263  -1.04387   1.91349   1.74686
  24   34752.3    287.8   0.012350498   0.11700   0.19734   0.25608  -0.11171
  25   35707.8    280.1   0.489733341   4.51515  -0.37515   1.76501   1.12212
  26   36015.0    277.7   0.002793670   0.02554   0.03140  -0.13726  -0.07557
  27   36467.3    274.2   0.476253648   4.29943  -0.60849   1.96086   0.29017
  28   36523.4    273.8   0.024175727   0.21791  -0.03728   0.10934   0.45229
  29   37066.6    269.8   0.142111004   1.26218  -0.91058  -0.64202  -0.14429
  30   37604.4    265.9   0.025173094   0.22038  -0.42449  -0.17790   0.09241
  31   37948.6    263.5   0.010554142   0.09156  -0.03753   0.22056   0.20373
  32   38610.8    259.0   0.013991192   0.11929  -0.32951  -0.03881  -0.09599
  33   39281.7    254.6   0.026142514   0.21909   0.11438  -0.11656  -0.43866
  34   39373.2    254.0   0.003208690   0.02683  -0.00578   0.16367  -0.00272
  35   39623.9    252.4   0.019108196   0.15876   0.14163   0.20100  -0.31352
  36   39871.2    250.8   0.013641617   0.11264   0.12229  -0.08687  -0.30023
  37   39889.2    250.7   0.028420782   0.23456  -0.21035   0.00176   0.43625
  38   40028.0    249.8   0.094920364   0.78068  -0.49023  -0.24522   0.69298

FINAL SINGLE POINT ENERGY     -4240.956398437326

DIPOLE MOMENT
-------------
                                X             Y             Z
Electronic contribution:      9.21810     -17.96655      22.52503
Nuclear contribution   :     -9.83726      25.26169     -22.17094
                        -----------------------------------------
Total Dipole Moment    :     -0.61917       7.29514       0.35409
                        -----------------------------------------
Magnitude (a.u.)       :      7.32993
Magnitude (Debye)      :     18.63119

Rotational constants in cm-1:     0.001983     0.000200     0.000194
Rotational constants in MHz :    59.461732     5.994825     5.826106

                             ****ORCA TERMINATED NORMALLY****
TOTAL RUN TIME: 0 days 0 hours 7 minutes 9 seconds 562 msec
