                         Program Version 4.2.0 -  RELEASE  -
|  1> # ORCA input file
|  2> # SCF done       -189.179866325057          0.000404887464
|  3> ! CAM-B3LYP def2-SVP def2/J RIJCOSX Grid4 TightSCF
|  4> %maxcore 5000
|  5> %tddft
|  6>     Mode sTDDFT
|  7>     Ethresh 5.0
|  8>     maxcore 5000
|  9> end
| 10>
| 11> %pal
| 12>   nprocs 6
| 13>   end
| 14> * xyz 0 1
| 15>    C        4.98399         7.60278         5.23032
| 16>    C        4.10229         7.62042         6.27468
| 17>    F        4.35649         8.41160         7.33503
| 18>    C        2.94139         6.83649         6.29812
| 19>    C        2.68082         6.01949         5.23365
| 20>    C        3.55719         5.95463         4.13098
| 21>    C        4.73077         6.76394         4.12831
| 22>    C        5.63153         6.70821         3.04031
| 23>    C        5.37616         5.85311         2.00256
| 24>    C        4.20238         5.04456         2.00958
| 25>    C        3.30611         5.09529         3.03785
| 26>    C        4.20226         4.16856         0.81881
| 27>    O        3.34271         3.39574         0.46156
| 28>    C        5.54055         4.36948         0.20317
| 29>    C        6.14069         5.54455         0.80121
| 30>    C        7.12044         6.31732         0.23863
| 31>    C        7.66619         7.45735         0.85916
| 32>    N        8.16167         8.37110         1.34667
| 33>    C        7.64488         6.07264        -1.04555
| 34>    N        8.05514         5.94222        -2.11024
| 35>    C        6.08666         3.41283        -0.58860
| 36>    C        7.46813         3.21227        -0.89384
| 37>    C        7.93439         2.78340        -2.12908
| 38>    C        7.18571         2.48756        -3.37321
| 39>    N        9.28986         2.79294        -2.08892
| 40>    C        9.73429         3.19743        -0.86707
| 41>    C       11.18041         3.26236        -0.53688
| 42>    C        8.63041         3.46188        -0.07606
| 43>    C        8.69811         3.86785         1.30027
| 44>    C        7.73539         3.62695         2.21575
| 45>    C        7.61779         4.12251         3.54379
| 46>    S        6.31963         3.47916         4.49238
| 47>    C        6.62525         4.51961         5.84357
| 48>    C        7.74365         5.32049         5.58205
| 49>    C        8.28841         5.11978         4.26682
| 50>    C        9.37119         5.91872         3.84322
| 51>    C        9.92992         6.81115         4.70856
| 52>    F       10.97146         7.56162         4.31565
| 53>    C        9.45096         6.94034         6.03152
| 54>    F       10.07106         7.78631         6.87182
| 55>    C        8.37805         6.22072         6.46436
| 56>    C        5.72140         4.44178         6.94023
| 57>    C        5.53587         5.36593         7.90749
| 58>    C        4.57941         5.30215         8.97939
| 59>    C        4.09224         4.22436         9.61163
| 60>    C        4.49728         2.80793         9.33560
| 61>    C        3.09708         4.40494        10.72905
| 62>    N        1.84003         3.76860        10.38940
| 63>    C        0.63336         4.25734        10.67355
| 64>    C        0.35814         5.24596        11.58131
| 65>    C       -0.92202         5.74369        11.85546
| 66>    C       -2.10890         5.65137        11.16247
| 67>    C       -3.36322         5.87066        11.92108
| 68>    O       -3.46339         6.27340        13.06091
| 69>    C       -4.45515         5.45524        11.01701
| 70>    C       -5.79319         5.36634        11.26338
| 71>    C       -6.65328         4.90750        10.23921
| 72>    C       -6.10124         4.54350         8.97745
| 73>    C       -6.96137         4.07787         7.96425
| 74>    C       -8.30310         3.98971         8.21082
| 75>    C       -8.86573         4.34583         9.44326
| 76>    C       -8.04413         4.79791        10.43861
| 77>    F       -9.12692         3.54446         7.24240
| 78>    C       -4.70884         4.65531         8.74939
| 79>    C       -3.89928         5.11147         9.75307
| 80>    C       -2.45554         5.35277         9.80134
| 81>    C       -1.66635         5.49125         8.67932
| 82>    C       -0.33874         5.93971         8.69697
| 83>    N        0.75392         6.29632         8.64919
| 84>    C       -2.09925         5.24797         7.36293
| 85>    N       -2.36335         5.03850         6.26418
| 86>    H        5.86790         8.22151         5.24589
| 87>    H        2.28073         6.88547         7.14978
| 88>    H        1.79023         5.40911         5.22649
| 89>    H        6.51897         7.32111         3.06659
| 90>    H        2.42074         4.47753         3.02615
| 91>    H        5.38964         2.68610        -0.99526
| 92>    H        6.21830         2.04867        -3.14188
| 93>    H        7.74738         1.80234        -4.00532
| 94>    H        7.01189         3.40774        -3.93274
| 95>    H        9.88608         2.58113        -2.87345
| 96>    H       11.78141         3.08668        -1.42585
| 97>    H       11.44310         2.51674         0.21372
| 98>    H       11.43461         4.24281        -0.13619
| 99>    H        9.60515         4.38485         1.57502
|100>    H        6.91817         2.97879         1.92298
|101>    H        9.76565         5.85498         2.84518
|102>    H        8.05384         6.32708         7.48475
|103>    H        5.06311         3.58576         6.90176
|104>    H        6.08488         6.29392         7.86139
|105>    H        4.25698         6.27441         9.33060
|106>    H        5.53212         2.76828         9.00203
|107>    H        3.88304         2.35904         8.55326
|108>    H        4.39512         2.20124        10.23434
|109>    H        2.91188         5.46655        10.89750
|110>    H        3.49034         3.96217        11.65593
|111>    H        1.90639         2.98942         9.75390
|112>    H       -0.19024         3.74572        10.19129
|113>    H        1.15966         5.62768        12.19542
|114>    H       -1.03388         6.23992        12.81569
|115>    H       -6.19353         5.64245        12.22736
|116>    H       -6.56363         3.79891         7.00089
|117>    H       -9.93174         4.25608         9.58000
|118>    H       -8.45395         5.07841        11.39735
|119>    H       -4.32004         4.36758         7.78534
|120> *
|121>
|122>                          ****END OF INPUT****

CARTESIAN COORDINATES (ANGSTROEM)
---------------------------------
  C      4.983990    7.602780    5.230320
  C      4.102290    7.620420    6.274680
  F      4.356490    8.411600    7.335030
  C      2.941390    6.836490    6.298120
  C      2.680820    6.019490    5.233650
  C      3.557190    5.954630    4.130980
  C      4.730770    6.763940    4.128310
  C      5.631530    6.708210    3.040310
  C      5.376160    5.853110    2.002560
  C      4.202380    5.044560    2.009580
  C      3.306110    5.095290    3.037850
  C      4.202260    4.168560    0.818810
  O      3.342710    3.395740    0.461560
  C      5.540550    4.369480    0.203170
  C      6.140690    5.544550    0.801210
  C      7.120440    6.317320    0.238630
  C      7.666190    7.457350    0.859160
  N      8.161670    8.371100    1.346670
  C      7.644880    6.072640   -1.045550
  N      8.055140    5.942220   -2.110240
  C      6.086660    3.412830   -0.588600
  C      7.468130    3.212270   -0.893840
  C      7.934390    2.783400   -2.129080
  C      7.185710    2.487560   -3.373210
  N      9.289860    2.792940   -2.088920
  C      9.734290    3.197430   -0.867070
  C     11.180410    3.262360   -0.536880
  C      8.630410    3.461880   -0.076060
  C      8.698110    3.867850    1.300270
  C      7.735390    3.626950    2.215750
  C      7.617790    4.122510    3.543790
  S      6.319630    3.479160    4.492380
  C      6.625250    4.519610    5.843570
  C      7.743650    5.320490    5.582050
  C      8.288410    5.119780    4.266820
  C      9.371190    5.918720    3.843220
  C      9.929920    6.811150    4.708560
  F     10.971460    7.561620    4.315650
  C      9.450960    6.940340    6.031520
  F     10.071060    7.786310    6.871820
  C      8.378050    6.220720    6.464360
  C      5.721400    4.441780    6.940230
  C      5.535870    5.365930    7.907490
  C      4.579410    5.302150    8.979390
  C      4.092240    4.224360    9.611630
  C      4.497280    2.807930    9.335600
  C      3.097080    4.404940   10.729050
  N      1.840030    3.768600   10.389400
  C      0.633360    4.257340   10.673550
  C      0.358140    5.245960   11.581310
  C     -0.922020    5.743690   11.855460
  C     -2.108900    5.651370   11.162470
  C     -3.363220    5.870660   11.921080
  O     -3.463390    6.273400   13.060910
  C     -4.455150    5.455240   11.017010
  C     -5.793190    5.366340   11.263380
  C     -6.653280    4.907500   10.239210
  C     -6.101240    4.543500    8.977450
  C     -6.961370    4.077870    7.964250
  C     -8.303100    3.989710    8.210820
  C     -8.865730    4.345830    9.443260
  C     -8.044130    4.797910   10.438610
  F     -9.126920    3.544460    7.242400
  C     -4.708840    4.655310    8.749390
  C     -3.899280    5.111470    9.753070
  C     -2.455540    5.352770    9.801340
  C     -1.666350    5.491250    8.679320
  C     -0.338740    5.939710    8.696970
  N      0.753920    6.296320    8.649190
  C     -2.099250    5.247970    7.362930
  N     -2.363350    5.038500    6.264180
  H      5.867900    8.221510    5.245890
  H      2.280730    6.885470    7.149780
  H      1.790230    5.409110    5.226490
  H      6.518970    7.321110    3.066590
  H      2.420740    4.477530    3.026150
  H      5.389640    2.686100   -0.995260
  H      6.218300    2.048670   -3.141880
  H      7.747380    1.802340   -4.005320
  H      7.011890    3.407740   -3.932740
  H      9.886080    2.581130   -2.873450
  H     11.781410    3.086680   -1.425850
  H     11.443100    2.516740    0.213720
  H     11.434610    4.242810   -0.136190
  H      9.605150    4.384850    1.575020
  H      6.918170    2.978790    1.922980
  H      9.765650    5.854980    2.845180
  H      8.053840    6.327080    7.484750
  H      5.063110    3.585760    6.901760
  H      6.084880    6.293920    7.861390
  H      4.256980    6.274410    9.330600
  H      5.532120    2.768280    9.002030
  H      3.883040    2.359040    8.553260
  H      4.395120    2.201240   10.234340
  H      2.911880    5.466550   10.897500
  H      3.490340    3.962170   11.655930
  H      1.906390    2.989420    9.753900
  H     -0.190240    3.745720   10.191290
  H      1.159660    5.627680   12.195420
  H     -1.033880    6.239920   12.815690
  H     -6.193530    5.642450   12.227360
  H     -6.563630    3.798910    7.000890
  H     -9.931740    4.256080    9.580000
  H     -8.453950    5.078410   11.397350
  H     -4.320040    4.367580    7.785340

 Total Charge           Charge          ....    0
 Multiplicity           Mult            ....    1
 Number of Electrons    NEL             ....  492
 Basis Dimension        Dim             .... 1168

ORBITAL ENERGIES
----------------

  NO   OCC          E(Eh)            E(eV)
   0   2.0000     -88.964899     -2420.8580
   1   2.0000     -24.781778      -674.3465
   2   2.0000     -24.779362      -674.2807
   3   2.0000     -24.779266      -674.2781
   4   2.0000     -24.778082      -674.2459
   5   2.0000     -19.201433      -522.4975
   6   2.0000     -19.197665      -522.3950
   7   2.0000     -14.473375      -393.8406
   8   2.0000     -14.471379      -393.7862
   9   2.0000     -14.417146      -392.3105
  10   2.0000     -14.405782      -392.0012
  11   2.0000     -14.405758      -392.0006
  12   2.0000     -14.401928      -391.8964
  13   2.0000     -10.362984      -281.9911
  14   2.0000     -10.362200      -281.9698
  15   2.0000     -10.361320      -281.9458
  16   2.0000     -10.354773      -281.7677
  17   2.0000     -10.354011      -281.7470
  18   2.0000     -10.353608      -281.7360
  19   2.0000     -10.349772      -281.6316
  20   2.0000     -10.334078      -281.2046
  21   2.0000     -10.328067      -281.0410
  22   2.0000     -10.327328      -281.0209
  23   2.0000     -10.327101      -281.0147
  24   2.0000     -10.324454      -280.9427
  25   2.0000     -10.321905      -280.8733
  26   2.0000     -10.315963      -280.7116
  27   2.0000     -10.310954      -280.5753
  28   2.0000     -10.309502      -280.5358
  29   2.0000     -10.308551      -280.5099
  30   2.0000     -10.308483      -280.5081
  31   2.0000     -10.307317      -280.4764
  32   2.0000     -10.306343      -280.4498
  33   2.0000     -10.306291      -280.4484
  34   2.0000     -10.302983      -280.3584
  35   2.0000     -10.297840      -280.2185
  36   2.0000     -10.296099      -280.1711
  37   2.0000     -10.292830      -280.0821
  38   2.0000     -10.292285      -280.0673
  39   2.0000     -10.291914      -280.0572
  40   2.0000     -10.290644      -280.0227
  41   2.0000     -10.290229      -280.0114
  42   2.0000     -10.290067      -280.0069
  43   2.0000     -10.289912      -280.0027
  44   2.0000     -10.289151      -279.9820
  45   2.0000     -10.288670      -279.9689
  46   2.0000     -10.287633      -279.9407
  47   2.0000     -10.287278      -279.9311
  48   2.0000     -10.286900      -279.9208
  49   2.0000     -10.286242      -279.9029
  50   2.0000     -10.285761      -279.8898
  51   2.0000     -10.284110      -279.8449
  52   2.0000     -10.284053      -279.8433
  53   2.0000     -10.283655      -279.8325
  54   2.0000     -10.282477      -279.8004
  55   2.0000     -10.282436      -279.7993
  56   2.0000     -10.281423      -279.7718
  57   2.0000     -10.280214      -279.7389
  58   2.0000     -10.280184      -279.7380
  59   2.0000     -10.280105      -279.7359
  60   2.0000     -10.278887      -279.7027
  61   2.0000     -10.277986      -279.6782
  62   2.0000     -10.276824      -279.6466
  63   2.0000     -10.276020      -279.6247
  64   2.0000     -10.275792      -279.6185
  65   2.0000     -10.275551      -279.6120
  66   2.0000     -10.275381      -279.6073
  67   2.0000     -10.274659      -279.5877
  68   2.0000     -10.271934      -279.5135
  69   2.0000     -10.268932      -279.4318
  70   2.0000     -10.266183      -279.3570
  71   2.0000      -8.059886      -219.3207
  72   2.0000      -6.028748      -164.0506
  73   2.0000      -6.024785      -163.9427
  74   2.0000      -6.022820      -163.8893
  75   2.0000      -1.302333       -35.4383
  76   2.0000      -1.293675       -35.2027
  77   2.0000      -1.291194       -35.1352
  78   2.0000      -1.287453       -35.0334
  79   2.0000      -1.116691       -30.3867
  80   2.0000      -1.112723       -30.2787
  81   2.0000      -1.089601       -29.6496
  82   2.0000      -1.068950       -29.0876
  83   2.0000      -1.013683       -27.5837
  84   2.0000      -1.007371       -27.4120
  85   2.0000      -0.999618       -27.2010
  86   2.0000      -0.995108       -27.0783
  87   2.0000      -0.988249       -26.8916
  88   2.0000      -0.987494       -26.8711
  89   2.0000      -0.982856       -26.7449
  90   2.0000      -0.967424       -26.3250
  91   2.0000      -0.963137       -26.2083
  92   2.0000      -0.940130       -25.5822
  93   2.0000      -0.930888       -25.3307
  94   2.0000      -0.923190       -25.1213
  95   2.0000      -0.920255       -25.0414
  96   2.0000      -0.909993       -24.7622
  97   2.0000      -0.903501       -24.5855
  98   2.0000      -0.900168       -24.4948
  99   2.0000      -0.890952       -24.2440
 100   2.0000      -0.881961       -23.9994
 101   2.0000      -0.880550       -23.9610
 102   2.0000      -0.875741       -23.8301
 103   2.0000      -0.872023       -23.7289
 104   2.0000      -0.863202       -23.4889
 105   2.0000      -0.851111       -23.1599
 106   2.0000      -0.839688       -22.8491
 107   2.0000      -0.833628       -22.6842
 108   2.0000      -0.830446       -22.5976
 109   2.0000      -0.826201       -22.4821
 110   2.0000      -0.825295       -22.4574
 111   2.0000      -0.820498       -22.3269
 112   2.0000      -0.811480       -22.0815
 113   2.0000      -0.807241       -21.9661
 114   2.0000      -0.787840       -21.4382
 115   2.0000      -0.779839       -21.2205
 116   2.0000      -0.769328       -20.9345
 117   2.0000      -0.751372       -20.4459
 118   2.0000      -0.749927       -20.4065
 119   2.0000      -0.739574       -20.1248
 120   2.0000      -0.731039       -19.8926
 121   2.0000      -0.724858       -19.7244
 122   2.0000      -0.716472       -19.4962
 123   2.0000      -0.712407       -19.3856
 124   2.0000      -0.708631       -19.2828
 125   2.0000      -0.701267       -19.0825
 126   2.0000      -0.699159       -19.0251
 127   2.0000      -0.696291       -18.9470
 128   2.0000      -0.694737       -18.9048
 129   2.0000      -0.674918       -18.3655
 130   2.0000      -0.669808       -18.2264
 131   2.0000      -0.663870       -18.0648
 132   2.0000      -0.663159       -18.0455
 133   2.0000      -0.661651       -18.0044
 134   2.0000      -0.656785       -17.8720
 135   2.0000      -0.651360       -17.7244
 136   2.0000      -0.638364       -17.3708
 137   2.0000      -0.627764       -17.0823
 138   2.0000      -0.622643       -16.9430
 139   2.0000      -0.622333       -16.9346
 140   2.0000      -0.620449       -16.8833
 141   2.0000      -0.617181       -16.7944
 142   2.0000      -0.616267       -16.7695
 143   2.0000      -0.613602       -16.6970
 144   2.0000      -0.605438       -16.4748
 145   2.0000      -0.601721       -16.3737
 146   2.0000      -0.595484       -16.2039
 147   2.0000      -0.591483       -16.0951
 148   2.0000      -0.584939       -15.9170
 149   2.0000      -0.581337       -15.8190
 150   2.0000      -0.579273       -15.7628
 151   2.0000      -0.572198       -15.5703
 152   2.0000      -0.567814       -15.4510
 153   2.0000      -0.562533       -15.3073
 154   2.0000      -0.558196       -15.1893
 155   2.0000      -0.556272       -15.1369
 156   2.0000      -0.555050       -15.1037
 157   2.0000      -0.553359       -15.0577
 158   2.0000      -0.551673       -15.0118
 159   2.0000      -0.549475       -14.9520
 160   2.0000      -0.548819       -14.9341
 161   2.0000      -0.547058       -14.8862
 162   2.0000      -0.542269       -14.7559
 163   2.0000      -0.539769       -14.6879
 164   2.0000      -0.538822       -14.6621
 165   2.0000      -0.536623       -14.6023
 166   2.0000      -0.534324       -14.5397
 167   2.0000      -0.533341       -14.5130
 168   2.0000      -0.529603       -14.4112
 169   2.0000      -0.525808       -14.3080
 170   2.0000      -0.524697       -14.2777
 171   2.0000      -0.520247       -14.1566
 172   2.0000      -0.518642       -14.1130
 173   2.0000      -0.516230       -14.0473
 174   2.0000      -0.514857       -14.0100
 175   2.0000      -0.511315       -13.9136
 176   2.0000      -0.510383       -13.8882
 177   2.0000      -0.509227       -13.8568
 178   2.0000      -0.508954       -13.8493
 179   2.0000      -0.507498       -13.8097
 180   2.0000      -0.503732       -13.7072
 181   2.0000      -0.500897       -13.6301
 182   2.0000      -0.498535       -13.5658
 183   2.0000      -0.494535       -13.4570
 184   2.0000      -0.492515       -13.4020
 185   2.0000      -0.489630       -13.3235
 186   2.0000      -0.488449       -13.2914
 187   2.0000      -0.487340       -13.2612
 188   2.0000      -0.484831       -13.1929
 189   2.0000      -0.481566       -13.1041
 190   2.0000      -0.479833       -13.0569
 191   2.0000      -0.478283       -13.0147
 192   2.0000      -0.475369       -12.9354
 193   2.0000      -0.473336       -12.8801
 194   2.0000      -0.468646       -12.7525
 195   2.0000      -0.467411       -12.7189
 196   2.0000      -0.463891       -12.6231
 197   2.0000      -0.463369       -12.6089
 198   2.0000      -0.461204       -12.5500
 199   2.0000      -0.459240       -12.4966
 200   2.0000      -0.455423       -12.3927
 201   2.0000      -0.453408       -12.3379
 202   2.0000      -0.452877       -12.3234
 203   2.0000      -0.449152       -12.2220
 204   2.0000      -0.447340       -12.1727
 205   2.0000      -0.444669       -12.1001
 206   2.0000      -0.441605       -12.0167
 207   2.0000      -0.439706       -11.9650
 208   2.0000      -0.438331       -11.9276
 209   2.0000      -0.435801       -11.8588
 210   2.0000      -0.433181       -11.7875
 211   2.0000      -0.432685       -11.7740
 212   2.0000      -0.431601       -11.7445
 213   2.0000      -0.428833       -11.6691
 214   2.0000      -0.424902       -11.5622
 215   2.0000      -0.422132       -11.4868
 216   2.0000      -0.421754       -11.4765
 217   2.0000      -0.418699       -11.3934
 218   2.0000      -0.418104       -11.3772
 219   2.0000      -0.416653       -11.3377
 220   2.0000      -0.411730       -11.2038
 221   2.0000      -0.410885       -11.1808
 222   2.0000      -0.408188       -11.1074
 223   2.0000      -0.404139       -10.9972
 224   2.0000      -0.401377       -10.9220
 225   2.0000      -0.400111       -10.8876
 226   2.0000      -0.390591       -10.6285
 227   2.0000      -0.389359       -10.5950
 228   2.0000      -0.375537       -10.2189
 229   2.0000      -0.372506       -10.1364
 230   2.0000      -0.367966       -10.0129
 231   2.0000      -0.358598        -9.7580
 232   2.0000      -0.353657        -9.6235
 233   2.0000      -0.337126        -9.1737
 234   2.0000      -0.322638        -8.7794
 235   2.0000      -0.320864        -8.7312
 236   2.0000      -0.318433        -8.6650
 237   2.0000      -0.308805        -8.4030
 238   2.0000      -0.307440        -8.3659
 239   2.0000      -0.300144        -8.1673
 240   2.0000      -0.292735        -7.9657
 241   2.0000      -0.291932        -7.9439
 242   2.0000      -0.283873        -7.7246
 243   2.0000      -0.270697        -7.3660
 244   2.0000      -0.265440        -7.2230
 245   2.0000      -0.226516        -6.1638
 246   0.0000      -0.080361        -2.1867
 247   0.0000      -0.077391        -2.1059
 248   0.0000      -0.055489        -1.5099
 249   0.0000      -0.042802        -1.1647
 250   0.0000      -0.040323        -1.0972

MULLIKEN ATOMIC CHARGES
-----------------------
   0 C :   -0.100089
   1 C :    0.294283
   2 F :   -0.195431
   3 C :   -0.002706
   4 C :   -0.026972
   5 C :    0.109899
   6 C :    0.107980
   7 C :   -0.078366
   8 C :    0.038271
   9 C :    0.009596
  10 C :   -0.097357
  11 C :    0.148909
  12 O :   -0.148651
  13 C :   -0.180499
  14 C :    0.275277
  15 C :   -0.318129
  16 C :   -0.207989
  17 N :    0.157900
  18 C :   -0.172244
  19 N :    0.146195
  20 C :   -0.006461
  21 C :    0.009635
  22 C :   -0.118048
  23 C :    0.133986
  24 N :   -0.017220
  25 C :   -0.148526
  26 C :    0.125093
  27 C :    0.051804
  28 C :   -0.063447
  29 C :    0.099290
  30 C :   -0.157461
  31 S :    0.161084
  32 C :   -0.152630
  33 C :    0.131808
  34 C :    0.124139
  35 C :   -0.125681
  36 C :    0.231437
  37 F :   -0.174670
  38 C :    0.223389
  39 F :   -0.179810
  40 C :   -0.138063
  41 C :    0.056538
  42 C :   -0.016046
  43 C :    0.027703
  44 C :   -0.236140
  45 C :    0.065471
  46 C :    0.210080
  47 N :   -0.126660
  48 C :    0.090643
  49 C :   -0.062798
  50 C :    0.056224
  51 C :   -0.166145
  52 C :    0.132990
  53 O :   -0.158846
  54 C :    0.019359
  55 C :   -0.088276
  56 C :    0.101880
  57 C :    0.101933
  58 C :   -0.098309
  59 C :    0.303234
  60 C :   -0.033441
  61 C :   -0.011543
  62 F :   -0.193896
  63 C :   -0.091425
  64 C :    0.028395
  65 C :    0.296190
  66 C :   -0.382590
  67 C :   -0.179775
  68 N :    0.143802
  69 C :   -0.175801
  70 N :    0.135989
  71 H :   -0.009406
  72 H :   -0.011915
  73 H :   -0.012335
  74 H :   -0.006881
  75 H :   -0.015167
  76 H :    0.015447
  77 H :    0.026394
  78 H :    0.008661
  79 H :    0.056958
  80 H :    0.121145
  81 H :    0.002261
  82 H :    0.042330
  83 H :    0.044687
  84 H :   -0.027975
  85 H :   -0.015703
  86 H :   -0.020116
  87 H :   -0.012518
  88 H :   -0.027570
  89 H :    0.003205
  90 H :   -0.002165
  91 H :    0.042686
  92 H :    0.038609
  93 H :    0.014093
  94 H :    0.038444
  95 H :    0.028784
  96 H :    0.135645
  97 H :    0.039293
  98 H :    0.000540
  99 H :    0.025121
 100 H :   -0.016089
 101 H :   -0.005889
 102 H :    0.001486
 103 H :   -0.011736
 104 H :   -0.008588
Sum of atomic charges:   -0.0000000

LOEWDIN ATOMIC CHARGES
----------------------
   0 C :   -0.043126
   1 C :    0.089409
   2 F :   -0.067832
   3 C :   -0.030063
   4 C :    0.001120
   5 C :   -0.020089
   6 C :    0.001333
   7 C :    0.015812
   8 C :   -0.021766
   9 C :   -0.064616
  10 C :    0.029493
  11 C :    0.081343
  12 O :   -0.151672
  13 C :   -0.103419
  14 C :    0.079778
  15 C :   -0.141000
  16 C :   -0.019813
  17 N :   -0.059870
  18 C :   -0.008774
  19 N :   -0.071111
  20 C :    0.076566
  21 C :   -0.095850
  22 C :    0.026090
  23 C :   -0.049435
  24 N :    0.106375
  25 C :    0.006041
  26 C :   -0.051298
  27 C :   -0.077544
  28 C :   -0.017268
  29 C :   -0.060693
  30 C :   -0.171114
  31 S :    0.493593
  32 C :   -0.186634
  33 C :   -0.043361
  34 C :   -0.051650
  35 C :   -0.039414
  36 C :    0.061433
  37 F :   -0.054804
  38 C :    0.061268
  39 F :   -0.058197
  40 C :   -0.045864
  41 C :   -0.037396
  42 C :   -0.040897
  43 C :   -0.026099
  44 C :   -0.048206
  45 C :   -0.058784
  46 C :    0.049914
  47 N :    0.050575
  48 C :    0.107580
  49 C :   -0.134987
  50 C :    0.085425
  51 C :   -0.141624
  52 C :    0.079184
  53 O :   -0.161148
  54 C :   -0.055759
  55 C :    0.029087
  56 C :   -0.019538
  57 C :    0.000759
  58 C :   -0.042824
  59 C :    0.090801
  60 C :   -0.039717
  61 C :    0.002945
  62 F :   -0.068561
  63 C :    0.007295
  64 C :   -0.018347
  65 C :    0.073156
  66 C :   -0.181125
  67 C :    0.004697
  68 N :   -0.070618
  69 C :   -0.024641
  70 N :   -0.073597
  71 H :    0.039562
  72 H :    0.034332
  73 H :    0.034860
  74 H :    0.037783
  75 H :    0.038385
  76 H :    0.041785
  77 H :    0.042160
  78 H :    0.033022
  79 H :    0.049856
  80 H :    0.091566
  81 H :    0.032843
  82 H :    0.043234
  83 H :    0.044243
  84 H :    0.024361
  85 H :    0.027686
  86 H :    0.037052
  87 H :    0.039276
  88 H :    0.025114
  89 H :    0.027104
  90 H :    0.032452
  91 H :    0.042734
  92 H :    0.030547
  93 H :    0.027867
  94 H :    0.036663
  95 H :    0.027459
  96 H :    0.087226
  97 H :    0.039261
  98 H :    0.031015
  99 H :    0.046572
 100 H :    0.038059
 101 H :    0.041887
 102 H :    0.040794
 103 H :    0.034676
 104 H :    0.037638

  Mayer bond orders larger than 0.100000
B(  0-C ,  1-C ) :   1.4390 B(  0-C ,  6-C ) :   1.1974 B(  0-C , 71-H ) :   1.0067
B(  1-C ,  2-F ) :   1.0636 B(  1-C ,  3-C ) :   1.2565 B(  3-C ,  4-C ) :   1.4689
B(  3-C , 72-H ) :   0.9659 B(  4-C ,  5-C ) :   1.2172 B(  4-C , 73-H ) :   1.0007
B(  5-C ,  6-C ) :   1.2592 B(  5-C , 10-C ) :   1.1903 B(  6-C ,  7-C ) :   1.2055
B(  7-C ,  8-C ) :   1.4571 B(  7-C , 74-H ) :   0.9899 B(  8-C ,  9-C ) :   1.2216
B(  8-C , 14-C ) :   1.0084 B(  9-C , 10-C ) :   1.4533 B(  9-C , 11-C ) :   0.9157
B( 10-C , 75-H ) :   1.0168 B( 11-C , 12-O ) :   2.2730 B( 11-C , 13-C ) :   0.9377
B( 13-C , 14-C ) :   1.0193 B( 13-C , 20-C ) :   1.6980 B( 14-C , 15-C ) :   1.6726
B( 15-C , 16-C ) :   1.1404 B( 15-C , 18-C ) :   1.1759 B( 16-C , 17-N ) :   2.9705
B( 18-C , 19-N ) :   2.9724 B( 20-C , 21-C ) :   1.0707 B( 20-C , 76-H ) :   0.9455
B( 21-C , 22-C ) :   1.4179 B( 21-C , 27-C ) :   1.1930 B( 22-C , 23-C ) :   1.1297
B( 22-C , 24-N ) :   1.2487 B( 23-C , 77-H ) :   0.9337 B( 23-C , 78-H ) :   0.9343
B( 23-C , 79-H ) :   0.9366 B( 24-N , 25-C ) :   1.2144 B( 24-N , 80-H ) :   0.9319
B( 25-C , 26-C ) :   1.1107 B( 25-C , 27-C ) :   1.4624 B( 26-C , 81-H ) :   0.9370
B( 26-C , 82-H ) :   0.9439 B( 26-C , 83-H ) :   0.9396 B( 27-C , 28-C ) :   1.1220
B( 28-C , 29-C ) :   1.7062 B( 28-C , 84-H ) :   0.9514 B( 29-C , 30-C ) :   1.1545
B( 29-C , 85-H ) :   0.9320 B( 30-C , 31-S ) :   1.1724 B( 30-C , 32-C ) :   0.1095
B( 30-C , 34-C ) :   1.3494 B( 31-S , 32-C ) :   1.1512 B( 32-C , 33-C ) :   1.3511
B( 32-C , 41-C ) :   1.1492 B( 33-C , 34-C ) :   1.2144 B( 33-C , 40-C ) :   1.1513
B( 34-C , 35-C ) :   1.1477 B( 35-C , 36-C ) :   1.5041 B( 35-C , 40-C ) :   0.1113
B( 35-C , 86-H ) :   0.9989 B( 36-C , 37-F ) :   1.1404 B( 36-C , 38-C ) :   1.1513
B( 38-C , 39-F ) :   1.1267 B( 38-C , 40-C ) :   1.4967 B( 40-C , 87-H ) :   0.9999
B( 41-C , 42-C ) :   1.7017 B( 41-C , 88-H ) :   0.9432 B( 42-C , 43-C ) :   1.1239
B( 42-C , 89-H ) :   0.9407 B( 43-C , 44-C ) :   1.8521 B( 43-C , 90-H ) :   0.9416
B( 44-C , 45-C ) :   1.0651 B( 44-C , 46-C ) :   1.0438 B( 45-C , 91-H ) :   0.9398
B( 45-C , 92-H ) :   0.9440 B( 45-C , 93-H ) :   0.9501 B( 46-C , 47-N ) :   0.9530
B( 46-C , 94-H ) :   0.9361 B( 46-C , 95-H ) :   0.9287 B( 47-N , 48-C ) :   1.3918
B( 47-N , 96-H ) :   0.9310 B( 48-C , 49-C ) :   1.4341 B( 48-C , 97-H ) :   0.9571
B( 49-C , 50-C ) :   1.3318 B( 49-C , 98-H ) :   0.9536 B( 50-C , 51-C ) :   1.4884
B( 50-C , 99-H ) :   0.9296 B( 51-C , 52-C ) :   0.9728 B( 51-C , 65-C ) :   1.1125
B( 52-C , 53-O ) :   2.2497 B( 52-C , 54-C ) :   0.9146 B( 54-C , 55-C ) :   1.4814
B( 54-C , 64-C ) :   1.2193 B( 55-C , 56-C ) :   1.1810 B( 55-C ,100-H ) :   1.0153
B( 56-C , 57-C ) :   1.2612 B( 56-C , 61-C ) :   1.2381 B( 57-C , 58-C ) :   1.2044
B( 57-C , 63-C ) :   1.1982 B( 58-C , 59-C ) :   1.4402 B( 58-C ,101-H ) :   1.0060
B( 59-C , 60-C ) :   1.2583 B( 59-C , 62-F ) :   1.0851 B( 60-C , 61-C ) :   1.4575
B( 60-C ,102-H ) :   0.9934 B( 61-C ,103-H ) :   0.9963 B( 63-C , 64-C ) :   1.4690
B( 63-C ,104-H ) :   0.9922 B( 64-C , 65-C ) :   0.9890 B( 65-C , 66-C ) :   1.5559
B( 66-C , 67-C ) :   1.2008 B( 66-C , 69-C ) :   1.1304 B( 67-C , 68-N ) :   2.8913
B( 68-N , 72-H ) :   0.1003 B( 69-C , 70-N ) :   2.9768

-----------------------------------------------------------------------------
         ABSORPTION SPECTRUM VIA TRANSITION ELECTRIC DIPOLE MOMENTS
-----------------------------------------------------------------------------
State   Energy  Wavelength   fosc         T2         TX        TY        TZ
        (cm-1)    (nm)                  (au**2)     (au)      (au)      (au)
-----------------------------------------------------------------------------
   0   13511.4    740.1   0.023081928   0.56240  -0.23236   0.21272   0.68056
   1   20395.4    490.3   0.422720429   6.82332  -1.73420   0.13328   1.94887
   2   21718.3    460.4   0.241323879   3.65805   1.14026  -0.47324   1.46078
   3   22180.7    450.8   0.122803261   1.82268   0.91832  -0.30560   0.94126
   4   22607.4    442.3   0.078707590   1.14615  -0.65019   0.83267   0.17340
   5   23018.0    434.4   0.368803202   5.27476   0.84173  -1.09586  -1.83448
   6   26150.2    382.4   0.032468114   0.40875  -0.27364   0.04623   0.57596
   7   26724.2    374.2   0.094846395   1.16840  -0.63657   0.36061   0.79570
   8   28673.7    348.8   0.163799953   1.88064   1.05745  -0.03975  -0.87228
   9   28742.9    347.9   0.015674581   0.17953   0.01646   0.41093  -0.10196
  10   29019.6    344.6   0.101981567   1.15693  -1.02355   0.00290  -0.33054
  11   29585.7    338.0   0.014897108   0.16577   0.19016   0.30355  -0.19355
  12   30074.8    332.5   0.021047625   0.23040   0.34667  -0.04216  -0.32931
  13   30248.0    330.6   0.008555786   0.09312   0.09654  -0.10083   0.27135
  14   30386.4    329.1   0.016902875   0.18313   0.42541  -0.00718   0.04586
  15   30835.9    324.3   0.211241542   2.25527   1.33968  -0.07694  -0.67425
  16   31097.1    321.6   0.015275881   0.16172  -0.20439   0.14503  -0.31450
  17   31222.6    320.3   0.010177954   0.10732   0.15244  -0.12373   0.26224
  18   31559.7    316.9   0.177503549   1.85161   0.76054  -0.41393  -1.04969
  19   31745.9    315.0   0.272131943   2.82206  -1.30113  -0.05716   1.06106
  20   31845.8    314.0   0.013626495   0.14087  -0.20414  -0.02851  -0.31366
  21   32317.3    309.4   0.008419187   0.08577   0.06157   0.27856  -0.06618
  22   32567.8    307.1   0.924314939   9.34345   2.82370   0.29885  -1.13174
  23   32824.7    304.6   0.014112601   0.14154  -0.02174   0.00432  -0.37557
  24   32878.0    304.2   0.060823132   0.60903   0.22016  -0.11422   0.73994
  25   33582.9    297.8   0.091343364   0.89543   0.60176   0.22149  -0.69589
  26   34046.0    293.7   0.225309281   2.17865  -0.55407   0.27681   1.33979
  27   34299.8    291.5   0.046245882   0.44387   0.20493  -0.13461  -0.61948
  28   34334.9    291.2   0.001677194   0.01608   0.02518   0.04691   0.11510
  29   34960.2    286.0   0.195401131   1.84005   1.20665   0.61130   0.10175
  30   35595.0    280.9   0.053040192   0.49056   0.18918  -0.26332  -0.62083
  31   35628.1    280.7   0.405240999   3.74452  -1.34974   0.00030   1.38662
  32   35872.1    278.8   0.359861398   3.30258   1.78961  -0.05819  -0.31061
  33   36066.3    277.3   0.194542966   1.77578   1.01896   0.38036   0.76995
  34   36491.4    274.0   0.034692851   0.31299   0.23034  -0.45780   0.22438
  35   37356.7    267.7   0.011566810   0.10193  -0.10442   0.13189   0.27136
  36   37530.7    266.4   0.185419486   1.62646   0.58118   0.90945   0.67941
  37   37769.3    264.8   0.348922899   3.04135  -1.03351   0.42561   1.33868
  38   37999.6    263.2   0.100316262   0.86910   0.60294   0.66447  -0.25307
  39   38274.5    261.3   0.003321352   0.02857   0.15871   0.00173  -0.05810
  40   38376.5    260.6   0.011540316   0.09900   0.23179  -0.20955   0.03692
  41   38470.1    259.9   0.000633526   0.00542  -0.05013  -0.03528  -0.04079
  42   39272.6    254.6   0.330221673   2.76816  -0.55395  -1.11502  -1.10364
  43   39892.9    250.7   0.063046218   0.52028   0.47364  -0.23953  -0.48844
  44   40037.6    249.8   0.218653400   1.79789   0.38789   0.37529   1.22743

FINAL SINGLE POINT ENERGY     -3503.056525844102

DIPOLE MOMENT
-------------
                                X             Y             Z
Electronic contribution:    -11.06161      26.99686       0.90273
Nuclear contribution   :     12.08424     -30.84146      -0.30028
                        -----------------------------------------
Total Dipole Moment    :      1.02263      -3.84461       0.60245
                        -----------------------------------------
Magnitude (a.u.)       :      4.02364
Magnitude (Debye)      :     10.22729

Rotational constants in cm-1:     0.001860     0.000406     0.000356
Rotational constants in MHz :    55.768326    12.159742    10.683124

                             ****ORCA TERMINATED NORMALLY****
TOTAL RUN TIME: 0 days 0 hours 11 minutes 7 seconds 315 msec
