                         Program Version 4.2.0 -  RELEASE  -
|  1> # ORCA input file
|  2> # SCF done       -189.481820390035          0.000404390301
|  3> ! CAM-B3LYP def2-SVP def2/J RIJCOSX Grid4 TightSCF
|  4> %maxcore 5000
|  5> %tddft
|  6>     Mode sTDDFT
|  7>     Ethresh 5.0
|  8>     maxcore 5000
|  9> end
| 10>
| 11> %pal
| 12>   nprocs 6
| 13>   end
| 14> * xyz 0 1
| 15>    C        6.22112         5.07169         6.77246
| 16>    C        5.11379         5.69346         7.27882
| 17>    F        5.26143         6.79806         8.03214
| 18>    C        3.81457         5.22412         7.04248
| 19>    C        3.64486         4.10345         6.27788
| 20>    C        4.75146         3.42319         5.72964
| 21>    C        6.06486         3.91566         5.98367
| 22>    C        7.19152         3.24514         5.45253
| 23>    C        7.00591         2.12476         4.69013
| 24>    C        5.69011         1.64572         4.42509
| 25>    C        4.58638         2.26806         4.93224
| 26>    C        5.77120         0.45600         3.55483
| 27>    O        4.86673        -0.24594         3.16266
| 28>    C        7.21040         0.33203         3.20063
| 29>    C        7.96112         1.22027         4.05621
| 30>    C        9.27113         1.06543         4.43567
| 31>    C       10.07352        -0.01367         4.01584
| 32>    N       10.73916        -0.90221         3.72185
| 33>    C        9.93101         1.91212         5.34707
| 34>    N       10.52323         2.58639         6.06315
| 35>    C        7.58098        -0.47052         2.15884
| 36>    C        8.74693        -0.42120         1.37515
| 37>    S        9.73358         0.99990         1.23955
| 38>    C       10.83714         0.26236         0.13718
| 39>    C       10.42929        -1.04739        -0.16853
| 40>    C        9.23987        -1.42843         0.52541
| 41>    C        8.69677        -2.71262         0.34397
| 42>    C        9.30307        -3.56632        -0.53318
| 43>    F        8.79961        -4.79086        -0.73253
| 44>    C       10.44908        -3.17286        -1.26086
| 45>    F       10.98644        -4.03116        -2.14112
| 46>    C       11.00849        -1.93899        -1.09222
| 47>    C       11.96473         1.02053        -0.27748
| 48>    C       13.16327         0.53514        -0.67601
| 49>    C       14.24137         1.40033        -1.03866
| 50>    C       15.51370         1.04871        -1.29898
| 51>    C       16.07604        -0.32948        -1.22350
| 52>    C       16.51581         2.12772        -1.62536
| 53>    N       17.11017         2.60977        -0.39458
| 54>    C       18.28687         3.28206        -0.36413
| 55>    C       18.68391         4.06282         0.66340
| 56>    C       19.93726         4.73555         0.72431
| 57>    C       21.01657         4.68724        -0.12373
| 58>    C       22.08744         5.52563         0.24551
| 59>    C       21.81691         6.24116         1.40332
| 60>    S       20.23771         5.85891         2.02245
| 61>    C       22.62755         7.20776         2.02260
| 62>    C       23.97426         7.44703         1.79205
| 63>    C       24.91172         6.72558         0.92296
| 64>    O       26.10073         6.78118         1.16653
| 65>    N       24.48670         6.06524        -0.22762
| 66>    C       23.25337         5.58049        -0.64709
| 67>    O       23.14554         5.12380        -1.77051
| 68>    C       25.58553         5.74669        -1.15119
| 69>    C       26.15470         4.36197        -0.87350
| 70>    C       24.47850         8.48534         2.60404
| 71>    C       23.54026         9.04064         3.43461
| 72>    S       21.99296         8.26163         3.24929
| 73>    C       23.72591        10.11459         4.34994
| 74>    S       22.47654        10.65925         5.44341
| 75>    C       23.44525        11.89497         6.13380
| 76>    C       24.69087        11.90674         5.55799
| 77>    C       24.83913        10.89711         4.55262
| 78>    O       26.07123        10.94600         4.00110
| 79>    C       26.70544        11.96733         4.63957
| 80>    N       28.03778        12.26288         4.25243
| 81>    O       28.58001        13.17409         4.84888
| 82>    O       28.53347        11.60337         3.36747
| 83>    C       25.93966        12.58834         5.58623
| 84>    H        7.20693         5.45851         6.97836
| 85>    H        2.97873         5.75609         7.46833
| 86>    H        2.65365         3.72282         6.08262
| 87>    H        8.17450         3.64102         5.65384
| 88>    H        3.59784         1.88457         4.72873
| 89>    H        6.82750        -1.18704         1.84616
| 90>    H        7.81525        -3.02947         0.87626
| 91>    H       11.86190        -1.65949        -1.68595
| 92>    H       11.85418         2.09392        -0.17563
| 93>    H       13.33796        -0.52841        -0.67986
| 94>    H       13.98321         2.45130        -1.10303
| 95>    H       15.38482        -1.04007        -0.78365
| 96>    H       16.98823        -0.31438        -0.62803
| 97>    H       16.34372        -0.67559        -2.22271
| 98>    H       16.02202         2.94825        -2.16769
| 99>    H       17.31585         1.73114        -2.25527
|100>    H       16.45336         2.82255         0.34367
|101>    H       18.92573         3.12519        -1.22096
|102>    H       18.01440         4.22119         1.49772
|103>    H       21.06731         4.07038        -1.00126
|104>    H       26.35875         6.50347        -1.01695
|105>    H       25.18418         5.79764        -2.16401
|106>    H       26.54653         4.31567         0.13957
|107>    H       26.96134         4.15454        -1.57096
|108>    H       25.38268         3.60553        -0.99589
|109>    H       25.50472         8.80281         2.56628
|110>    H       23.04703        12.52344         6.90277
|111>    H       26.24114        13.41092         6.20081
|112> *
|113>
|114>                          ****END OF INPUT****

CARTESIAN COORDINATES (ANGSTROEM)
---------------------------------
  C      6.221120    5.071690    6.772460
  C      5.113790    5.693460    7.278820
  F      5.261430    6.798060    8.032140
  C      3.814570    5.224120    7.042480
  C      3.644860    4.103450    6.277880
  C      4.751460    3.423190    5.729640
  C      6.064860    3.915660    5.983670
  C      7.191520    3.245140    5.452530
  C      7.005910    2.124760    4.690130
  C      5.690110    1.645720    4.425090
  C      4.586380    2.268060    4.932240
  C      5.771200    0.456000    3.554830
  O      4.866730   -0.245940    3.162660
  C      7.210400    0.332030    3.200630
  C      7.961120    1.220270    4.056210
  C      9.271130    1.065430    4.435670
  C     10.073520   -0.013670    4.015840
  N     10.739160   -0.902210    3.721850
  C      9.931010    1.912120    5.347070
  N     10.523230    2.586390    6.063150
  C      7.580980   -0.470520    2.158840
  C      8.746930   -0.421200    1.375150
  S      9.733580    0.999900    1.239550
  C     10.837140    0.262360    0.137180
  C     10.429290   -1.047390   -0.168530
  C      9.239870   -1.428430    0.525410
  C      8.696770   -2.712620    0.343970
  C      9.303070   -3.566320   -0.533180
  F      8.799610   -4.790860   -0.732530
  C     10.449080   -3.172860   -1.260860
  F     10.986440   -4.031160   -2.141120
  C     11.008490   -1.938990   -1.092220
  C     11.964730    1.020530   -0.277480
  C     13.163270    0.535140   -0.676010
  C     14.241370    1.400330   -1.038660
  C     15.513700    1.048710   -1.298980
  C     16.076040   -0.329480   -1.223500
  C     16.515810    2.127720   -1.625360
  N     17.110170    2.609770   -0.394580
  C     18.286870    3.282060   -0.364130
  C     18.683910    4.062820    0.663400
  C     19.937260    4.735550    0.724310
  C     21.016570    4.687240   -0.123730
  C     22.087440    5.525630    0.245510
  C     21.816910    6.241160    1.403320
  S     20.237710    5.858910    2.022450
  C     22.627550    7.207760    2.022600
  C     23.974260    7.447030    1.792050
  C     24.911720    6.725580    0.922960
  O     26.100730    6.781180    1.166530
  N     24.486700    6.065240   -0.227620
  C     23.253370    5.580490   -0.647090
  O     23.145540    5.123800   -1.770510
  C     25.585530    5.746690   -1.151190
  C     26.154700    4.361970   -0.873500
  C     24.478500    8.485340    2.604040
  C     23.540260    9.040640    3.434610
  S     21.992960    8.261630    3.249290
  C     23.725910   10.114590    4.349940
  S     22.476540   10.659250    5.443410
  C     23.445250   11.894970    6.133800
  C     24.690870   11.906740    5.557990
  C     24.839130   10.897110    4.552620
  O     26.071230   10.946000    4.001100
  C     26.705440   11.967330    4.639570
  N     28.037780   12.262880    4.252430
  O     28.580010   13.174090    4.848880
  O     28.533470   11.603370    3.367470
  C     25.939660   12.588340    5.586230
  H      7.206930    5.458510    6.978360
  H      2.978730    5.756090    7.468330
  H      2.653650    3.722820    6.082620
  H      8.174500    3.641020    5.653840
  H      3.597840    1.884570    4.728730
  H      6.827500   -1.187040    1.846160
  H      7.815250   -3.029470    0.876260
  H     11.861900   -1.659490   -1.685950
  H     11.854180    2.093920   -0.175630
  H     13.337960   -0.528410   -0.679860
  H     13.983210    2.451300   -1.103030
  H     15.384820   -1.040070   -0.783650
  H     16.988230   -0.314380   -0.628030
  H     16.343720   -0.675590   -2.222710
  H     16.022020    2.948250   -2.167690
  H     17.315850    1.731140   -2.255270
  H     16.453360    2.822550    0.343670
  H     18.925730    3.125190   -1.220960
  H     18.014400    4.221190    1.497720
  H     21.067310    4.070380   -1.001260
  H     26.358750    6.503470   -1.016950
  H     25.184180    5.797640   -2.164010
  H     26.546530    4.315670    0.139570
  H     26.961340    4.154540   -1.570960
  H     25.382680    3.605530   -0.995890
  H     25.504720    8.802810    2.566280
  H     23.047030   12.523440    6.902770
  H     26.241140   13.410920    6.200810

 Total Charge           Charge          ....    0
 Multiplicity           Mult            ....    1
 Number of Electrons    NEL             ....  508
 Basis Dimension        Dim             .... 1122

ORBITAL ENERGIES
----------------

  NO   OCC          E(Eh)            E(eV)
   0   2.0000     -88.988829     -2421.5091
   1   2.0000     -88.980901     -2421.2934
   2   2.0000     -88.967791     -2420.9367
   3   2.0000     -88.960341     -2420.7339
   4   2.0000     -24.801246      -674.8762
   5   2.0000     -24.798725      -674.8076
   6   2.0000     -24.786538      -674.4760
   7   2.0000     -19.310693      -525.4707
   8   2.0000     -19.244230      -523.6621
   9   2.0000     -19.241369      -523.5843
  10   2.0000     -19.212030      -522.7859
  11   2.0000     -19.189030      -522.1601
  12   2.0000     -19.187973      -522.1313
  13   2.0000     -14.655586      -398.7988
  14   2.0000     -14.450479      -393.2175
  15   2.0000     -14.442779      -393.0080
  16   2.0000     -14.415216      -392.2580
  17   2.0000     -14.414534      -392.2394
  18   2.0000     -10.388819      -282.6941
  19   2.0000     -10.385882      -282.6142
  20   2.0000     -10.383354      -282.5454
  21   2.0000     -10.383167      -282.5403
  22   2.0000     -10.381463      -282.4940
  23   2.0000     -10.369931      -282.1802
  24   2.0000     -10.364242      -282.0254
  25   2.0000     -10.349531      -281.6251
  26   2.0000     -10.341540      -281.4076
  27   2.0000     -10.340875      -281.3895
  28   2.0000     -10.340003      -281.3658
  29   2.0000     -10.325277      -280.9651
  30   2.0000     -10.324399      -280.9412
  31   2.0000     -10.323683      -280.9217
  32   2.0000     -10.323181      -280.9080
  33   2.0000     -10.322964      -280.9021
  34   2.0000     -10.322740      -280.8960
  35   2.0000     -10.318304      -280.7753
  36   2.0000     -10.316919      -280.7376
  37   2.0000     -10.316134      -280.7163
  38   2.0000     -10.315821      -280.7078
  39   2.0000     -10.315653      -280.7032
  40   2.0000     -10.314464      -280.6708
  41   2.0000     -10.313572      -280.6466
  42   2.0000     -10.311644      -280.5941
  43   2.0000     -10.307444      -280.4798
  44   2.0000     -10.307247      -280.4744
  45   2.0000     -10.306385      -280.4510
  46   2.0000     -10.306320      -280.4492
  47   2.0000     -10.305899      -280.4378
  48   2.0000     -10.305768      -280.4342
  49   2.0000     -10.305734      -280.4333
  50   2.0000     -10.303410      -280.3700
  51   2.0000     -10.301391      -280.3151
  52   2.0000     -10.301247      -280.3112
  53   2.0000     -10.299772      -280.2710
  54   2.0000     -10.298248      -280.2296
  55   2.0000     -10.298093      -280.2253
  56   2.0000     -10.295327      -280.1501
  57   2.0000     -10.294810      -280.1360
  58   2.0000     -10.291561      -280.0476
  59   2.0000     -10.289745      -279.9982
  60   2.0000     -10.289511      -279.9918
  61   2.0000     -10.287613      -279.9402
  62   2.0000     -10.287503      -279.9372
  63   2.0000     -10.284232      -279.8482
  64   2.0000     -10.281603      -279.7766
  65   2.0000     -10.278485      -279.6918
  66   2.0000     -10.267515      -279.3933
  67   2.0000     -10.265873      -279.3486
  68   2.0000     -10.241561      -278.6870
  69   2.0000      -8.083634      -219.9669
  70   2.0000      -8.075984      -219.7587
  71   2.0000      -8.063654      -219.4232
  72   2.0000      -8.056266      -219.2222
  73   2.0000      -6.052590      -164.6993
  74   2.0000      -6.048472      -164.5873
  75   2.0000      -6.046452      -164.5323
  76   2.0000      -6.045377      -164.5031
  77   2.0000      -6.040908      -164.3815
  78   2.0000      -6.038300      -164.3105
  79   2.0000      -6.033083      -164.1685
  80   2.0000      -6.028907      -164.0549
  81   2.0000      -6.025607      -163.9651
  82   2.0000      -6.025423      -163.9601
  83   2.0000      -6.021486      -163.8530
  84   2.0000      -6.018203      -163.7636
  85   2.0000      -1.327497       -36.1230
  86   2.0000      -1.322995       -36.0005
  87   2.0000      -1.307642       -35.5828
  88   2.0000      -1.301528       -35.4164
  89   2.0000      -1.230358       -33.4797
  90   2.0000      -1.144056       -31.1313
  91   2.0000      -1.142114       -31.0785
  92   2.0000      -1.127480       -30.6803
  93   2.0000      -1.120006       -30.4769
  94   2.0000      -1.044900       -28.4332
  95   2.0000      -1.026680       -27.9374
  96   2.0000      -1.016429       -27.6584
  97   2.0000      -1.013161       -27.5695
  98   2.0000      -1.009001       -27.4563
  99   2.0000      -1.000317       -27.2200
 100   2.0000      -0.997044       -27.1310
 101   2.0000      -0.993491       -27.0343
 102   2.0000      -0.976789       -26.5798
 103   2.0000      -0.976639       -26.5757
 104   2.0000      -0.961288       -26.1580
 105   2.0000      -0.944227       -25.6937
 106   2.0000      -0.935806       -25.4646
 107   2.0000      -0.929609       -25.2959
 108   2.0000      -0.918772       -25.0011
 109   2.0000      -0.900721       -24.5099
 110   2.0000      -0.897009       -24.4089
 111   2.0000      -0.889378       -24.2012
 112   2.0000      -0.885919       -24.1071
 113   2.0000      -0.880171       -23.9507
 114   2.0000      -0.867989       -23.6192
 115   2.0000      -0.864511       -23.5245
 116   2.0000      -0.863112       -23.4865
 117   2.0000      -0.853350       -23.2208
 118   2.0000      -0.839661       -22.8483
 119   2.0000      -0.835488       -22.7348
 120   2.0000      -0.831756       -22.6332
 121   2.0000      -0.826987       -22.5035
 122   2.0000      -0.820677       -22.3317
 123   2.0000      -0.805430       -21.9169
 124   2.0000      -0.798682       -21.7333
 125   2.0000      -0.787843       -21.4383
 126   2.0000      -0.777893       -21.1675
 127   2.0000      -0.768927       -20.9236
 128   2.0000      -0.759282       -20.6611
 129   2.0000      -0.752350       -20.4725
 130   2.0000      -0.740087       -20.1388
 131   2.0000      -0.732120       -19.9220
 132   2.0000      -0.729633       -19.8543
 133   2.0000      -0.721871       -19.6431
 134   2.0000      -0.718385       -19.5483
 135   2.0000      -0.710086       -19.3224
 136   2.0000      -0.709552       -19.3079
 137   2.0000      -0.709096       -19.2955
 138   2.0000      -0.696735       -18.9591
 139   2.0000      -0.682109       -18.5611
 140   2.0000      -0.678470       -18.4621
 141   2.0000      -0.676437       -18.4068
 142   2.0000      -0.671972       -18.2853
 143   2.0000      -0.666053       -18.1242
 144   2.0000      -0.658223       -17.9111
 145   2.0000      -0.650743       -17.7076
 146   2.0000      -0.644101       -17.5269
 147   2.0000      -0.642426       -17.4813
 148   2.0000      -0.640687       -17.4340
 149   2.0000      -0.636561       -17.3217
 150   2.0000      -0.635203       -17.2847
 151   2.0000      -0.631766       -17.1912
 152   2.0000      -0.628207       -17.0944
 153   2.0000      -0.624940       -17.0055
 154   2.0000      -0.621264       -16.9055
 155   2.0000      -0.618237       -16.8231
 156   2.0000      -0.609368       -16.5818
 157   2.0000      -0.600375       -16.3370
 158   2.0000      -0.596621       -16.2349
 159   2.0000      -0.587597       -15.9893
 160   2.0000      -0.586699       -15.9649
 161   2.0000      -0.586351       -15.9554
 162   2.0000      -0.583595       -15.8804
 163   2.0000      -0.577376       -15.7112
 164   2.0000      -0.571715       -15.5572
 165   2.0000      -0.568230       -15.4623
 166   2.0000      -0.566835       -15.4244
 167   2.0000      -0.563069       -15.3219
 168   2.0000      -0.559470       -15.2239
 169   2.0000      -0.558896       -15.2083
 170   2.0000      -0.555783       -15.1236
 171   2.0000      -0.553262       -15.0550
 172   2.0000      -0.551725       -15.0132
 173   2.0000      -0.549279       -14.9466
 174   2.0000      -0.549021       -14.9396
 175   2.0000      -0.544669       -14.8212
 176   2.0000      -0.542772       -14.7696
 177   2.0000      -0.536151       -14.5894
 178   2.0000      -0.535067       -14.5599
 179   2.0000      -0.532655       -14.4943
 180   2.0000      -0.530698       -14.4410
 181   2.0000      -0.523924       -14.2567
 182   2.0000      -0.522874       -14.2281
 183   2.0000      -0.522010       -14.2046
 184   2.0000      -0.520848       -14.1730
 185   2.0000      -0.514360       -13.9965
 186   2.0000      -0.513179       -13.9643
 187   2.0000      -0.511993       -13.9320
 188   2.0000      -0.503992       -13.7143
 189   2.0000      -0.502386       -13.6706
 190   2.0000      -0.500464       -13.6183
 191   2.0000      -0.499158       -13.5828
 192   2.0000      -0.496109       -13.4998
 193   2.0000      -0.494290       -13.4503
 194   2.0000      -0.493532       -13.4297
 195   2.0000      -0.492112       -13.3911
 196   2.0000      -0.490608       -13.3501
 197   2.0000      -0.489329       -13.3153
 198   2.0000      -0.486529       -13.2391
 199   2.0000      -0.484302       -13.1785
 200   2.0000      -0.482117       -13.1191
 201   2.0000      -0.479875       -13.0581
 202   2.0000      -0.475033       -12.9263
 203   2.0000      -0.471315       -12.8251
 204   2.0000      -0.469120       -12.7654
 205   2.0000      -0.465848       -12.6764
 206   2.0000      -0.465287       -12.6611
 207   2.0000      -0.459229       -12.4963
 208   2.0000      -0.457711       -12.4549
 209   2.0000      -0.456520       -12.4225
 210   2.0000      -0.451228       -12.2785
 211   2.0000      -0.450350       -12.2546
 212   2.0000      -0.449569       -12.2334
 213   2.0000      -0.446293       -12.1443
 214   2.0000      -0.444275       -12.0893
 215   2.0000      -0.442563       -12.0428
 216   2.0000      -0.441343       -12.0095
 217   2.0000      -0.439813       -11.9679
 218   2.0000      -0.439537       -11.9604
 219   2.0000      -0.437459       -11.9039
 220   2.0000      -0.436044       -11.8654
 221   2.0000      -0.435009       -11.8372
 222   2.0000      -0.431286       -11.7359
 223   2.0000      -0.427462       -11.6318
 224   2.0000      -0.424750       -11.5580
 225   2.0000      -0.420293       -11.4368
 226   2.0000      -0.417487       -11.3604
 227   2.0000      -0.416954       -11.3459
 228   2.0000      -0.406568       -11.0633
 229   2.0000      -0.406375       -11.0580
 230   2.0000      -0.400187       -10.8896
 231   2.0000      -0.397794       -10.8245
 232   2.0000      -0.389653       -10.6030
 233   2.0000      -0.384250       -10.4560
 234   2.0000      -0.380144       -10.3442
 235   2.0000      -0.377826       -10.2812
 236   2.0000      -0.371413       -10.1067
 237   2.0000      -0.369165       -10.0455
 238   2.0000      -0.354849        -9.6559
 239   2.0000      -0.347486        -9.4556
 240   2.0000      -0.338173        -9.2022
 241   2.0000      -0.334223        -9.0947
 242   2.0000      -0.332141        -9.0380
 243   2.0000      -0.330161        -8.9841
 244   2.0000      -0.328256        -8.9323
 245   2.0000      -0.323430        -8.8010
 246   2.0000      -0.323261        -8.7964
 247   2.0000      -0.320736        -8.7277
 248   2.0000      -0.317508        -8.6398
 249   2.0000      -0.312868        -8.5136
 250   2.0000      -0.298794        -8.1306
 251   2.0000      -0.276981        -7.5370
 252   2.0000      -0.257971        -7.0198
 253   2.0000      -0.233928        -6.3655
 254   0.0000      -0.107622        -2.9285
 255   0.0000      -0.068020        -1.8509
 256   0.0000      -0.061879        -1.6838
 257   0.0000      -0.047265        -1.2862
 258   0.0000      -0.046563        -1.2670

MULLIKEN ATOMIC CHARGES
-----------------------
   0 C :   -0.097657
   1 C :    0.302057
   2 F :   -0.190651
   3 C :   -0.029285
   4 C :   -0.009912
   5 C :    0.099512
   6 C :    0.102537
   7 C :   -0.086195
   8 C :    0.041275
   9 C :    0.011005
  10 C :   -0.081456
  11 C :    0.137778
  12 O :   -0.149171
  13 C :   -0.144740
  14 C :    0.252237
  15 C :   -0.329328
  16 C :   -0.210488
  17 N :    0.165587
  18 C :   -0.172528
  19 N :    0.146840
  20 C :    0.024102
  21 C :   -0.150821
  22 S :    0.197565
  23 C :   -0.092430
  24 C :    0.122948
  25 C :    0.173417
  26 C :   -0.109206
  27 C :    0.241301
  28 F :   -0.168443
  29 C :    0.227640
  30 F :   -0.176142
  31 C :   -0.117236
  32 C :    0.012399
  33 C :    0.014556
  34 C :    0.003050
  35 C :   -0.199404
  36 C :    0.101619
  37 C :    0.211870
  38 N :   -0.172170
  39 C :    0.067488
  40 C :    0.015287
  41 C :   -0.033406
  42 C :   -0.057870
  43 C :    0.040196
  44 C :   -0.110247
  45 S :    0.128531
  46 C :   -0.077465
  47 C :    0.037071
  48 C :    0.148935
  49 O :   -0.210666
  50 N :   -0.262091
  51 C :    0.147709
  52 O :   -0.221487
  53 C :    0.120474
  54 C :    0.001587
  55 C :   -0.066485
  56 C :   -0.019718
  57 S :    0.135600
  58 C :   -0.158461
  59 S :    0.162606
  60 C :   -0.143809
  61 C :    0.131177
  62 C :    0.182952
  63 O :   -0.188777
  64 C :    0.247354
  65 N :    0.270586
  66 O :   -0.249330
  67 O :   -0.222075
  68 C :   -0.077768
  69 H :   -0.004285
  70 H :    0.003265
  71 H :   -0.009255
  72 H :   -0.005945
  73 H :   -0.012361
  74 H :    0.023742
  75 H :    0.001102
  76 H :   -0.009066
  77 H :   -0.002543
  78 H :    0.007170
  79 H :   -0.017791
  80 H :    0.017023
  81 H :    0.035128
  82 H :    0.034901
  83 H :    0.016836
  84 H :    0.012077
  85 H :    0.116818
  86 H :    0.009668
  87 H :   -0.032860
  88 H :   -0.013348
  89 H :    0.031088
  90 H :    0.034652
  91 H :    0.025919
  92 H :    0.017229
  93 H :    0.018617
  94 H :    0.014681
  95 H :    0.033463
  96 H :    0.014145
Sum of atomic charges:   -0.0000000

LOEWDIN ATOMIC CHARGES
----------------------
   0 C :   -0.042777
   1 C :    0.092510
   2 F :   -0.065048
   3 C :   -0.037486
   4 C :    0.004523
   5 C :   -0.019171
   6 C :    0.002959
   7 C :    0.008784
   8 C :   -0.016422
   9 C :   -0.058648
  10 C :    0.033247
  11 C :    0.080863
  12 O :   -0.150554
  13 C :   -0.108529
  14 C :    0.060464
  15 C :   -0.151053
  16 C :   -0.034454
  17 N :   -0.055512
  18 C :   -0.020345
  19 N :   -0.057899
  20 C :    0.047620
  21 C :   -0.198935
  22 S :    0.525389
  23 C :   -0.133458
  24 C :   -0.048492
  25 C :   -0.009996
  26 C :   -0.037298
  27 C :    0.075964
  28 F :   -0.045993
  29 C :    0.060629
  30 F :   -0.054051
  31 C :   -0.033353
  32 C :   -0.050899
  33 C :    0.001446
  34 C :   -0.054782
  35 C :   -0.014050
  36 C :   -0.046223
  37 C :    0.049142
  38 N :   -0.015415
  39 C :    0.053480
  40 C :   -0.142111
  41 C :   -0.141127
  42 C :   -0.057123
  43 C :   -0.083439
  44 C :   -0.191524
  45 S :    0.428538
  46 C :   -0.164597
  47 C :   -0.096342
  48 C :    0.095086
  49 O :   -0.177511
  50 N :   -0.028871
  51 C :    0.096208
  52 O :   -0.188476
  53 C :    0.045783
  54 C :   -0.059048
  55 C :   -0.017760
  56 C :   -0.187522
  57 S :    0.426936
  58 C :   -0.217303
  59 S :    0.475602
  60 C :   -0.187290
  61 C :   -0.080276
  62 C :    0.023075
  63 O :    0.001820
  64 C :    0.030072
  65 N :    0.271353
  66 O :   -0.210071
  67 O :   -0.184597
  68 C :   -0.009413
  69 H :    0.042456
  70 H :    0.041731
  71 H :    0.035602
  72 H :    0.038486
  73 H :    0.039427
  74 H :    0.048166
  75 H :    0.045215
  76 H :    0.040871
  77 H :    0.032232
  78 H :    0.029509
  79 H :    0.027487
  80 H :    0.029779
  81 H :    0.041640
  82 H :    0.041572
  83 H :    0.018647
  84 H :    0.029768
  85 H :    0.077116
  86 H :    0.029614
  87 H :    0.020838
  88 H :    0.030605
  89 H :    0.026809
  90 H :    0.026765
  91 H :    0.026462
  92 H :    0.029133
  93 H :    0.023405
  94 H :    0.042720
  95 H :    0.029974
  96 H :    0.047724

  Mayer bond orders larger than 0.100000
B(  0-C ,  1-C ) :   1.4389 B(  0-C ,  6-C ) :   1.2042 B(  0-C , 69-H ) :   1.0072
B(  1-C ,  2-F ) :   1.0885 B(  1-C ,  3-C ) :   1.2560 B(  3-C ,  4-C ) :   1.4602
B(  3-C , 70-H ) :   0.9930 B(  4-C ,  5-C ) :   1.2333 B(  4-C , 71-H ) :   0.9977
B(  5-C ,  6-C ) :   1.2583 B(  5-C , 10-C ) :   1.1905 B(  6-C ,  7-C ) :   1.1991
B(  7-C ,  8-C ) :   1.4656 B(  7-C , 72-H ) :   0.9951 B(  8-C ,  9-C ) :   1.2177
B(  8-C , 14-C ) :   0.9985 B(  9-C , 10-C ) :   1.4727 B(  9-C , 11-C ) :   0.9208
B( 10-C , 73-H ) :   1.0160 B( 11-C , 12-O ) :   2.2598 B( 11-C , 13-C ) :   0.9496
B( 13-C , 14-C ) :   1.0572 B( 13-C , 20-C ) :   1.5944 B( 14-C , 15-C ) :   1.6338
B( 15-C , 16-C ) :   1.1598 B( 15-C , 18-C ) :   1.1365 B( 16-C , 17-N ) :   3.0198
B( 18-C , 19-N ) :   2.9847 B( 20-C , 21-C ) :   1.2009 B( 20-C , 74-H ) :   0.9373
B( 21-C , 22-S ) :   1.1209 B( 21-C , 25-C ) :   1.2808 B( 22-S , 23-C ) :   1.2069
B( 23-C , 24-C ) :   1.3289 B( 23-C , 32-C ) :   1.1098 B( 24-C , 25-C ) :   1.2307
B( 24-C , 31-C ) :   1.1584 B( 25-C , 26-C ) :   1.1861 B( 26-C , 27-C ) :   1.4820
B( 26-C , 31-C ) :   0.1103 B( 26-C , 75-H ) :   0.9997 B( 27-C , 28-F ) :   1.1367
B( 27-C , 29-C ) :   1.1607 B( 29-C , 30-F ) :   1.1280 B( 29-C , 31-C ) :   1.4981
B( 31-C , 76-H ) :   0.9962 B( 32-C , 33-C ) :   1.6968 B( 32-C , 77-H ) :   0.9580
B( 33-C , 34-C ) :   1.1120 B( 33-C , 78-H ) :   0.9696 B( 34-C , 35-C ) :   1.7627
B( 34-C , 79-H ) :   0.9717 B( 35-C , 36-C ) :   1.0909 B( 35-C , 37-C ) :   1.0244
B( 36-C , 80-H ) :   0.9550 B( 36-C , 81-H ) :   0.9427 B( 36-C , 82-H ) :   0.9422
B( 37-C , 38-N ) :   0.9937 B( 37-C , 83-H ) :   0.9353 B( 37-C , 84-H ) :   0.9314
B( 38-N , 39-C ) :   1.2120 B( 38-N , 85-H ) :   0.9380 B( 39-C , 40-C ) :   1.6672
B( 39-C , 86-H ) :   0.9614 B( 40-C , 41-C ) :   1.1290 B( 40-C , 87-H ) :   0.9513
B( 41-C , 42-C ) :   1.4902 B( 41-C , 45-S ) :   1.0983 B( 42-C , 43-C ) :   1.2757
B( 42-C , 88-H ) :   0.9990 B( 43-C , 44-C ) :   1.4696 B( 43-C , 51-C ) :   0.9476
B( 44-C , 45-S ) :   1.1154 B( 44-C , 46-C ) :   1.1875 B( 46-C , 47-C ) :   1.4883
B( 46-C , 57-S ) :   1.1281 B( 47-C , 48-C ) :   0.9491 B( 47-C , 55-C ) :   1.2254
B( 48-C , 49-O ) :   2.1122 B( 48-C , 50-N ) :   1.0507 B( 50-N , 51-C ) :   1.0713
B( 50-N , 53-C ) :   0.9195 B( 51-C , 52-O ) :   2.0982 B( 53-C , 54-C ) :   1.1295
B( 53-C , 89-H ) :   0.9376 B( 53-C , 90-H ) :   0.9324 B( 54-C , 91-H ) :   0.9678
B( 54-C , 92-H ) :   0.9691 B( 54-C , 93-H ) :   0.9652 B( 55-C , 56-C ) :   1.5303
B( 55-C , 94-H ) :   1.0108 B( 56-C , 57-S ) :   1.0759 B( 56-C , 58-C ) :   1.0977
B( 58-C , 59-S ) :   1.1375 B( 58-C , 60-C ) :   0.1272 B( 58-C , 62-C ) :   1.5305
B( 59-S , 60-C ) :   1.1820 B( 60-C , 61-C ) :   1.4406 B( 60-C , 95-H ) :   0.9768
B( 61-C , 62-C ) :   1.2136 B( 61-C , 68-C ) :   1.0518 B( 62-C , 63-O ) :   1.1073
B( 63-O , 64-C ) :   1.1181 B( 64-C , 65-N ) :   0.9115 B( 64-C , 68-C ) :   1.5843
B( 65-N , 66-O ) :   1.5326 B( 65-N , 67-O ) :   1.5207 B( 66-O , 67-O ) :   0.2822
B( 68-C , 96-H ) :   1.0257

-----------------------------------------------------------------------------
         ABSORPTION SPECTRUM VIA TRANSITION ELECTRIC DIPOLE MOMENTS
-----------------------------------------------------------------------------
State   Energy  Wavelength   fosc         T2         TX        TY        TZ
        (cm-1)    (nm)                  (au**2)     (au)      (au)      (au)
-----------------------------------------------------------------------------
   0   15916.4    628.3   0.638229986  13.20104  -2.52332   0.50687   2.56456
   1   17924.9    557.9   0.008845518   0.16246   0.10648   0.24514   0.30171
   2   21684.0    461.2   0.661256439  10.03936  -1.33987  -2.25638  -1.77562
   3   24712.4    404.7   0.747219988   9.95426   2.33708   1.88454   0.96996
   4   24961.2    400.6   0.005970000   0.07874  -0.13089   0.15733  -0.19198
   5   26268.1    380.7   0.107385680   1.34584   1.06531  -0.17255  -0.42565
   6   27231.5    367.2   0.255288424   3.08627  -1.72610   0.10395   0.30989
   7   28080.4    356.1   0.000114589   0.00134  -0.01069   0.01630   0.03104
   8   28874.7    346.3   0.174182878   1.98593   1.17869  -0.61229  -0.47088
   9   29027.3    344.5   0.015450383   0.17523   0.06929  -0.35077  -0.21769
  10   29351.6    340.7   0.001342824   0.01506   0.05228  -0.08627  -0.06990
  11   30019.9    333.1   0.321009963   3.52034  -0.55390  -1.60331  -0.80184
  12   30295.2    330.1   0.052595336   0.57154  -0.49740   0.44599   0.35388
  13   30679.0    326.0   0.079851618   0.85688   0.26420  -0.55752  -0.69010
  14   32290.0    309.7   0.064000024   0.65251   0.66159  -0.20247  -0.41691
  15   32696.7    305.8   0.188406919   1.89700   1.19296  -0.63436  -0.26730
  16   32823.6    304.7   0.004450035   0.04463  -0.06972   0.19592   0.03727
  17   32859.1    304.3   0.000229056   0.00229   0.04175   0.02349   0.00016
  18   33603.3    297.6   0.052390693   0.51327   0.24357   0.55957   0.37527
  19   33817.8    295.7   0.003549701   0.03456   0.03710  -0.13423  -0.12313
  20   34271.6    291.8   0.612791167   5.88646   0.83874  -1.89667  -1.25921
  21   34471.9    290.1   0.171547803   1.63831  -1.14830   0.11746   0.55310
  22   35059.0    285.2   0.096428215   0.90548  -0.78994  -0.52784  -0.05344
  23   35288.3    283.4   0.225638180   2.10502   1.22862   0.77016   0.04886
  24   36196.1    276.3   0.010859343   0.09877  -0.01533  -0.20322  -0.23924
  25   36556.3    273.6   0.262812103   2.36678  -1.33473  -0.76278  -0.05861
  26   36585.8    273.3   0.085939528   0.77331   0.55114  -0.61025  -0.31170
  27   36768.5    272.0   0.053065836   0.47513   0.37709  -0.28766  -0.50019
  28   37265.3    268.3   0.287565598   2.54043  -1.50157  -0.20017   0.49565
  29   37578.0    266.1   0.136898407   1.19934  -0.93299  -0.07917  -0.56797
  30   37996.3    263.2   0.000900439   0.00780   0.08557   0.01535  -0.01560
  31   38662.2    258.7   0.000290750   0.00248   0.02785   0.04048   0.00783
  32   38984.0    256.5   0.000173427   0.00146  -0.00368   0.03398   0.01721
  33   39210.0    255.0   0.284133140   2.38562  -1.42542  -0.49482  -0.33005
  34   39552.1    252.8   0.011774790   0.09801   0.29047   0.10860   0.04291
  35   39652.7    252.2   0.138386843   1.14894  -0.96698  -0.42902  -0.17271
  36   39856.2    250.9   0.000364921   0.00301   0.03465   0.04036   0.01357

FINAL SINGLE POINT ENERGY     -4573.372025017299

DIPOLE MOMENT
-------------
                                X             Y             Z
Electronic contribution:    -32.96238       8.66440      30.83885
Nuclear contribution   :     29.00482      -8.41200     -31.50307
                        -----------------------------------------
Total Dipole Moment    :     -3.95756       0.25240      -0.66422
                        -----------------------------------------
Magnitude (a.u.)       :      4.02084
Magnitude (Debye)      :     10.22017

Rotational constants in cm-1:     0.001099     0.000224     0.000189
Rotational constants in MHz :    32.940393     6.722284     5.652254

                             ****ORCA TERMINATED NORMALLY****
TOTAL RUN TIME: 0 days 0 hours 15 minutes 3 seconds 245 msec
