                         Program Version 4.2.0 -  RELEASE  -
|  1> # ORCA input file
|  2> # SCF done       -161.027314495243          0.000801556855
|  3> ! CAM-B3LYP def2-SVP def2/J RIJCOSX Grid4 TightSCF
|  4> %maxcore 5000
|  5> %tddft
|  6>     Mode sTDDFT
|  7>     Ethresh 5.0
|  8>     maxcore 5000
|  9> end
| 10>
| 11> %pal
| 12>   nprocs 6
| 13>   end
| 14> * xyz 0 1
| 15>    C       12.82284         5.78912        11.32822
| 16>    C       13.11455         6.46981        12.47761
| 17>    F       12.84873         7.78801        12.55231
| 18>    C       13.68566         5.84814        13.59539
| 19>    C       13.96432         4.51044        13.53641
| 20>    C       13.68579         3.76049        12.37620
| 21>    C       13.10079         4.41076        11.25081
| 22>    C       12.80091         3.67634        10.07922
| 23>    C       13.08511         2.33838        10.03548
| 24>    C       13.68855         1.69771        11.15673
| 25>    C       13.97733         2.37910        12.30301
| 26>    C       13.92750         0.27675        10.83639
| 27>    O       14.37908        -0.58346        11.55735
| 28>    C       13.55451         0.13667         9.40181
| 29>    C       12.85522         1.33484         9.00158
| 30>    C       11.92168         1.43091         7.99718
| 31>    C       11.21681         2.61049         7.69458
| 32>    N       10.63241         3.55243         7.39262
| 33>    C       11.49322         0.33010         7.23085
| 34>    N       11.08111        -0.55434         6.62425
| 35>    C       13.98645        -0.94954         8.70316
| 36>    C       14.13446        -1.11975         7.30693
| 37>    C       14.35887        -2.32592         6.66599
| 38>    F       14.38676        -3.49161         7.31653
| 39>    C       14.53591        -2.21851         5.27927
| 40>    F       14.82581        -3.28075         4.51487
| 41>    C       14.48182        -0.92458         4.80863
| 42>    S       14.22654         0.16794         6.13490
| 43>    C       14.62727        -0.39740         3.47754
| 44>    C       14.20068        -0.96776         2.34374
| 45>    C       13.42727        -2.24294         2.27474
| 46>    C       14.48546        -0.34498         0.99153
| 47>    N       15.02144         0.98606         1.00470
| 48>    C       16.31199         1.26969         1.29147
| 49>    C       16.79428         2.53130         1.45031
| 50>    C       18.14093         2.82016         1.72954
| 51>    C       18.65885         4.08647         1.83071
| 52>    C       19.98719         4.44989         2.15185
| 53>    C       20.21644         5.79370         2.16224
| 54>    C       19.08540         6.57162         1.83563
| 55>    S       17.70542         5.53919         1.53889
| 56>    C       19.00582         7.94854         1.72007
| 57>    C       20.01841         8.90006         1.95954
| 58>    C       19.63137        10.18651         1.73140
| 59>    C       18.29379        10.33372         1.28657
| 60>    S       17.53947         8.74810         1.19838
| 61>    C       17.70342        11.52874         0.95881
| 62>    C       16.41004        11.78553         0.46151
| 63>    C       15.94067        13.05858         0.11569
| 64>    C       14.61944        12.94292        -0.37583
| 65>    C       13.72942        13.87850        -0.85700
| 66>    C       12.47392        13.42427        -1.28988
| 67>    C       11.38165        14.09350        -1.82252
| 68>    C       10.34251        13.15186        -2.10207
| 69>    C       10.79413        11.89523        -1.73957
| 70>    C       12.12312        12.01564        -1.22727
| 71>    C       13.00248        11.08217        -0.74781
| 72>    C       14.26862        11.53398        -0.31747
| 73>    C       15.35477        10.84811         0.18994
| 74>    C        9.06698        13.52197        -2.66809
| 75>    C        8.07064        12.68478        -2.94442
| 76>    H       12.37915         6.30042        10.48827
| 77>    H       13.89285         6.43587        14.47559
| 78>    H       14.40515         4.00854        14.38465
| 79>    H       12.36196         4.19243         9.23998
| 80>    H       14.42321         1.87195        13.14549
| 81>    H       14.34446        -1.78058         9.30415
| 82>    H       15.09918         0.57628         3.44229
| 83>    H       14.09784        -3.09600         2.17684
| 84>    H       12.76289        -2.24008         1.41362
| 85>    H       12.83375        -2.38552         3.17414
| 86>    H       13.56161        -0.33250         0.40550
| 87>    H       15.19423        -1.00093         0.46966
| 88>    H       14.36141         1.74568         1.08058
| 89>    H       16.97299         0.41540         1.34610
| 90>    H       16.11489         3.36913         1.36021
| 91>    H       18.82090         1.99204         1.88158
| 92>    H       20.73299         3.70481         2.36748
| 93>    H       21.16801         6.24262         2.38397
| 94>    H       20.99949         8.61459         2.29462
| 95>    H       20.27048        11.04252         1.86089
| 96>    H       18.33357        12.40240         1.08189
| 97>    H       16.49605        13.97446         0.20253
| 98>    H       13.98289        14.92819        -0.90613
| 99>    H       11.31249        15.15182        -2.00323
|100>    H       10.25448        10.97048        -1.82139
|101>    H       12.75179        10.03177        -0.69775
|102>    H       15.40570         9.78811         0.35499
|103>    H        8.94689        14.57901        -2.87293
|104>    H        8.14446        11.62710        -2.75822
|105>    H        7.14404        13.03130        -3.36810
|106> *
|107>
|108>                          ****END OF INPUT****

CARTESIAN COORDINATES (ANGSTROEM)
---------------------------------
  C     12.822840    5.789120   11.328220
  C     13.114550    6.469810   12.477610
  F     12.848730    7.788010   12.552310
  C     13.685660    5.848140   13.595390
  C     13.964320    4.510440   13.536410
  C     13.685790    3.760490   12.376200
  C     13.100790    4.410760   11.250810
  C     12.800910    3.676340   10.079220
  C     13.085110    2.338380   10.035480
  C     13.688550    1.697710   11.156730
  C     13.977330    2.379100   12.303010
  C     13.927500    0.276750   10.836390
  O     14.379080   -0.583460   11.557350
  C     13.554510    0.136670    9.401810
  C     12.855220    1.334840    9.001580
  C     11.921680    1.430910    7.997180
  C     11.216810    2.610490    7.694580
  N     10.632410    3.552430    7.392620
  C     11.493220    0.330100    7.230850
  N     11.081110   -0.554340    6.624250
  C     13.986450   -0.949540    8.703160
  C     14.134460   -1.119750    7.306930
  C     14.358870   -2.325920    6.665990
  F     14.386760   -3.491610    7.316530
  C     14.535910   -2.218510    5.279270
  F     14.825810   -3.280750    4.514870
  C     14.481820   -0.924580    4.808630
  S     14.226540    0.167940    6.134900
  C     14.627270   -0.397400    3.477540
  C     14.200680   -0.967760    2.343740
  C     13.427270   -2.242940    2.274740
  C     14.485460   -0.344980    0.991530
  N     15.021440    0.986060    1.004700
  C     16.311990    1.269690    1.291470
  C     16.794280    2.531300    1.450310
  C     18.140930    2.820160    1.729540
  C     18.658850    4.086470    1.830710
  C     19.987190    4.449890    2.151850
  C     20.216440    5.793700    2.162240
  C     19.085400    6.571620    1.835630
  S     17.705420    5.539190    1.538890
  C     19.005820    7.948540    1.720070
  C     20.018410    8.900060    1.959540
  C     19.631370   10.186510    1.731400
  C     18.293790   10.333720    1.286570
  S     17.539470    8.748100    1.198380
  C     17.703420   11.528740    0.958810
  C     16.410040   11.785530    0.461510
  C     15.940670   13.058580    0.115690
  C     14.619440   12.942920   -0.375830
  C     13.729420   13.878500   -0.857000
  C     12.473920   13.424270   -1.289880
  C     11.381650   14.093500   -1.822520
  C     10.342510   13.151860   -2.102070
  C     10.794130   11.895230   -1.739570
  C     12.123120   12.015640   -1.227270
  C     13.002480   11.082170   -0.747810
  C     14.268620   11.533980   -0.317470
  C     15.354770   10.848110    0.189940
  C      9.066980   13.521970   -2.668090
  C      8.070640   12.684780   -2.944420
  H     12.379150    6.300420   10.488270
  H     13.892850    6.435870   14.475590
  H     14.405150    4.008540   14.384650
  H     12.361960    4.192430    9.239980
  H     14.423210    1.871950   13.145490
  H     14.344460   -1.780580    9.304150
  H     15.099180    0.576280    3.442290
  H     14.097840   -3.096000    2.176840
  H     12.762890   -2.240080    1.413620
  H     12.833750   -2.385520    3.174140
  H     13.561610   -0.332500    0.405500
  H     15.194230   -1.000930    0.469660
  H     14.361410    1.745680    1.080580
  H     16.972990    0.415400    1.346100
  H     16.114890    3.369130    1.360210
  H     18.820900    1.992040    1.881580
  H     20.732990    3.704810    2.367480
  H     21.168010    6.242620    2.383970
  H     20.999490    8.614590    2.294620
  H     20.270480   11.042520    1.860890
  H     18.333570   12.402400    1.081890
  H     16.496050   13.974460    0.202530
  H     13.982890   14.928190   -0.906130
  H     11.312490   15.151820   -2.003230
  H     10.254480   10.970480   -1.821390
  H     12.751790   10.031770   -0.697750
  H     15.405700    9.788110    0.354990
  H      8.946890   14.579010   -2.872930
  H      8.144460   11.627100   -2.758220
  H      7.144040   13.031300   -3.368100

 Total Charge           Charge          ....    0
 Multiplicity           Mult            ....    1
 Number of Electrons    NEL             ....  440
 Basis Dimension        Dim             .... 1016

ORBITAL ENERGIES
----------------

  NO   OCC          E(Eh)            E(eV)
   0   2.0000     -88.982181     -2421.3282
   1   2.0000     -88.924086     -2419.7474
   2   2.0000     -88.923613     -2419.7345
   3   2.0000     -24.813987      -675.2229
   4   2.0000     -24.806610      -675.0222
   5   2.0000     -24.785753      -674.4546
   6   2.0000     -19.215440      -522.8787
   7   2.0000     -14.440176      -392.9372
   8   2.0000     -14.418582      -392.3496
   9   2.0000     -14.416496      -392.2928
  10   2.0000     -10.390966      -282.7526
  11   2.0000     -10.379532      -282.4414
  12   2.0000     -10.370274      -282.1895
  13   2.0000     -10.367619      -282.1172
  14   2.0000     -10.346540      -281.5437
  15   2.0000     -10.345194      -281.5070
  16   2.0000     -10.335832      -281.2523
  17   2.0000     -10.329031      -281.0672
  18   2.0000     -10.328300      -281.0473
  19   2.0000     -10.327452      -281.0243
  20   2.0000     -10.320739      -280.8416
  21   2.0000     -10.318831      -280.7897
  22   2.0000     -10.316708      -280.7319
  23   2.0000     -10.307986      -280.4946
  24   2.0000     -10.307412      -280.4789
  25   2.0000     -10.303945      -280.3846
  26   2.0000     -10.302401      -280.3426
  27   2.0000     -10.301671      -280.3227
  28   2.0000     -10.301376      -280.3147
  29   2.0000     -10.300097      -280.2799
  30   2.0000     -10.298621      -280.2397
  31   2.0000     -10.295446      -280.1533
  32   2.0000     -10.291719      -280.0519
  33   2.0000     -10.291602      -280.0487
  34   2.0000     -10.290485      -280.0183
  35   2.0000     -10.290162      -280.0095
  36   2.0000     -10.289860      -280.0013
  37   2.0000     -10.287968      -279.9499
  38   2.0000     -10.285400      -279.8800
  39   2.0000     -10.284857      -279.8652
  40   2.0000     -10.281913      -279.7851
  41   2.0000     -10.275957      -279.6230
  42   2.0000     -10.273138      -279.5463
  43   2.0000     -10.271980      -279.5148
  44   2.0000     -10.269473      -279.4466
  45   2.0000     -10.267614      -279.3960
  46   2.0000     -10.266185      -279.3571
  47   2.0000     -10.266084      -279.3543
  48   2.0000     -10.263640      -279.2878
  49   2.0000     -10.262499      -279.2568
  50   2.0000     -10.260201      -279.1943
  51   2.0000     -10.259558      -279.1768
  52   2.0000     -10.258282      -279.1420
  53   2.0000     -10.257633      -279.1244
  54   2.0000     -10.256343      -279.0893
  55   2.0000     -10.255813      -279.0749
  56   2.0000     -10.253619      -279.0152
  57   2.0000     -10.252656      -278.9890
  58   2.0000     -10.252481      -278.9842
  59   2.0000     -10.252091      -278.9736
  60   2.0000     -10.248680      -278.8808
  61   2.0000      -8.077106      -219.7892
  62   2.0000      -8.020096      -218.2379
  63   2.0000      -8.019993      -218.2351
  64   2.0000      -6.046557      -164.5352
  65   2.0000      -6.042669      -164.4294
  66   2.0000      -6.038596      -164.3185
  67   2.0000      -5.989870      -162.9927
  68   2.0000      -5.989752      -162.9894
  69   2.0000      -5.985900      -162.8846
  70   2.0000      -5.985825      -162.8826
  71   2.0000      -5.980939      -162.7496
  72   2.0000      -5.980795      -162.7457
  73   2.0000      -1.330810       -36.2132
  74   2.0000      -1.316524       -35.8244
  75   2.0000      -1.300172       -35.3795
  76   2.0000      -1.130625       -30.7659
  77   2.0000      -1.044126       -28.4121
  78   2.0000      -1.024005       -27.8646
  79   2.0000      -1.013704       -27.5843
  80   2.0000      -1.002206       -27.2714
  81   2.0000      -0.994892       -27.0724
  82   2.0000      -0.978229       -26.6190
  83   2.0000      -0.975628       -26.5482
  84   2.0000      -0.972795       -26.4711
  85   2.0000      -0.953617       -25.9492
  86   2.0000      -0.946343       -25.7513
  87   2.0000      -0.934531       -25.4299
  88   2.0000      -0.926426       -25.2093
  89   2.0000      -0.908673       -24.7262
  90   2.0000      -0.891525       -24.2596
  91   2.0000      -0.888666       -24.1818
  92   2.0000      -0.885291       -24.0900
  93   2.0000      -0.880843       -23.9689
  94   2.0000      -0.860919       -23.4268
  95   2.0000      -0.855171       -23.2704
  96   2.0000      -0.852225       -23.1902
  97   2.0000      -0.843375       -22.9494
  98   2.0000      -0.838623       -22.8201
  99   2.0000      -0.834977       -22.7209
 100   2.0000      -0.823340       -22.4042
 101   2.0000      -0.822375       -22.3780
 102   2.0000      -0.807708       -21.9789
 103   2.0000      -0.801670       -21.8145
 104   2.0000      -0.790569       -21.5125
 105   2.0000      -0.784507       -21.3475
 106   2.0000      -0.780870       -21.2486
 107   2.0000      -0.766361       -20.8537
 108   2.0000      -0.762080       -20.7372
 109   2.0000      -0.742238       -20.1973
 110   2.0000      -0.735956       -20.0264
 111   2.0000      -0.733093       -19.9485
 112   2.0000      -0.717981       -19.5373
 113   2.0000      -0.713339       -19.4109
 114   2.0000      -0.710807       -19.3421
 115   2.0000      -0.698130       -18.9971
 116   2.0000      -0.696320       -18.9478
 117   2.0000      -0.684249       -18.6194
 118   2.0000      -0.682456       -18.5706
 119   2.0000      -0.674319       -18.3492
 120   2.0000      -0.662969       -18.0403
 121   2.0000      -0.658213       -17.9109
 122   2.0000      -0.656385       -17.8612
 123   2.0000      -0.639110       -17.3911
 124   2.0000      -0.638017       -17.3613
 125   2.0000      -0.633951       -17.2507
 126   2.0000      -0.630577       -17.1589
 127   2.0000      -0.624294       -16.9879
 128   2.0000      -0.620416       -16.8824
 129   2.0000      -0.616920       -16.7873
 130   2.0000      -0.612307       -16.6617
 131   2.0000      -0.610404       -16.6099
 132   2.0000      -0.607598       -16.5336
 133   2.0000      -0.599183       -16.3046
 134   2.0000      -0.595496       -16.2043
 135   2.0000      -0.590639       -16.0721
 136   2.0000      -0.587013       -15.9734
 137   2.0000      -0.584504       -15.9052
 138   2.0000      -0.575700       -15.6656
 139   2.0000      -0.572510       -15.5788
 140   2.0000      -0.568944       -15.4818
 141   2.0000      -0.567066       -15.4307
 142   2.0000      -0.564563       -15.3625
 143   2.0000      -0.558819       -15.2063
 144   2.0000      -0.558143       -15.1878
 145   2.0000      -0.555081       -15.1045
 146   2.0000      -0.552000       -15.0207
 147   2.0000      -0.547487       -14.8979
 148   2.0000      -0.541858       -14.7447
 149   2.0000      -0.538260       -14.6468
 150   2.0000      -0.534360       -14.5407
 151   2.0000      -0.528463       -14.3802
 152   2.0000      -0.524783       -14.2801
 153   2.0000      -0.524526       -14.2731
 154   2.0000      -0.522406       -14.2154
 155   2.0000      -0.518153       -14.0997
 156   2.0000      -0.515488       -14.0271
 157   2.0000      -0.513917       -13.9844
 158   2.0000      -0.508497       -13.8369
 159   2.0000      -0.506048       -13.7703
 160   2.0000      -0.500005       -13.6058
 161   2.0000      -0.495513       -13.4836
 162   2.0000      -0.493865       -13.4388
 163   2.0000      -0.489890       -13.3306
 164   2.0000      -0.487016       -13.2524
 165   2.0000      -0.485052       -13.1989
 166   2.0000      -0.484927       -13.1955
 167   2.0000      -0.483268       -13.1504
 168   2.0000      -0.478959       -13.0331
 169   2.0000      -0.476838       -12.9754
 170   2.0000      -0.475969       -12.9518
 171   2.0000      -0.474724       -12.9179
 172   2.0000      -0.471684       -12.8352
 173   2.0000      -0.469871       -12.7858
 174   2.0000      -0.466724       -12.7002
 175   2.0000      -0.461437       -12.5563
 176   2.0000      -0.459473       -12.5029
 177   2.0000      -0.457980       -12.4623
 178   2.0000      -0.456860       -12.4318
 179   2.0000      -0.454113       -12.3570
 180   2.0000      -0.451450       -12.2846
 181   2.0000      -0.450732       -12.2650
 182   2.0000      -0.445765       -12.1299
 183   2.0000      -0.445094       -12.1116
 184   2.0000      -0.443588       -12.0706
 185   2.0000      -0.441635       -12.0175
 186   2.0000      -0.438946       -11.9443
 187   2.0000      -0.438333       -11.9277
 188   2.0000      -0.431163       -11.7326
 189   2.0000      -0.429670       -11.6919
 190   2.0000      -0.428480       -11.6595
 191   2.0000      -0.424448       -11.5498
 192   2.0000      -0.423635       -11.5277
 193   2.0000      -0.421323       -11.4648
 194   2.0000      -0.415488       -11.3060
 195   2.0000      -0.413837       -11.2611
 196   2.0000      -0.410340       -11.1659
 197   2.0000      -0.404879       -11.0173
 198   2.0000      -0.401917       -10.9367
 199   2.0000      -0.392893       -10.6912
 200   2.0000      -0.386330       -10.5126
 201   2.0000      -0.383674       -10.4403
 202   2.0000      -0.376997       -10.2586
 203   2.0000      -0.375504       -10.2180
 204   2.0000      -0.367057        -9.9881
 205   2.0000      -0.355137        -9.6638
 206   2.0000      -0.346072        -9.4171
 207   2.0000      -0.338333        -9.2065
 208   2.0000      -0.335892        -9.1401
 209   2.0000      -0.329996        -8.9796
 210   2.0000      -0.319617        -8.6972
 211   2.0000      -0.315511        -8.5855
 212   2.0000      -0.305814        -8.3216
 213   2.0000      -0.301612        -8.2073
 214   2.0000      -0.300940        -8.1890
 215   2.0000      -0.283066        -7.7026
 216   2.0000      -0.267197        -7.2708
 217   2.0000      -0.256590        -6.9822
 218   2.0000      -0.233144        -6.3442
 219   2.0000      -0.181215        -4.9311
 220   0.0000      -0.099597        -2.7102
 221   0.0000      -0.086141        -2.3440
 222   0.0000      -0.057465        -1.5637
 223   0.0000      -0.049496        -1.3468
 224   0.0000      -0.033129        -0.9015

MULLIKEN ATOMIC CHARGES
-----------------------
   0 C :   -0.096203
   1 C :    0.303703
   2 F :   -0.190661
   3 C :   -0.028231
   4 C :   -0.009860
   5 C :    0.102028
   6 C :    0.102642
   7 C :   -0.082757
   8 C :    0.039681
   9 C :    0.010730
  10 C :   -0.081712
  11 C :    0.141691
  12 O :   -0.141528
  13 C :   -0.132603
  14 C :    0.258284
  15 C :   -0.317976
  16 C :   -0.169447
  17 N :    0.150603
  18 C :   -0.209922
  19 N :    0.170224
  20 C :    0.061182
  21 C :   -0.199916
  22 C :    0.264195
  23 F :   -0.155961
  24 C :    0.209431
  25 F :   -0.172956
  26 C :   -0.165528
  27 S :    0.181029
  28 C :    0.045518
  29 C :   -0.218281
  30 C :    0.086862
  31 C :    0.187712
  32 N :   -0.158062
  33 C :    0.053802
  34 C :   -0.021819
  35 C :   -0.013609
  36 C :   -0.036184
  37 C :    0.036839
  38 C :    0.013972
  39 C :   -0.045089
  40 S :    0.046411
  41 C :   -0.040916
  42 C :    0.026121
  43 C :    0.023064
  44 C :   -0.016459
  45 S :    0.030419
  46 C :   -0.031567
  47 C :    0.069185
  48 C :   -0.048419
  49 C :    0.074650
  50 C :   -0.011718
  51 C :    0.059306
  52 C :   -0.028538
  53 C :    0.061759
  54 C :   -0.030330
  55 C :    0.049648
  56 C :   -0.002157
  57 C :    0.038960
  58 C :   -0.024911
  59 C :    0.007394
  60 C :   -0.018787
  61 H :   -0.001663
  62 H :    0.004403
  63 H :   -0.007961
  64 H :   -0.002492
  65 H :   -0.010334
  66 H :    0.035644
  67 H :    0.008781
  68 H :    0.047342
  69 H :    0.015426
  70 H :    0.043556
  71 H :    0.028442
  72 H :    0.034672
  73 H :    0.124522
  74 H :    0.003791
  75 H :   -0.015266
  76 H :   -0.027127
  77 H :   -0.023441
  78 H :   -0.023876
  79 H :   -0.023089
  80 H :   -0.022353
  81 H :   -0.032544
  82 H :   -0.034415
  83 H :   -0.030282
  84 H :   -0.027040
  85 H :   -0.032676
  86 H :   -0.026093
  87 H :   -0.010166
  88 H :   -0.023582
  89 H :    0.007456
  90 H :    0.015430
Sum of atomic charges:   -0.0000000

LOEWDIN ATOMIC CHARGES
----------------------
   0 C :   -0.041005
   1 C :    0.094786
   2 F :   -0.065346
   3 C :   -0.035539
   4 C :    0.004921
   5 C :   -0.018132
   6 C :    0.003697
   7 C :    0.012227
   8 C :   -0.017816
   9 C :   -0.059533
  10 C :    0.035672
  11 C :    0.083433
  12 O :   -0.142965
  13 C :   -0.095953
  14 C :    0.063252
  15 C :   -0.141594
  16 C :   -0.018991
  17 N :   -0.049670
  18 C :   -0.036461
  19 N :   -0.051338
  20 C :    0.059736
  21 C :   -0.219874
  22 C :    0.064292
  23 F :   -0.034759
  24 C :    0.011324
  25 F :   -0.045484
  26 C :   -0.163324
  27 S :    0.490395
  28 C :   -0.085071
  29 C :   -0.007467
  30 C :   -0.051253
  31 C :    0.038946
  32 N :   -0.005262
  33 C :    0.038243
  34 C :   -0.120614
  35 C :   -0.045240
  36 C :   -0.172806
  37 C :   -0.034994
  38 C :   -0.049118
  39 C :   -0.177513
  40 S :    0.346856
  41 C :   -0.193714
  42 C :   -0.040527
  43 C :   -0.042748
  44 C :   -0.152707
  45 S :    0.358775
  46 C :   -0.063145
  47 C :   -0.062586
  48 C :    0.006126
  49 C :   -0.062096
  50 C :    0.067249
  51 C :   -0.069817
  52 C :    0.037405
  53 C :   -0.066368
  54 C :    0.019859
  55 C :   -0.061434
  56 C :    0.075119
  57 C :   -0.066515
  58 C :    0.036501
  59 C :   -0.024651
  60 C :   -0.052067
  61 H :    0.043603
  62 H :    0.042402
  63 H :    0.036104
  64 H :    0.039604
  65 H :    0.040267
  66 H :    0.054970
  67 H :    0.033802
  68 H :    0.043326
  69 H :    0.031064
  70 H :    0.041254
  71 H :    0.036021
  72 H :    0.039493
  73 H :    0.081477
  74 H :    0.027727
  75 H :    0.017851
  76 H :    0.028273
  77 H :    0.029030
  78 H :    0.027662
  79 H :    0.028205
  80 H :    0.028999
  81 H :    0.031361
  82 H :    0.021229
  83 H :    0.032638
  84 H :    0.023444
  85 H :    0.021857
  86 H :    0.034281
  87 H :    0.014053
  88 H :    0.026128
  89 H :    0.018241
  90 H :    0.022316

  Mayer bond orders larger than 0.100000
B(  0-C ,  1-C ) :   1.4395 B(  0-C ,  6-C ) :   1.2046 B(  0-C , 61-H ) :   1.0062
B(  1-C ,  2-F ) :   1.0886 B(  1-C ,  3-C ) :   1.2573 B(  3-C ,  4-C ) :   1.4599
B(  3-C , 62-H ) :   0.9925 B(  4-C ,  5-C ) :   1.2353 B(  4-C , 63-H ) :   0.9967
B(  5-C ,  6-C ) :   1.2561 B(  5-C , 10-C ) :   1.1920 B(  6-C ,  7-C ) :   1.2019
B(  7-C ,  8-C ) :   1.4628 B(  7-C , 64-H ) :   0.9942 B(  8-C ,  9-C ) :   1.2182
B(  8-C , 14-C ) :   1.0019 B(  9-C , 10-C ) :   1.4722 B(  9-C , 11-C ) :   0.9220
B( 10-C , 65-H ) :   1.0151 B( 11-C , 12-O ) :   2.2733 B( 11-C , 13-C ) :   0.9392
B( 13-C , 14-C ) :   1.0367 B( 13-C , 20-C ) :   1.6376 B( 14-C , 15-C ) :   1.6497
B( 15-C , 16-C ) :   1.1369 B( 15-C , 18-C ) :   1.1530 B( 16-C , 17-N ) :   2.9835
B( 18-C , 19-N ) :   3.0271 B( 20-C , 21-C ) :   1.1373 B( 20-C , 66-H ) :   0.9455
B( 21-C , 22-C ) :   1.4211 B( 21-C , 26-C ) :   0.1176 B( 21-C , 27-S ) :   1.0826
B( 22-C , 23-F ) :   1.1859 B( 22-C , 24-C ) :   1.2146 B( 24-C , 25-F ) :   1.1487
B( 24-C , 26-C ) :   1.4592 B( 26-C , 27-S ) :   1.1463 B( 26-C , 28-C ) :   1.0381
B( 28-C , 29-C ) :   1.8579 B( 28-C , 67-H ) :   0.9276 B( 29-C , 30-C ) :   1.0981
B( 29-C , 31-C ) :   0.9923 B( 30-C , 68-H ) :   0.9420 B( 30-C , 69-H ) :   0.9499
B( 30-C , 70-H ) :   0.9431 B( 31-C , 32-N ) :   1.0589 B( 31-C , 71-H ) :   0.9396
B( 31-C , 72-H ) :   0.9260 B( 32-N , 33-C ) :   1.1893 B( 32-N , 73-H ) :   0.9405
B( 33-C , 34-C ) :   1.6126 B( 33-C , 74-H ) :   0.9705 B( 34-C , 35-C ) :   1.1639
B( 34-C , 75-H ) :   0.9616 B( 35-C , 36-C ) :   1.5900 B( 35-C , 76-H ) :   0.9792
B( 36-C , 37-C ) :   1.1456 B( 36-C , 40-S ) :   1.0098 B( 37-C , 38-C ) :   1.5878
B( 37-C , 77-H ) :   0.9973 B( 38-C , 39-C ) :   1.1926 B( 38-C , 78-H ) :   0.9927
B( 39-C , 40-S ) :   1.0446 B( 39-C , 41-C ) :   1.5056 B( 41-C , 42-C ) :   1.1940
B( 41-C , 45-S ) :   1.0278 B( 42-C , 43-C ) :   1.5850 B( 42-C , 79-H ) :   0.9921
B( 43-C , 44-C ) :   1.1417 B( 43-C , 80-H ) :   0.9996 B( 44-C , 45-S ) :   1.0212
B( 44-C , 46-C ) :   1.5771 B( 46-C , 47-C ) :   1.1311 B( 46-C , 81-H ) :   0.9683
B( 47-C , 48-C ) :   1.4246 B( 47-C , 58-C ) :   1.1440 B( 48-C , 49-C ) :   1.1152
B( 48-C , 82-H ) :   1.0202 B( 49-C , 50-C ) :   1.4174 B( 49-C , 57-C ) :   1.1349
B( 50-C , 51-C ) :   1.1452 B( 50-C , 83-H ) :   1.0062 B( 51-C , 52-C ) :   1.3984
B( 51-C , 55-C ) :   1.1365 B( 52-C , 53-C ) :   1.1620 B( 52-C , 84-H ) :   1.0126
B( 53-C , 54-C ) :   1.4948 B( 53-C , 59-C ) :   1.0760 B( 54-C , 55-C ) :   1.1102
B( 54-C , 85-H ) :   1.0113 B( 55-C , 56-C ) :   1.4326 B( 56-C , 57-C ) :   1.1380
B( 56-C , 86-H ) :   1.0046 B( 57-C , 58-C ) :   1.4318 B( 58-C , 87-H ) :   0.9923
B( 59-C , 60-C ) :   1.9463 B( 59-C , 88-H ) :   0.9648 B( 60-C , 89-H ) :   0.9525
B( 60-C , 90-H ) :   0.9483

-----------------------------------------------------------------------------
         ABSORPTION SPECTRUM VIA TRANSITION ELECTRIC DIPOLE MOMENTS
-----------------------------------------------------------------------------
State   Energy  Wavelength   fosc         T2         TX        TY        TZ
        (cm-1)    (nm)                  (au**2)     (au)      (au)      (au)
-----------------------------------------------------------------------------
   0    4378.4   2284.0   0.007820682   0.58804   0.22528  -0.71244   0.17241
   1    7755.1   1289.5   0.002296302   0.09748  -0.07460  -0.21963   0.20900
   2   13631.1    733.6   0.036954905   0.89252  -0.13064   0.91653  -0.18819
   3   15535.3    643.7   1.409568352  29.87048   1.50167  -5.07850   1.35066
   4   17701.3    564.9   0.001087244   0.02022   0.07803  -0.11705  -0.02078
   5   20014.7    499.6   0.005273333   0.08674  -0.17772   0.16742   0.16470
   6   21923.6    456.1   0.459546006   6.90070  -1.01801   1.44676   1.94197
   7   22081.5    452.9   0.235141729   3.50572  -1.64267   0.89779  -0.03645
   8   22654.0    441.4   0.000679887   0.00988  -0.07854   0.05184   0.03199
   9   24577.5    406.9   0.010911343   0.14616  -0.20026   0.31958  -0.06262
  10   25254.2    396.0   0.076157150   0.99278   0.54474   0.83066   0.07777
  11   26480.8    377.6   0.047230719   0.58718  -0.11200   0.62668   0.42651
  12   26843.8    372.5   0.001141167   0.01400   0.10318  -0.05380  -0.02131
  13   27174.1    368.0   0.000380330   0.00461  -0.03787   0.05251   0.02040
  14   27640.4    361.8   0.027829053   0.33146   0.13567   0.23283   0.50876
  15   28340.3    352.9   1.558081953  18.09927  -4.00442  -0.59606  -1.30714
  16   28900.0    346.0   0.001525519   0.01738   0.11951   0.01994   0.05194
  17   29253.4    341.8   0.020934605   0.23559  -0.16762  -0.43338  -0.14029
  18   29875.7    334.7   0.021911246   0.24145   0.47821   0.01035   0.11250
  19   30114.8    332.1   0.022199330   0.24268   0.23765  -0.39161   0.18124
  20   30144.5    331.7   0.026825468   0.29296   0.04446  -0.51623  -0.15650
  21   30752.9    325.2   0.019323561   0.20686   0.38054  -0.22660   0.10344
  22   31724.4    315.2   0.372038125   3.86073   0.44439  -1.28449  -1.41892
  23   31804.1    314.4   0.750776604   7.77147  -1.33221  -0.61200  -2.37111
  24   31906.6    313.4   0.042453248   0.43803   0.46505   0.04199   0.46904
  25   33053.7    302.5   0.195842556   1.95057  -0.61246  -0.56087  -1.12289
  26   33152.3    301.6   0.004565608   0.04534   0.20275   0.03073   0.05731
  27   33942.0    294.6   0.004624739   0.04486  -0.00271  -0.16694  -0.13031
  28   34442.4    290.3   0.289679889   2.76886  -0.39314  -1.23024  -1.04919
  29   34776.9    287.5   0.025061228   0.23724   0.16911  -0.45368   0.05304
  30   35001.3    285.7   0.001276041   0.01200  -0.06513  -0.05082  -0.07195
  31   35630.2    280.7   0.000368499   0.00340  -0.01173  -0.01776  -0.05433
  32   36046.7    277.4   0.019559121   0.17863   0.04800   0.41933  -0.02214
  33   36122.3    276.8   0.153903108   1.40264  -0.13910   1.06677   0.49528
  34   36337.1    275.2   0.025635890   0.23226  -0.06462   0.43381   0.19973
  35   36374.3    274.9   0.004683382   0.04239   0.02400  -0.13689  -0.15190
  36   36475.8    274.2   0.001608669   0.01452   0.00816   0.08288   0.08708
  37   37129.2    269.3   0.001808522   0.01604  -0.07392  -0.01814  -0.10121
  38   37447.3    267.0   0.008832258   0.07765   0.26630   0.04538  -0.06836
  39   37730.9    265.0   0.439918509   3.83841  -1.57921   0.57295  -1.00809
  40   37909.0    263.8   0.142245398   1.23530   0.20837  -0.69126   0.84501
  41   38096.7    262.5   0.000602670   0.00521  -0.05440   0.04739   0.00181
  42   38228.1    261.6   0.051875310   0.44674  -0.58302   0.20777  -0.25230
  43   38528.4    259.5   0.006387196   0.05458  -0.07381   0.19691  -0.10177
  44   38611.1    259.0   0.003190617   0.02720   0.12166  -0.08701   0.06952
  45   39054.9    256.0   0.003570946   0.03010   0.09136   0.14728   0.00798
  46   39194.1    255.1   0.103515810   0.86948   0.67751  -0.57261  -0.28736
  47   39272.6    254.6   0.064532439   0.54096  -0.32096   0.66075   0.03669
  48   39611.4    252.5   0.001079635   0.00897   0.03808  -0.08653   0.00595
  49   40135.1    249.2   0.010199898   0.08367  -0.16396   0.22099  -0.08914

FINAL SINGLE POINT ENERGY     -3691.368989644110

DIPOLE MOMENT
-------------
                                X             Y             Z
Electronic contribution:     -0.65632     -41.32395      57.58575
Nuclear contribution   :      1.79200      40.51154     -57.48155
                        -----------------------------------------
Total Dipole Moment    :      1.13569      -0.81241       0.10420
                        -----------------------------------------
Magnitude (a.u.)       :      1.40023
Magnitude (Debye)      :      3.55911

Rotational constants in cm-1:     0.001063     0.000432     0.000385
Rotational constants in MHz :    31.862262    12.958618    11.549240

                             ****ORCA TERMINATED NORMALLY****
TOTAL RUN TIME: 0 days 0 hours 9 minutes 19 seconds 788 msec
