                         Program Version 4.2.0 -  RELEASE  -
|  1> # ORCA input file
|  2> # SCF done       -206.320519617705          0.000616589058
|  3> ! CAM-B3LYP def2-SVP def2/J RIJCOSX Grid4 TightSCF
|  4> %maxcore 5000
|  5> %tddft
|  6>     Mode sTDDFT
|  7>     Ethresh 5.0
|  8>     maxcore 5000
|  9> end
| 10>
| 11> %pal
| 12>   nprocs 6
| 13>   end
| 14> * xyz 0 1
| 15>    C        9.90049        -6.06282        -6.72813
| 16>    C        9.20617        -7.23015        -6.88517
| 17>    F        9.87991        -8.38574        -7.03696
| 18>    C        7.80594        -7.27633        -6.89447
| 19>    C        7.10543        -6.11217        -6.73984
| 20>    C        7.77033        -4.88055        -6.57241
| 21>    C        9.19520        -4.85453        -6.56927
| 22>    C        9.88530        -3.62868        -6.41351
| 23>    C        9.17064        -2.47328        -6.25925
| 24>    C        7.74619        -2.50737        -6.24471
| 25>    C        7.05518        -3.67291        -6.40333
| 26>    C        7.23112        -1.14157        -6.02257
| 27>    O        6.07694        -0.77515        -5.99404
| 28>    C        8.43477        -0.30777        -5.77540
| 29>    C        9.59718        -1.08193        -6.11911
| 30>    C       10.81564        -0.58623        -6.51956
| 31>    C       11.06379         0.78958        -6.68726
| 32>    N       11.27993         1.90094        -6.88204
| 33>    C       11.90514        -1.39116        -6.89916
| 34>    N       12.83333        -2.00254        -7.18890
| 35>    C        8.27264         0.93338        -5.20993
| 36>    C        9.16409         1.70924        -4.46675
| 37>    S       10.65019         1.09827        -3.80217
| 38>    C       11.01176         2.57706        -2.96992
| 39>    C        9.98558         3.53079        -3.19277
| 40>    C        8.94665         3.03862        -4.02843
| 41>    C        7.86362         3.86500        -4.36245
| 42>    C        7.82770         5.13900        -3.86145
| 43>    F        6.80066         5.94346        -4.16395
| 44>    C        8.85579         5.62569        -3.02967
| 45>    F        8.77903         6.87987        -2.56638
| 46>    C        9.92633         4.83948        -2.69362
| 47>    C       12.16629         2.73772        -2.20586
| 48>    C       13.16289         1.78997        -2.13437
| 49>    C       14.34145         1.82923        -1.39330
| 50>    S       15.55273         0.63478        -1.77071
| 51>    C       16.69343         1.27693        -0.62569
| 52>    C       16.12421         2.38007         0.07032
| 53>    C       14.79795         2.68368        -0.34846
| 54>    C       14.10040         3.69628         0.31214
| 55>    C       14.71436         4.42271         1.31926
| 56>    C       13.95113         5.48822         1.98634
| 57>    O       12.82064         5.79617         1.70450
| 58>    C       16.03901         4.13960         1.69920
| 59>    C       16.73217         3.12529         1.09123
| 60>    C       17.96389         0.76034        -0.43293
| 61>    C       18.51768        -0.31376        -1.10837
| 62>    C       19.77971        -0.85261        -0.89818
| 63>    C       20.74497        -0.49756         0.03987
| 64>    C       22.00797        -1.10592         0.17583
| 65>    C       22.78407        -0.59684         1.18623
| 66>    C       22.16347         0.44050         1.89708
| 67>    S       20.57835         0.75238         1.24961
| 68>    C       22.62130         1.19530         2.97474
| 69>    C       23.84422         1.12627         3.66001
| 70>    C       23.94766         2.03094         4.68475
| 71>    C       22.81264         2.84872         4.84702
| 72>    S       21.60154         2.43692         3.65670
| 73>    C       22.61480         3.84742         5.78789
| 74>    C       21.44605         4.59362         5.84744
| 75>    C       21.18382         5.59439         6.76537
| 76>    C       19.98665         6.38426         6.85260
| 77>    C       18.87843         6.31598         6.03590
| 78>    C       17.73367         7.12331         6.18541
| 79>    N       16.76555         7.73981         6.24063
| 80>    C       18.69759         5.45650         4.93719
| 81>    N       18.43765         4.81019         4.02128
| 82>    C       20.14004         7.30256         7.98013
| 83>    C       21.40820         7.08461         8.57179
| 84>    C       22.11025         6.01249         7.83486
| 85>    O       23.22010         5.58001         8.07856
| 86>    C       21.85131         7.79400         9.65968
| 87>    C       21.00062         8.76902        10.19355
| 88>    C       19.73686         8.98121         9.59603
| 89>    C       19.28921         8.26219         8.49308
| 90>    S       18.84603        10.23045        10.41239
| 91>    C       20.16654        10.44660        11.53008
| 92>    C       21.22095         9.62729        11.30539
| 93>   Br       20.02921        11.73341        12.88837
| 94>    H       10.97931        -6.06459        -6.73054
| 95>    H        7.31224        -8.22650        -7.02283
| 96>    H        6.02585        -6.12217        -6.74300
| 97>    H       10.96393        -3.63681        -6.41056
| 98>    H        5.97551        -3.67597        -6.40074
| 99>    H        7.25645         1.31186        -5.26598
|100>    H        7.06765         3.52325        -5.00314
|101>    H       10.69679         5.24254        -2.05723
|102>    H       12.27607         3.68045        -1.69546
|103>    H       13.04747         0.91751        -2.76883
|104>    H       13.07141         3.92272         0.08773
|105>    H       14.50761         6.00646         2.78903
|106>    H       16.50700         4.70994         2.48734
|107>    H       17.73721         2.90081         1.41037
|108>    H       18.55303         1.26950         0.31220
|109>    H       17.91396        -0.77879        -1.87779
|110>    H       20.06624        -1.67513        -1.54182
|111>    H       22.31863        -1.90559        -0.47347
|112>    H       23.77179        -0.94730         1.42518
|113>    H       24.61283         0.42367         3.39190
|114>    H       24.80667         2.13023         5.32397
|115>    H       23.40468         4.04448         6.49793
|116>    H       20.68205         4.36504         5.11314
|117>    H       22.82324         7.60386        10.08735
|118>    H       18.31638         8.46242         8.07634
|119>    H       22.11752         9.62643        11.89805
|120> *
|121>
|122>                          ****END OF INPUT****

CARTESIAN COORDINATES (ANGSTROEM)
---------------------------------
  C      9.900490   -6.062820   -6.728130
  C      9.206170   -7.230150   -6.885170
  F      9.879910   -8.385740   -7.036960
  C      7.805940   -7.276330   -6.894470
  C      7.105430   -6.112170   -6.739840
  C      7.770330   -4.880550   -6.572410
  C      9.195200   -4.854530   -6.569270
  C      9.885300   -3.628680   -6.413510
  C      9.170640   -2.473280   -6.259250
  C      7.746190   -2.507370   -6.244710
  C      7.055180   -3.672910   -6.403330
  C      7.231120   -1.141570   -6.022570
  O      6.076940   -0.775150   -5.994040
  C      8.434770   -0.307770   -5.775400
  C      9.597180   -1.081930   -6.119110
  C     10.815640   -0.586230   -6.519560
  C     11.063790    0.789580   -6.687260
  N     11.279930    1.900940   -6.882040
  C     11.905140   -1.391160   -6.899160
  N     12.833330   -2.002540   -7.188900
  C      8.272640    0.933380   -5.209930
  C      9.164090    1.709240   -4.466750
  S     10.650190    1.098270   -3.802170
  C     11.011760    2.577060   -2.969920
  C      9.985580    3.530790   -3.192770
  C      8.946650    3.038620   -4.028430
  C      7.863620    3.865000   -4.362450
  C      7.827700    5.139000   -3.861450
  F      6.800660    5.943460   -4.163950
  C      8.855790    5.625690   -3.029670
  F      8.779030    6.879870   -2.566380
  C      9.926330    4.839480   -2.693620
  C     12.166290    2.737720   -2.205860
  C     13.162890    1.789970   -2.134370
  C     14.341450    1.829230   -1.393300
  S     15.552730    0.634780   -1.770710
  C     16.693430    1.276930   -0.625690
  C     16.124210    2.380070    0.070320
  C     14.797950    2.683680   -0.348460
  C     14.100400    3.696280    0.312140
  C     14.714360    4.422710    1.319260
  C     13.951130    5.488220    1.986340
  O     12.820640    5.796170    1.704500
  C     16.039010    4.139600    1.699200
  C     16.732170    3.125290    1.091230
  C     17.963890    0.760340   -0.432930
  C     18.517680   -0.313760   -1.108370
  C     19.779710   -0.852610   -0.898180
  C     20.744970   -0.497560    0.039870
  C     22.007970   -1.105920    0.175830
  C     22.784070   -0.596840    1.186230
  C     22.163470    0.440500    1.897080
  S     20.578350    0.752380    1.249610
  C     22.621300    1.195300    2.974740
  C     23.844220    1.126270    3.660010
  C     23.947660    2.030940    4.684750
  C     22.812640    2.848720    4.847020
  S     21.601540    2.436920    3.656700
  C     22.614800    3.847420    5.787890
  C     21.446050    4.593620    5.847440
  C     21.183820    5.594390    6.765370
  C     19.986650    6.384260    6.852600
  C     18.878430    6.315980    6.035900
  C     17.733670    7.123310    6.185410
  N     16.765550    7.739810    6.240630
  C     18.697590    5.456500    4.937190
  N     18.437650    4.810190    4.021280
  C     20.140040    7.302560    7.980130
  C     21.408200    7.084610    8.571790
  C     22.110250    6.012490    7.834860
  O     23.220100    5.580010    8.078560
  C     21.851310    7.794000    9.659680
  C     21.000620    8.769020   10.193550
  C     19.736860    8.981210    9.596030
  C     19.289210    8.262190    8.493080
  S     18.846030   10.230450   10.412390
  C     20.166540   10.446600   11.530080
  C     21.220950    9.627290   11.305390
  Br    20.029210   11.733410   12.888370
  H     10.979310   -6.064590   -6.730540
  H      7.312240   -8.226500   -7.022830
  H      6.025850   -6.122170   -6.743000
  H     10.963930   -3.636810   -6.410560
  H      5.975510   -3.675970   -6.400740
  H      7.256450    1.311860   -5.265980
  H      7.067650    3.523250   -5.003140
  H     10.696790    5.242540   -2.057230
  H     12.276070    3.680450   -1.695460
  H     13.047470    0.917510   -2.768830
  H     13.071410    3.922720    0.087730
  H     14.507610    6.006460    2.789030
  H     16.507000    4.709940    2.487340
  H     17.737210    2.900810    1.410370
  H     18.553030    1.269500    0.312200
  H     17.913960   -0.778790   -1.877790
  H     20.066240   -1.675130   -1.541820
  H     22.318630   -1.905590   -0.473470
  H     23.771790   -0.947300    1.425180
  H     24.612830    0.423670    3.391900
  H     24.806670    2.130230    5.323970
  H     23.404680    4.044480    6.497930
  H     20.682050    4.365040    5.113140
  H     22.823240    7.603860   10.087350
  H     18.316380    8.462420    8.076340
  H     22.117520    9.626430   11.898050

 Total Charge           Charge          ....    0
 Multiplicity           Mult            ....    1
 Number of Electrons    NEL             ....  598
 Basis Dimension        Dim             .... 1274

ORBITAL ENERGIES
----------------

  NO   OCC          E(Eh)            E(eV)
   0   2.0000    -482.879769    -13139.8265
   1   2.0000     -88.988123     -2421.4899
   2   2.0000     -88.983381     -2421.3609
   3   2.0000     -88.974736     -2421.1256
   4   2.0000     -88.967997     -2420.9423
   5   2.0000     -88.965132     -2420.8643
   6   2.0000     -62.557470     -1702.2753
   7   2.0000     -56.391409     -1534.4882
   8   2.0000     -56.388713     -1534.4149
   9   2.0000     -56.388677     -1534.4139
  10   2.0000     -24.796350      -674.7430
  11   2.0000     -24.793258      -674.6588
  12   2.0000     -24.782455      -674.3649
  13   2.0000     -19.214894      -522.8638
  14   2.0000     -19.205534      -522.6091
  15   2.0000     -19.204124      -522.5708
  16   2.0000     -14.414550      -392.2398
  17   2.0000     -14.409992      -392.1158
  18   2.0000     -14.407910      -392.0592
  19   2.0000     -14.403960      -391.9517
  20   2.0000     -10.381341      -282.4906
  21   2.0000     -10.377380      -282.3829
  22   2.0000     -10.365446      -282.0581
  23   2.0000     -10.357428      -281.8400
  24   2.0000     -10.356517      -281.8152
  25   2.0000     -10.354203      -281.7522
  26   2.0000     -10.351553      -281.6801
  27   2.0000     -10.340411      -281.3769
  28   2.0000     -10.338029      -281.3121
  29   2.0000     -10.337444      -281.2961
  30   2.0000     -10.334685      -281.2211
  31   2.0000     -10.333853      -281.1984
  32   2.0000     -10.330688      -281.1123
  33   2.0000     -10.330524      -281.1078
  34   2.0000     -10.329811      -281.0884
  35   2.0000     -10.328509      -281.0530
  36   2.0000     -10.328049      -281.0405
  37   2.0000     -10.326927      -281.0100
  38   2.0000     -10.322015      -280.8763
  39   2.0000     -10.320401      -280.8324
  40   2.0000     -10.316476      -280.7256
  41   2.0000     -10.316031      -280.7135
  42   2.0000     -10.315949      -280.7112
  43   2.0000     -10.313563      -280.6463
  44   2.0000     -10.312516      -280.6178
  45   2.0000     -10.311717      -280.5961
  46   2.0000     -10.310832      -280.5720
  47   2.0000     -10.310439      -280.5613
  48   2.0000     -10.310129      -280.5529
  49   2.0000     -10.309674      -280.5405
  50   2.0000     -10.309670      -280.5404
  51   2.0000     -10.309272      -280.5295
  52   2.0000     -10.308941      -280.5205
  53   2.0000     -10.308574      -280.5106
  54   2.0000     -10.308125      -280.4983
  55   2.0000     -10.305349      -280.4228
  56   2.0000     -10.302719      -280.3512
  57   2.0000     -10.302137      -280.3354
  58   2.0000     -10.301286      -280.3122
  59   2.0000     -10.300838      -280.3001
  60   2.0000     -10.300342      -280.2866
  61   2.0000     -10.299556      -280.2652
  62   2.0000     -10.298469      -280.2356
  63   2.0000     -10.298360      -280.2326
  64   2.0000     -10.297905      -280.2202
  65   2.0000     -10.297150      -280.1997
  66   2.0000     -10.296021      -280.1690
  67   2.0000     -10.295986      -280.1680
  68   2.0000     -10.294111      -280.1170
  69   2.0000     -10.293475      -280.0997
  70   2.0000     -10.292566      -280.0750
  71   2.0000     -10.291356      -280.0420
  72   2.0000     -10.290785      -280.0265
  73   2.0000     -10.290225      -280.0113
  74   2.0000     -10.289658      -279.9958
  75   2.0000     -10.289148      -279.9820
  76   2.0000     -10.288473      -279.9636
  77   2.0000     -10.288130      -279.9542
  78   2.0000     -10.285103      -279.8719
  79   2.0000     -10.283961      -279.8408
  80   2.0000     -10.281500      -279.7738
  81   2.0000     -10.280624      -279.7500
  82   2.0000     -10.279202      -279.7113
  83   2.0000      -8.786898      -239.1036
  84   2.0000      -8.083347      -219.9591
  85   2.0000      -8.077917      -219.8113
  86   2.0000      -8.070363      -219.6057
  87   2.0000      -8.064003      -219.4327
  88   2.0000      -8.061269      -219.3583
  89   2.0000      -6.623128      -180.2245
  90   2.0000      -6.608655      -179.8306
  91   2.0000      -6.608481      -179.8259
  92   2.0000      -6.052273      -164.6907
  93   2.0000      -6.048314      -164.5830
  94   2.0000      -6.046976      -164.5466
  95   2.0000      -6.046033      -164.5209
  96   2.0000      -6.042919      -164.4362
  97   2.0000      -6.040484      -164.3699
  98   2.0000      -6.039945      -164.3553
  99   2.0000      -6.035806      -164.2426
 100   2.0000      -6.033687      -164.1850
 101   2.0000      -6.031783      -164.1332
 102   2.0000      -6.030815      -164.1068
 103   2.0000      -6.029430      -164.0691
 104   2.0000      -6.026772      -163.9968
 105   2.0000      -6.025222      -163.9546
 106   2.0000      -6.022550      -163.8819
 107   2.0000      -2.739059       -74.5336
 108   2.0000      -2.734919       -74.4209
 109   2.0000      -2.734801       -74.4177
 110   2.0000      -2.723289       -74.1045
 111   2.0000      -2.723284       -74.1043
 112   2.0000      -1.318217       -35.8705
 113   2.0000      -1.302831       -35.4518
 114   2.0000      -1.297100       -35.2959
 115   2.0000      -1.127189       -30.6724
 116   2.0000      -1.120642       -30.4942
 117   2.0000      -1.117559       -30.4103
 118   2.0000      -1.022882       -27.8340
 119   2.0000      -1.019985       -27.7552
 120   2.0000      -1.018209       -27.7069
 121   2.0000      -1.014254       -27.5993
 122   2.0000      -1.011069       -27.5126
 123   2.0000      -1.007288       -27.4097
 124   2.0000      -0.995681       -27.0939
 125   2.0000      -0.994759       -27.0688
 126   2.0000      -0.988092       -26.8874
 127   2.0000      -0.987804       -26.8795
 128   2.0000      -0.979368       -26.6500
 129   2.0000      -0.971142       -26.4261
 130   2.0000      -0.959149       -26.0998
 131   2.0000      -0.953665       -25.9506
 132   2.0000      -0.941996       -25.6330
 133   2.0000      -0.934919       -25.4404
 134   2.0000      -0.928739       -25.2723
 135   2.0000      -0.919170       -25.0119
 136   2.0000      -0.911963       -24.8158
 137   2.0000      -0.902615       -24.5614
 138   2.0000      -0.899588       -24.4790
 139   2.0000      -0.890539       -24.2328
 140   2.0000      -0.882732       -24.0204
 141   2.0000      -0.880185       -23.9510
 142   2.0000      -0.877032       -23.8653
 143   2.0000      -0.870981       -23.7006
 144   2.0000      -0.868253       -23.6264
 145   2.0000      -0.862845       -23.4792
 146   2.0000      -0.862560       -23.4714
 147   2.0000      -0.853800       -23.2331
 148   2.0000      -0.847646       -23.0656
 149   2.0000      -0.842429       -22.9236
 150   2.0000      -0.840465       -22.8702
 151   2.0000      -0.830400       -22.5963
 152   2.0000      -0.825418       -22.4608
 153   2.0000      -0.820681       -22.3319
 154   2.0000      -0.811746       -22.0887
 155   2.0000      -0.798461       -21.7272
 156   2.0000      -0.781747       -21.2724
 157   2.0000      -0.766167       -20.8485
 158   2.0000      -0.757617       -20.6158
 159   2.0000      -0.751482       -20.4489
 160   2.0000      -0.750626       -20.4256
 161   2.0000      -0.748606       -20.3706
 162   2.0000      -0.743507       -20.2319
 163   2.0000      -0.732729       -19.9386
 164   2.0000      -0.721177       -19.6242
 165   2.0000      -0.712803       -19.3964
 166   2.0000      -0.706366       -19.2212
 167   2.0000      -0.704343       -19.1662
 168   2.0000      -0.696463       -18.9517
 169   2.0000      -0.691316       -18.8117
 170   2.0000      -0.687299       -18.7024
 171   2.0000      -0.681213       -18.5367
 172   2.0000      -0.678595       -18.4655
 173   2.0000      -0.674462       -18.3530
 174   2.0000      -0.670014       -18.2320
 175   2.0000      -0.667883       -18.1740
 176   2.0000      -0.658977       -17.9317
 177   2.0000      -0.655371       -17.8336
 178   2.0000      -0.649984       -17.6870
 179   2.0000      -0.646529       -17.5930
 180   2.0000      -0.641782       -17.4638
 181   2.0000      -0.635544       -17.2940
 182   2.0000      -0.630319       -17.1518
 183   2.0000      -0.628645       -17.1063
 184   2.0000      -0.625097       -17.0098
 185   2.0000      -0.623951       -16.9786
 186   2.0000      -0.620950       -16.8969
 187   2.0000      -0.616892       -16.7865
 188   2.0000      -0.614201       -16.7133
 189   2.0000      -0.606866       -16.5137
 190   2.0000      -0.601764       -16.3748
 191   2.0000      -0.596320       -16.2267
 192   2.0000      -0.590979       -16.0813
 193   2.0000      -0.589947       -16.0533
 194   2.0000      -0.585413       -15.9299
 195   2.0000      -0.582801       -15.8588
 196   2.0000      -0.579642       -15.7729
 197   2.0000      -0.572875       -15.5887
 198   2.0000      -0.568409       -15.4672
 199   2.0000      -0.560390       -15.2490
 200   2.0000      -0.559398       -15.2220
 201   2.0000      -0.556112       -15.1326
 202   2.0000      -0.554765       -15.0959
 203   2.0000      -0.552562       -15.0360
 204   2.0000      -0.549231       -14.9453
 205   2.0000      -0.547054       -14.8861
 206   2.0000      -0.545652       -14.8479
 207   2.0000      -0.543758       -14.7964
 208   2.0000      -0.542682       -14.7671
 209   2.0000      -0.537660       -14.6305
 210   2.0000      -0.533437       -14.5156
 211   2.0000      -0.529815       -14.4170
 212   2.0000      -0.529606       -14.4113
 213   2.0000      -0.528513       -14.3816
 214   2.0000      -0.527011       -14.3407
 215   2.0000      -0.525878       -14.3099
 216   2.0000      -0.523473       -14.2444
 217   2.0000      -0.521773       -14.1982
 218   2.0000      -0.519352       -14.1323
 219   2.0000      -0.519135       -14.1264
 220   2.0000      -0.518992       -14.1225
 221   2.0000      -0.517742       -14.0885
 222   2.0000      -0.514798       -14.0084
 223   2.0000      -0.511217       -13.9109
 224   2.0000      -0.508141       -13.8272
 225   2.0000      -0.505758       -13.7624
 226   2.0000      -0.503077       -13.6894
 227   2.0000      -0.501486       -13.6461
 228   2.0000      -0.500965       -13.6319
 229   2.0000      -0.499024       -13.5791
 230   2.0000      -0.492102       -13.3908
 231   2.0000      -0.490139       -13.3374
 232   2.0000      -0.489042       -13.3075
 233   2.0000      -0.487992       -13.2789
 234   2.0000      -0.487105       -13.2548
 235   2.0000      -0.486222       -13.2308
 236   2.0000      -0.485060       -13.1992
 237   2.0000      -0.483946       -13.1688
 238   2.0000      -0.483598       -13.1594
 239   2.0000      -0.482422       -13.1274
 240   2.0000      -0.476764       -12.9734
 241   2.0000      -0.473071       -12.8729
 242   2.0000      -0.471161       -12.8210
 243   2.0000      -0.464423       -12.6376
 244   2.0000      -0.462936       -12.5971
 245   2.0000      -0.458757       -12.4834
 246   2.0000      -0.453894       -12.3511
 247   2.0000      -0.452856       -12.3228
 248   2.0000      -0.451668       -12.2905
 249   2.0000      -0.451526       -12.2866
 250   2.0000      -0.450319       -12.2538
 251   2.0000      -0.448953       -12.2166
 252   2.0000      -0.445472       -12.1219
 253   2.0000      -0.444773       -12.1029
 254   2.0000      -0.440875       -11.9968
 255   2.0000      -0.439081       -11.9480
 256   2.0000      -0.438733       -11.9385
 257   2.0000      -0.438048       -11.9199
 258   2.0000      -0.436252       -11.8710
 259   2.0000      -0.435651       -11.8547
 260   2.0000      -0.432593       -11.7714
 261   2.0000      -0.431899       -11.7526
 262   2.0000      -0.431293       -11.7361
 263   2.0000      -0.427725       -11.6390
 264   2.0000      -0.424540       -11.5523
 265   2.0000      -0.421797       -11.4777
 266   2.0000      -0.421675       -11.4744
 267   2.0000      -0.419978       -11.4282
 268   2.0000      -0.418487       -11.3876
 269   2.0000      -0.413849       -11.2614
 270   2.0000      -0.412911       -11.2359
 271   2.0000      -0.411919       -11.2089
 272   2.0000      -0.403111       -10.9692
 273   2.0000      -0.401144       -10.9157
 274   2.0000      -0.400796       -10.9062
 275   2.0000      -0.387409       -10.5419
 276   2.0000      -0.380781       -10.3616
 277   2.0000      -0.377859       -10.2821
 278   2.0000      -0.373166       -10.1543
 279   2.0000      -0.369198       -10.0464
 280   2.0000      -0.362958        -9.8766
 281   2.0000      -0.356435        -9.6991
 282   2.0000      -0.350640        -9.5414
 283   2.0000      -0.344046        -9.3620
 284   2.0000      -0.340746        -9.2722
 285   2.0000      -0.338129        -9.2010
 286   2.0000      -0.336565        -9.1584
 287   2.0000      -0.334347        -9.0981
 288   2.0000      -0.327901        -8.9226
 289   2.0000      -0.324525        -8.8308
 290   2.0000      -0.323758        -8.8099
 291   2.0000      -0.310759        -8.4562
 292   2.0000      -0.307711        -8.3732
 293   2.0000      -0.307108        -8.3568
 294   2.0000      -0.294573        -8.0157
 295   2.0000      -0.286948        -7.8083
 296   2.0000      -0.280082        -7.6214
 297   2.0000      -0.250647        -6.8205
 298   2.0000      -0.216947        -5.9034
 299   0.0000      -0.138048        -3.7565
 300   0.0000      -0.101951        -2.7742
 301   0.0000      -0.075036        -2.0418
 302   0.0000      -0.061381        -1.6703
 303   0.0000      -0.051151        -1.3919

MULLIKEN ATOMIC CHARGES
-----------------------
   0 C :   -0.101213
   1 C :    0.301912
   2 F :   -0.192813
   3 C :   -0.031206
   4 C :   -0.012815
   5 C :    0.100987
   6 C :    0.104010
   7 C :   -0.090644
   8 C :    0.041745
   9 C :    0.011825
  10 C :   -0.084877
  11 C :    0.140757
  12 O :   -0.153985
  13 C :   -0.148093
  14 C :    0.260772
  15 C :   -0.336575
  16 C :   -0.223281
  17 N :    0.169698
  18 C :   -0.174362
  19 N :    0.141890
  20 C :    0.006847
  21 C :   -0.103087
  22 S :    0.167636
  23 C :   -0.056098
  24 C :    0.117772
  25 C :    0.167336
  26 C :   -0.113839
  27 C :    0.237411
  28 F :   -0.168316
  29 C :    0.226666
  30 F :   -0.169443
  31 C :   -0.111635
  32 C :   -0.020790
  33 C :    0.043509
  34 C :   -0.106170
  35 S :    0.174661
  36 C :   -0.071101
  37 C :    0.106488
  38 C :    0.152186
  39 C :   -0.073343
  40 C :   -0.002238
  41 C :    0.165728
  42 O :   -0.179752
  43 C :    0.022128
  44 C :   -0.036113
  45 C :   -0.005937
  46 C :    0.000755
  47 C :    0.026370
  48 C :   -0.036447
  49 C :    0.047354
  50 C :    0.017757
  51 C :   -0.003182
  52 S :    0.056509
  53 C :   -0.040323
  54 C :    0.041778
  55 C :    0.023017
  56 C :    0.005845
  57 S :    0.093859
  58 C :   -0.016056
  59 C :   -0.048168
  60 C :   -0.090290
  61 C :    0.337679
  62 C :   -0.370902
  63 C :   -0.199504
  64 N :    0.137885
  65 C :   -0.166068
  66 N :    0.110397
  67 C :    0.010668
  68 C :   -0.010573
  69 C :    0.136342
  70 O :   -0.163902
  71 C :   -0.074610
  72 C :    0.116063
  73 C :   -0.092128
  74 C :   -0.023636
  75 S :    0.181275
  76 C :   -0.124469
  77 C :    0.037007
  78 Br:    0.017282
  79 H :   -0.004223
  80 H :    0.001474
  81 H :   -0.008547
  82 H :   -0.007231
  83 H :   -0.012260
  84 H :    0.018415
  85 H :    0.003744
  86 H :    0.004078
  87 H :    0.001998
  88 H :    0.003413
  89 H :   -0.018693
  90 H :    0.001435
  91 H :   -0.005545
  92 H :   -0.007278
  93 H :    0.014475
  94 H :   -0.003441
  95 H :   -0.001113
  96 H :   -0.001959
  97 H :   -0.006852
  98 H :   -0.004492
  99 H :    0.001216
 100 H :    0.017577
 101 H :    0.012490
 102 H :   -0.015314
 103 H :   -0.010012
 104 H :   -0.005178
Sum of atomic charges:   -0.0000000

LOEWDIN ATOMIC CHARGES
----------------------
   0 C :   -0.044160
   1 C :    0.091718
   2 F :   -0.067207
   3 C :   -0.039457
   4 C :    0.003793
   5 C :   -0.019783
   6 C :    0.002770
   7 C :    0.005643
   8 C :   -0.014604
   9 C :   -0.057163
  10 C :    0.031111
  11 C :    0.080021
  12 O :   -0.154580
  13 C :   -0.109826
  14 C :    0.058971
  15 C :   -0.158710
  16 C :   -0.040389
  17 N :   -0.056580
  18 C :   -0.020704
  19 N :   -0.063950
  20 C :    0.038927
  21 C :   -0.183832
  22 S :    0.513263
  23 C :   -0.128315
  24 C :   -0.044353
  25 C :   -0.011879
  26 C :   -0.036723
  27 C :    0.076402
  28 F :   -0.046027
  29 C :    0.063178
  30 F :   -0.048475
  31 C :   -0.028006
  32 C :   -0.039439
  33 C :   -0.029979
  34 C :   -0.147934
  35 S :    0.487524
  36 C :   -0.163518
  37 C :   -0.021337
  38 C :   -0.041584
  39 C :    0.028282
  40 C :   -0.079951
  41 C :    0.115810
  42 O :   -0.132847
  43 C :    0.013483
  44 C :   -0.004061
  45 C :   -0.024927
  46 C :   -0.045586
  47 C :   -0.022287
  48 C :   -0.160544
  49 C :   -0.010331
  50 C :   -0.049031
  51 C :   -0.149595
  52 S :    0.421244
  53 C :   -0.191235
  54 C :   -0.010298
  55 C :   -0.042848
  56 C :   -0.106949
  57 S :    0.411160
  58 C :   -0.068578
  59 C :    0.041732
  60 C :   -0.109607
  61 C :    0.075795
  62 C :   -0.166659
  63 C :   -0.021444
  64 N :   -0.072021
  65 C :   -0.004385
  66 N :   -0.087223
  67 C :   -0.019005
  68 C :   -0.048171
  69 C :    0.081820
  70 O :   -0.157363
  71 C :    0.017714
  72 C :   -0.035341
  73 C :   -0.146310
  74 C :   -0.013253
  75 S :    0.428846
  76 C :   -0.274282
  77 C :   -0.071072
  78 Br:    0.131631
  79 H :    0.041987
  80 H :    0.041000
  81 H :    0.035450
  82 H :    0.037827
  83 H :    0.039139
  84 H :    0.047958
  85 H :    0.045644
  86 H :    0.045425
  87 H :    0.037133
  88 H :    0.027020
  89 H :    0.029607
  90 H :    0.004043
  91 H :    0.034912
  92 H :    0.035806
  93 H :    0.016145
  94 H :    0.028580
  95 H :    0.042123
  96 H :    0.037973
  97 H :    0.034946
  98 H :    0.036161
  99 H :    0.039051
 100 H :    0.039403
 101 H :    0.028784
 102 H :    0.039000
 103 H :    0.039921
 104 H :    0.037845

  Mayer bond orders larger than 0.100000
B(  0-C ,  1-C ) :   1.4390 B(  0-C ,  6-C ) :   1.2054 B(  0-C , 79-H ) :   1.0062
B(  1-C ,  2-F ) :   1.0867 B(  1-C ,  3-C ) :   1.2576 B(  3-C ,  4-C ) :   1.4570
B(  3-C , 80-H ) :   0.9935 B(  4-C ,  5-C ) :   1.2372 B(  4-C , 81-H ) :   0.9971
B(  5-C ,  6-C ) :   1.2579 B(  5-C , 10-C ) :   1.1857 B(  6-C ,  7-C ) :   1.1970
B(  7-C ,  8-C ) :   1.4710 B(  7-C , 82-H ) :   0.9944 B(  8-C ,  9-C ) :   1.2170
B(  8-C , 14-C ) :   0.9964 B(  9-C , 10-C ) :   1.4806 B(  9-C , 11-C ) :   0.9203
B( 10-C , 83-H ) :   1.0151 B( 11-C , 12-O ) :   2.2457 B( 11-C , 13-C ) :   0.9601
B( 13-C , 14-C ) :   1.0775 B( 13-C , 20-C ) :   1.5321 B( 14-C , 15-C ) :   1.6069
B( 15-C , 16-C ) :   1.1603 B( 15-C , 18-C ) :   1.1428 B( 16-C , 17-N ) :   3.0234
B( 18-C , 19-N ) :   2.9800 B( 20-C , 21-C ) :   1.2713 B( 20-C , 84-H ) :   0.9333
B( 21-C , 22-S ) :   1.1036 B( 21-C , 25-C ) :   1.2480 B( 22-S , 23-C ) :   1.1677
B( 23-C , 24-C ) :   1.2380 B( 23-C , 32-C ) :   1.2945 B( 24-C , 25-C ) :   1.2477
B( 24-C , 31-C ) :   1.1917 B( 25-C , 26-C ) :   1.2025 B( 26-C , 27-C ) :   1.4647
B( 26-C , 31-C ) :   0.1110 B( 26-C , 85-H ) :   0.9979 B( 27-C , 28-F ) :   1.1382
B( 27-C , 29-C ) :   1.1809 B( 29-C , 30-F ) :   1.1391 B( 29-C , 31-C ) :   1.4757
B( 31-C , 86-H ) :   0.9980 B( 32-C , 33-C ) :   1.4972 B( 32-C , 87-H ) :   0.9617
B( 33-C , 34-C ) :   1.2798 B( 33-C , 88-H ) :   0.9421 B( 34-C , 35-S ) :   1.1538
B( 34-C , 38-C ) :   1.2181 B( 35-S , 36-C ) :   1.1124 B( 36-C , 37-C ) :   1.2157
B( 36-C , 45-C ) :   1.3595 B( 37-C , 38-C ) :   1.2382 B( 37-C , 44-C ) :   1.2399
B( 38-C , 39-C ) :   1.2280 B( 39-C , 40-C ) :   1.4538 B( 39-C , 89-H ) :   0.9880
B( 40-C , 41-C ) :   0.9588 B( 40-C , 43-C ) :   1.2037 B( 41-C , 42-O ) :   2.1648
B( 41-C , 90-H ) :   0.9619 B( 43-C , 44-C ) :   1.5140 B( 43-C , 91-H ) :   0.9822
B( 44-C , 92-H ) :   0.9946 B( 45-C , 46-C ) :   1.4415 B( 45-C , 93-H ) :   0.9410
B( 46-C , 47-C ) :   1.3229 B( 46-C , 94-H ) :   0.9700 B( 47-C , 48-C ) :   1.4446
B( 47-C , 95-H ) :   0.9648 B( 48-C , 49-C ) :   1.2185 B( 48-C , 52-S ) :   1.0481
B( 49-C , 50-C ) :   1.5092 B( 49-C , 96-H ) :   1.0000 B( 50-C , 51-C ) :   1.2519
B( 50-C , 97-H ) :   0.9944 B( 51-C , 52-S ) :   1.0882 B( 51-C , 53-C ) :   1.3913
B( 53-C , 54-C ) :   1.2603 B( 53-C , 57-S ) :   1.0566 B( 54-C , 55-C ) :   1.4946
B( 54-C , 98-H ) :   0.9962 B( 55-C , 56-C ) :   1.2150 B( 55-C , 99-H ) :   1.0014
B( 56-C , 57-S ) :   1.0902 B( 56-C , 58-C ) :   1.3737 B( 58-C , 59-C ) :   1.2971
B( 58-C ,100-H ) :   0.9795 B( 59-C , 60-C ) :   1.4467 B( 59-C ,101-H ) :   0.9412
B( 60-C , 61-C ) :   1.1350 B( 60-C , 69-C ) :   0.9675 B( 61-C , 62-C ) :   1.5502
B( 61-C , 67-C ) :   0.9882 B( 62-C , 63-C ) :   1.1498 B( 62-C , 65-C ) :   1.1669
B( 63-C , 64-N ) :   2.9636 B( 65-C , 66-N ) :   2.8925 B( 67-C , 68-C ) :   1.2739
B( 67-C , 74-C ) :   1.4237 B( 68-C , 69-C ) :   0.9347 B( 68-C , 71-C ) :   1.4347
B( 69-C , 70-O ) :   2.1881 B( 71-C , 72-C ) :   1.2377 B( 71-C ,102-H ) :   1.0158
B( 72-C , 73-C ) :   1.3160 B( 72-C , 77-C ) :   1.1617 B( 73-C , 74-C ) :   1.3185
B( 73-C , 75-S ) :   1.0842 B( 74-C ,103-H ) :   0.9789 B( 75-S , 76-C ) :   1.0865
B( 76-C , 77-C ) :   1.6200 B( 76-C , 78-Br) :   1.0155 B( 77-C ,104-H ) :   0.9996

-----------------------------------------------------------------------------
         ABSORPTION SPECTRUM VIA TRANSITION ELECTRIC DIPOLE MOMENTS
-----------------------------------------------------------------------------
State   Energy  Wavelength   fosc         T2         TX        TY        TZ
        (cm-1)    (nm)                  (au**2)     (au)      (au)      (au)
-----------------------------------------------------------------------------
   0    5159.0   1938.4   0.789550394  50.38406  -4.85522  -1.98742  -4.78133
   1   11789.0    848.2   0.000717432   0.02003  -0.12138   0.01327   0.07158
   2   12486.2    800.9   0.180042122   4.74701  -2.05056   0.73357   0.06406
   3   17106.7    584.6   0.014237014   0.27399   0.27386  -0.42459  -0.13678
   4   19027.6    525.6   1.346356279  23.29441   2.82347  -3.54813  -1.65323
   5   20386.3    490.5   0.014041078   0.22674  -0.43944  -0.03876  -0.17926
   6   21091.1    474.1   0.160476306   2.50488  -1.06360   1.09672   0.41332
   7   21963.2    455.3   0.006024575   0.09030   0.00778  -0.21619   0.20858
   8   22113.5    452.2   0.085174152   1.26802  -0.62610  -0.37367  -0.85813
   9   23107.9    432.8   0.067089069   0.95580  -0.21215   0.73703   0.60628
  10   23686.9    422.2   0.077760456   1.08075   0.54512   0.62398   0.62789
  11   24503.7    408.1   0.122239930   1.64232   0.72990   0.96949   0.41191
  12   25270.9    395.7   0.052129779   0.67911  -0.31283   0.56473   0.51218
  13   25344.0    394.6   0.300019555   3.89718  -1.42979   1.17032   0.69515
  14   25708.1    389.0   0.000433464   0.00555  -0.04629   0.04418   0.03817
  15   26214.2    381.5   0.016266861   0.20429   0.07988  -0.28230  -0.34382
  16   26682.0    374.8   0.051281282   0.63273   0.17993  -0.77415  -0.03239
  17   26749.3    373.8   0.007326139   0.09017  -0.29531  -0.03114  -0.04457
  18   26911.2    371.6   0.040578289   0.49641   0.23203  -0.66037  -0.08049
  19   27166.8    368.1   0.183450923   2.22309  -0.31852   1.43730   0.23621
  20   27867.9    358.8   0.122266378   1.44437  -0.35183   0.90417   0.70926
  21   27877.3    358.7   0.000171343   0.00202   0.00090  -0.00498   0.04470
  22   28459.6    351.4   0.019354465   0.22389  -0.18458   0.37502   0.22176
  23   29048.2    344.3   0.105313674   1.19355   0.77928   0.21037   0.73622
  24   29275.0    341.6   0.146216568   1.64428   0.36668   0.71739   0.99759
  25   29860.4    334.9   0.303220084   3.34301   0.53631   1.11133   1.34920
  26   30429.2    328.6   0.055834750   0.60407  -0.14364   0.59474   0.47930
  27   30546.8    327.4   0.057393593   0.61855  -0.18051  -0.76511  -0.02380
  28   30679.4    326.0   0.180184809   1.93351  -0.20637   1.35658   0.22500
  29   30966.4    322.9   0.042383474   0.45059  -0.34443   0.02154   0.57576
  30   31209.5    320.4   0.116776839   1.23182   0.20736  -1.04109  -0.32397
  31   31756.5    314.9   0.000196994   0.00204   0.00231   0.00367   0.04498
  32   31910.1    313.4   0.122267381   1.26142  -0.12932   0.71112   0.85966
  33   32122.8    311.3   0.080623953   0.82628  -0.83470   0.11614  -0.34068
  34   32425.8    308.4   0.011037112   0.11206  -0.15493   0.10904   0.27598
  35   32660.3    306.2   0.027436768   0.27656   0.48094  -0.16963   0.12840
  36   33040.2    302.7   0.035401187   0.35274   0.20295  -0.35760  -0.42857
  37   33560.4    298.0   0.021473126   0.21064   0.15856   0.42764   0.05119
  38   33570.0    297.9   0.138324497   1.35651  -0.61346  -0.98146   0.13005
  39   33706.8    296.7   0.160073317   1.56342   0.40901   1.04078   0.55937
  40   33792.5    295.9   0.001134022   0.01105   0.01288  -0.10093  -0.02637
  41   34282.8    291.7   0.077351325   0.74279  -0.15577   0.84691   0.03567
  42   34412.1    290.6   0.137009898   1.31074   0.72790   0.12722   0.87448
  43   34667.5    288.5   0.119476579   1.13458  -0.39688  -0.50233  -0.85131
  44   34795.8    287.4   0.032673491   0.30913   0.39545  -0.16581   0.35392
  45   34820.0    287.2   0.040163429   0.37973  -0.40677  -0.02275  -0.46233
  46   34964.4    286.0   0.266370762   2.50805   0.10913   1.41564   0.70151
  47   35202.1    284.1   0.129758152   1.21351  -0.59040  -0.90568   0.21136
  48   35935.3    278.3   0.000020618   0.00019   0.00261   0.00658  -0.01178
  49   36002.6    277.8   0.064774869   0.59231  -0.33669   0.67078   0.17031
  50   36314.2    275.4   0.024323311   0.22051  -0.24187   0.39638   0.06995
  51   36602.8    273.2   0.129884532   1.16820   0.56321   0.92023   0.06454
  52   36670.9    272.7   0.032652949   0.29314   0.02940  -0.51890   0.15173
  53   36875.7    271.2   0.019171099   0.17115  -0.32593  -0.25450   0.01230
  54   37207.6    268.8   0.014161677   0.12530  -0.34072   0.01269  -0.09515
  55   37709.8    265.2   0.023598275   0.20602  -0.22300  -0.32104   0.23070
  56   37930.3    263.6   0.066850281   0.58022  -0.72806   0.14529  -0.17039
  57   38335.1    260.9   0.076974826   0.66104  -0.33403  -0.49937  -0.54781
  58   38509.1    259.7   0.114873197   0.98204   0.89497   0.42541   0.01007
  59   38684.0    258.5   0.113584775   0.96664   0.73688   0.26731   0.59345
  60   38713.2    258.3   0.024397569   0.20747   0.44667   0.02185   0.08650
  61   38810.8    257.7   0.109115180   0.92557   0.04549   0.93873  -0.20564
  62   38965.5    256.6   0.039892753   0.33705  -0.43727   0.11978  -0.36263
  63   39052.7    256.1   0.020021218   0.16878  -0.36332   0.01551  -0.19114
  64   39308.6    254.4   0.058810127   0.49254  -0.67269  -0.17962  -0.08811
  65   39829.1    251.1   0.104381549   0.86278   0.51607   0.77079  -0.04822
  66   40100.5    249.4   0.024987424   0.20514   0.36208   0.26688   0.05298
  67   40225.6    248.6   0.111454028   0.91216  -0.87963   0.19817  -0.31486

FINAL SINGLE POINT ENERGY     -7720.807987891718

DIPOLE MOMENT
-------------
                                X             Y             Z
Electronic contribution:     15.63314     111.24023     115.65868
Nuclear contribution   :    -12.64593    -114.27908    -114.70812
                        -----------------------------------------
Total Dipole Moment    :      2.98721      -3.03885       0.95056
                        -----------------------------------------
Magnitude (a.u.)       :      4.36596
Magnitude (Debye)      :     11.09738

Rotational constants in cm-1:     0.000943     0.000181     0.000157
Rotational constants in MHz :    28.256266     5.440048     4.720734

                             ****ORCA TERMINATED NORMALLY****
TOTAL RUN TIME: 0 days 0 hours 13 minutes 17 seconds 458 msec
