                         Program Version 4.2.0 -  RELEASE  -
|  1> # ORCA input file
|  2> # SCF done       -165.805268056745          0.000585070523
|  3> ! CAM-B3LYP def2-SVP def2/J RIJCOSX Grid4 TightSCF
|  4> %maxcore 5000
|  5> %tddft
|  6>     Mode sTDDFT
|  7>     Ethresh 5.0
|  8>     maxcore 5000
|  9> end
| 10>
| 11> %pal
| 12>   nprocs 6
| 13>   end
| 14> * xyz 0 1
| 15>    C        0.24465         3.05685        -3.59361
| 16>    C       -0.85404         3.75449        -3.17548
| 17>    F       -2.01210         3.63614        -3.85367
| 18>    C       -0.82801         4.59846        -2.05755
| 19>    C        0.33881         4.73050        -1.35658
| 20>    C        1.50213         4.03487        -1.74341
| 21>    C        1.45544         3.18317        -2.88513
| 22>    C        2.61287         2.48378        -3.30047
| 23>    C        3.77569         2.63050        -2.59402
| 24>    C        3.81150         3.46949        -1.44293
| 25>    C        2.71249         4.16123        -1.02392
| 26>    C        5.16283         3.42013        -0.84967
| 27>    O        5.57815         4.04038         0.10370
| 28>    C        5.90160         2.40018        -1.64282
| 29>    C        5.10966         2.07716        -2.80503
| 30>    C        5.56625         1.54875        -3.98637
| 31>    C        6.92084         1.28552        -4.26404
| 32>    N        8.01094         1.08219        -4.56483
| 33>    C        4.74502         1.26842        -5.09499
| 34>    N        4.12389         0.98701        -6.01934
| 35>    C        7.06762         1.89555        -1.15292
| 36>    C        7.76538         0.70837        -1.51621
| 37>    C        9.13239         0.57657        -1.25093
| 38>    N        9.90563        -0.43091        -1.60998
| 39>    C        9.40782        -1.48500        -2.24499
| 40>    C        8.00406        -1.54564        -2.47481
| 41>    C        7.17233        -0.43158        -2.11921
| 42>    N        5.89004        -0.65879        -2.39496
| 43>    S        5.75253        -2.12739        -3.05190
| 44>    N        7.30699        -2.54368        -3.01183
| 45>    C       10.22552        -2.55870        -2.73196
| 46>    C       11.56761        -2.67219        -2.71035
| 47>    C       12.51366        -1.67151        -2.14972
| 48>    C       12.21062        -3.82853        -3.43551
| 49>    N       12.57507        -3.36181        -4.75907
| 50>    C       13.77682        -2.81739        -5.02753
| 51>    C       14.00831        -1.97415        -6.07653
| 52>    C       15.24698        -1.44747        -6.47689
| 53>    C       16.51492        -1.69111        -6.00083
| 54>    C       17.68980        -1.07835        -6.49825
| 55>    C       18.84620        -1.49292        -5.90756
| 56>    C       18.65872        -2.46462        -4.90333
| 57>    S       16.95595        -2.82033        -4.72487
| 58>    C       19.62381        -3.09768        -4.14052
| 59>    C       21.02005        -2.90410        -4.17912
| 60>    C       21.70928        -3.69923        -3.31371
| 61>    C       20.90123        -4.57021        -2.54286
| 62>    S       19.21372        -4.32146        -2.95362
| 63>    C       21.38683        -5.48369        -1.63759
| 64>    C       20.66883        -6.37898        -0.83810
| 65>    S       18.92096        -6.32485        -0.82253
| 66>    C       18.80601        -7.60047         0.29019
| 67>    C       20.04586        -8.08407         0.65200
| 68>    C       21.14048        -7.39583         0.02497
| 69>    C       22.45704        -7.86412         0.30090
| 70>    C       23.71196        -7.26729        -0.19574
| 71>    O       23.94006        -6.09737        -0.39688
| 72>    O       24.67533        -8.19036        -0.37433
| 73>    C       22.61466        -8.94994         1.14387
| 74>    C       21.54405        -9.59425         1.76837
| 75>    C       20.26022        -9.17281         1.53932
| 76>    O       19.17208        -9.74372         2.10330
| 77>    H        0.18889         2.41834        -4.46146
| 78>    H       -1.72623         5.12428        -1.77492
| 79>    H        0.38369         5.37486        -0.49133
| 80>    H        2.54830         1.84137        -4.16431
| 81>    H        2.76361         4.79876        -0.15385
| 82>    H        7.49789         2.45877        -0.32974
| 83>    H        9.65023         1.38549        -0.75069
| 84>    H        9.64364        -3.35074        -3.18766
| 85>    H       13.25282        -1.39416        -2.90393
| 86>    H       11.97845        -0.78977        -1.81426
| 87>    H       13.05399        -2.10643        -1.30857
| 88>    H       11.51893        -4.66846        -3.53924
| 89>    H       13.11620        -4.16565        -2.92781
| 90>    H       11.79616        -3.02698        -5.31313
| 91>    H       14.57715        -3.13451        -4.37593
| 92>    H       13.15261        -1.66675        -6.66451
| 93>    H       15.20796        -0.73959        -7.29589
| 94>    H       17.64363        -0.34743        -7.28667
| 95>    H       19.82348        -1.13288        -6.17379
| 96>    H       21.47802        -2.19066        -4.84045
| 97>    H       22.77884        -3.69419        -3.20000
| 98>    H       22.45935        -5.48770        -1.52392
| 99>    H       17.85443        -7.95666         0.62763
|100>    H       25.49372        -7.75156        -0.65542
|101>    H       23.61192        -9.30630         1.34682
|102>    H       21.73623       -10.42540         2.43251
|103>    H       19.44237       -10.47308         2.67590
|104> *
|105>
|106>                          ****END OF INPUT****

CARTESIAN COORDINATES (ANGSTROEM)
---------------------------------
  C      0.244650    3.056850   -3.593610
  C     -0.854040    3.754490   -3.175480
  F     -2.012100    3.636140   -3.853670
  C     -0.828010    4.598460   -2.057550
  C      0.338810    4.730500   -1.356580
  C      1.502130    4.034870   -1.743410
  C      1.455440    3.183170   -2.885130
  C      2.612870    2.483780   -3.300470
  C      3.775690    2.630500   -2.594020
  C      3.811500    3.469490   -1.442930
  C      2.712490    4.161230   -1.023920
  C      5.162830    3.420130   -0.849670
  O      5.578150    4.040380    0.103700
  C      5.901600    2.400180   -1.642820
  C      5.109660    2.077160   -2.805030
  C      5.566250    1.548750   -3.986370
  C      6.920840    1.285520   -4.264040
  N      8.010940    1.082190   -4.564830
  C      4.745020    1.268420   -5.094990
  N      4.123890    0.987010   -6.019340
  C      7.067620    1.895550   -1.152920
  C      7.765380    0.708370   -1.516210
  C      9.132390    0.576570   -1.250930
  N      9.905630   -0.430910   -1.609980
  C      9.407820   -1.485000   -2.244990
  C      8.004060   -1.545640   -2.474810
  C      7.172330   -0.431580   -2.119210
  N      5.890040   -0.658790   -2.394960
  S      5.752530   -2.127390   -3.051900
  N      7.306990   -2.543680   -3.011830
  C     10.225520   -2.558700   -2.731960
  C     11.567610   -2.672190   -2.710350
  C     12.513660   -1.671510   -2.149720
  C     12.210620   -3.828530   -3.435510
  N     12.575070   -3.361810   -4.759070
  C     13.776820   -2.817390   -5.027530
  C     14.008310   -1.974150   -6.076530
  C     15.246980   -1.447470   -6.476890
  C     16.514920   -1.691110   -6.000830
  C     17.689800   -1.078350   -6.498250
  C     18.846200   -1.492920   -5.907560
  C     18.658720   -2.464620   -4.903330
  S     16.955950   -2.820330   -4.724870
  C     19.623810   -3.097680   -4.140520
  C     21.020050   -2.904100   -4.179120
  C     21.709280   -3.699230   -3.313710
  C     20.901230   -4.570210   -2.542860
  S     19.213720   -4.321460   -2.953620
  C     21.386830   -5.483690   -1.637590
  C     20.668830   -6.378980   -0.838100
  S     18.920960   -6.324850   -0.822530
  C     18.806010   -7.600470    0.290190
  C     20.045860   -8.084070    0.652000
  C     21.140480   -7.395830    0.024970
  C     22.457040   -7.864120    0.300900
  C     23.711960   -7.267290   -0.195740
  O     23.940060   -6.097370   -0.396880
  O     24.675330   -8.190360   -0.374330
  C     22.614660   -8.949940    1.143870
  C     21.544050   -9.594250    1.768370
  C     20.260220   -9.172810    1.539320
  O     19.172080   -9.743720    2.103300
  H      0.188890    2.418340   -4.461460
  H     -1.726230    5.124280   -1.774920
  H      0.383690    5.374860   -0.491330
  H      2.548300    1.841370   -4.164310
  H      2.763610    4.798760   -0.153850
  H      7.497890    2.458770   -0.329740
  H      9.650230    1.385490   -0.750690
  H      9.643640   -3.350740   -3.187660
  H     13.252820   -1.394160   -2.903930
  H     11.978450   -0.789770   -1.814260
  H     13.053990   -2.106430   -1.308570
  H     11.518930   -4.668460   -3.539240
  H     13.116200   -4.165650   -2.927810
  H     11.796160   -3.026980   -5.313130
  H     14.577150   -3.134510   -4.375930
  H     13.152610   -1.666750   -6.664510
  H     15.207960   -0.739590   -7.295890
  H     17.643630   -0.347430   -7.286670
  H     19.823480   -1.132880   -6.173790
  H     21.478020   -2.190660   -4.840450
  H     22.778840   -3.694190   -3.200000
  H     22.459350   -5.487700   -1.523920
  H     17.854430   -7.956660    0.627630
  H     25.493720   -7.751560   -0.655420
  H     23.611920   -9.306300    1.346820
  H     21.736230  -10.425400    2.432510
  H     19.442370  -10.473080    2.675900

 Total Charge           Charge          ....    0
 Multiplicity           Mult            ....    1
 Number of Electrons    NEL             ....  456
 Basis Dimension        Dim             .... 1019

ORBITAL ENERGIES
----------------

  NO   OCC          E(Eh)            E(eV)
   0   2.0000     -89.038623     -2422.8641
   1   2.0000     -88.951012     -2420.4801
   2   2.0000     -88.929599     -2419.8974
   3   2.0000     -88.926227     -2419.8056
   4   2.0000     -24.784533      -674.4214
   5   2.0000     -19.254964      -523.9542
   6   2.0000     -19.249162      -523.7963
   7   2.0000     -19.212970      -522.8115
   8   2.0000     -19.191744      -522.2339
   9   2.0000     -14.458249      -393.4290
  10   2.0000     -14.448134      -393.1537
  11   2.0000     -14.439506      -392.9189
  12   2.0000     -14.420278      -392.3957
  13   2.0000     -14.415487      -392.2654
  14   2.0000     -14.415070      -392.2540
  15   2.0000     -10.393118      -282.8111
  16   2.0000     -10.368343      -282.1369
  17   2.0000     -10.363933      -282.0169
  18   2.0000     -10.346247      -281.5357
  19   2.0000     -10.339891      -281.3627
  20   2.0000     -10.339207      -281.3441
  21   2.0000     -10.337966      -281.3104
  22   2.0000     -10.336695      -281.2758
  23   2.0000     -10.333466      -281.1879
  24   2.0000     -10.331950      -281.1466
  25   2.0000     -10.317912      -280.7647
  26   2.0000     -10.317769      -280.7608
  27   2.0000     -10.317727      -280.7596
  28   2.0000     -10.317491      -280.7532
  29   2.0000     -10.310650      -280.5670
  30   2.0000     -10.304734      -280.4061
  31   2.0000     -10.304299      -280.3942
  32   2.0000     -10.303593      -280.3750
  33   2.0000     -10.303591      -280.3750
  34   2.0000     -10.299671      -280.2683
  35   2.0000     -10.298532      -280.2373
  36   2.0000     -10.296657      -280.1863
  37   2.0000     -10.296172      -280.1731
  38   2.0000     -10.295921      -280.1663
  39   2.0000     -10.293297      -280.0948
  40   2.0000     -10.292312      -280.0681
  41   2.0000     -10.289484      -279.9911
  42   2.0000     -10.287972      -279.9499
  43   2.0000     -10.287941      -279.9491
  44   2.0000     -10.285876      -279.8929
  45   2.0000     -10.284046      -279.8431
  46   2.0000     -10.282153      -279.7916
  47   2.0000     -10.280095      -279.7356
  48   2.0000     -10.277362      -279.6612
  49   2.0000     -10.277000      -279.6514
  50   2.0000     -10.273491      -279.5559
  51   2.0000     -10.271671      -279.5064
  52   2.0000     -10.270715      -279.4804
  53   2.0000     -10.268782      -279.4278
  54   2.0000     -10.267559      -279.3945
  55   2.0000     -10.263849      -279.2935
  56   2.0000     -10.263508      -279.2843
  57   2.0000     -10.261990      -279.2429
  58   2.0000     -10.260760      -279.2095
  59   2.0000     -10.256510      -279.0938
  60   2.0000     -10.252782      -278.9924
  61   2.0000     -10.252719      -278.9907
  62   2.0000      -8.130098      -221.2312
  63   2.0000      -8.046086      -218.9451
  64   2.0000      -8.025390      -218.3820
  65   2.0000      -8.022152      -218.2939
  66   2.0000      -6.101282      -166.0243
  67   2.0000      -6.093579      -165.8147
  68   2.0000      -6.092509      -165.7856
  69   2.0000      -6.015020      -163.6770
  70   2.0000      -6.010699      -163.5594
  71   2.0000      -6.009218      -163.5191
  72   2.0000      -5.995088      -163.1347
  73   2.0000      -5.991909      -163.0481
  74   2.0000      -5.991156      -163.0276
  75   2.0000      -5.987760      -162.9352
  76   2.0000      -5.986433      -162.8991
  77   2.0000      -5.983196      -162.8110
  78   2.0000      -1.298762       -35.3411
  79   2.0000      -1.177946       -32.0535
  80   2.0000      -1.149921       -31.2909
  81   2.0000      -1.137966       -30.9656
  82   2.0000      -1.127326       -30.6761
  83   2.0000      -1.079484       -29.3742
  84   2.0000      -1.057411       -28.7736
  85   2.0000      -1.042531       -28.3687
  86   2.0000      -1.018550       -27.7162
  87   2.0000      -0.999554       -27.1992
  88   2.0000      -0.996029       -27.1033
  89   2.0000      -0.991050       -26.9678
  90   2.0000      -0.981126       -26.6978
  91   2.0000      -0.974182       -26.5088
  92   2.0000      -0.973039       -26.4777
  93   2.0000      -0.951738       -25.8981
  94   2.0000      -0.932804       -25.3829
  95   2.0000      -0.922630       -25.1060
  96   2.0000      -0.921443       -25.0737
  97   2.0000      -0.916064       -24.9274
  98   2.0000      -0.896930       -24.4067
  99   2.0000      -0.889015       -24.1913
 100   2.0000      -0.883924       -24.0528
 101   2.0000      -0.879021       -23.9194
 102   2.0000      -0.868289       -23.6273
 103   2.0000      -0.853211       -23.2170
 104   2.0000      -0.845694       -23.0125
 105   2.0000      -0.832988       -22.6668
 106   2.0000      -0.830333       -22.5945
 107   2.0000      -0.821481       -22.3536
 108   2.0000      -0.819330       -22.2951
 109   2.0000      -0.811055       -22.0699
 110   2.0000      -0.803032       -21.8516
 111   2.0000      -0.796984       -21.6870
 112   2.0000      -0.783726       -21.3263
 113   2.0000      -0.774473       -21.0745
 114   2.0000      -0.760887       -20.7048
 115   2.0000      -0.757777       -20.6202
 116   2.0000      -0.747687       -20.3456
 117   2.0000      -0.732943       -19.9444
 118   2.0000      -0.731494       -19.9050
 119   2.0000      -0.725274       -19.7357
 120   2.0000      -0.713615       -19.4184
 121   2.0000      -0.708872       -19.2894
 122   2.0000      -0.707144       -19.2424
 123   2.0000      -0.689619       -18.7655
 124   2.0000      -0.687654       -18.7120
 125   2.0000      -0.680096       -18.5063
 126   2.0000      -0.675787       -18.3891
 127   2.0000      -0.667482       -18.1631
 128   2.0000      -0.655869       -17.8471
 129   2.0000      -0.655334       -17.8325
 130   2.0000      -0.649255       -17.6671
 131   2.0000      -0.635235       -17.2856
 132   2.0000      -0.631731       -17.1903
 133   2.0000      -0.627790       -17.0830
 134   2.0000      -0.623783       -16.9740
 135   2.0000      -0.614200       -16.7132
 136   2.0000      -0.609780       -16.5930
 137   2.0000      -0.605553       -16.4779
 138   2.0000      -0.601576       -16.3697
 139   2.0000      -0.596179       -16.2228
 140   2.0000      -0.592787       -16.1305
 141   2.0000      -0.592196       -16.1145
 142   2.0000      -0.576620       -15.6906
 143   2.0000      -0.576084       -15.6760
 144   2.0000      -0.575025       -15.6472
 145   2.0000      -0.570562       -15.5258
 146   2.0000      -0.567497       -15.4424
 147   2.0000      -0.565050       -15.3758
 148   2.0000      -0.562094       -15.2954
 149   2.0000      -0.556851       -15.1527
 150   2.0000      -0.552501       -15.0343
 151   2.0000      -0.548889       -14.9360
 152   2.0000      -0.548380       -14.9222
 153   2.0000      -0.545355       -14.8399
 154   2.0000      -0.541044       -14.7226
 155   2.0000      -0.533171       -14.5083
 156   2.0000      -0.531998       -14.4764
 157   2.0000      -0.528617       -14.3844
 158   2.0000      -0.525842       -14.3089
 159   2.0000      -0.522318       -14.2130
 160   2.0000      -0.521808       -14.1991
 161   2.0000      -0.517918       -14.0933
 162   2.0000      -0.509175       -13.8554
 163   2.0000      -0.508548       -13.8383
 164   2.0000      -0.504836       -13.7373
 165   2.0000      -0.504164       -13.7190
 166   2.0000      -0.502599       -13.6764
 167   2.0000      -0.499313       -13.5870
 168   2.0000      -0.493571       -13.4308
 169   2.0000      -0.490669       -13.3518
 170   2.0000      -0.488616       -13.2959
 171   2.0000      -0.487242       -13.2585
 172   2.0000      -0.483534       -13.1576
 173   2.0000      -0.480132       -13.0651
 174   2.0000      -0.478438       -13.0190
 175   2.0000      -0.476425       -12.9642
 176   2.0000      -0.473339       -12.8802
 177   2.0000      -0.472525       -12.8581
 178   2.0000      -0.469839       -12.7850
 179   2.0000      -0.466130       -12.6841
 180   2.0000      -0.462815       -12.5938
 181   2.0000      -0.461265       -12.5517
 182   2.0000      -0.458931       -12.4881
 183   2.0000      -0.456977       -12.4350
 184   2.0000      -0.455917       -12.4061
 185   2.0000      -0.453246       -12.3334
 186   2.0000      -0.452508       -12.3134
 187   2.0000      -0.448423       -12.2022
 188   2.0000      -0.446848       -12.1594
 189   2.0000      -0.442549       -12.0424
 190   2.0000      -0.442249       -12.0342
 191   2.0000      -0.440438       -11.9849
 192   2.0000      -0.437374       -11.9016
 193   2.0000      -0.436992       -11.8912
 194   2.0000      -0.427783       -11.6406
 195   2.0000      -0.426560       -11.6073
 196   2.0000      -0.425501       -11.5785
 197   2.0000      -0.419966       -11.4279
 198   2.0000      -0.418043       -11.3755
 199   2.0000      -0.416136       -11.3236
 200   2.0000      -0.411516       -11.1979
 201   2.0000      -0.407575       -11.0907
 202   2.0000      -0.407291       -11.0829
 203   2.0000      -0.399691       -10.8761
 204   2.0000      -0.399142       -10.8612
 205   2.0000      -0.397377       -10.8132
 206   2.0000      -0.381703       -10.3867
 207   2.0000      -0.379966       -10.3394
 208   2.0000      -0.379004       -10.3132
 209   2.0000      -0.374591       -10.1931
 210   2.0000      -0.371376       -10.1057
 211   2.0000      -0.366285        -9.9671
 212   2.0000      -0.360208        -9.8018
 213   2.0000      -0.348616        -9.4863
 214   2.0000      -0.343996        -9.3606
 215   2.0000      -0.341811        -9.3011
 216   2.0000      -0.338480        -9.2105
 217   2.0000      -0.331803        -9.0288
 218   2.0000      -0.320976        -8.7342
 219   2.0000      -0.316231        -8.6051
 220   2.0000      -0.309169        -8.4129
 221   2.0000      -0.307170        -8.3585
 222   2.0000      -0.300525        -8.1777
 223   2.0000      -0.296659        -8.0725
 224   2.0000      -0.286534        -7.7970
 225   2.0000      -0.275303        -7.4914
 226   2.0000      -0.238351        -6.4859
 227   2.0000      -0.181817        -4.9475
 228   0.0000      -0.105590        -2.8732
 229   0.0000      -0.065389        -1.7793
 230   0.0000      -0.056829        -1.5464
 231   0.0000      -0.050224        -1.3667
 232   0.0000      -0.017284        -0.4703

MULLIKEN ATOMIC CHARGES
-----------------------
   0 C :   -0.100229
   1 C :    0.303932
   2 F :   -0.192495
   3 C :   -0.029142
   4 C :   -0.012553
   5 C :    0.102656
   6 C :    0.105330
   7 C :   -0.092923
   8 C :    0.039001
   9 C :    0.010602
  10 C :   -0.083473
  11 C :    0.136494
  12 O :   -0.144167
  13 C :   -0.121578
  14 C :    0.336563
  15 C :   -0.333630
  16 C :   -0.210265
  17 N :    0.164733
  18 C :   -0.194431
  19 N :    0.153227
  20 C :    0.014358
  21 C :    0.021790
  22 C :    0.015749
  23 N :   -0.052817
  24 C :    0.008653
  25 C :    0.022470
  26 C :    0.029321
  27 N :   -0.284747
  28 S :    0.530793
  29 N :   -0.250969
  30 C :   -0.030778
  31 C :   -0.174193
  32 C :    0.109765
  33 C :    0.199989
  34 N :   -0.141678
  35 C :    0.040509
  36 C :   -0.031769
  37 C :    0.004328
  38 C :   -0.039952
  39 C :    0.036119
  40 C :    0.012745
  41 C :   -0.032210
  42 S :    0.025762
  43 C :   -0.039601
  44 C :    0.027903
  45 C :    0.020975
  46 C :   -0.046299
  47 S :    0.045669
  48 C :   -0.029516
  49 C :   -0.155844
  50 S :    0.132447
  51 C :   -0.119123
  52 C :    0.020506
  53 C :    0.176008
  54 C :   -0.049082
  55 C :    0.130721
  56 O :   -0.215982
  57 O :   -0.177816
  58 C :    0.012833
  59 C :   -0.097346
  60 C :    0.172876
  61 O :   -0.171869
  62 H :   -0.002586
  63 H :    0.002960
  64 H :   -0.008389
  65 H :   -0.006450
  66 H :   -0.011780
  67 H :    0.022196
  68 H :    0.008244
  69 H :   -0.016223
  70 H :    0.036272
  71 H :    0.034241
  72 H :    0.024906
  73 H :    0.019875
  74 H :    0.024213
  75 H :    0.121283
  76 H :    0.019588
  77 H :   -0.027654
  78 H :   -0.016054
  79 H :   -0.019144
  80 H :   -0.022217
  81 H :   -0.022888
  82 H :   -0.010534
  83 H :    0.002734
  84 H :    0.018235
  85 H :    0.186085
  86 H :   -0.007472
  87 H :   -0.043888
  88 H :    0.186094
Sum of atomic charges:   -0.0000000

LOEWDIN ATOMIC CHARGES
----------------------
   0 C :   -0.042746
   1 C :    0.093636
   2 F :   -0.066954
   3 C :   -0.037637
   4 C :    0.004538
   5 C :   -0.019256
   6 C :    0.003705
   7 C :    0.008991
   8 C :   -0.013448
   9 C :   -0.059472
  10 C :    0.034461
  11 C :    0.084926
  12 O :   -0.144623
  13 C :   -0.084204
  14 C :    0.078447
  15 C :   -0.136524
  16 C :   -0.017970
  17 N :   -0.059923
  18 C :   -0.019650
  19 N :   -0.057258
  20 C :    0.074184
  21 C :   -0.080171
  22 C :    0.064520
  23 N :   -0.067413
  24 C :    0.055196
  25 C :   -0.061161
  26 C :   -0.035579
  27 N :   -0.283556
  28 S :    0.659710
  29 N :   -0.261607
  30 C :   -0.074797
  31 C :    0.028234
  32 C :   -0.056434
  33 C :    0.050036
  34 N :    0.011497
  35 C :    0.034277
  36 C :   -0.125529
  37 C :   -0.040702
  38 C :   -0.174996
  39 C :   -0.026937
  40 C :   -0.057012
  41 C :   -0.173208
  42 S :    0.359793
  43 C :   -0.192010
  44 C :   -0.043575
  45 C :   -0.036048
  46 C :   -0.158624
  47 S :    0.348637
  48 C :   -0.080800
  49 C :   -0.173727
  50 S :    0.481504
  51 C :   -0.200726
  52 C :   -0.073319
  53 C :   -0.032060
  54 C :   -0.091102
  55 C :    0.095778
  56 O :   -0.186898
  57 O :   -0.039831
  58 C :    0.014244
  59 C :   -0.110608
  60 C :    0.079898
  61 O :   -0.039093
  62 H :    0.042869
  63 H :    0.041752
  64 H :    0.035737
  65 H :    0.038470
  66 H :    0.039535
  67 H :    0.048163
  68 H :    0.029969
  69 H :    0.031122
  70 H :    0.041204
  71 H :    0.031834
  72 H :    0.041933
  73 H :    0.028534
  74 H :    0.034447
  75 H :    0.080880
  76 H :    0.010901
  77 H :    0.024382
  78 H :    0.034849
  79 H :    0.030529
  80 H :    0.028329
  81 H :    0.028561
  82 H :    0.033615
  83 H :    0.036993
  84 H :    0.024484
  85 H :    0.096613
  86 H :    0.031884
  87 H :    0.023753
  88 H :    0.099634

  Mayer bond orders larger than 0.100000
B(  0-C ,  1-C ) :   1.4407 B(  0-C ,  6-C ) :   1.2023 B(  0-C , 62-H ) :   1.0069
B(  1-C ,  2-F ) :   1.0864 B(  1-C ,  3-C ) :   1.2549 B(  3-C ,  4-C ) :   1.4601
B(  3-C , 63-H ) :   0.9931 B(  4-C ,  5-C ) :   1.2339 B(  4-C , 64-H ) :   0.9974
B(  5-C ,  6-C ) :   1.2563 B(  5-C , 10-C ) :   1.1902 B(  6-C ,  7-C ) :   1.2002
B(  7-C ,  8-C ) :   1.4605 B(  7-C , 65-H ) :   0.9943 B(  8-C ,  9-C ) :   1.2142
B(  8-C , 14-C ) :   1.0072 B(  9-C , 10-C ) :   1.4706 B(  9-C , 11-C ) :   0.9203
B( 10-C , 66-H ) :   1.0156 B( 11-C , 12-O ) :   2.2693 B( 11-C , 13-C ) :   0.9385
B( 13-C , 14-C ) :   1.0437 B( 13-C , 20-C ) :   1.6595 B( 14-C , 15-C ) :   1.6300
B( 15-C , 16-C ) :   1.1702 B( 15-C , 18-C ) :   1.1495 B( 16-C , 17-N ) :   2.9991
B( 18-C , 19-N ) :   2.9808 B( 20-C , 21-C ) :   1.0879 B( 20-C , 67-H ) :   0.9424
B( 21-C , 22-C ) :   1.3740 B( 21-C , 26-C ) :   1.1859 B( 22-C , 23-N ) :   1.4670
B( 22-C , 68-H ) :   0.9804 B( 23-N , 24-C ) :   1.5774 B( 24-C , 25-C ) :   1.1273
B( 24-C , 30-C ) :   1.1606 B( 25-C , 26-C ) :   1.1830 B( 25-C , 29-N ) :   1.5647
B( 26-C , 27-N ) :   1.5300 B( 27-N , 28-S ) :   1.2398 B( 27-N , 29-N ) :   0.1386
B( 28-S , 29-N ) :   1.2827 B( 30-C , 31-C ) :   1.6770 B( 30-C , 69-H ) :   0.9595
B( 31-C , 32-C ) :   1.0905 B( 31-C , 33-C ) :   1.0304 B( 32-C , 70-H ) :   0.9304
B( 32-C , 71-H ) :   0.9206 B( 32-C , 72-H ) :   0.9311 B( 33-C , 34-N ) :   1.0166
B( 33-C , 73-H ) :   0.9419 B( 33-C , 74-H ) :   0.9309 B( 34-N , 35-C ) :   1.2305
B( 34-N , 75-H ) :   0.9363 B( 35-C , 36-C ) :   1.5574 B( 35-C , 76-H ) :   0.9460
B( 36-C , 37-C ) :   1.2376 B( 36-C , 77-H ) :   0.9586 B( 37-C , 38-C ) :   1.5698
B( 37-C , 78-H ) :   0.9596 B( 38-C , 39-C ) :   1.1616 B( 38-C , 42-S ) :   1.0140
B( 39-C , 40-C ) :   1.5747 B( 39-C , 79-H ) :   0.9983 B( 40-C , 41-C ) :   1.1957
B( 40-C , 80-H ) :   0.9933 B( 41-C , 42-S ) :   1.0400 B( 41-C , 43-C ) :   1.5021
B( 43-C , 44-C ) :   1.1921 B( 43-C , 47-S ) :   1.0282 B( 44-C , 45-C ) :   1.5752
B( 44-C , 81-H ) :   0.9927 B( 45-C , 46-C ) :   1.1611 B( 45-C , 82-H ) :   1.0001
B( 46-C , 47-S ) :   1.0245 B( 46-C , 48-C ) :   1.5478 B( 48-C , 49-C ) :   1.2213
B( 48-C , 83-H ) :   0.9383 B( 49-C , 50-S ) :   1.1321 B( 49-C , 53-C ) :   1.3431
B( 50-S , 51-C ) :   1.1918 B( 51-C , 52-C ) :   1.4144 B( 51-C , 84-H ) :   0.9717
B( 52-C , 53-C ) :   1.2276 B( 52-C , 60-C ) :   1.1644 B( 53-C , 54-C ) :   1.1936
B( 54-C , 55-C ) :   0.9249 B( 54-C , 58-C ) :   1.5184 B( 55-C , 56-O ) :   2.0436
B( 55-C , 57-O ) :   1.2636 B( 57-O , 85-H ) :   0.9453 B( 58-C , 59-C ) :   1.2093
B( 58-C , 86-H ) :   0.9804 B( 59-C , 60-C ) :   1.4445 B( 59-C , 87-H ) :   0.9924
B( 60-C , 61-O ) :   1.2735 B( 61-O , 88-H ) :   0.9572

-----------------------------------------------------------------------------
         ABSORPTION SPECTRUM VIA TRANSITION ELECTRIC DIPOLE MOMENTS
-----------------------------------------------------------------------------
State   Energy  Wavelength   fosc         T2         TX        TY        TZ
        (cm-1)    (nm)                  (au**2)     (au)      (au)      (au)
-----------------------------------------------------------------------------
   0    6488.4   1541.2   0.201341916  10.21573  -2.94194   1.24701   0.07520
   1   14021.5    713.2   1.014334567  23.81563  -3.06365   2.66780  -2.70416
   2   16668.1    599.9   0.039410008   0.77839  -0.07590  -0.48145   0.73542
   3   18548.1    539.1   0.123699042   2.19554   1.18398  -0.09324  -0.88603
   4   21114.6    473.6   0.246024460   3.83593  -1.83348   0.64214  -0.24889
   5   21251.1    470.6   0.039423398   0.61073  -0.69375   0.15885  -0.32282
   6   21901.5    456.6   0.236416605   3.55369   1.42138  -1.16962   0.40667
   7   24400.1    409.8   0.381437991   5.14644  -2.04233  -0.69077   0.70581
   8   24832.1    402.7   0.205843971   2.72898  -1.22578   1.09954   0.13212
   9   26352.1    379.5   0.016366622   0.20447   0.44275  -0.01637   0.09040
  10   26920.8    371.5   0.141316157   1.72814  -0.65495  -0.69666   0.90213
  11   27063.8    369.5   0.039223428   0.47713  -0.47584   0.49321  -0.08628
  12   27712.5    360.8   0.031154503   0.37010  -0.02247   0.03738  -0.60679
  13   28491.4    351.0   0.154840663   1.78915   0.96801   0.35252  -0.85313
  14   28821.3    347.0   0.048429660   0.55319  -0.65647  -0.30841   0.16469
  15   29113.5    343.5   0.087598183   0.99055  -0.37953  -0.88685   0.24497
  16   30177.8    331.4   0.016473371   0.17971   0.19230   0.36861  -0.08278
  17   30413.3    328.8   0.116916291   1.26557  -0.93764  -0.06223   0.61849
  18   30697.2    325.8   0.023944034   0.25679   0.12152   0.26657   0.41347
  19   31603.7    316.4   0.224100264   2.33442   1.26411  -0.68137  -0.52171
  20   31891.0    313.6   0.143681198   1.48323   0.16477  -1.04786   0.59838
  21   32622.6    306.5   0.006488316   0.06548   0.18845   0.14136  -0.09991
  22   32669.0    306.1   0.013576901   0.13682  -0.00433  -0.31222   0.19829
  23   33527.1    298.3   0.259733614   2.55040   1.32527  -0.70886  -0.53997
  24   33658.6    297.1   0.077038454   0.75351   0.74780  -0.37354  -0.23404
  25   33918.6    294.8   0.026663272   0.25879  -0.43526   0.14660  -0.21875
  26   34420.1    290.5   0.011526070   0.11024  -0.30962   0.08992   0.07934
  27   34554.3    289.4   0.195611361   1.86367   1.28373  -0.39028  -0.25178
  28   34685.8    288.3   0.057256988   0.54344   0.02913   0.73539   0.04233
  29   34775.5    287.6   0.010967799   0.10383   0.21682   0.18138  -0.15466
  30   35091.2    285.0   0.007453772   0.06993   0.11900  -0.10079  -0.21356
  31   35894.2    278.6   0.010898298   0.09996  -0.11069   0.10971  -0.27508
  32   35984.3    277.9   0.031036868   0.28395   0.37424  -0.37919   0.01046
  33   36325.1    275.3   0.058944827   0.53421  -0.72679   0.07607  -0.01439
  34   36704.7    272.4   0.059533772   0.53397  -0.58179   0.35239   0.26704
  35   37140.2    269.2   0.030590285   0.27115   0.08956  -0.47618  -0.19076
  36   37280.6    268.2   0.303477124   2.67990   0.78861  -0.82658  -1.17250
  37   37844.8    264.2   0.025143354   0.21872   0.39510  -0.17741  -0.17647
  38   38111.4    262.4   0.012277404   0.10605  -0.25136   0.20673   0.01165
  39   38472.4    259.9   0.013908720   0.11902  -0.25642   0.00356  -0.23077
  40   38665.1    258.6   0.009920768   0.08447  -0.17677  -0.13239  -0.18894
  41   38989.1    256.5   0.036626740   0.30926   0.19338  -0.33182  -0.40220
  42   39273.5    254.6   0.006128803   0.05137   0.19388   0.10259  -0.05711
  43   39514.2    253.1   0.018695130   0.15576   0.32953  -0.21716   0.00296
  44   39809.8    251.2   0.109569617   0.90610  -0.92504   0.08004  -0.20974
  45   40107.9    249.3   0.082345428   0.67590   0.63656   0.41904   0.30837

FINAL SINGLE POINT ENERGY     -4125.522796538344

DIPOLE MOMENT
-------------
                                X             Y             Z
Electronic contribution:    -45.03077      12.07787       1.26458
Nuclear contribution   :     43.97210     -13.27969       0.18267
                        -----------------------------------------
Total Dipole Moment    :     -1.05867      -1.20182       1.44725
                        -----------------------------------------
Magnitude (a.u.)       :      2.15863
Magnitude (Debye)      :      5.48680

Rotational constants in cm-1:     0.002797     0.000252     0.000242
Rotational constants in MHz :    83.848832     7.551833     7.245511

                             ****ORCA TERMINATED NORMALLY****
TOTAL RUN TIME: 0 days 0 hours 7 minutes 59 seconds 357 msec
