                         Program Version 4.2.0 -  RELEASE  -
|  1> # ORCA input file
|  2> # SCF done       -184.656187235996          0.000958594476
|  3> ! CAM-B3LYP def2-SVP def2/J RIJCOSX Grid4 TightSCF
|  4> %maxcore 5000
|  5> %tddft
|  6>     Mode sTDDFT
|  7>     Ethresh 5.0
|  8>     maxcore 5000
|  9> end
| 10>
| 11> %pal
| 12>   nprocs 6
| 13>   end
| 14> * xyz 0 1
| 15>    C        5.40952         0.57433        -5.91250
| 16>    C        4.54080        -0.02247        -6.78329
| 17>    F        4.59965         0.28553        -8.09239
| 18>    C        3.58019        -0.95352        -6.36674
| 19>    C        3.50732        -1.27966        -5.04084
| 20>    C        4.37932        -0.69578        -4.09962
| 21>    C        5.34730         0.25149        -4.54322
| 22>    C        6.22608         0.85943        -3.61558
| 23>    C        6.14104         0.52238        -2.29296
| 24>    C        5.18357        -0.43873        -1.85734
| 25>    C        4.31679        -1.03193        -2.72799
| 26>    C        5.33267        -0.64762        -0.40269
| 27>    O        4.66720        -1.35622         0.31981
| 28>    C        6.52193         0.15225        -0.01533
| 29>    C        6.86966         1.00570        -1.12199
| 30>    C        7.52814         2.20938        -1.04526
| 31>    C        7.91034         2.79511         0.17710
| 32>    N        8.18712         3.31925         1.16105
| 33>    C        7.81449         3.02295        -2.15665
| 34>    N        8.10807         3.70720        -3.03115
| 35>    C        7.12479        -0.10137         1.18942
| 36>    C        8.43809         0.13579         1.61028
| 37>    S        9.73643         0.54138         0.52625
| 38>    C       10.93109         0.52302         1.77103
| 39>    C       10.34550         0.19523         3.01037
| 40>    C        8.94141        -0.03170         2.91795
| 41>    C        8.20583        -0.35203         4.07120
| 42>    C        8.86304        -0.44866         5.26614
| 43>    F        8.18320        -0.75827         6.37807
| 44>    C       10.25463        -0.22577         5.35789
| 45>    F       10.85172        -0.32991         6.55442
| 46>    C       10.99368         0.09310         4.25392
| 47>    C       12.28370         0.82906         1.50451
| 48>    C       12.73679         1.24932         0.29547
| 49>    C       14.09052         1.59713         0.03266
| 50>    C       14.54557         2.06083        -1.14944
| 51>    C       13.67873         2.23051        -2.35814
| 52>    C       15.97935         2.46289        -1.34879
| 53>    N       16.75318         2.50724        -0.13611
| 54>    C       18.10236         2.29129        -0.16214
| 55>    C       18.94434         2.68474         0.79963
| 56>    N       20.32009         2.40147         0.80730
| 57>    C       21.07378         1.83325        -0.21669
| 58>    O       20.65721         1.46423        -1.28604
| 59>    C       22.47066         1.81389         0.27196
| 60>    C       22.51944         2.32035         1.51589
| 61>    C       21.11664         2.74992         1.87697
| 62>    O       20.75332         3.32882         2.87096
| 63>    C       23.65041         2.53263         2.36299
| 64>    C       23.68725         2.56861         3.71396
| 65>    C       24.87042         3.18605         4.39684
| 66>    O       25.93503         3.44170         3.88800
| 67>    C       24.41931         3.45424         5.77131
| 68>    C       25.06557         4.12654         6.77010
| 69>    C       24.42661         4.28511         8.01910
| 70>    C       23.11790         3.74984         8.20820
| 71>    C       22.48451         3.91848         9.45495
| 72>    C       23.13650         4.58604        10.45438
| 73>    C       24.42336         5.11781        10.28854
| 74>    C       25.05248         4.96507         9.08477
| 75>    F       22.53479         4.74644        11.64510
| 76>    C       22.47326         3.05613         7.15822
| 77>    C       23.11783         2.90249         5.96009
| 78>    C       22.71745         2.21656         4.73727
| 79>    C       21.75453         1.25216         4.64264
| 80>    C       21.54591         0.47207         3.48728
| 81>    N       21.37159        -0.20581         2.57760
| 82>    C       20.89695         0.88899         5.70245
| 83>    N       20.17394         0.55900         6.52979
| 84>    H        6.13378         1.29033        -6.26844
| 85>    H        2.92084        -1.39157        -7.09912
| 86>    H        2.77560        -1.99455        -4.69568
| 87>    H        6.95208         1.57066        -3.97713
| 88>    H        3.59089        -1.74974        -2.37655
| 89>    H        6.50782        -0.66717         1.88101
| 90>    H        7.14180        -0.51741         4.03364
| 91>    H       12.05286         0.26291         4.35353
| 92>    H       12.97528         0.73920         2.33045
| 93>    H       12.02162         1.35171        -0.50931
| 94>    H       14.78850         1.47916         0.85009
| 95>    H       12.98120         3.05605        -2.21551
| 96>    H       13.09492         1.33294        -2.54969
| 97>    H       14.28115         2.44429        -3.23720
| 98>    H       15.98840         3.43698        -1.86787
| 99>    H       16.45256         1.74055        -2.02431
|100>    H       16.42337         3.15755         0.56332
|101>    H       18.46128         1.72512        -1.00754
|102>    H       18.62998         3.23891         1.67171
|103>    H       23.27249         1.39813        -0.30918
|104>    H       24.58671         2.76228         1.86252
|105>    H       26.05309         4.53202         6.60821
|106>    H       21.49570         3.51978         9.61921
|107>    H       24.88741         5.63504        11.11328
|108>    H       26.04333         5.36592         8.93316
|109>    H       21.47901         2.67193         7.32203
|110> *
|111>
|112>                          ****END OF INPUT****

CARTESIAN COORDINATES (ANGSTROEM)
---------------------------------
  C      5.409520    0.574330   -5.912500
  C      4.540800   -0.022470   -6.783290
  F      4.599650    0.285530   -8.092390
  C      3.580190   -0.953520   -6.366740
  C      3.507320   -1.279660   -5.040840
  C      4.379320   -0.695780   -4.099620
  C      5.347300    0.251490   -4.543220
  C      6.226080    0.859430   -3.615580
  C      6.141040    0.522380   -2.292960
  C      5.183570   -0.438730   -1.857340
  C      4.316790   -1.031930   -2.727990
  C      5.332670   -0.647620   -0.402690
  O      4.667200   -1.356220    0.319810
  C      6.521930    0.152250   -0.015330
  C      6.869660    1.005700   -1.121990
  C      7.528140    2.209380   -1.045260
  C      7.910340    2.795110    0.177100
  N      8.187120    3.319250    1.161050
  C      7.814490    3.022950   -2.156650
  N      8.108070    3.707200   -3.031150
  C      7.124790   -0.101370    1.189420
  C      8.438090    0.135790    1.610280
  S      9.736430    0.541380    0.526250
  C     10.931090    0.523020    1.771030
  C     10.345500    0.195230    3.010370
  C      8.941410   -0.031700    2.917950
  C      8.205830   -0.352030    4.071200
  C      8.863040   -0.448660    5.266140
  F      8.183200   -0.758270    6.378070
  C     10.254630   -0.225770    5.357890
  F     10.851720   -0.329910    6.554420
  C     10.993680    0.093100    4.253920
  C     12.283700    0.829060    1.504510
  C     12.736790    1.249320    0.295470
  C     14.090520    1.597130    0.032660
  C     14.545570    2.060830   -1.149440
  C     13.678730    2.230510   -2.358140
  C     15.979350    2.462890   -1.348790
  N     16.753180    2.507240   -0.136110
  C     18.102360    2.291290   -0.162140
  C     18.944340    2.684740    0.799630
  N     20.320090    2.401470    0.807300
  C     21.073780    1.833250   -0.216690
  O     20.657210    1.464230   -1.286040
  C     22.470660    1.813890    0.271960
  C     22.519440    2.320350    1.515890
  C     21.116640    2.749920    1.876970
  O     20.753320    3.328820    2.870960
  C     23.650410    2.532630    2.362990
  C     23.687250    2.568610    3.713960
  C     24.870420    3.186050    4.396840
  O     25.935030    3.441700    3.888000
  C     24.419310    3.454240    5.771310
  C     25.065570    4.126540    6.770100
  C     24.426610    4.285110    8.019100
  C     23.117900    3.749840    8.208200
  C     22.484510    3.918480    9.454950
  C     23.136500    4.586040   10.454380
  C     24.423360    5.117810   10.288540
  C     25.052480    4.965070    9.084770
  F     22.534790    4.746440   11.645100
  C     22.473260    3.056130    7.158220
  C     23.117830    2.902490    5.960090
  C     22.717450    2.216560    4.737270
  C     21.754530    1.252160    4.642640
  C     21.545910    0.472070    3.487280
  N     21.371590   -0.205810    2.577600
  C     20.896950    0.888990    5.702450
  N     20.173940    0.559000    6.529790
  H      6.133780    1.290330   -6.268440
  H      2.920840   -1.391570   -7.099120
  H      2.775600   -1.994550   -4.695680
  H      6.952080    1.570660   -3.977130
  H      3.590890   -1.749740   -2.376550
  H      6.507820   -0.667170    1.881010
  H      7.141800   -0.517410    4.033640
  H     12.052860    0.262910    4.353530
  H     12.975280    0.739200    2.330450
  H     12.021620    1.351710   -0.509310
  H     14.788500    1.479160    0.850090
  H     12.981200    3.056050   -2.215510
  H     13.094920    1.332940   -2.549690
  H     14.281150    2.444290   -3.237200
  H     15.988400    3.436980   -1.867870
  H     16.452560    1.740550   -2.024310
  H     16.423370    3.157550    0.563320
  H     18.461280    1.725120   -1.007540
  H     18.629980    3.238910    1.671710
  H     23.272490    1.398130   -0.309180
  H     24.586710    2.762280    1.862520
  H     26.053090    4.532020    6.608210
  H     21.495700    3.519780    9.619210
  H     24.887410    5.635040   11.113280
  H     26.043330    5.365920    8.933160
  H     21.479010    2.671930    7.322030

 Total Charge           Charge          ....    0
 Multiplicity           Mult            ....    1
 Number of Electrons    NEL             ....  476
 Basis Dimension        Dim             .... 1100

ORBITAL ENERGIES
----------------

  NO   OCC          E(Eh)            E(eV)
   0   2.0000     -88.979704     -2421.2608
   1   2.0000     -24.794917      -674.7040
   2   2.0000     -24.791678      -674.6159
   3   2.0000     -24.791342      -674.6067
   4   2.0000     -24.780805      -674.3200
   5   2.0000     -19.229739      -523.2678
   6   2.0000     -19.227429      -523.2050
   7   2.0000     -19.226044      -523.1672
   8   2.0000     -19.202797      -522.5347
   9   2.0000     -14.470592      -393.7648
  10   2.0000     -14.427188      -392.5838
  11   2.0000     -14.426708      -392.5707
  12   2.0000     -14.423927      -392.4950
  13   2.0000     -14.408285      -392.0694
  14   2.0000     -14.405574      -391.9956
  15   2.0000     -10.406384      -283.1721
  16   2.0000     -10.403449      -283.0922
  17   2.0000     -10.379558      -282.4421
  18   2.0000     -10.377883      -282.3966
  19   2.0000     -10.376121      -282.3486
  20   2.0000     -10.374251      -282.2977
  21   2.0000     -10.363740      -282.0117
  22   2.0000     -10.354862      -281.7701
  23   2.0000     -10.353702      -281.7386
  24   2.0000     -10.349819      -281.6329
  25   2.0000     -10.334831      -281.2251
  26   2.0000     -10.332587      -281.1640
  27   2.0000     -10.331434      -281.1326
  28   2.0000     -10.329446      -281.0785
  29   2.0000     -10.328182      -281.0441
  30   2.0000     -10.325968      -280.9839
  31   2.0000     -10.325606      -280.9740
  32   2.0000     -10.318944      -280.7927
  33   2.0000     -10.317910      -280.7646
  34   2.0000     -10.317107      -280.7427
  35   2.0000     -10.314746      -280.6785
  36   2.0000     -10.314182      -280.6632
  37   2.0000     -10.314097      -280.6609
  38   2.0000     -10.313533      -280.6455
  39   2.0000     -10.311919      -280.6016
  40   2.0000     -10.309405      -280.5332
  41   2.0000     -10.308800      -280.5167
  42   2.0000     -10.308481      -280.5080
  43   2.0000     -10.308184      -280.4999
  44   2.0000     -10.305471      -280.4261
  45   2.0000     -10.304219      -280.3921
  46   2.0000     -10.303950      -280.3847
  47   2.0000     -10.303447      -280.3710
  48   2.0000     -10.300841      -280.3001
  49   2.0000     -10.300734      -280.2972
  50   2.0000     -10.300006      -280.2774
  51   2.0000     -10.299925      -280.2752
  52   2.0000     -10.299520      -280.2642
  53   2.0000     -10.299035      -280.2510
  54   2.0000     -10.298320      -280.2315
  55   2.0000     -10.296634      -280.1857
  56   2.0000     -10.296515      -280.1824
  57   2.0000     -10.295026      -280.1419
  58   2.0000     -10.294312      -280.1225
  59   2.0000     -10.292184      -280.0646
  60   2.0000     -10.291906      -280.0570
  61   2.0000     -10.291288      -280.0402
  62   2.0000     -10.290804      -280.0270
  63   2.0000     -10.288693      -279.9696
  64   2.0000     -10.283967      -279.8410
  65   2.0000     -10.283407      -279.8257
  66   2.0000     -10.281948      -279.7860
  67   2.0000     -10.278994      -279.7057
  68   2.0000     -10.276002      -279.6242
  69   2.0000      -8.074217      -219.7106
  70   2.0000      -6.043203      -164.4439
  71   2.0000      -6.039171      -164.3342
  72   2.0000      -6.036938      -164.2734
  73   2.0000      -1.316265       -35.8174
  74   2.0000      -1.307080       -35.5674
  75   2.0000      -1.300718       -35.3943
  76   2.0000      -1.295525       -35.2530
  77   2.0000      -1.173310       -31.9274
  78   2.0000      -1.149224       -31.2720
  79   2.0000      -1.142894       -31.0997
  80   2.0000      -1.118041       -30.4234
  81   2.0000      -1.065017       -28.9806
  82   2.0000      -1.030915       -28.0526
  83   2.0000      -1.028322       -27.9821
  84   2.0000      -1.018952       -27.7271
  85   2.0000      -1.009762       -27.4770
  86   2.0000      -1.008848       -27.4522
  87   2.0000      -1.003682       -27.3116
  88   2.0000      -0.992852       -27.0169
  89   2.0000      -0.985803       -26.8251
  90   2.0000      -0.985114       -26.8063
  91   2.0000      -0.969009       -26.3681
  92   2.0000      -0.955257       -25.9939
  93   2.0000      -0.953789       -25.9539
  94   2.0000      -0.935417       -25.4540
  95   2.0000      -0.932615       -25.3777
  96   2.0000      -0.921432       -25.0734
  97   2.0000      -0.911223       -24.7956
  98   2.0000      -0.907259       -24.6878
  99   2.0000      -0.893880       -24.3237
 100   2.0000      -0.889692       -24.2098
 101   2.0000      -0.880668       -23.9642
 102   2.0000      -0.878004       -23.8917
 103   2.0000      -0.873660       -23.7735
 104   2.0000      -0.860304       -23.4101
 105   2.0000      -0.844834       -22.9891
 106   2.0000      -0.842622       -22.9289
 107   2.0000      -0.837720       -22.7955
 108   2.0000      -0.828413       -22.5423
 109   2.0000      -0.820786       -22.3347
 110   2.0000      -0.811416       -22.0798
 111   2.0000      -0.798760       -21.7354
 112   2.0000      -0.779396       -21.2084
 113   2.0000      -0.774971       -21.0880
 114   2.0000      -0.766568       -20.8594
 115   2.0000      -0.763401       -20.7732
 116   2.0000      -0.752048       -20.4643
 117   2.0000      -0.745651       -20.2902
 118   2.0000      -0.734079       -19.9753
 119   2.0000      -0.727817       -19.8049
 120   2.0000      -0.726857       -19.7788
 121   2.0000      -0.716384       -19.4938
 122   2.0000      -0.713722       -19.4214
 123   2.0000      -0.709646       -19.3105
 124   2.0000      -0.702955       -19.1284
 125   2.0000      -0.699981       -19.0475
 126   2.0000      -0.690367       -18.7858
 127   2.0000      -0.680259       -18.5108
 128   2.0000      -0.674355       -18.3501
 129   2.0000      -0.671999       -18.2860
 130   2.0000      -0.667212       -18.1558
 131   2.0000      -0.658194       -17.9104
 132   2.0000      -0.645915       -17.5762
 133   2.0000      -0.643719       -17.5165
 134   2.0000      -0.636744       -17.3267
 135   2.0000      -0.634688       -17.2707
 136   2.0000      -0.627501       -17.0752
 137   2.0000      -0.625320       -17.0158
 138   2.0000      -0.622343       -16.9348
 139   2.0000      -0.618577       -16.8323
 140   2.0000      -0.617892       -16.8137
 141   2.0000      -0.611163       -16.6306
 142   2.0000      -0.602858       -16.4046
 143   2.0000      -0.597881       -16.2692
 144   2.0000      -0.590266       -16.0619
 145   2.0000      -0.588500       -16.0139
 146   2.0000      -0.584372       -15.9016
 147   2.0000      -0.580917       -15.8076
 148   2.0000      -0.580805       -15.8045
 149   2.0000      -0.576251       -15.6806
 150   2.0000      -0.573300       -15.6003
 151   2.0000      -0.567592       -15.4450
 152   2.0000      -0.565257       -15.3814
 153   2.0000      -0.564379       -15.3575
 154   2.0000      -0.562711       -15.3121
 155   2.0000      -0.559564       -15.2265
 156   2.0000      -0.554116       -15.0783
 157   2.0000      -0.553184       -15.0529
 158   2.0000      -0.551077       -14.9956
 159   2.0000      -0.548211       -14.9176
 160   2.0000      -0.546021       -14.8580
 161   2.0000      -0.544459       -14.8155
 162   2.0000      -0.542168       -14.7532
 163   2.0000      -0.541226       -14.7275
 164   2.0000      -0.538534       -14.6543
 165   2.0000      -0.536449       -14.5975
 166   2.0000      -0.531669       -14.4675
 167   2.0000      -0.530158       -14.4263
 168   2.0000      -0.528921       -14.3927
 169   2.0000      -0.525789       -14.3075
 170   2.0000      -0.524192       -14.2640
 171   2.0000      -0.521006       -14.1773
 172   2.0000      -0.518143       -14.0994
 173   2.0000      -0.517662       -14.0863
 174   2.0000      -0.517332       -14.0773
 175   2.0000      -0.513131       -13.9630
 176   2.0000      -0.510074       -13.8798
 177   2.0000      -0.507295       -13.8042
 178   2.0000      -0.506680       -13.7875
 179   2.0000      -0.502035       -13.6611
 180   2.0000      -0.499463       -13.5911
 181   2.0000      -0.495787       -13.4910
 182   2.0000      -0.490960       -13.3597
 183   2.0000      -0.490736       -13.3536
 184   2.0000      -0.489146       -13.3103
 185   2.0000      -0.484947       -13.1961
 186   2.0000      -0.484809       -13.1923
 187   2.0000      -0.484089       -13.1727
 188   2.0000      -0.481090       -13.0911
 189   2.0000      -0.476556       -12.9678
 190   2.0000      -0.474489       -12.9115
 191   2.0000      -0.473666       -12.8891
 192   2.0000      -0.468330       -12.7439
 193   2.0000      -0.464996       -12.6532
 194   2.0000      -0.462813       -12.5938
 195   2.0000      -0.459210       -12.4957
 196   2.0000      -0.456234       -12.4147
 197   2.0000      -0.454944       -12.3796
 198   2.0000      -0.450328       -12.2540
 199   2.0000      -0.449369       -12.2280
 200   2.0000      -0.447950       -12.1893
 201   2.0000      -0.443999       -12.0818
 202   2.0000      -0.442767       -12.0483
 203   2.0000      -0.438866       -11.9421
 204   2.0000      -0.437589       -11.9074
 205   2.0000      -0.437208       -11.8970
 206   2.0000      -0.435189       -11.8421
 207   2.0000      -0.434323       -11.8185
 208   2.0000      -0.433998       -11.8097
 209   2.0000      -0.429877       -11.6975
 210   2.0000      -0.427827       -11.6418
 211   2.0000      -0.425508       -11.5787
 212   2.0000      -0.422304       -11.4915
 213   2.0000      -0.419797       -11.4233
 214   2.0000      -0.416564       -11.3353
 215   2.0000      -0.412040       -11.2122
 216   2.0000      -0.410307       -11.1650
 217   2.0000      -0.399560       -10.8726
 218   2.0000      -0.391722       -10.6593
 219   2.0000      -0.388208       -10.5637
 220   2.0000      -0.386457       -10.5160
 221   2.0000      -0.381304       -10.3758
 222   2.0000      -0.377246       -10.2654
 223   2.0000      -0.373435       -10.1617
 224   2.0000      -0.370696       -10.0871
 225   2.0000      -0.355895        -9.6844
 226   2.0000      -0.349118        -9.5000
 227   2.0000      -0.339744        -9.2449
 228   2.0000      -0.335469        -9.1286
 229   2.0000      -0.326177        -8.8757
 230   2.0000      -0.320550        -8.7226
 231   2.0000      -0.319278        -8.6880
 232   2.0000      -0.313261        -8.5243
 233   2.0000      -0.304959        -8.2984
 234   2.0000      -0.304253        -8.2792
 235   2.0000      -0.291836        -7.9413
 236   2.0000      -0.256382        -6.9765
 237   2.0000      -0.246004        -6.6941
 238   0.0000      -0.108830        -2.9614
 239   0.0000      -0.102370        -2.7856
 240   0.0000      -0.068650        -1.8681
 241   0.0000      -0.055102        -1.4994
 242   0.0000      -0.052114        -1.4181

MULLIKEN ATOMIC CHARGES
-----------------------
   0 C :   -0.100406
   1 C :    0.302611
   2 F :   -0.193227
   3 C :   -0.029806
   4 C :   -0.010888
   5 C :    0.098936
   6 C :    0.102255
   7 C :   -0.090285
   8 C :    0.045369
   9 C :    0.008715
  10 C :   -0.083807
  11 C :    0.139857
  12 O :   -0.153406
  13 C :   -0.150199
  14 C :    0.256339
  15 C :   -0.339315
  16 C :   -0.221146
  17 N :    0.170337
  18 C :   -0.171625
  19 N :    0.137306
  20 C :    0.015007
  21 C :   -0.115689
  22 S :    0.165373
  23 C :   -0.053613
  24 C :    0.116581
  25 C :    0.167611
  26 C :   -0.110590
  27 C :    0.237460
  28 F :   -0.169135
  29 C :    0.223396
  30 F :   -0.175340
  31 C :   -0.108170
  32 C :   -0.012647
  33 C :    0.029865
  34 C :   -0.001220
  35 C :   -0.226878
  36 C :    0.076306
  37 C :    0.221652
  38 N :   -0.181907
  39 C :    0.061125
  40 C :    0.020795
  41 N :   -0.207667
  42 C :    0.219884
  43 O :   -0.162392
  44 C :   -0.034641
  45 C :   -0.001710
  46 C :    0.171699
  47 O :   -0.161257
  48 C :    0.034990
  49 C :   -0.107018
  50 C :    0.134982
  51 O :   -0.131964
  52 C :    0.007650
  53 C :   -0.073275
  54 C :    0.098895
  55 C :    0.102331
  56 C :   -0.094520
  57 C :    0.303182
  58 C :   -0.029022
  59 C :   -0.006506
  60 F :   -0.186758
  61 C :   -0.078407
  62 C :    0.039734
  63 C :    0.306666
  64 C :   -0.295496
  65 C :   -0.207051
  66 N :    0.161930
  67 C :   -0.181145
  68 N :    0.161959
  69 H :   -0.005042
  70 H :    0.001260
  71 H :   -0.010667
  72 H :   -0.008218
  73 H :   -0.013980
  74 H :    0.017138
  75 H :    0.003266
  76 H :   -0.004138
  77 H :   -0.006908
  78 H :    0.002572
  79 H :   -0.017698
  80 H :    0.052557
  81 H :    0.040909
  82 H :    0.017856
  83 H :    0.019030
  84 H :    0.037703
  85 H :    0.117480
  86 H :    0.031798
  87 H :    0.006207
  88 H :    0.015555
  89 H :    0.031513
  90 H :   -0.009041
  91 H :    0.000017
  92 H :    0.006914
  93 H :   -0.007595
  94 H :   -0.001164
Sum of atomic charges:   -0.0000000

LOEWDIN ATOMIC CHARGES
----------------------
   0 C :   -0.043967
   1 C :    0.091452
   2 F :   -0.067361
   3 C :   -0.039738
   4 C :    0.003764
   5 C :   -0.019996
   6 C :    0.002300
   7 C :    0.005607
   8 C :   -0.014851
   9 C :   -0.057076
  10 C :    0.030838
  11 C :    0.079890
  12 O :   -0.155874
  13 C :   -0.116902
  14 C :    0.061011
  15 C :   -0.160222
  16 C :   -0.040291
  17 N :   -0.057309
  18 C :   -0.020567
  19 N :   -0.065635
  20 C :    0.046203
  21 C :   -0.196774
  22 S :    0.520683
  23 C :   -0.121886
  24 C :   -0.053129
  25 C :   -0.008597
  26 C :   -0.039398
  27 C :    0.077011
  28 F :   -0.047003
  29 C :    0.058225
  30 F :   -0.053632
  31 C :   -0.028322
  32 C :   -0.055672
  33 C :    0.015647
  34 C :   -0.064860
  35 C :   -0.004930
  36 C :   -0.050087
  37 C :    0.040376
  38 N :   -0.029340
  39 C :    0.015114
  40 C :   -0.069370
  41 N :   -0.005521
  42 C :    0.093268
  43 O :   -0.137516
  44 C :    0.024748
  45 C :   -0.044013
  46 C :    0.092453
  47 O :   -0.149610
  48 C :    0.056473
  49 C :   -0.051286
  50 C :    0.085779
  51 O :   -0.132343
  52 C :   -0.062032
  53 C :    0.039101
  54 C :   -0.017642
  55 C :    0.005672
  56 C :   -0.040764
  57 C :    0.095254
  58 C :   -0.034228
  59 C :    0.006256
  60 F :   -0.061331
  61 C :    0.016347
  62 C :   -0.014193
  63 C :    0.076347
  64 C :   -0.116875
  65 C :   -0.016838
  66 N :   -0.046577
  67 C :   -0.015665
  68 N :   -0.042677
  69 H :    0.041915
  70 H :    0.040907
  71 H :    0.035064
  72 H :    0.037697
  73 H :    0.038766
  74 H :    0.047494
  75 H :    0.045218
  76 H :    0.042645
  77 H :    0.035043
  78 H :    0.022197
  79 H :    0.025730
  80 H :    0.047990
  81 H :    0.040188
  82 H :    0.032869
  83 H :    0.022878
  84 H :    0.043384
  85 H :    0.074020
  86 H :    0.029434
  87 H :    0.024681
  88 H :    0.044693
  89 H :    0.053589
  90 H :    0.040923
  91 H :    0.044212
  92 H :    0.043177
  93 H :    0.036576
  94 H :    0.040791

  Mayer bond orders larger than 0.100000
B(  0-C ,  1-C ) :   1.4399 B(  0-C ,  6-C ) :   1.2035 B(  0-C , 69-H ) :   1.0070
B(  1-C ,  2-F ) :   1.0857 B(  1-C ,  3-C ) :   1.2564 B(  3-C ,  4-C ) :   1.4582
B(  3-C , 70-H ) :   0.9929 B(  4-C ,  5-C ) :   1.2364 B(  4-C , 71-H ) :   0.9972
B(  5-C ,  6-C ) :   1.2614 B(  5-C , 10-C ) :   1.1852 B(  6-C ,  7-C ) :   1.1960
B(  7-C ,  8-C ) :   1.4684 B(  7-C , 72-H ) :   0.9952 B(  8-C ,  9-C ) :   1.2174
B(  8-C , 14-C ) :   0.9978 B(  9-C , 10-C ) :   1.4789 B(  9-C , 11-C ) :   0.9205
B( 10-C , 73-H ) :   1.0159 B( 11-C , 12-O ) :   2.2487 B( 11-C , 13-C ) :   0.9593
B( 13-C , 14-C ) :   1.0712 B( 13-C , 20-C ) :   1.5462 B( 14-C , 15-C ) :   1.6133
B( 15-C , 16-C ) :   1.1592 B( 15-C , 18-C ) :   1.1398 B( 16-C , 17-N ) :   3.0259
B( 18-C , 19-N ) :   2.9792 B( 20-C , 21-C ) :   1.2597 B( 20-C , 74-H ) :   0.9331
B( 21-C , 22-S ) :   1.0950 B( 21-C , 25-C ) :   1.2691 B( 22-S , 23-C ) :   1.2021
B( 23-C , 24-C ) :   1.2818 B( 23-C , 32-C ) :   1.1735 B( 24-C , 25-C ) :   1.2350
B( 24-C , 31-C ) :   1.1735 B( 25-C , 26-C ) :   1.1964 B( 26-C , 27-C ) :   1.4755
B( 26-C , 31-C ) :   0.1108 B( 26-C , 75-H ) :   0.9968 B( 27-C , 28-F ) :   1.1374
B( 27-C , 29-C ) :   1.1680 B( 29-C , 30-F ) :   1.1310 B( 29-C , 31-C ) :   1.4962
B( 31-C , 76-H ) :   0.9975 B( 32-C , 33-C ) :   1.6290 B( 32-C , 77-H ) :   0.9777
B( 33-C , 34-C ) :   1.1194 B( 33-C , 78-H ) :   0.9681 B( 34-C , 35-C ) :   1.7492
B( 34-C , 79-H ) :   0.9706 B( 35-C , 36-C ) :   1.0755 B( 35-C , 37-C ) :   1.0124
B( 36-C , 80-H ) :   0.9437 B( 36-C , 81-H ) :   0.9482 B( 36-C , 82-H ) :   0.9551
B( 37-C , 38-N ) :   1.0435 B( 37-C , 83-H ) :   0.9284 B( 37-C , 84-H ) :   0.9140
B( 38-N , 39-C ) :   1.1575 B( 38-N , 85-H ) :   0.9357 B( 39-C , 40-C ) :   1.7329
B( 39-C , 86-H ) :   0.9437 B( 40-C , 41-N ) :   0.9713 B( 40-C , 87-H ) :   0.9782
B( 41-N , 42-C ) :   1.0409 B( 41-N , 46-C ) :   1.0941 B( 42-C , 43-O ) :   2.1180
B( 42-C , 44-C ) :   0.9449 B( 44-C , 45-C ) :   1.6900 B( 44-C , 88-H ) :   1.0230
B( 45-C , 46-C ) :   0.8845 B( 45-C , 48-C ) :   1.0393 B( 46-C , 47-O ) :   2.1483
B( 48-C , 49-C ) :   1.7611 B( 48-C , 89-H ) :   0.9470 B( 49-C , 50-C ) :   0.9205
B( 49-C , 63-C ) :   0.9985 B( 50-C , 51-O ) :   2.2799 B( 50-C , 52-C ) :   0.9277
B( 52-C , 53-C ) :   1.4625 B( 52-C , 62-C ) :   1.2143 B( 53-C , 54-C ) :   1.2002
B( 53-C , 90-H ) :   1.0143 B( 54-C , 55-C ) :   1.2524 B( 54-C , 59-C ) :   1.2309
B( 55-C , 56-C ) :   1.2019 B( 55-C , 61-C ) :   1.2091 B( 56-C , 57-C ) :   1.4413
B( 56-C , 91-H ) :   1.0061 B( 57-C , 58-C ) :   1.2533 B( 57-C , 60-F ) :   1.0926
B( 58-C , 59-C ) :   1.4652 B( 58-C , 92-H ) :   0.9923 B( 59-C , 93-H ) :   0.9968
B( 61-C , 62-C ) :   1.4584 B( 61-C , 94-H ) :   0.9935 B( 62-C , 63-C ) :   1.0063
B( 63-C , 64-C ) :   1.6847 B( 64-C , 65-C ) :   1.1526 B( 64-C , 67-C ) :   1.1385
B( 65-C , 66-N ) :   3.0004 B( 67-C , 68-N ) :   2.9878

-----------------------------------------------------------------------------
         ABSORPTION SPECTRUM VIA TRANSITION ELECTRIC DIPOLE MOMENTS
-----------------------------------------------------------------------------
State   Energy  Wavelength   fosc         T2         TX        TY        TZ
        (cm-1)    (nm)                  (au**2)     (au)      (au)      (au)
-----------------------------------------------------------------------------
   0   13474.6    742.1   0.022011027   0.53777  -0.62925   0.17257  -0.33473
   1   14865.1    672.7   0.562565541  12.45892  -3.25090   0.08096  -1.37260
   2   20683.0    483.5   0.008259823   0.13147  -0.09457  -0.19996   0.28731
   3   21460.8    466.0   0.000026501   0.00041  -0.00814   0.01655  -0.00815
   4   23222.5    430.6   0.011092456   0.15725  -0.00969  -0.01178  -0.39626
   5   24195.4    413.3   0.061365944   0.83497   0.62567   0.33004  -0.57843
   6   25062.4    399.0   0.021362505   0.28061   0.21210   0.48402   0.03671
   7   25991.3    384.7   0.184639065   2.33868  -1.22275  -0.91649   0.06015
   8   26663.8    375.0   0.018892497   0.23326   0.32786   0.35151   0.04707
   9   27020.2    370.1   0.195369717   2.38037  -1.18408  -0.97188   0.18379
  10   27728.2    360.6   0.006229267   0.07396  -0.03697   0.08430   0.25590
  11   28434.7    351.7   0.017110069   0.19810   0.38927   0.19944   0.08240
  12   28969.1    345.2   0.069892689   0.79428  -0.28918  -0.33147  -0.77510
  13   29119.4    343.4   0.158684926   1.79402  -0.78318  -0.56722   0.92677
  14   29227.9    342.1   0.005460912   0.06151   0.01116  -0.16573   0.18417
  15   29443.6    339.6   0.057534920   0.64330  -0.48382  -0.37256  -0.52002
  16   29641.0    337.4   0.411205931   4.56712   0.02826  -0.34986   2.10806
  17   30485.8    328.0   0.001771315   0.01913   0.08914   0.06792   0.08105
  18   31424.6    318.2   0.258883973   2.71213  -0.10685   0.03362  -1.64304
  19   32485.4    307.8   0.182282036   1.84727  -0.67453  -0.69104  -0.95642
  20   33152.7    301.6   0.000681245   0.00676   0.02044   0.02374  -0.07605
  21   33359.0    299.8   1.060221371  10.46306   0.71593   1.36181   2.84535
  22   33463.0    298.8   0.061426312   0.60432  -0.10558  -0.24404  -0.73049
  23   33494.9    298.6   0.006730973   0.06616  -0.13312  -0.21725   0.03515
  24   33624.7    297.4   0.077794825   0.76167   0.53509   0.61001   0.32131
  25   34042.7    293.7   0.611269132   5.91131   0.88829   0.32385   2.23995
  26   34671.5    288.4   0.000649245   0.00616   0.03347   0.00611   0.07076
  27   34868.8    286.8   0.016024961   0.15130  -0.31596  -0.12466   0.18954
  28   35055.1    285.3   0.379859394   3.56736  -1.02399  -0.49228   1.50879
  29   35226.7    283.9   0.004256246   0.03978   0.09936   0.15015   0.08578
  30   35507.8    281.6   0.123453516   1.14461  -0.64810  -0.84425   0.10875
  31   36242.0    275.9   0.272917741   2.47910  -0.09294  -0.40445   1.51884
  32   36808.3    271.7   0.002078975   0.01859  -0.00248  -0.01941  -0.13495
  33   36974.1    270.5   0.213085009   1.89728   0.63733   1.02128   0.66938
  34   37136.2    269.3   0.000104600   0.00093  -0.00695  -0.00763  -0.02865
  35   37918.8    263.7   0.123882623   1.07555  -0.90979  -0.36064   0.34318
  36   38210.2    261.7   0.000113618   0.00098   0.02154   0.02216  -0.00488
  37   38304.9    261.1   0.046340234   0.39827   0.38761   0.42317  -0.26260
  38   38379.0    260.6   0.004758510   0.04082  -0.02448  -0.03567   0.19735
  39   38675.0    258.6   0.173457304   1.47651  -0.80907  -0.53065  -0.73507
  40   38962.7    256.7   0.285110936   2.40902  -1.00667  -1.14780   0.27961
  41   39261.8    254.7   0.012025528   0.10083   0.04463   0.21539   0.22902
  42   39949.2    250.3   0.100308501   0.82662  -0.03675   0.15977  -0.89428
  43   40033.9    249.8   0.003019862   0.02483   0.00926   0.03388  -0.15362

FINAL SINGLE POINT ENERGY     -3496.330764472813

DIPOLE MOMENT
-------------
                                X             Y             Z
Electronic contribution:    -15.32832      -7.88307      30.49480
Nuclear contribution   :     17.91403       8.27505     -30.86328
                        -----------------------------------------
Total Dipole Moment    :      2.58571       0.39198      -0.36848
                        -----------------------------------------
Magnitude (a.u.)       :      2.64108
Magnitude (Debye)      :      6.71310

Rotational constants in cm-1:     0.001708     0.000263     0.000236
Rotational constants in MHz :    51.201152     7.888898     7.075244

                             ****ORCA TERMINATED NORMALLY****
TOTAL RUN TIME: 0 days 0 hours 8 minutes 52 seconds 415 msec
