                         Program Version 4.2.0 -  RELEASE  -
|  1> # ORCA input file
|  2> # SCF done       -169.289761880797          0.000488979143
|  3> ! CAM-B3LYP def2-SVP def2/J RIJCOSX Grid4 TightSCF
|  4> %maxcore 5000
|  5> %tddft
|  6>     Mode sTDDFT
|  7>     Ethresh 5.0
|  8>     maxcore 5000
|  9> end
| 10>
| 11> %pal
| 12>   nprocs 6
| 13>   end
| 14> * xyz 0 1
| 15>    C        3.78766         6.44694        -6.86254
| 16>    C        2.45557         6.68949        -7.04935
| 17>    F        1.97242         6.80690        -8.29931
| 18>    C        1.55792         6.82250        -5.98053
| 19>    C        2.02920         6.70516        -4.70302
| 20>    C        3.39428         6.45396        -4.45192
| 21>    C        4.29182         6.32442        -5.55263
| 22>    C        5.66593         6.08103        -5.32634
| 23>    C        6.12579         5.96809        -4.04134
| 24>    C        5.22060         6.08068        -2.94555
| 25>    C        3.88971         6.32276        -3.13627
| 26>    C        5.95047         5.87557        -1.68093
| 27>    O        5.52748         5.95716        -0.55326
| 28>    C        7.33106         5.46899        -2.09508
| 29>    C        7.47005         5.75830        -3.51530
| 30>    C        8.63565         6.01270        -4.17506
| 31>    C        9.90023         6.06781        -3.54568
| 32>    N       10.93841         6.23780        -3.08722
| 33>    C        8.70151         6.35529        -5.54200
| 34>    N        8.80210         6.61993        -6.65414
| 35>    C        8.11424         4.79241        -1.23383
| 36>    C        9.29664         4.00112        -1.52463
| 37>    N        9.54333         3.66115        -2.79220
| 38>    C       10.59571         2.88585        -3.00380
| 39>    C       11.41547         2.45301        -1.98146
| 40>    C       11.07978         2.85637        -0.67566
| 41>    N       10.00129         3.62118        -0.47194
| 42>    C       11.85622         2.44256         0.45977
| 43>    C       11.54521         2.85770         1.71297
| 44>    C       12.14416         2.54451         2.95109
| 45>    S       11.34772         3.16556         4.36691
| 46>    C       12.42480         2.37579         5.47374
| 47>    C       13.43809         1.69843         4.75194
| 48>    C       13.27097         1.78813         3.33241
| 49>    C       14.21562         1.17304         2.49041
| 50>    C       15.27527         0.50567         3.03709
| 51>    F       16.17637        -0.08398         2.23188
| 52>    C       15.45546         0.44817         4.43085
| 53>    F       16.53195        -0.18411         4.93189
| 54>    C       14.56227         1.04254         5.27919
| 55>    C       12.15074         2.48660         6.84389
| 56>    C       12.64556         1.70598         7.86045
| 57>    C       12.32922         1.89009         9.20453
| 58>    C       12.79526         1.06950        10.21359
| 59>    C       12.54179         1.17449        11.59697
| 60>    C       13.14302         0.20754        12.35329
| 61>    C       13.90093        -0.71176        11.60355
| 62>    S       13.83335        -0.30967         9.90356
| 63>    C       14.62229        -1.80754        12.04925
| 64>    C       14.78252        -2.27614        13.36958
| 65>    C       15.55760        -3.39391        13.46485
| 66>    C       16.05056        -3.86896        12.22578
| 67>    S       15.49040        -2.83154        10.92819
| 68>    C       16.84680        -4.97247        12.03808
| 69>    C       17.34339        -5.46421        10.82759
| 70>    S       17.04099        -4.74826         9.25625
| 71>    C       17.98961        -5.93485         8.40614
| 72>    C       18.13785        -5.89916         6.92679
| 73>    C       18.40004        -4.48766         6.40686
| 74>    C       18.50276        -6.83011         9.29968
| 75>    C       18.15342        -6.58662        10.66293
| 76>    N       18.66591        -7.47483        11.54944
| 77>    C       19.36872        -8.36204        10.95882
| 78>    S       19.51277        -8.24314         9.20744
| 79>    H        4.44996         6.35384        -7.70897
| 80>    H        0.51740         7.01385        -6.18979
| 81>    H        1.35759         6.80345        -3.86346
| 82>    H        6.32267         5.97886        -6.17580
| 83>    H        3.22234         6.41072        -2.29199
| 84>    H        7.79160         4.75358        -0.19999
| 85>    H       10.77678         2.61473        -4.03639
| 86>    H       12.27534         1.83134        -2.17105
| 87>    H       12.67652         1.77778         0.24648
| 88>    H       10.68584         3.51494         1.77946
| 89>    H       14.13907         1.23085         1.42006
| 90>    H       14.76145         1.01887         6.33608
| 91>    H       11.41772         3.23977         7.10767
| 92>    H       13.28357         0.86571         7.63063
| 93>    H       11.69148         2.71683         9.48748
| 94>    H       11.92374         1.95938        11.99604
| 95>    H       13.05720         0.13616        13.42273
| 96>    H       14.32631        -1.78227        14.20858
| 97>    H       15.79217        -3.89591        14.38679
| 98>    H       17.13370        -5.54047        12.91355
| 99>    H       17.22232        -6.28509         6.46518
|100>    H       18.95715        -6.56748         6.64896
|101>    H       17.57396        -3.82893         6.66489
|102>    H       18.50762        -4.50010         5.32574
|103>    H       19.31135        -4.08436         6.84203
|104>    H       19.86647        -9.16093        11.47216
|105> *
|106>
|107>                          ****END OF INPUT****

CARTESIAN COORDINATES (ANGSTROEM)
---------------------------------
  C      3.787660    6.446940   -6.862540
  C      2.455570    6.689490   -7.049350
  F      1.972420    6.806900   -8.299310
  C      1.557920    6.822500   -5.980530
  C      2.029200    6.705160   -4.703020
  C      3.394280    6.453960   -4.451920
  C      4.291820    6.324420   -5.552630
  C      5.665930    6.081030   -5.326340
  C      6.125790    5.968090   -4.041340
  C      5.220600    6.080680   -2.945550
  C      3.889710    6.322760   -3.136270
  C      5.950470    5.875570   -1.680930
  O      5.527480    5.957160   -0.553260
  C      7.331060    5.468990   -2.095080
  C      7.470050    5.758300   -3.515300
  C      8.635650    6.012700   -4.175060
  C      9.900230    6.067810   -3.545680
  N     10.938410    6.237800   -3.087220
  C      8.701510    6.355290   -5.542000
  N      8.802100    6.619930   -6.654140
  C      8.114240    4.792410   -1.233830
  C      9.296640    4.001120   -1.524630
  N      9.543330    3.661150   -2.792200
  C     10.595710    2.885850   -3.003800
  C     11.415470    2.453010   -1.981460
  C     11.079780    2.856370   -0.675660
  N     10.001290    3.621180   -0.471940
  C     11.856220    2.442560    0.459770
  C     11.545210    2.857700    1.712970
  C     12.144160    2.544510    2.951090
  S     11.347720    3.165560    4.366910
  C     12.424800    2.375790    5.473740
  C     13.438090    1.698430    4.751940
  C     13.270970    1.788130    3.332410
  C     14.215620    1.173040    2.490410
  C     15.275270    0.505670    3.037090
  F     16.176370   -0.083980    2.231880
  C     15.455460    0.448170    4.430850
  F     16.531950   -0.184110    4.931890
  C     14.562270    1.042540    5.279190
  C     12.150740    2.486600    6.843890
  C     12.645560    1.705980    7.860450
  C     12.329220    1.890090    9.204530
  C     12.795260    1.069500   10.213590
  C     12.541790    1.174490   11.596970
  C     13.143020    0.207540   12.353290
  C     13.900930   -0.711760   11.603550
  S     13.833350   -0.309670    9.903560
  C     14.622290   -1.807540   12.049250
  C     14.782520   -2.276140   13.369580
  C     15.557600   -3.393910   13.464850
  C     16.050560   -3.868960   12.225780
  S     15.490400   -2.831540   10.928190
  C     16.846800   -4.972470   12.038080
  C     17.343390   -5.464210   10.827590
  S     17.040990   -4.748260    9.256250
  C     17.989610   -5.934850    8.406140
  C     18.137850   -5.899160    6.926790
  C     18.400040   -4.487660    6.406860
  C     18.502760   -6.830110    9.299680
  C     18.153420   -6.586620   10.662930
  N     18.665910   -7.474830   11.549440
  C     19.368720   -8.362040   10.958820
  S     19.512770   -8.243140    9.207440
  H      4.449960    6.353840   -7.708970
  H      0.517400    7.013850   -6.189790
  H      1.357590    6.803450   -3.863460
  H      6.322670    5.978860   -6.175800
  H      3.222340    6.410720   -2.291990
  H      7.791600    4.753580   -0.199990
  H     10.776780    2.614730   -4.036390
  H     12.275340    1.831340   -2.171050
  H     12.676520    1.777780    0.246480
  H     10.685840    3.514940    1.779460
  H     14.139070    1.230850    1.420060
  H     14.761450    1.018870    6.336080
  H     11.417720    3.239770    7.107670
  H     13.283570    0.865710    7.630630
  H     11.691480    2.716830    9.487480
  H     11.923740    1.959380   11.996040
  H     13.057200    0.136160   13.422730
  H     14.326310   -1.782270   14.208580
  H     15.792170   -3.895910   14.386790
  H     17.133700   -5.540470   12.913550
  H     17.222320   -6.285090    6.465180
  H     18.957150   -6.567480    6.648960
  H     17.573960   -3.828930    6.664890
  H     18.507620   -4.500100    5.325740
  H     19.311350   -4.084360    6.842030
  H     19.866470   -9.160930   11.472160

 Total Charge           Charge          ....    0
 Multiplicity           Mult            ....    1
 Number of Electrons    NEL             ....  476
 Basis Dimension        Dim             .... 1046

ORBITAL ENERGIES
----------------

  NO   OCC          E(Eh)            E(eV)
   0   2.0000     -88.966449     -2420.9002
   1   2.0000     -88.960981     -2420.7514
   2   2.0000     -88.957477     -2420.6560
   3   2.0000     -88.947948     -2420.3967
   4   2.0000     -88.946056     -2420.3452
   5   2.0000     -24.787248      -674.4953
   6   2.0000     -24.785034      -674.4350
   7   2.0000     -24.783493      -674.3931
   8   2.0000     -19.212747      -522.8054
   9   2.0000     -14.415326      -392.2610
  10   2.0000     -14.412391      -392.1811
  11   2.0000     -14.407370      -392.0445
  12   2.0000     -14.406830      -392.0298
  13   2.0000     -14.404190      -391.9579
  14   2.0000     -10.368409      -282.1388
  15   2.0000     -10.367034      -282.1013
  16   2.0000     -10.365467      -282.0587
  17   2.0000     -10.363610      -282.0082
  18   2.0000     -10.344378      -281.4848
  19   2.0000     -10.338809      -281.3333
  20   2.0000     -10.337891      -281.3083
  21   2.0000     -10.332512      -281.1619
  22   2.0000     -10.325083      -280.9598
  23   2.0000     -10.317631      -280.7570
  24   2.0000     -10.314994      -280.6853
  25   2.0000     -10.314068      -280.6601
  26   2.0000     -10.314036      -280.6592
  27   2.0000     -10.309735      -280.5422
  28   2.0000     -10.309689      -280.5409
  29   2.0000     -10.308268      -280.5022
  30   2.0000     -10.307011      -280.4680
  31   2.0000     -10.306216      -280.4464
  32   2.0000     -10.305235      -280.4197
  33   2.0000     -10.304174      -280.3908
  34   2.0000     -10.303931      -280.3842
  35   2.0000     -10.303457      -280.3713
  36   2.0000     -10.302661      -280.3497
  37   2.0000     -10.301960      -280.3306
  38   2.0000     -10.298371      -280.2329
  39   2.0000     -10.298184      -280.2278
  40   2.0000     -10.297506      -280.2094
  41   2.0000     -10.297046      -280.1969
  42   2.0000     -10.296080      -280.1706
  43   2.0000     -10.295298      -280.1493
  44   2.0000     -10.294090      -280.1164
  45   2.0000     -10.294075      -280.1160
  46   2.0000     -10.291872      -280.0561
  47   2.0000     -10.290243      -280.0117
  48   2.0000     -10.289539      -279.9926
  49   2.0000     -10.289310      -279.9863
  50   2.0000     -10.288199      -279.9561
  51   2.0000     -10.288086      -279.9531
  52   2.0000     -10.287525      -279.9378
  53   2.0000     -10.287113      -279.9266
  54   2.0000     -10.286130      -279.8998
  55   2.0000     -10.286116      -279.8995
  56   2.0000     -10.284895      -279.8662
  57   2.0000     -10.284094      -279.8444
  58   2.0000     -10.283911      -279.8394
  59   2.0000     -10.283442      -279.8267
  60   2.0000     -10.281913      -279.7851
  61   2.0000     -10.277814      -279.6735
  62   2.0000     -10.269832      -279.4563
  63   2.0000     -10.262169      -279.2478
  64   2.0000      -8.061850      -219.3741
  65   2.0000      -8.055570      -219.2032
  66   2.0000      -8.053733      -219.1532
  67   2.0000      -8.044082      -218.8906
  68   2.0000      -8.042399      -218.8448
  69   2.0000      -6.030709      -164.1039
  70   2.0000      -6.026751      -163.9962
  71   2.0000      -6.024911      -163.9462
  72   2.0000      -6.024700      -163.9404
  73   2.0000      -6.023282      -163.9018
  74   2.0000      -6.020726      -163.8323
  75   2.0000      -6.019283      -163.7930
  76   2.0000      -6.017748      -163.7513
  77   2.0000      -6.015007      -163.6767
  78   2.0000      -6.013857      -163.6454
  79   2.0000      -6.012078      -163.5970
  80   2.0000      -6.009678      -163.5316
  81   2.0000      -6.008108      -163.4889
  82   2.0000      -6.005043      -163.4055
  83   2.0000      -6.003365      -163.3599
  84   2.0000      -1.307303       -35.5735
  85   2.0000      -1.298431       -35.3321
  86   2.0000      -1.292499       -35.1707
  87   2.0000      -1.128253       -30.7013
  88   2.0000      -1.081742       -29.4357
  89   2.0000      -1.067652       -29.0523
  90   2.0000      -1.012758       -27.5586
  91   2.0000      -1.002515       -27.2798
  92   2.0000      -0.997702       -27.1488
  93   2.0000      -0.996209       -27.1082
  94   2.0000      -0.988028       -26.8856
  95   2.0000      -0.980329       -26.6761
  96   2.0000      -0.977728       -26.6053
  97   2.0000      -0.971896       -26.4466
  98   2.0000      -0.970736       -26.4151
  99   2.0000      -0.943961       -25.6865
 100   2.0000      -0.925483       -25.1837
 101   2.0000      -0.918371       -24.9901
 102   2.0000      -0.911103       -24.7924
 103   2.0000      -0.907560       -24.6960
 104   2.0000      -0.893633       -24.3170
 105   2.0000      -0.887700       -24.1556
 106   2.0000      -0.881543       -23.9880
 107   2.0000      -0.877450       -23.8766
 108   2.0000      -0.869625       -23.6637
 109   2.0000      -0.859698       -23.3936
 110   2.0000      -0.849641       -23.1199
 111   2.0000      -0.847794       -23.0696
 112   2.0000      -0.843852       -22.9624
 113   2.0000      -0.834611       -22.7109
 114   2.0000      -0.831068       -22.6145
 115   2.0000      -0.825682       -22.4679
 116   2.0000      -0.816826       -22.2270
 117   2.0000      -0.813026       -22.1236
 118   2.0000      -0.797308       -21.6959
 119   2.0000      -0.793008       -21.5788
 120   2.0000      -0.770894       -20.9771
 121   2.0000      -0.759516       -20.6675
 122   2.0000      -0.750885       -20.4326
 123   2.0000      -0.740781       -20.1577
 124   2.0000      -0.735587       -20.0163
 125   2.0000      -0.734081       -19.9754
 126   2.0000      -0.716973       -19.5098
 127   2.0000      -0.713468       -19.4145
 128   2.0000      -0.706039       -19.2123
 129   2.0000      -0.702039       -19.1035
 130   2.0000      -0.699548       -19.0357
 131   2.0000      -0.689685       -18.7673
 132   2.0000      -0.680247       -18.5105
 133   2.0000      -0.674644       -18.3580
 134   2.0000      -0.671757       -18.2794
 135   2.0000      -0.666407       -18.1339
 136   2.0000      -0.647930       -17.6311
 137   2.0000      -0.645384       -17.5618
 138   2.0000      -0.637051       -17.3350
 139   2.0000      -0.636471       -17.3193
 140   2.0000      -0.628688       -17.1075
 141   2.0000      -0.627519       -17.0757
 142   2.0000      -0.624134       -16.9836
 143   2.0000      -0.621798       -16.9200
 144   2.0000      -0.618011       -16.8169
 145   2.0000      -0.612516       -16.6674
 146   2.0000      -0.608583       -16.5604
 147   2.0000      -0.601214       -16.3599
 148   2.0000      -0.597592       -16.2613
 149   2.0000      -0.592311       -16.1176
 150   2.0000      -0.588962       -16.0265
 151   2.0000      -0.580320       -15.7913
 152   2.0000      -0.572823       -15.5873
 153   2.0000      -0.566255       -15.4086
 154   2.0000      -0.564340       -15.3565
 155   2.0000      -0.560317       -15.2470
 156   2.0000      -0.557370       -15.1668
 157   2.0000      -0.555926       -15.1275
 158   2.0000      -0.549638       -14.9564
 159   2.0000      -0.547966       -14.9109
 160   2.0000      -0.546934       -14.8828
 161   2.0000      -0.543466       -14.7885
 162   2.0000      -0.541734       -14.7413
 163   2.0000      -0.540271       -14.7015
 164   2.0000      -0.535001       -14.5581
 165   2.0000      -0.533307       -14.5120
 166   2.0000      -0.530464       -14.4347
 167   2.0000      -0.528109       -14.3706
 168   2.0000      -0.526181       -14.3181
 169   2.0000      -0.524791       -14.2803
 170   2.0000      -0.522299       -14.2125
 171   2.0000      -0.520631       -14.1671
 172   2.0000      -0.517924       -14.0934
 173   2.0000      -0.516039       -14.0421
 174   2.0000      -0.510799       -13.8995
 175   2.0000      -0.506033       -13.7699
 176   2.0000      -0.502552       -13.6751
 177   2.0000      -0.499793       -13.6001
 178   2.0000      -0.497940       -13.5496
 179   2.0000      -0.495443       -13.4817
 180   2.0000      -0.491900       -13.3853
 181   2.0000      -0.490436       -13.3454
 182   2.0000      -0.488154       -13.2833
 183   2.0000      -0.486930       -13.2500
 184   2.0000      -0.482434       -13.1277
 185   2.0000      -0.479133       -13.0379
 186   2.0000      -0.477895       -13.0042
 187   2.0000      -0.477684       -12.9984
 188   2.0000      -0.469969       -12.7885
 189   2.0000      -0.469054       -12.7636
 190   2.0000      -0.463670       -12.6171
 191   2.0000      -0.462214       -12.5775
 192   2.0000      -0.459571       -12.5056
 193   2.0000      -0.459479       -12.5030
 194   2.0000      -0.454096       -12.3566
 195   2.0000      -0.445422       -12.1206
 196   2.0000      -0.445011       -12.1094
 197   2.0000      -0.442797       -12.0491
 198   2.0000      -0.442266       -12.0347
 199   2.0000      -0.437037       -11.8924
 200   2.0000      -0.436477       -11.8771
 201   2.0000      -0.435057       -11.8385
 202   2.0000      -0.433659       -11.8005
 203   2.0000      -0.431107       -11.7310
 204   2.0000      -0.429415       -11.6850
 205   2.0000      -0.426685       -11.6107
 206   2.0000      -0.423823       -11.5328
 207   2.0000      -0.422953       -11.5091
 208   2.0000      -0.422236       -11.4896
 209   2.0000      -0.421473       -11.4689
 210   2.0000      -0.418363       -11.3842
 211   2.0000      -0.415019       -11.2933
 212   2.0000      -0.409119       -11.1327
 213   2.0000      -0.407671       -11.0933
 214   2.0000      -0.399807       -10.8793
 215   2.0000      -0.394301       -10.7295
 216   2.0000      -0.387760       -10.5515
 217   2.0000      -0.385863       -10.4999
 218   2.0000      -0.380140       -10.3441
 219   2.0000      -0.378229       -10.2921
 220   2.0000      -0.375256       -10.2112
 221   2.0000      -0.368441       -10.0258
 222   2.0000      -0.356053        -9.6887
 223   2.0000      -0.351178        -9.5560
 224   2.0000      -0.339057        -9.2262
 225   2.0000      -0.336507        -9.1568
 226   2.0000      -0.330259        -8.9868
 227   2.0000      -0.327354        -8.9078
 228   2.0000      -0.325019        -8.8442
 229   2.0000      -0.321965        -8.7611
 230   2.0000      -0.314918        -8.5694
 231   2.0000      -0.313396        -8.5279
 232   2.0000      -0.306951        -8.3526
 233   2.0000      -0.305546        -8.3143
 234   2.0000      -0.292048        -7.9470
 235   2.0000      -0.279049        -7.5933
 236   2.0000      -0.244407        -6.6507
 237   2.0000      -0.199522        -5.4293
 238   0.0000      -0.095414        -2.5964
 239   0.0000      -0.085746        -2.3333
 240   0.0000      -0.056160        -1.5282
 241   0.0000      -0.049578        -1.3491
 242   0.0000      -0.021494        -0.5849

MULLIKEN ATOMIC CHARGES
-----------------------
   0 C :   -0.097717
   1 C :    0.302350
   2 F :   -0.190806
   3 C :   -0.031683
   4 C :   -0.009081
   5 C :    0.098756
   6 C :    0.102884
   7 C :   -0.084018
   8 C :    0.047057
   9 C :    0.001236
  10 C :   -0.076222
  11 C :    0.138679
  12 O :   -0.135524
  13 C :   -0.085010
  14 C :    0.278966
  15 C :   -0.283165
  16 C :   -0.185013
  17 N :    0.158831
  18 C :   -0.193386
  19 N :    0.155736
  20 C :    0.077014
  21 C :   -0.063330
  22 N :   -0.119041
  23 C :    0.107584
  24 C :   -0.036509
  25 C :    0.062001
  26 N :   -0.054313
  27 C :   -0.051630
  28 C :    0.106070
  29 C :   -0.132614
  30 S :    0.170941
  31 C :   -0.104483
  32 C :    0.119906
  33 C :    0.143221
  34 C :   -0.125188
  35 C :    0.229558
  36 F :   -0.178428
  37 C :    0.219325
  38 F :   -0.182740
  39 C :   -0.126914
  40 C :    0.028022
  41 C :   -0.009840
  42 C :   -0.015629
  43 C :   -0.015182
  44 C :    0.030101
  45 C :    0.027277
  46 C :   -0.046984
  47 S :    0.062237
  48 C :   -0.028216
  49 C :    0.023326
  50 C :    0.040714
  51 C :   -0.032926
  52 S :    0.063667
  53 C :   -0.012048
  54 C :   -0.144690
  55 S :    0.113594
  56 C :   -0.289115
  57 C :    0.088816
  58 C :   -0.025530
  59 C :    0.014440
  60 C :    0.067861
  61 N :   -0.048745
  62 C :    0.012913
  63 S :    0.080815
  64 H :   -0.001425
  65 H :    0.003861
  66 H :   -0.008608
  67 H :   -0.003920
  68 H :   -0.010797
  69 H :    0.019889
  70 H :    0.005711
  71 H :   -0.004606
  72 H :   -0.038974
  73 H :    0.003659
  74 H :   -0.021286
  75 H :   -0.007423
  76 H :   -0.015625
  77 H :    0.009143
  78 H :   -0.016548
  79 H :   -0.012761
  80 H :   -0.011116
  81 H :   -0.015099
  82 H :   -0.009428
  83 H :    0.002752
  84 H :    0.034186
  85 H :    0.012320
  86 H :    0.033280
  87 H :    0.023938
  88 H :    0.027713
  89 H :    0.042991
Sum of atomic charges:   -0.0000000

LOEWDIN ATOMIC CHARGES
----------------------
   0 C :   -0.042746
   1 C :    0.093290
   2 F :   -0.064975
   3 C :   -0.038057
   4 C :    0.004860
   5 C :   -0.019324
   6 C :    0.004734
   7 C :    0.009611
   8 C :   -0.013814
   9 C :   -0.061418
  10 C :    0.035426
  11 C :    0.085597
  12 O :   -0.134989
  13 C :   -0.058285
  14 C :    0.069785
  15 C :   -0.108953
  16 C :   -0.017635
  17 N :   -0.053355
  18 C :   -0.016359
  19 N :   -0.050232
  20 C :    0.060963
  21 C :    0.017196
  22 N :   -0.088097
  23 C :    0.057801
  24 C :   -0.054019
  25 C :    0.045129
  26 N :   -0.079677
  27 C :   -0.073501
  28 C :    0.002926
  29 C :   -0.193889
  30 S :    0.490890
  31 C :   -0.157644
  32 C :   -0.049094
  33 C :   -0.032113
  34 C :   -0.042101
  35 C :    0.066385
  36 F :   -0.058092
  37 C :    0.056755
  38 F :   -0.060721
  39 C :   -0.034920
  40 C :   -0.058557
  41 C :   -0.023505
  42 C :   -0.066367
  43 C :   -0.136632
  44 C :   -0.042439
  45 C :   -0.026317
  46 C :   -0.186492
  47 S :    0.372293
  48 C :   -0.168262
  49 C :   -0.044027
  50 C :   -0.022719
  51 C :   -0.163104
  52 S :    0.371298
  53 C :   -0.046790
  54 C :   -0.188785
  55 S :    0.443628
  56 C :   -0.186417
  57 C :   -0.042462
  58 C :   -0.054566
  59 C :   -0.216649
  60 C :   -0.063405
  61 N :   -0.087189
  62 C :   -0.095476
  63 S :    0.358462
  64 H :    0.043246
  65 H :    0.041756
  66 H :    0.035693
  67 H :    0.039178
  68 H :    0.039668
  69 H :    0.049378
  70 H :    0.027463
  71 H :    0.034081
  72 H :    0.021300
  73 H :    0.033926
  74 H :    0.038267
  75 H :    0.040710
  76 H :    0.029209
  77 H :    0.020349
  78 H :    0.032327
  79 H :    0.033371
  80 H :    0.032693
  81 H :    0.031466
  82 H :    0.035022
  83 H :    0.047147
  84 H :    0.038507
  85 H :    0.032717
  86 H :    0.022866
  87 H :    0.028820
  88 H :    0.028319
  89 H :    0.019663

  Mayer bond orders larger than 0.100000
B(  0-C ,  1-C ) :   1.4439 B(  0-C ,  6-C ) :   1.2007 B(  0-C , 64-H ) :   1.0067
B(  1-C ,  2-F ) :   1.0883 B(  1-C ,  3-C ) :   1.2512 B(  3-C ,  4-C ) :   1.4649
B(  3-C , 65-H ) :   0.9928 B(  4-C ,  5-C ) :   1.2316 B(  4-C , 66-H ) :   0.9969
B(  5-C ,  6-C ) :   1.2519 B(  5-C , 10-C ) :   1.2005 B(  6-C ,  7-C ) :   1.2086
B(  7-C ,  8-C ) :   1.4596 B(  7-C , 67-H ) :   0.9945 B(  8-C ,  9-C ) :   1.2148
B(  8-C , 14-C ) :   1.0012 B(  9-C , 10-C ) :   1.4666 B(  9-C , 11-C ) :   0.9203
B( 10-C , 68-H ) :   1.0145 B( 11-C , 12-O ) :   2.2833 B( 11-C , 13-C ) :   0.9206
B( 13-C , 14-C ) :   0.9990 B( 13-C , 20-C ) :   1.7099 B( 14-C , 15-C ) :   1.7145
B( 15-C , 16-C ) :   1.1445 B( 15-C , 18-C ) :   1.1399 B( 16-C , 17-N ) :   2.9867
B( 18-C , 19-N ) :   2.9868 B( 20-C , 21-C ) :   0.9984 B( 20-C , 69-H ) :   0.9535
B( 21-C , 22-N ) :   1.4763 B( 21-C , 26-N ) :   1.5499 B( 22-N , 23-C ) :   1.5007
B( 23-C , 24-C ) :   1.3954 B( 23-C , 70-H ) :   0.9784 B( 24-C , 25-C ) :   1.3025
B( 24-C , 71-H ) :   0.9746 B( 25-C , 26-N ) :   1.4815 B( 25-C , 27-C ) :   1.1225
B( 27-C , 28-C ) :   1.6301 B( 27-C , 72-H ) :   0.9736 B( 28-C , 29-C ) :   1.1676
B( 28-C , 73-H ) :   0.9375 B( 29-C , 30-S ) :   1.1371 B( 29-C , 31-C ) :   0.1007
B( 29-C , 33-C ) :   1.3121 B( 30-S , 31-C ) :   1.1732 B( 31-C , 32-C ) :   1.2851
B( 31-C , 40-C ) :   1.1931 B( 32-C , 33-C ) :   1.2324 B( 32-C , 39-C ) :   1.1795
B( 33-C , 34-C ) :   1.1720 B( 34-C , 35-C ) :   1.4855 B( 34-C , 39-C ) :   0.1106
B( 34-C , 74-H ) :   1.0047 B( 35-C , 36-F ) :   1.1385 B( 35-C , 37-C ) :   1.1724
B( 37-C , 38-F ) :   1.1246 B( 37-C , 39-C ) :   1.4821 B( 39-C , 75-H ) :   0.9955
B( 40-C , 41-C ) :   1.5639 B( 40-C , 76-H ) :   0.9569 B( 41-C , 42-C ) :   1.2167
B( 41-C , 77-H ) :   0.9656 B( 42-C , 43-C ) :   1.4976 B( 42-C , 78-H ) :   0.9860
B( 43-C , 44-C ) :   1.1724 B( 43-C , 47-S ) :   1.0469 B( 44-C , 45-C ) :   1.5530
B( 44-C , 79-H ) :   0.9997 B( 45-C , 46-C ) :   1.2170 B( 45-C , 80-H ) :   0.9940
B( 46-C , 47-S ) :   1.0437 B( 46-C , 48-C ) :   1.4760 B( 48-C , 49-C ) :   1.2013
B( 48-C , 52-S ) :   1.0564 B( 49-C , 50-C ) :   1.5719 B( 49-C , 81-H ) :   0.9937
B( 50-C , 51-C ) :   1.1566 B( 50-C , 82-H ) :   1.0008 B( 51-C , 52-S ) :   1.0289
B( 51-C , 53-C ) :   1.5253 B( 53-C , 54-C ) :   1.2300 B( 53-C , 83-H ) :   0.9729
B( 54-C , 55-S ) :   1.0857 B( 54-C , 56-C ) :   0.1031 B( 54-C , 60-C ) :   1.4005
B( 55-S , 56-C ) :   1.1438 B( 56-C , 57-C ) :   1.0548 B( 56-C , 59-C ) :   1.5796
B( 57-C , 58-C ) :   1.0910 B( 57-C , 84-H ) :   0.9242 B( 57-C , 85-H ) :   0.9342
B( 58-C , 86-H ) :   0.9704 B( 58-C , 87-H ) :   0.9671 B( 58-C , 88-H ) :   0.9766
B( 59-C , 60-C ) :   1.2408 B( 59-C , 63-S ) :   1.0229 B( 60-C , 61-N ) :   1.3247
B( 61-N , 62-C ) :   1.7761 B( 61-N , 63-S ) :   0.1080 B( 62-C , 63-S ) :   1.0878
B( 62-C , 89-H ) :   0.9631

-----------------------------------------------------------------------------
         ABSORPTION SPECTRUM VIA TRANSITION ELECTRIC DIPOLE MOMENTS
-----------------------------------------------------------------------------
State   Energy  Wavelength   fosc         T2         TX        TY        TZ
        (cm-1)    (nm)                  (au**2)     (au)      (au)      (au)
-----------------------------------------------------------------------------
   0   10218.2    978.6   1.311036896  42.23911  -2.79649   4.03685  -4.25707
   1   15600.7    641.0   0.017112882   0.36112  -0.24236   0.48986   0.24984
   2   17380.2    575.4   0.058190004   1.10223   0.52192  -0.90469  -0.10657
   3   20237.3    494.1   1.125309647  18.30611  -0.79964   1.57600   3.89653
   4   24371.1    410.3   0.017304053   0.23375   0.24385  -0.32379  -0.26352
   5   24519.4    407.8   0.013293247   0.17848   0.05957  -0.16768  -0.38317
   6   24674.7    405.3   0.036327521   0.48468  -0.14549   0.11628   0.67082
   7   26309.2    380.1   0.037843592   0.47354  -0.64972  -0.21201   0.08034
   8   26697.8    374.6   0.309889599   3.82127   1.57234  -0.91887   0.71041
   9   27821.6    359.4   0.236784069   2.80186   0.85954  -0.45782  -1.36142
  10   27960.4    357.6   0.003093765   0.03643  -0.08938  -0.11287   0.12530
  11   28095.8    355.9   0.091098289   1.06744  -0.48041   0.42773  -0.80851
  12   28449.6    351.5   0.014853297   0.17188  -0.29900  -0.18784   0.21724
  13   30335.7    329.6   0.000261789   0.00284  -0.01016  -0.04924  -0.01770
  14   30386.4    329.1   0.022440548   0.24313   0.41982   0.25094   0.06248
  15   30544.4    327.4   0.086122597   0.92824   0.71198  -0.52039   0.38797
  16   30927.9    323.3   0.009855542   0.10491  -0.09165   0.22204  -0.21727
  17   31418.7    318.3   0.070657512   0.74037  -0.67719   0.40725  -0.34047
  18   31597.1    316.5   0.106121922   1.10569  -0.19665   0.79285  -0.66212
  19   32560.6    307.1   0.187670423   1.89749   1.15693  -0.70660   0.24436
  20   32842.9    304.5   0.005516715   0.05530  -0.14906   0.06747   0.16890
  21   33506.7    298.4   0.018220448   0.17902  -0.38316  -0.07732  -0.16196
  22   33558.2    298.0   0.027551465   0.27029  -0.48165   0.18921   0.05004
  23   33868.1    295.3   0.163068244   1.58509  -1.25433  -0.09156  -0.05812
  24   34439.2    290.4   0.298238875   2.85093  -1.60289   0.50719  -0.15629
  25   34698.3    288.2   0.387720161   3.67863   1.36437  -0.43930   1.27441
  26   35027.9    285.5   0.160503368   1.50850   0.65547  -0.64895   0.81100
  27   35112.4    284.8   0.057535985   0.53945  -0.66138   0.11024  -0.29980
  28   35327.3    283.1   0.448633830   4.18077   1.89764  -0.20421   0.73350
  29   35557.7    281.2   0.097399179   0.90177   0.92347  -0.21303   0.05998
  30   36246.8    275.9   0.007052913   0.06406  -0.21158   0.02794   0.13606
  31   36854.1    271.3   0.101178656   0.90381   0.44675  -0.25101  -0.80076
  32   37090.1    269.6   0.028956651   0.25702   0.24371  -0.35317   0.26999
  33   37528.4    266.5   0.086350240   0.75749   0.72973  -0.32627   0.34430
  34   37579.9    266.1   0.003110982   0.02725   0.07462  -0.00338   0.14722
  35   37765.4    264.8   0.004319633   0.03766  -0.12162  -0.12644   0.08294
  36   38295.2    261.1   0.053731241   0.46191  -0.39660   0.13974   0.53394
  37   38498.8    259.7   0.045831346   0.39191  -0.40195   0.03781   0.47845
  38   38676.0    258.6   0.026975633   0.22962  -0.31468   0.04541   0.35851
  39   38802.8    257.7   0.016612547   0.14094  -0.27956   0.10544  -0.22731
  40   39314.6    254.4   0.111001797   0.92951   0.67541  -0.34213   0.59689
  41   39862.1    250.9   0.026012833   0.21483  -0.28385   0.13871  -0.33915
  42   40112.2    249.3   0.108945510   0.89415  -0.32343   0.35151  -0.81608
  43   40303.2    248.1   0.000902895   0.00738  -0.01600  -0.07911   0.02935

FINAL SINGLE POINT ENERGY     -4556.531546691284

DIPOLE MOMENT
-------------
                                X             Y             Z
Electronic contribution:     -7.77368      14.05273     -26.16289
Nuclear contribution   :      7.26974     -16.15271      28.77541
                        -----------------------------------------
Total Dipole Moment    :     -0.50393      -2.09999       2.61252
                        -----------------------------------------
Magnitude (a.u.)       :      3.38957
Magnitude (Debye)      :      8.61559

Rotational constants in cm-1:     0.002257     0.000222     0.000211
Rotational constants in MHz :    67.661700     6.665860     6.332702

                             ****ORCA TERMINATED NORMALLY****
TOTAL RUN TIME: 0 days 0 hours 8 minutes 44 seconds 207 msec
