                         Program Version 4.2.0 -  RELEASE  -
|  1> # ORCA input file
|  2> # SCF done       -195.154350383313          0.000870305404
|  3> ! CAM-B3LYP def2-SVP def2/J RIJCOSX Grid4 TightSCF
|  4> %maxcore 5000
|  5> %tddft
|  6>     Mode sTDDFT
|  7>     Ethresh 5.0
|  8>     maxcore 5000
|  9> end
| 10>
| 11> %pal
| 12>   nprocs 6
| 13>   end
| 14> * xyz 0 1
| 15>    C        3.28079        -4.30938         8.05174
| 16>    C        2.22823        -3.72427         8.69944
| 17>    F        2.14772        -3.80420        10.03930
| 18>    C        1.21527        -3.03566         8.01798
| 19>    C        1.27960        -2.94233         6.65554
| 20>    C        2.34287        -3.52642         5.93678
| 21>    C        3.36112        -4.22609         6.64834
| 22>    C        4.43080        -4.83266         5.94864
| 23>    C        4.47775        -4.73772         4.58485
| 24>    C        3.47130        -4.01569         3.88013
| 25>    C        2.42378        -3.42809         4.52961
| 26>    C        3.78699        -4.02002         2.44058
| 27>    O        3.14422        -3.55126         1.53014
| 28>    C        5.12102        -4.68289         2.33559
| 29>    C        5.42106        -5.28605         3.61324
| 30>    C        6.24801        -6.35548         3.84351
| 31>    C        6.95238        -7.02692         2.82794
| 32>    N        7.53482        -7.59052         2.01434
| 33>    C        6.41403        -6.96565         5.10469
| 34>    N        6.58751        -7.50016         6.10472
| 35>    C        5.83380        -4.54339         1.18125
| 36>    C        7.21522        -4.72148         0.98307
| 37>    S        7.91123        -4.82664        -0.63115
| 38>    C        9.56541        -4.98948        -0.06689
| 39>    C        9.53357        -4.92825         1.31221
| 40>    C        8.26280        -4.78675         1.88079
| 41>    O        8.41112        -4.71523         3.22846
| 42>    C        9.74420        -4.83319         3.47152
| 43>    S       10.38670        -4.80813         4.94757
| 44>    O       10.44402        -4.96294         2.32527
| 45>    C       10.68768        -5.17895        -0.89910
| 46>    C       10.61924        -5.21257        -2.25774
| 47>    C       11.67205        -5.42847        -3.16950
| 48>    S       11.37790        -5.02014        -4.83419
| 49>    C       12.97950        -5.42542        -5.33342
| 50>    C       13.72405        -5.90072        -4.23771
| 51>    C       12.98345        -5.91903        -3.01437
| 52>    C       13.58524        -6.45238        -1.85858
| 53>    C       14.87902        -6.88748        -1.91756
| 54>    F       15.45740        -7.40075        -0.82320
| 55>    C       15.62351        -6.81906        -3.11528
| 56>    F       16.89459        -7.24719        -3.12151
| 57>    C       15.05861        -6.34621        -4.26399
| 58>    C       13.42428        -5.28399        -6.66803
| 59>    C       12.67173        -4.83683        -7.70297
| 60>    C       13.19126        -4.72830        -9.02642
| 61>    C       12.53617        -4.31429       -10.12834
| 62>    C       11.12197        -3.85336       -10.18583
| 63>    C       13.27857        -4.25083       -11.44225
| 64>    N       13.69490        -2.89153       -11.70543
| 65>    C       13.41261        -2.19298       -12.80436
| 66>    C       13.78833        -0.89081       -12.99223
| 67>    C       13.59466        -0.12962       -14.15213
| 68>    C       12.83054        -0.32553       -15.28044
| 69>    C       13.22423         0.41944       -16.50241
| 70>    O       14.03692         1.31623       -16.57596
| 71>    C       12.45742        -0.19168       -17.60654
| 72>    C       12.53166         0.05017       -18.94642
| 73>    C       11.71730        -0.69794       -19.82749
| 74>    C       10.84234        -1.68840       -19.29554
| 75>    C       10.04392        -2.44011       -20.17893
| 76>    C       10.12205        -2.20133       -21.52282
| 77>    C       10.97249        -1.22913       -22.06509
| 78>    C       11.75590        -0.49149       -21.22114
| 79>    F        9.35988        -2.92055       -22.36856
| 80>    C       10.77835        -1.90730       -17.89857
| 81>    C       11.57048        -1.16489       -17.06677
| 82>    C       11.70573        -1.15438       -15.60880
| 83>    C       10.76129        -1.66819       -14.74559
| 84>    C       10.77803        -1.45711       -13.36093
| 85>    N       10.77020        -1.32337       -12.21808
| 86>    C        9.64447        -2.42451       -15.14684
| 87>    N        8.73240        -3.07687       -15.39749
| 88>    H        4.04118        -4.83466         8.60819
| 89>    H        0.40897        -2.59490         8.58251
| 90>    H        0.51143        -2.41633         6.10891
| 91>    H        5.19335        -5.34756         6.51122
| 92>    H        1.66572        -2.89361         3.97693
| 93>    H        5.27343        -4.17786         0.32716
| 94>    H       11.62514        -5.27268        -0.37406
| 95>    H        9.65143        -5.01664        -2.70588
| 96>    H       13.04587        -6.55887        -0.93411
| 97>    H       15.63945        -6.32936        -5.17107
| 98>    H       14.45201        -5.56434        -6.85530
| 99>    H       11.64370        -4.55976        -7.51952
|100>    H       14.22695        -5.03065        -9.13581
|101>    H       10.69277        -3.71214        -9.20014
|102>    H       10.51698        -4.58480       -10.72364
|103>    H       11.05234        -2.91473       -10.73817
|104>    H       12.63399        -4.57891       -12.26073
|105>    H       14.16361        -4.89876       -11.41019
|106>    H       14.11547        -2.39968       -10.92873
|107>    H       12.94332        -2.75368       -13.60110
|108>    H       14.35162        -0.41780       -12.19849
|109>    H       14.22365         0.75365       -14.22857
|110>    H       13.20450         0.80118       -19.33240
|111>    H        9.37390        -3.19429       -19.79640
|112>    H       10.99117        -1.08415       -23.13361
|113>    H       12.41991         0.26328       -21.61509
|114>    H       10.10923        -2.66691       -17.52624
|115> *
|116>
|117>                          ****END OF INPUT****

CARTESIAN COORDINATES (ANGSTROEM)
---------------------------------
  C      3.280790   -4.309380    8.051740
  C      2.228230   -3.724270    8.699440
  F      2.147720   -3.804200   10.039300
  C      1.215270   -3.035660    8.017980
  C      1.279600   -2.942330    6.655540
  C      2.342870   -3.526420    5.936780
  C      3.361120   -4.226090    6.648340
  C      4.430800   -4.832660    5.948640
  C      4.477750   -4.737720    4.584850
  C      3.471300   -4.015690    3.880130
  C      2.423780   -3.428090    4.529610
  C      3.786990   -4.020020    2.440580
  O      3.144220   -3.551260    1.530140
  C      5.121020   -4.682890    2.335590
  C      5.421060   -5.286050    3.613240
  C      6.248010   -6.355480    3.843510
  C      6.952380   -7.026920    2.827940
  N      7.534820   -7.590520    2.014340
  C      6.414030   -6.965650    5.104690
  N      6.587510   -7.500160    6.104720
  C      5.833800   -4.543390    1.181250
  C      7.215220   -4.721480    0.983070
  S      7.911230   -4.826640   -0.631150
  C      9.565410   -4.989480   -0.066890
  C      9.533570   -4.928250    1.312210
  C      8.262800   -4.786750    1.880790
  O      8.411120   -4.715230    3.228460
  C      9.744200   -4.833190    3.471520
  S     10.386700   -4.808130    4.947570
  O     10.444020   -4.962940    2.325270
  C     10.687680   -5.178950   -0.899100
  C     10.619240   -5.212570   -2.257740
  C     11.672050   -5.428470   -3.169500
  S     11.377900   -5.020140   -4.834190
  C     12.979500   -5.425420   -5.333420
  C     13.724050   -5.900720   -4.237710
  C     12.983450   -5.919030   -3.014370
  C     13.585240   -6.452380   -1.858580
  C     14.879020   -6.887480   -1.917560
  F     15.457400   -7.400750   -0.823200
  C     15.623510   -6.819060   -3.115280
  F     16.894590   -7.247190   -3.121510
  C     15.058610   -6.346210   -4.263990
  C     13.424280   -5.283990   -6.668030
  C     12.671730   -4.836830   -7.702970
  C     13.191260   -4.728300   -9.026420
  C     12.536170   -4.314290  -10.128340
  C     11.121970   -3.853360  -10.185830
  C     13.278570   -4.250830  -11.442250
  N     13.694900   -2.891530  -11.705430
  C     13.412610   -2.192980  -12.804360
  C     13.788330   -0.890810  -12.992230
  C     13.594660   -0.129620  -14.152130
  C     12.830540   -0.325530  -15.280440
  C     13.224230    0.419440  -16.502410
  O     14.036920    1.316230  -16.575960
  C     12.457420   -0.191680  -17.606540
  C     12.531660    0.050170  -18.946420
  C     11.717300   -0.697940  -19.827490
  C     10.842340   -1.688400  -19.295540
  C     10.043920   -2.440110  -20.178930
  C     10.122050   -2.201330  -21.522820
  C     10.972490   -1.229130  -22.065090
  C     11.755900   -0.491490  -21.221140
  F      9.359880   -2.920550  -22.368560
  C     10.778350   -1.907300  -17.898570
  C     11.570480   -1.164890  -17.066770
  C     11.705730   -1.154380  -15.608800
  C     10.761290   -1.668190  -14.745590
  C     10.778030   -1.457110  -13.360930
  N     10.770200   -1.323370  -12.218080
  C      9.644470   -2.424510  -15.146840
  N      8.732400   -3.076870  -15.397490
  H      4.041180   -4.834660    8.608190
  H      0.408970   -2.594900    8.582510
  H      0.511430   -2.416330    6.108910
  H      5.193350   -5.347560    6.511220
  H      1.665720   -2.893610    3.976930
  H      5.273430   -4.177860    0.327160
  H     11.625140   -5.272680   -0.374060
  H      9.651430   -5.016640   -2.705880
  H     13.045870   -6.558870   -0.934110
  H     15.639450   -6.329360   -5.171070
  H     14.452010   -5.564340   -6.855300
  H     11.643700   -4.559760   -7.519520
  H     14.226950   -5.030650   -9.135810
  H     10.692770   -3.712140   -9.200140
  H     10.516980   -4.584800  -10.723640
  H     11.052340   -2.914730  -10.738170
  H     12.633990   -4.578910  -12.260730
  H     14.163610   -4.898760  -11.410190
  H     14.115470   -2.399680  -10.928730
  H     12.943320   -2.753680  -13.601100
  H     14.351620   -0.417800  -12.198490
  H     14.223650    0.753650  -14.228570
  H     13.204500    0.801180  -19.332400
  H      9.373900   -3.194290  -19.796400
  H     10.991170   -1.084150  -23.133610
  H     12.419910    0.263280  -21.615090
  H     10.109230   -2.666910  -17.526240

 Total Charge           Charge          ....    0
 Multiplicity           Mult            ....    1
 Number of Electrons    NEL             ....  520
 Basis Dimension        Dim             .... 1169

ORBITAL ENERGIES
----------------

  NO   OCC          E(Eh)            E(eV)
   0   2.0000     -88.984981     -2421.4044
   1   2.0000     -88.983756     -2421.3711
   2   2.0000     -88.897358     -2419.0201
   3   2.0000     -24.797424      -674.7722
   4   2.0000     -24.796835      -674.7562
   5   2.0000     -24.784211      -674.4127
   6   2.0000     -24.780556      -674.3132
   7   2.0000     -19.330718      -526.0156
   8   2.0000     -19.326304      -525.8955
   9   2.0000     -19.215149      -522.8708
  10   2.0000     -19.199635      -522.4486
  11   2.0000     -14.477855      -393.9625
  12   2.0000     -14.418209      -392.3394
  13   2.0000     -14.417817      -392.3287
  14   2.0000     -14.412999      -392.1976
  15   2.0000     -14.407345      -392.0438
  16   2.0000     -10.449465      -284.3444
  17   2.0000     -10.380618      -282.4710
  18   2.0000     -10.379690      -282.4457
  19   2.0000     -10.374044      -282.2921
  20   2.0000     -10.367822      -282.1228
  21   2.0000     -10.366535      -282.0878
  22   2.0000     -10.364144      -282.0227
  23   2.0000     -10.363530      -282.0060
  24   2.0000     -10.358238      -281.8620
  25   2.0000     -10.351481      -281.6781
  26   2.0000     -10.343759      -281.4680
  27   2.0000     -10.343182      -281.4523
  28   2.0000     -10.339279      -281.3461
  29   2.0000     -10.337078      -281.2862
  30   2.0000     -10.336687      -281.2756
  31   2.0000     -10.334900      -281.2269
  32   2.0000     -10.329346      -281.0758
  33   2.0000     -10.327676      -281.0304
  34   2.0000     -10.327471      -281.0248
  35   2.0000     -10.324955      -280.9563
  36   2.0000     -10.321738      -280.8688
  37   2.0000     -10.319355      -280.8039
  38   2.0000     -10.315277      -280.6930
  39   2.0000     -10.313653      -280.6488
  40   2.0000     -10.312265      -280.6110
  41   2.0000     -10.310352      -280.5589
  42   2.0000     -10.310159      -280.5537
  43   2.0000     -10.308594      -280.5111
  44   2.0000     -10.305757      -280.4339
  45   2.0000     -10.304351      -280.3957
  46   2.0000     -10.304136      -280.3898
  47   2.0000     -10.303471      -280.3717
  48   2.0000     -10.302381      -280.3420
  49   2.0000     -10.302155      -280.3359
  50   2.0000     -10.301022      -280.3051
  51   2.0000     -10.301008      -280.3047
  52   2.0000     -10.299429      -280.2617
  53   2.0000     -10.299078      -280.2521
  54   2.0000     -10.299071      -280.2520
  55   2.0000     -10.297348      -280.2051
  56   2.0000     -10.297087      -280.1980
  57   2.0000     -10.296208      -280.1741
  58   2.0000     -10.295587      -280.1572
  59   2.0000     -10.293997      -280.1139
  60   2.0000     -10.292662      -280.0776
  61   2.0000     -10.291738      -280.0524
  62   2.0000     -10.291320      -280.0411
  63   2.0000     -10.291015      -280.0328
  64   2.0000     -10.289885      -280.0020
  65   2.0000     -10.288838      -279.9735
  66   2.0000     -10.288710      -279.9700
  67   2.0000     -10.286935      -279.9217
  68   2.0000     -10.283572      -279.8302
  69   2.0000     -10.280327      -279.7419
  70   2.0000     -10.278505      -279.6923
  71   2.0000     -10.277056      -279.6529
  72   2.0000     -10.268564      -279.4218
  73   2.0000      -8.080056      -219.8695
  74   2.0000      -8.078683      -219.8322
  75   2.0000      -7.995430      -217.5667
  76   2.0000      -6.048901      -164.5990
  77   2.0000      -6.048333      -164.5835
  78   2.0000      -6.045009      -164.4931
  79   2.0000      -6.044436      -164.4775
  80   2.0000      -6.042943      -164.4368
  81   2.0000      -6.039800      -164.3513
  82   2.0000      -5.965281      -162.3235
  83   2.0000      -5.961827      -162.2296
  84   2.0000      -5.955260      -162.0509
  85   2.0000      -1.319920       -35.9168
  86   2.0000      -1.305013       -35.5112
  87   2.0000      -1.299266       -35.3548
  88   2.0000      -1.296994       -35.2930
  89   2.0000      -1.295107       -35.2417
  90   2.0000      -1.188377       -32.3374
  91   2.0000      -1.130704       -30.7680
  92   2.0000      -1.114822       -30.3358
  93   2.0000      -1.075612       -29.2689
  94   2.0000      -1.023674       -27.8556
  95   2.0000      -1.019781       -27.7497
  96   2.0000      -1.014749       -27.6127
  97   2.0000      -1.014656       -27.6102
  98   2.0000      -1.000456       -27.2238
  99   2.0000      -0.996180       -27.1074
 100   2.0000      -0.993346       -27.0303
 101   2.0000      -0.989683       -26.9306
 102   2.0000      -0.975462       -26.5437
 103   2.0000      -0.968605       -26.3571
 104   2.0000      -0.959141       -26.0995
 105   2.0000      -0.944114       -25.6906
 106   2.0000      -0.935260       -25.4497
 107   2.0000      -0.927340       -25.2342
 108   2.0000      -0.921754       -25.0822
 109   2.0000      -0.914790       -24.8927
 110   2.0000      -0.911835       -24.8123
 111   2.0000      -0.903211       -24.5776
 112   2.0000      -0.894608       -24.3435
 113   2.0000      -0.886535       -24.1239
 114   2.0000      -0.884018       -24.0553
 115   2.0000      -0.879948       -23.9446
 116   2.0000      -0.875039       -23.8110
 117   2.0000      -0.871281       -23.7088
 118   2.0000      -0.851417       -23.1682
 119   2.0000      -0.845709       -23.0129
 120   2.0000      -0.839186       -22.8354
 121   2.0000      -0.832708       -22.6591
 122   2.0000      -0.827601       -22.5202
 123   2.0000      -0.824819       -22.4445
 124   2.0000      -0.817256       -22.2387
 125   2.0000      -0.804174       -21.8827
 126   2.0000      -0.800154       -21.7733
 127   2.0000      -0.782433       -21.2911
 128   2.0000      -0.771546       -20.9948
 129   2.0000      -0.762413       -20.7463
 130   2.0000      -0.753985       -20.5170
 131   2.0000      -0.751879       -20.4597
 132   2.0000      -0.749283       -20.3890
 133   2.0000      -0.743615       -20.2348
 134   2.0000      -0.737436       -20.0667
 135   2.0000      -0.732940       -19.9443
 136   2.0000      -0.717068       -19.5124
 137   2.0000      -0.716739       -19.5035
 138   2.0000      -0.709410       -19.3040
 139   2.0000      -0.707777       -19.2596
 140   2.0000      -0.702226       -19.1085
 141   2.0000      -0.700658       -19.0659
 142   2.0000      -0.686901       -18.6915
 143   2.0000      -0.680010       -18.5040
 144   2.0000      -0.678845       -18.4723
 145   2.0000      -0.674288       -18.3483
 146   2.0000      -0.672384       -18.2965
 147   2.0000      -0.660333       -17.9686
 148   2.0000      -0.647558       -17.6209
 149   2.0000      -0.645718       -17.5709
 150   2.0000      -0.640320       -17.4240
 151   2.0000      -0.633435       -17.2367
 152   2.0000      -0.631867       -17.1940
 153   2.0000      -0.628962       -17.1149
 154   2.0000      -0.627432       -17.0733
 155   2.0000      -0.626864       -17.0578
 156   2.0000      -0.623465       -16.9653
 157   2.0000      -0.622149       -16.9295
 158   2.0000      -0.620083       -16.8733
 159   2.0000      -0.613680       -16.6991
 160   2.0000      -0.611301       -16.6343
 161   2.0000      -0.597308       -16.2536
 162   2.0000      -0.594134       -16.1672
 163   2.0000      -0.590063       -16.0564
 164   2.0000      -0.587089       -15.9755
 165   2.0000      -0.585697       -15.9376
 166   2.0000      -0.584555       -15.9065
 167   2.0000      -0.570236       -15.5169
 168   2.0000      -0.564741       -15.3674
 169   2.0000      -0.563968       -15.3463
 170   2.0000      -0.560657       -15.2562
 171   2.0000      -0.557515       -15.1708
 172   2.0000      -0.556660       -15.1475
 173   2.0000      -0.554507       -15.0889
 174   2.0000      -0.552850       -15.0438
 175   2.0000      -0.551175       -14.9982
 176   2.0000      -0.547303       -14.8929
 177   2.0000      -0.546519       -14.8715
 178   2.0000      -0.546195       -14.8627
 179   2.0000      -0.542593       -14.7647
 180   2.0000      -0.540184       -14.6992
 181   2.0000      -0.537342       -14.6218
 182   2.0000      -0.534001       -14.5309
 183   2.0000      -0.528161       -14.3720
 184   2.0000      -0.526488       -14.3265
 185   2.0000      -0.521827       -14.1996
 186   2.0000      -0.521329       -14.1861
 187   2.0000      -0.520813       -14.1720
 188   2.0000      -0.517728       -14.0881
 189   2.0000      -0.516945       -14.0668
 190   2.0000      -0.516813       -14.0632
 191   2.0000      -0.514849       -14.0098
 192   2.0000      -0.513531       -13.9739
 193   2.0000      -0.510912       -13.9026
 194   2.0000      -0.508034       -13.8243
 195   2.0000      -0.503723       -13.7070
 196   2.0000      -0.503463       -13.6999
 197   2.0000      -0.498815       -13.5734
 198   2.0000      -0.494079       -13.4446
 199   2.0000      -0.493734       -13.4352
 200   2.0000      -0.491799       -13.3825
 201   2.0000      -0.489830       -13.3290
 202   2.0000      -0.488454       -13.2915
 203   2.0000      -0.487202       -13.2574
 204   2.0000      -0.485211       -13.2033
 205   2.0000      -0.482974       -13.1424
 206   2.0000      -0.481147       -13.0927
 207   2.0000      -0.480177       -13.0663
 208   2.0000      -0.477475       -12.9928
 209   2.0000      -0.475883       -12.9494
 210   2.0000      -0.470743       -12.8096
 211   2.0000      -0.469352       -12.7717
 212   2.0000      -0.468273       -12.7423
 213   2.0000      -0.466800       -12.7023
 214   2.0000      -0.464946       -12.6518
 215   2.0000      -0.455713       -12.4006
 216   2.0000      -0.454359       -12.3637
 217   2.0000      -0.452121       -12.3028
 218   2.0000      -0.450705       -12.2643
 219   2.0000      -0.449323       -12.2267
 220   2.0000      -0.447861       -12.1869
 221   2.0000      -0.444972       -12.1083
 222   2.0000      -0.443489       -12.0680
 223   2.0000      -0.441136       -12.0039
 224   2.0000      -0.438391       -11.9292
 225   2.0000      -0.437411       -11.9026
 226   2.0000      -0.436050       -11.8655
 227   2.0000      -0.434070       -11.8116
 228   2.0000      -0.432294       -11.7633
 229   2.0000      -0.431627       -11.7452
 230   2.0000      -0.429065       -11.6755
 231   2.0000      -0.425088       -11.5672
 232   2.0000      -0.423487       -11.5237
 233   2.0000      -0.422302       -11.4914
 234   2.0000      -0.419552       -11.4166
 235   2.0000      -0.414701       -11.2846
 236   2.0000      -0.413983       -11.2650
 237   2.0000      -0.405820       -11.0429
 238   2.0000      -0.404998       -11.0206
 239   2.0000      -0.395161       -10.7529
 240   2.0000      -0.391742       -10.6598
 241   2.0000      -0.381162       -10.3719
 242   2.0000      -0.375328       -10.2132
 243   2.0000      -0.373984       -10.1766
 244   2.0000      -0.373565       -10.1652
 245   2.0000      -0.355081        -9.6622
 246   2.0000      -0.350499        -9.5376
 247   2.0000      -0.336784        -9.1644
 248   2.0000      -0.329399        -8.9634
 249   2.0000      -0.326163        -8.8753
 250   2.0000      -0.324419        -8.8279
 251   2.0000      -0.313169        -8.5218
 252   2.0000      -0.308561        -8.3964
 253   2.0000      -0.308382        -8.3915
 254   2.0000      -0.303880        -8.2690
 255   2.0000      -0.299789        -8.1577
 256   2.0000      -0.293499        -7.9865
 257   2.0000      -0.292783        -7.9670
 258   2.0000      -0.267285        -7.2732
 259   2.0000      -0.241836        -6.5807
 260   0.0000      -0.106313        -2.8929
 261   0.0000      -0.078739        -2.1426
 262   0.0000      -0.075435        -2.0527
 263   0.0000      -0.055624        -1.5136
 264   0.0000      -0.044641        -1.2147

MULLIKEN ATOMIC CHARGES
-----------------------
   0 C :   -0.098098
   1 C :    0.304340
   2 F :   -0.189640
   3 C :   -0.030235
   4 C :   -0.009395
   5 C :    0.100174
   6 C :    0.101638
   7 C :   -0.083867
   8 C :    0.038327
   9 C :    0.008953
  10 C :   -0.080539
  11 C :    0.137170
  12 O :   -0.140526
  13 C :   -0.141195
  14 C :    0.277015
  15 C :   -0.309505
  16 C :   -0.214391
  17 N :    0.162124
  18 C :   -0.173638
  19 N :    0.159496
  20 C :    0.103448
  21 C :   -0.186452
  22 S :    0.149607
  23 C :   -0.142077
  24 C :    0.185647
  25 C :    0.187023
  26 O :   -0.180126
  27 C :    0.241519
  28 S :   -0.132854
  29 O :   -0.168603
  30 C :   -0.011681
  31 C :    0.050623
  32 C :   -0.126304
  33 S :    0.162210
  34 C :   -0.084483
  35 C :    0.123373
  36 C :    0.139926
  37 C :   -0.125815
  38 C :    0.231860
  39 F :   -0.170823
  40 C :    0.228988
  41 F :   -0.174409
  42 C :   -0.118503
  43 C :   -0.009745
  44 C :    0.012450
  45 C :    0.007549
  46 C :   -0.215732
  47 C :    0.109658
  48 C :    0.211065
  49 N :   -0.117846
  50 C :    0.091139
  51 C :   -0.030945
  52 C :    0.048423
  53 C :   -0.163659
  54 C :    0.133835
  55 O :   -0.159603
  56 C :    0.016503
  57 C :   -0.085223
  58 C :    0.099585
  59 C :    0.099029
  60 C :   -0.098228
  61 C :    0.299592
  62 C :   -0.031720
  63 C :   -0.009931
  64 F :   -0.193464
  65 C :   -0.090896
  66 C :    0.033498
  67 C :    0.291764
  68 C :   -0.385575
  69 C :   -0.167873
  70 N :    0.130995
  71 C :   -0.170263
  72 N :    0.137538
  73 H :   -0.001355
  74 H :    0.002970
  75 H :   -0.009064
  76 H :    0.001070
  77 H :   -0.011644
  78 H :    0.019626
  79 H :    0.008658
  80 H :   -0.001016
  81 H :   -0.005366
  82 H :   -0.009699
  83 H :   -0.015684
  84 H :   -0.002295
  85 H :   -0.029533
  86 H :    0.009296
  87 H :    0.029050
  88 H :    0.030161
  89 H :    0.024794
  90 H :    0.023761
  91 H :    0.132882
  92 H :    0.038465
  93 H :   -0.014913
  94 H :    0.025826
  95 H :   -0.015427
  96 H :   -0.005517
  97 H :    0.001679
  98 H :   -0.010743
  99 H :   -0.008202
Sum of atomic charges:   -0.0000000

LOEWDIN ATOMIC CHARGES
----------------------
   0 C :   -0.041603
   1 C :    0.093503
   2 F :   -0.064051
   3 C :   -0.037647
   4 C :    0.004644
   5 C :   -0.019748
   6 C :    0.004566
   7 C :    0.011559
   8 C :   -0.014984
   9 C :   -0.061769
  10 C :    0.035460
  11 C :    0.083196
  12 O :   -0.143623
  13 C :   -0.085224
  14 C :    0.063052
  15 C :   -0.131015
  16 C :   -0.019607
  17 N :   -0.053066
  18 C :   -0.017979
  19 N :   -0.045826
  20 C :    0.041209
  21 C :   -0.198941
  22 S :    0.452157
  23 C :   -0.155904
  24 C :   -0.008944
  25 C :    0.017073
  26 O :   -0.001858
  27 C :   -0.063182
  28 S :    0.029223
  29 O :   -0.007745
  30 C :   -0.055009
  31 C :   -0.024869
  32 C :   -0.181764
  33 S :    0.490811
  34 C :   -0.168603
  35 C :   -0.043560
  36 C :   -0.036222
  37 C :   -0.041459
  38 C :    0.068447
  39 F :   -0.049271
  40 C :    0.061563
  41 F :   -0.053159
  42 C :   -0.037347
  43 C :   -0.042444
  44 C :   -0.016390
  45 C :   -0.052706
  46 C :   -0.030608
  47 C :   -0.054575
  48 C :    0.053242
  49 N :    0.050918
  50 C :    0.112568
  51 C :   -0.130243
  52 C :    0.080206
  53 C :   -0.139591
  54 C :    0.079748
  55 O :   -0.160433
  56 C :   -0.056159
  57 C :    0.029189
  58 C :   -0.019990
  59 C :    0.000870
  60 C :   -0.043452
  61 C :    0.090688
  62 C :   -0.039989
  63 C :    0.003062
  64 F :   -0.068023
  65 C :    0.006450
  66 C :   -0.017809
  67 C :    0.071955
  68 C :   -0.180260
  69 C :    0.000952
  70 N :   -0.067567
  71 C :   -0.024359
  72 N :   -0.071108
  73 H :    0.043703
  74 H :    0.041718
  75 H :    0.035608
  76 H :    0.040693
  77 H :    0.039595
  78 H :    0.048221
  79 H :    0.039178
  80 H :    0.027068
  81 H :    0.041538
  82 H :    0.040159
  83 H :    0.032213
  84 H :    0.022213
  85 H :    0.024300
  86 H :    0.028687
  87 H :    0.041193
  88 H :    0.035897
  89 H :    0.035838
  90 H :    0.027824
  91 H :    0.089723
  92 H :    0.038489
  93 H :    0.029008
  94 H :    0.047113
  95 H :    0.038206
  96 H :    0.041849
  97 H :    0.040821
  98 H :    0.034880
  99 H :    0.037643

  Mayer bond orders larger than 0.100000
B(  0-C ,  1-C ) :   1.4391 B(  0-C ,  6-C ) :   1.2051 B(  0-C , 73-H ) :   1.0070
B(  1-C ,  2-F ) :   1.0897 B(  1-C ,  3-C ) :   1.2557 B(  3-C ,  4-C ) :   1.4615
B(  3-C , 74-H ) :   0.9923 B(  4-C ,  5-C ) :   1.2340 B(  4-C , 75-H ) :   0.9969
B(  5-C ,  6-C ) :   1.2558 B(  5-C , 10-C ) :   1.1926 B(  6-C ,  7-C ) :   1.2011
B(  7-C ,  8-C ) :   1.4679 B(  7-C , 76-H ) :   0.9940 B(  8-C ,  9-C ) :   1.2170
B(  8-C , 14-C ) :   0.9954 B(  9-C , 10-C ) :   1.4685 B(  9-C , 11-C ) :   0.9229
B( 10-C , 77-H ) :   1.0157 B( 11-C , 12-O ) :   2.2731 B( 11-C , 13-C ) :   0.9377
B( 13-C , 14-C ) :   1.0572 B( 13-C , 20-C ) :   1.6342 B( 14-C , 15-C ) :   1.6411
B( 15-C , 16-C ) :   1.1716 B( 15-C , 18-C ) :   1.1361 B( 16-C , 17-N ) :   2.9907
B( 18-C , 19-N ) :   2.9874 B( 20-C , 21-C ) :   1.1756 B( 20-C , 78-H ) :   0.9304
B( 21-C , 22-S ) :   1.0708 B( 21-C , 25-C ) :   1.4498 B( 22-S , 23-C ) :   1.0884
B( 23-C , 24-C ) :   1.4593 B( 23-C , 30-C ) :   1.2012 B( 24-C , 25-C ) :   1.2683
B( 24-C , 29-O ) :   1.0786 B( 25-C , 26-O ) :   1.0827 B( 26-O , 27-C ) :   1.0619
B( 27-C , 28-S ) :   1.8165 B( 27-C , 29-O ) :   1.1029 B( 30-C , 31-C ) :   1.5924
B( 30-C , 79-H ) :   0.9756 B( 31-C , 32-C ) :   1.1854 B( 31-C , 80-H ) :   0.9513
B( 32-C , 33-S ) :   1.1398 B( 32-C , 34-C ) :   0.1061 B( 32-C , 36-C ) :   1.3318
B( 33-S , 34-C ) :   1.1618 B( 34-C , 35-C ) :   1.3150 B( 34-C , 43-C ) :   1.1541
B( 35-C , 36-C ) :   1.2225 B( 35-C , 42-C ) :   1.1656 B( 36-C , 37-C ) :   1.1620
B( 37-C , 38-C ) :   1.4988 B( 37-C , 42-C ) :   0.1112 B( 37-C , 81-H ) :   0.9964
B( 38-C , 39-F ) :   1.1371 B( 38-C , 40-C ) :   1.1567 B( 40-C , 41-F ) :   1.1342
B( 40-C , 42-C ) :   1.5033 B( 42-C , 82-H ) :   0.9984 B( 43-C , 44-C ) :   1.6683
B( 43-C , 83-H ) :   0.9743 B( 44-C , 45-C ) :   1.1200 B( 44-C , 84-H ) :   0.9738
B( 45-C , 46-C ) :   1.7348 B( 45-C , 85-H ) :   0.9743 B( 46-C , 47-C ) :   1.0789
B( 46-C , 48-C ) :   1.0418 B( 47-C , 86-H ) :   0.9457 B( 47-C , 87-H ) :   0.9355
B( 47-C , 88-H ) :   0.9235 B( 48-C , 49-N ) :   0.9767 B( 48-C , 89-H ) :   0.9299
B( 48-C , 90-H ) :   0.9373 B( 49-N , 50-C ) :   1.3717 B( 49-N , 91-H ) :   0.9304
B( 50-C , 51-C ) :   1.4144 B( 50-C , 92-H ) :   0.9556 B( 51-C , 52-C ) :   1.3516
B( 51-C , 93-H ) :   0.9559 B( 52-C , 53-C ) :   1.4790 B( 52-C , 94-H ) :   0.9284
B( 53-C , 54-C ) :   0.9719 B( 53-C , 67-C ) :   1.1149 B( 54-C , 55-O ) :   2.2456
B( 54-C , 56-C ) :   0.9151 B( 56-C , 57-C ) :   1.4847 B( 56-C , 66-C ) :   1.2202
B( 57-C , 58-C ) :   1.1792 B( 57-C , 95-H ) :   1.0154 B( 58-C , 59-C ) :   1.2633
B( 58-C , 63-C ) :   1.2392 B( 59-C , 60-C ) :   1.2041 B( 59-C , 65-C ) :   1.1984
B( 60-C , 61-C ) :   1.4403 B( 60-C , 96-H ) :   1.0063 B( 61-C , 62-C ) :   1.2598
B( 61-C , 64-F ) :   1.0857 B( 62-C , 63-C ) :   1.4552 B( 62-C , 97-H ) :   0.9926
B( 63-C , 98-H ) :   0.9968 B( 65-C , 66-C ) :   1.4675 B( 65-C , 99-H ) :   0.9935
B( 66-C , 67-C ) :   0.9904 B( 67-C , 68-C ) :   1.5556 B( 68-C , 69-C ) :   1.2066
B( 68-C , 71-C ) :   1.1283 B( 69-C , 70-N ) :   2.8578 B( 71-C , 72-N ) :   2.9781

-----------------------------------------------------------------------------
         ABSORPTION SPECTRUM VIA TRANSITION ELECTRIC DIPOLE MOMENTS
-----------------------------------------------------------------------------
State   Energy  Wavelength   fosc         T2         TX        TY        TZ
        (cm-1)    (nm)                  (au**2)     (au)      (au)      (au)
-----------------------------------------------------------------------------
   0   15376.3    650.3   1.638293413  35.07633   3.19618   0.10289  -4.98499
   1   21968.8    455.2   0.532668694   7.98226  -1.73878   0.32901  -2.20242
   2   22700.5    440.5   0.086500978   1.25447   0.85850  -0.13534  -0.70650
   3   25345.0    394.6   0.070012723   0.90941   0.93986   0.16016  -0.02059
   4   25572.6    391.0   0.010810970   0.13918  -0.36476  -0.05567   0.05500
   5   25700.8    389.1   0.001890816   0.02422  -0.13758  -0.00636   0.07247
   6   26072.3    383.5   0.035516291   0.44846   0.24791   0.62139  -0.02956
   7   26718.7    374.3   0.085598490   1.05470  -0.61185   0.37577  -0.73426
   8   26826.2    372.8   0.000499089   0.00612  -0.05919  -0.04618   0.02212
   9   27596.8    362.4   0.052977367   0.63199  -0.79484  -0.01251   0.00780
  10   28631.7    349.3   0.207482464   2.38567  -1.37006   0.63192   0.33056
  11   28867.4    346.4   0.030081161   0.34305   0.01906   0.56962  -0.13501
  12   29221.5    342.2   0.167262192   1.88439  -0.52228   0.24441  -1.24574
  13   29561.8    338.3   0.084033467   0.93583   0.70450  -0.49080  -0.44567
  14   31129.4    321.2   0.195556640   2.06813  -0.00257   0.53842  -1.33350
  15   31312.7    319.4   0.056049785   0.58929  -0.29997   0.49488  -0.50439
  16   31554.2    316.9   0.058058547   0.60574  -0.39323   0.22776   0.63185
  17   31932.2    313.2   0.004901275   0.05053  -0.14264  -0.09703  -0.14411
  18   32528.5    307.4   0.490757053   4.96681  -0.32979   0.89288  -2.01515
  19   32812.2    304.8   0.466038086   4.67586  -1.22530   0.80244   1.59079
  20   33054.1    302.5   0.174645974   1.73944  -0.81299   0.61411   0.83747
  21   33292.0    300.4   0.046063769   0.45551   0.57216  -0.30462  -0.18802
  22   33654.5    297.1   0.135088229   1.32145  -0.38493   0.27651  -1.04729
  23   33993.9    294.2   0.058971010   0.57110   0.63172  -0.24235   0.33661
  24   34439.2    290.4   0.276426654   2.64243  -0.04353   0.23511  -1.60787
  25   34525.5    289.6   0.012887191   0.12288  -0.04667   0.07926  -0.33826
  26   34645.0    288.6   0.018597258   0.17672  -0.01272  -0.18543   0.37706
  27   35229.9    283.8   0.482671020   4.51040   0.21585  -0.44919   2.06447
  28   35411.2    282.4   0.001212494   0.01127  -0.07854   0.03120  -0.06427
  29   35700.5    280.1   0.395565816   3.64771  -0.08230   0.23483  -1.89362
  30   36079.0    277.2   0.185076416   1.68877  -1.11987   0.62355   0.21411
  31   36428.5    274.5   0.034300918   0.30998   0.04133   0.01353   0.55506
  32   36913.3    270.9   0.011275369   0.10056   0.31545   0.03238   0.00008
  33   37266.6    268.3   0.009317443   0.08231   0.07537   0.09759  -0.25905
  34   37287.3    268.2   0.006251635   0.05520  -0.10040  -0.07645   0.19817
  35   37650.5    265.6   0.196328262   1.71667   1.08631  -0.67276  -0.28982
  36   37901.5    263.8   0.004833039   0.04198   0.17764   0.09671   0.03276
  37   38040.3    262.9   0.054617946   0.47268   0.55207  -0.33881  -0.23045
  38   38295.9    261.1   0.040709600   0.34996   0.40238  -0.30677  -0.30650
  39   38682.4    258.5   0.050322235   0.42827  -0.28879   0.57545   0.11715
  40   39140.9    255.5   0.154181939   1.29681   0.72007  -0.81769   0.33122
  41   39900.7    250.6   0.018066052   0.14906  -0.29317  -0.19314  -0.16064
  42   39906.6    250.6   0.119242771   0.98370   0.75416   0.58275   0.27450
  43   40062.1    249.6   0.007338296   0.06030  -0.07374  -0.22956   0.04656

FINAL SINGLE POINT ENERGY     -4352.516793551114

DIPOLE MOMENT
-------------
                                X             Y             Z
Electronic contribution:    -10.27587     -17.75152      70.35912
Nuclear contribution   :     11.50163      18.62611     -72.44886
                        -----------------------------------------
Total Dipole Moment    :      1.22576       0.87460      -2.08974
                        -----------------------------------------
Magnitude (a.u.)       :      2.57574
Magnitude (Debye)      :      6.54701

Rotational constants in cm-1:     0.001373     0.000172     0.000157
Rotational constants in MHz :    41.160123     5.151404     4.704962

                             ****ORCA TERMINATED NORMALLY****
TOTAL RUN TIME: 0 days 0 hours 9 minutes 18 seconds 319 msec
