                         Program Version 4.2.0 -  RELEASE  -
|  1> # ORCA input file
|  2> # SCF done       -170.394849586740          0.000495891082
|  3> ! CAM-B3LYP def2-SVP def2/J RIJCOSX Grid4 TightSCF
|  4> %maxcore 5000
|  5> %tddft
|  6>     Mode sTDDFT
|  7>     Ethresh 5.0
|  8>     maxcore 5000
|  9> end
| 10>
| 11> %pal
| 12>   nprocs 6
| 13>   end
| 14> * xyz 0 1
| 15>    C        0.02699         0.50510         3.28778
| 16>    C       -1.31117         0.77422         3.21195
| 17>    F       -2.12554         0.36936         4.20445
| 18>    C       -1.87966         1.46254         2.13172
| 19>    C       -1.06820         1.88062         1.11372
| 20>    C        0.31871         1.62885         1.13963
| 21>    C        0.87817         0.93004         2.24905
| 22>    C        2.26856         0.67542         2.30333
| 23>    C        3.06964         1.10193         1.27884
| 24>    C        2.50176         1.78409         0.16379
| 25>    C        1.16515         2.05041         0.08942
| 26>    C        3.56669         2.09671        -0.80823
| 27>    O        3.47133         2.71084        -1.84620
| 28>    C        4.79223         1.43941        -0.26978
| 29>    C        4.51335         1.01756         1.08393
| 30>    C        5.43508         0.79311         2.07303
| 31>    C        5.10543         0.39413         3.38295
| 32>    N        4.89976         0.03388         4.45376
| 33>    C        6.81929         0.99883         1.91404
| 34>    N        7.95088         1.18209         1.84466
| 35>    C        5.85542         1.25550        -1.09542
| 36>    C        6.98069         0.38731        -0.96272
| 37>    C        8.16262         0.65236        -1.65785
| 38>    N        9.28314        -0.04566        -1.59402
| 39>    C        9.37331        -1.13246        -0.84126
| 40>    C        8.21971        -1.56961        -0.13126
| 41>    C        7.00761        -0.80356        -0.19200
| 42>    N        6.02279        -1.37550         0.49905
| 43>    S        6.57994        -2.73084         1.17176
| 44>    N        8.08500        -2.66519         0.61309
| 45>    C       10.59220        -1.88313        -0.69792
| 46>    C       11.81269        -1.59648        -1.18377
| 47>    C       12.14220        -0.44483        -2.06654
| 48>    C       12.97028        -2.51798        -0.87008
| 49>    N       13.35220        -3.27627        -2.03972
| 50>    C       14.22965        -2.82587        -2.95523
| 51>    C       14.41847        -3.38109        -4.18572
| 52>    C       15.39139        -2.92308        -5.08693
| 53>    C       15.65604        -3.48308        -6.31091
| 54>    C       16.60806        -3.04481        -7.26105
| 55>    C       16.67098        -3.80768        -8.38706
| 56>    C       15.77454        -4.90105        -8.39049
| 57>    S       14.83267        -4.91760        -6.91926
| 58>    C       15.62327        -5.86425        -9.36894
| 59>    C       16.31019        -5.96508       -10.59861
| 60>    C       15.95066        -7.04424       -11.34430
| 61>    C       14.95722        -7.86511       -10.74701
| 62>    S       14.49116        -7.19607        -9.19600
| 63>    C       14.44726        -9.01212       -11.29475
| 64>    C       13.46543        -9.86498       -10.75282
| 65>    S       12.66067        -9.56070        -9.23560
| 66>    C       11.69327       -10.96473        -9.40472
| 67>    C       11.96549       -11.64640       -10.55684
| 68>    C       12.98523       -11.03957       -11.32177
| 69>    C       13.44691       -11.59176       -12.63443
| 70>    F       12.94856       -10.83172       -13.67630
| 71>    C       12.98530       -13.04659       -12.76560
| 72>    F       13.28218       -13.53630       -14.01154
| 73>    C       11.49838       -13.21787       -12.44949
| 74>    F       10.71116       -12.37556       -13.18654
| 75>    C       11.27807       -12.91393       -10.96281
| 76>    F       11.78485       -13.98419       -10.23904
| 77>    H        0.43048        -0.02410         4.13697
| 78>    H       -2.94224         1.64678         2.12689
| 79>    H       -1.48283         2.41243         0.27047
| 80>    H        2.66521         0.13970         3.15121
| 81>    H        0.75690         2.57715        -0.76019
| 82>    H        5.81242         1.82075        -2.02230
| 83>    H        8.21581         1.52954        -2.29037
| 84>    H       10.47088        -2.75474        -0.06679
| 85>    H       12.51802        -0.80424        -3.02627
| 86>    H       11.26172         0.16614        -2.23242
| 87>    H       12.92746         0.15895        -1.61146
| 88>    H       12.70175        -3.21896        -0.07599
| 89>    H       13.83686        -1.93489        -0.54627
| 90>    H       12.69224        -3.97760        -2.34629
| 91>    H       14.85373        -2.00268        -2.63311
| 92>    H       13.80579        -4.21883        -4.49097
| 93>    H       15.98284        -2.06214        -4.80234
| 94>    H       17.21789        -2.17684        -7.08058
| 95>    H       17.33808        -3.61975        -9.20877
| 96>    H       17.04698        -5.24211       -10.89952
| 97>    H       16.36360        -7.28487       -12.30779
| 98>    H       14.83130        -9.28938       -12.26691
| 99>    H       10.97749       -11.21571        -8.64825
|100>    H       14.53975       -11.54761       -12.74179
|101>    H       13.54868       -13.66041       -12.04837
|102>    H       11.18263       -14.24172       -12.68764
|103>    H       10.20489       -12.87600       -10.73902
|104> *
|105>
|106>                          ****END OF INPUT****

CARTESIAN COORDINATES (ANGSTROEM)
---------------------------------
  C      0.026990    0.505100    3.287780
  C     -1.311170    0.774220    3.211950
  F     -2.125540    0.369360    4.204450
  C     -1.879660    1.462540    2.131720
  C     -1.068200    1.880620    1.113720
  C      0.318710    1.628850    1.139630
  C      0.878170    0.930040    2.249050
  C      2.268560    0.675420    2.303330
  C      3.069640    1.101930    1.278840
  C      2.501760    1.784090    0.163790
  C      1.165150    2.050410    0.089420
  C      3.566690    2.096710   -0.808230
  O      3.471330    2.710840   -1.846200
  C      4.792230    1.439410   -0.269780
  C      4.513350    1.017560    1.083930
  C      5.435080    0.793110    2.073030
  C      5.105430    0.394130    3.382950
  N      4.899760    0.033880    4.453760
  C      6.819290    0.998830    1.914040
  N      7.950880    1.182090    1.844660
  C      5.855420    1.255500   -1.095420
  C      6.980690    0.387310   -0.962720
  C      8.162620    0.652360   -1.657850
  N      9.283140   -0.045660   -1.594020
  C      9.373310   -1.132460   -0.841260
  C      8.219710   -1.569610   -0.131260
  C      7.007610   -0.803560   -0.192000
  N      6.022790   -1.375500    0.499050
  S      6.579940   -2.730840    1.171760
  N      8.085000   -2.665190    0.613090
  C     10.592200   -1.883130   -0.697920
  C     11.812690   -1.596480   -1.183770
  C     12.142200   -0.444830   -2.066540
  C     12.970280   -2.517980   -0.870080
  N     13.352200   -3.276270   -2.039720
  C     14.229650   -2.825870   -2.955230
  C     14.418470   -3.381090   -4.185720
  C     15.391390   -2.923080   -5.086930
  C     15.656040   -3.483080   -6.310910
  C     16.608060   -3.044810   -7.261050
  C     16.670980   -3.807680   -8.387060
  C     15.774540   -4.901050   -8.390490
  S     14.832670   -4.917600   -6.919260
  C     15.623270   -5.864250   -9.368940
  C     16.310190   -5.965080  -10.598610
  C     15.950660   -7.044240  -11.344300
  C     14.957220   -7.865110  -10.747010
  S     14.491160   -7.196070   -9.196000
  C     14.447260   -9.012120  -11.294750
  C     13.465430   -9.864980  -10.752820
  S     12.660670   -9.560700   -9.235600
  C     11.693270  -10.964730   -9.404720
  C     11.965490  -11.646400  -10.556840
  C     12.985230  -11.039570  -11.321770
  C     13.446910  -11.591760  -12.634430
  F     12.948560  -10.831720  -13.676300
  C     12.985300  -13.046590  -12.765600
  F     13.282180  -13.536300  -14.011540
  C     11.498380  -13.217870  -12.449490
  F     10.711160  -12.375560  -13.186540
  C     11.278070  -12.913930  -10.962810
  F     11.784850  -13.984190  -10.239040
  H      0.430480   -0.024100    4.136970
  H     -2.942240    1.646780    2.126890
  H     -1.482830    2.412430    0.270470
  H      2.665210    0.139700    3.151210
  H      0.756900    2.577150   -0.760190
  H      5.812420    1.820750   -2.022300
  H      8.215810    1.529540   -2.290370
  H     10.470880   -2.754740   -0.066790
  H     12.518020   -0.804240   -3.026270
  H     11.261720    0.166140   -2.232420
  H     12.927460    0.158950   -1.611460
  H     12.701750   -3.218960   -0.075990
  H     13.836860   -1.934890   -0.546270
  H     12.692240   -3.977600   -2.346290
  H     14.853730   -2.002680   -2.633110
  H     13.805790   -4.218830   -4.490970
  H     15.982840   -2.062140   -4.802340
  H     17.217890   -2.176840   -7.080580
  H     17.338080   -3.619750   -9.208770
  H     17.046980   -5.242110  -10.899520
  H     16.363600   -7.284870  -12.307790
  H     14.831300   -9.289380  -12.266910
  H     10.977490  -11.215710   -8.648250
  H     14.539750  -11.547610  -12.741790
  H     13.548680  -13.660410  -12.048370
  H     11.182630  -14.241720  -12.687640
  H     10.204890  -12.876000  -10.739020

 Total Charge           Charge          ....    0
 Multiplicity           Mult            ....    1
 Number of Electrons    NEL             ....  462
 Basis Dimension        Dim             .... 1019

ORBITAL ENERGIES
----------------

  NO   OCC          E(Eh)            E(eV)
   0   2.0000     -89.044693     -2423.0293
   1   2.0000     -88.949364     -2420.4352
   2   2.0000     -88.934345     -2420.0266
   3   2.0000     -88.933831     -2420.0126
   4   2.0000     -24.787626      -674.5056
   5   2.0000     -24.748094      -673.4299
   6   2.0000     -24.747453      -673.4124
   7   2.0000     -24.744494      -673.3319
   8   2.0000     -24.731735      -672.9847
   9   2.0000     -19.217670      -522.9394
  10   2.0000     -14.463147      -393.5622
  11   2.0000     -14.453193      -393.2914
  12   2.0000     -14.451421      -393.2432
  13   2.0000     -14.426787      -392.5728
  14   2.0000     -14.419517      -392.3750
  15   2.0000     -14.419425      -392.3725
  16   2.0000     -10.371655      -282.2271
  17   2.0000     -10.368452      -282.1399
  18   2.0000     -10.351789      -281.6865
  19   2.0000     -10.348418      -281.5948
  20   2.0000     -10.344369      -281.4846
  21   2.0000     -10.344241      -281.4811
  22   2.0000     -10.343370      -281.4574
  23   2.0000     -10.343035      -281.4483
  24   2.0000     -10.342830      -281.4427
  25   2.0000     -10.341081      -281.3951
  26   2.0000     -10.338966      -281.3376
  27   2.0000     -10.336545      -281.2717
  28   2.0000     -10.327599      -281.0282
  29   2.0000     -10.327569      -281.0274
  30   2.0000     -10.321859      -280.8721
  31   2.0000     -10.321693      -280.8676
  32   2.0000     -10.321528      -280.8631
  33   2.0000     -10.310628      -280.5665
  34   2.0000     -10.308613      -280.5116
  35   2.0000     -10.308329      -280.5039
  36   2.0000     -10.307717      -280.4872
  37   2.0000     -10.303926      -280.3841
  38   2.0000     -10.303186      -280.3639
  39   2.0000     -10.302330      -280.3407
  40   2.0000     -10.301715      -280.3239
  41   2.0000     -10.299815      -280.2722
  42   2.0000     -10.299787      -280.2715
  43   2.0000     -10.297414      -280.2069
  44   2.0000     -10.296439      -280.1804
  45   2.0000     -10.296034      -280.1693
  46   2.0000     -10.291949      -280.0582
  47   2.0000     -10.291731      -280.0522
  48   2.0000     -10.291068      -280.0342
  49   2.0000     -10.290622      -280.0221
  50   2.0000     -10.285021      -279.8697
  51   2.0000     -10.284166      -279.8464
  52   2.0000     -10.282603      -279.8039
  53   2.0000     -10.279012      -279.7061
  54   2.0000     -10.275411      -279.6081
  55   2.0000     -10.274083      -279.5720
  56   2.0000     -10.271269      -279.4955
  57   2.0000     -10.268257      -279.4135
  58   2.0000     -10.266948      -279.3779
  59   2.0000     -10.265891      -279.3491
  60   2.0000     -10.264717      -279.3171
  61   2.0000     -10.264528      -279.3120
  62   2.0000      -8.136110      -221.3948
  63   2.0000      -8.044767      -218.9092
  64   2.0000      -8.030702      -218.5265
  65   2.0000      -8.029771      -218.5012
  66   2.0000      -6.107266      -166.1872
  67   2.0000      -6.099529      -165.9766
  68   2.0000      -6.098629      -165.9521
  69   2.0000      -6.013975      -163.6486
  70   2.0000      -6.009656      -163.5311
  71   2.0000      -6.007231      -163.4651
  72   2.0000      -6.000420      -163.2797
  73   2.0000      -5.999558      -163.2563
  74   2.0000      -5.996501      -163.1731
  75   2.0000      -5.995473      -163.1451
  76   2.0000      -5.991546      -163.0383
  77   2.0000      -5.990690      -163.0150
  78   2.0000      -1.302207       -35.4349
  79   2.0000      -1.269922       -34.5563
  80   2.0000      -1.258547       -34.2468
  81   2.0000      -1.254547       -34.1380
  82   2.0000      -1.240629       -33.7592
  83   2.0000      -1.143989       -31.1295
  84   2.0000      -1.132443       -30.8153
  85   2.0000      -1.063483       -28.9389
  86   2.0000      -1.053154       -28.6578
  87   2.0000      -1.022812       -27.8321
  88   2.0000      -1.003419       -27.3044
  89   2.0000      -1.000810       -27.2334
  90   2.0000      -0.995731       -27.0952
  91   2.0000      -0.985252       -26.8101
  92   2.0000      -0.978646       -26.6303
  93   2.0000      -0.978050       -26.6141
  94   2.0000      -0.959995       -26.1228
  95   2.0000      -0.937926       -25.5223
  96   2.0000      -0.928658       -25.2701
  97   2.0000      -0.921728       -25.0815
  98   2.0000      -0.903894       -24.5962
  99   2.0000      -0.902206       -24.5503
 100   2.0000      -0.896910       -24.4062
 101   2.0000      -0.889902       -24.2155
 102   2.0000      -0.885195       -24.0874
 103   2.0000      -0.874459       -23.7952
 104   2.0000      -0.858248       -23.3541
 105   2.0000      -0.847564       -23.0634
 106   2.0000      -0.836584       -22.7646
 107   2.0000      -0.833397       -22.6779
 108   2.0000      -0.829716       -22.5777
 109   2.0000      -0.818584       -22.2748
 110   2.0000      -0.816793       -22.2261
 111   2.0000      -0.809875       -22.0378
 112   2.0000      -0.799780       -21.7631
 113   2.0000      -0.788791       -21.4641
 114   2.0000      -0.779055       -21.1992
 115   2.0000      -0.765645       -20.8343
 116   2.0000      -0.762081       -20.7373
 117   2.0000      -0.750260       -20.4156
 118   2.0000      -0.738739       -20.1021
 119   2.0000      -0.729543       -19.8519
 120   2.0000      -0.724006       -19.7012
 121   2.0000      -0.720176       -19.5970
 122   2.0000      -0.713646       -19.4193
 123   2.0000      -0.710805       -19.3420
 124   2.0000      -0.696147       -18.9431
 125   2.0000      -0.685116       -18.6430
 126   2.0000      -0.683321       -18.5941
 127   2.0000      -0.679833       -18.4992
 128   2.0000      -0.666549       -18.1377
 129   2.0000      -0.655909       -17.8482
 130   2.0000      -0.654549       -17.8112
 131   2.0000      -0.639759       -17.4087
 132   2.0000      -0.636771       -17.3274
 133   2.0000      -0.631535       -17.1849
 134   2.0000      -0.630139       -17.1470
 135   2.0000      -0.622814       -16.9476
 136   2.0000      -0.618643       -16.8341
 137   2.0000      -0.617391       -16.8001
 138   2.0000      -0.615377       -16.7453
 139   2.0000      -0.608167       -16.5491
 140   2.0000      -0.603885       -16.4325
 141   2.0000      -0.596922       -16.2431
 142   2.0000      -0.594191       -16.1688
 143   2.0000      -0.588403       -16.0113
 144   2.0000      -0.586084       -15.9482
 145   2.0000      -0.580534       -15.7971
 146   2.0000      -0.579170       -15.7600
 147   2.0000      -0.577423       -15.7125
 148   2.0000      -0.575614       -15.6633
 149   2.0000      -0.570378       -15.5208
 150   2.0000      -0.568419       -15.4675
 151   2.0000      -0.566851       -15.4248
 152   2.0000      -0.564390       -15.3578
 153   2.0000      -0.560040       -15.2395
 154   2.0000      -0.554855       -15.0984
 155   2.0000      -0.552817       -15.0429
 156   2.0000      -0.552179       -15.0256
 157   2.0000      -0.548784       -14.9332
 158   2.0000      -0.541839       -14.7442
 159   2.0000      -0.537037       -14.6135
 160   2.0000      -0.536025       -14.5860
 161   2.0000      -0.534989       -14.5578
 162   2.0000      -0.530963       -14.4482
 163   2.0000      -0.525607       -14.3025
 164   2.0000      -0.523646       -14.2491
 165   2.0000      -0.517749       -14.0887
 166   2.0000      -0.513266       -13.9667
 167   2.0000      -0.511565       -13.9204
 168   2.0000      -0.506671       -13.7872
 169   2.0000      -0.502868       -13.6837
 170   2.0000      -0.500360       -13.6155
 171   2.0000      -0.497263       -13.5312
 172   2.0000      -0.492575       -13.4036
 173   2.0000      -0.490988       -13.3605
 174   2.0000      -0.489509       -13.3202
 175   2.0000      -0.487244       -13.2586
 176   2.0000      -0.484436       -13.1822
 177   2.0000      -0.483072       -13.1451
 178   2.0000      -0.482057       -13.1175
 179   2.0000      -0.481249       -13.0954
 180   2.0000      -0.476843       -12.9756
 181   2.0000      -0.470732       -12.8093
 182   2.0000      -0.470497       -12.8029
 183   2.0000      -0.468730       -12.7548
 184   2.0000      -0.468198       -12.7403
 185   2.0000      -0.466605       -12.6970
 186   2.0000      -0.463218       -12.6048
 187   2.0000      -0.462039       -12.5727
 188   2.0000      -0.461233       -12.5508
 189   2.0000      -0.460324       -12.5261
 190   2.0000      -0.456216       -12.4143
 191   2.0000      -0.454659       -12.3719
 192   2.0000      -0.453002       -12.3268
 193   2.0000      -0.451510       -12.2862
 194   2.0000      -0.446324       -12.1451
 195   2.0000      -0.445990       -12.1360
 196   2.0000      -0.440620       -11.9899
 197   2.0000      -0.432592       -11.7714
 198   2.0000      -0.431619       -11.7450
 199   2.0000      -0.430870       -11.7246
 200   2.0000      -0.428811       -11.6685
 201   2.0000      -0.422287       -11.4910
 202   2.0000      -0.420755       -11.4493
 203   2.0000      -0.418678       -11.3928
 204   2.0000      -0.418111       -11.3774
 205   2.0000      -0.412260       -11.2182
 206   2.0000      -0.411918       -11.2089
 207   2.0000      -0.408734       -11.1222
 208   2.0000      -0.403594       -10.9823
 209   2.0000      -0.394456       -10.7337
 210   2.0000      -0.387732       -10.5507
 211   2.0000      -0.386714       -10.5230
 212   2.0000      -0.384759       -10.4698
 213   2.0000      -0.383260       -10.4290
 214   2.0000      -0.376316       -10.2401
 215   2.0000      -0.371399       -10.1063
 216   2.0000      -0.369204       -10.0465
 217   2.0000      -0.365275        -9.9396
 218   2.0000      -0.353859        -9.6290
 219   2.0000      -0.349042        -9.4979
 220   2.0000      -0.346780        -9.4364
 221   2.0000      -0.336139        -9.1468
 222   2.0000      -0.329422        -8.9640
 223   2.0000      -0.319920        -8.7055
 224   2.0000      -0.312960        -8.5161
 225   2.0000      -0.308609        -8.3977
 226   2.0000      -0.304600        -8.2886
 227   2.0000      -0.300148        -8.1674
 228   2.0000      -0.291047        -7.9198
 229   2.0000      -0.258719        -7.0401
 230   2.0000      -0.195585        -5.3221
 231   0.0000      -0.109838        -2.9889
 232   0.0000      -0.069579        -1.8933
 233   0.0000      -0.060785        -1.6540
 234   0.0000      -0.054381        -1.4798
 235   0.0000      -0.020510        -0.5581

MULLIKEN ATOMIC CHARGES
-----------------------
   0 C :   -0.098252
   1 C :    0.303453
   2 F :   -0.190892
   3 C :   -0.029712
   4 C :   -0.010332
   5 C :    0.101430
   6 C :    0.105470
   7 C :   -0.093177
   8 C :    0.041881
   9 C :    0.013178
  10 C :   -0.082570
  11 C :    0.134680
  12 O :   -0.142025
  13 C :   -0.119718
  14 C :    0.327364
  15 C :   -0.323801
  16 C :   -0.192774
  17 N :    0.156930
  18 C :   -0.210828
  19 N :    0.163050
  20 C :    0.013669
  21 C :    0.023844
  22 C :    0.013757
  23 N :   -0.055530
  24 C :    0.005003
  25 C :    0.021658
  26 C :    0.036609
  27 N :   -0.283924
  28 S :    0.537419
  29 N :   -0.254128
  30 C :   -0.025636
  31 C :   -0.163111
  32 C :    0.109117
  33 C :    0.204633
  34 N :   -0.141796
  35 C :    0.051347
  36 C :   -0.028886
  37 C :   -0.004350
  38 C :   -0.041082
  39 C :    0.045487
  40 C :    0.008009
  41 C :   -0.034894
  42 S :    0.062082
  43 C :   -0.053993
  44 C :    0.034752
  45 C :    0.019831
  46 C :   -0.019305
  47 S :    0.055919
  48 C :   -0.048759
  49 C :   -0.098116
  50 S :    0.116750
  51 C :   -0.109895
  52 C :   -0.033707
  53 C :   -0.078623
  54 C :    0.335753
  55 F :   -0.248200
  56 C :    0.182218
  57 F :   -0.237761
  58 C :    0.226863
  59 F :   -0.233887
  60 C :    0.280977
  61 F :   -0.256245
  62 H :   -0.002937
  63 H :    0.004958
  64 H :   -0.008171
  65 H :   -0.006059
  66 H :   -0.010823
  67 H :    0.022702
  68 H :    0.009235
  69 H :   -0.015040
  70 H :    0.038351
  71 H :    0.034874
  72 H :    0.014452
  73 H :    0.018009
  74 H :    0.022390
  75 H :    0.124411
  76 H :    0.005466
  77 H :   -0.011647
  78 H :   -0.021781
  79 H :   -0.018394
  80 H :   -0.018944
  81 H :   -0.018764
  82 H :   -0.017661
  83 H :   -0.009982
  84 H :    0.014954
  85 H :    0.008428
  86 H :    0.024935
  87 H :    0.016518
  88 H :    0.013295
Sum of atomic charges:   -0.0000000

LOEWDIN ATOMIC CHARGES
----------------------
   0 C :   -0.042566
   1 C :    0.094017
   2 F :   -0.065370
   3 C :   -0.036793
   4 C :    0.005065
   5 C :   -0.018960
   6 C :    0.004127
   7 C :    0.009491
   8 C :   -0.013806
   9 C :   -0.060157
  10 C :    0.035682
  11 C :    0.085359
  12 O :   -0.141917
  13 C :   -0.079939
  14 C :    0.077681
  15 C :   -0.133345
  16 C :   -0.019839
  17 N :   -0.054325
  18 C :   -0.018722
  19 N :   -0.057576
  20 C :    0.071551
  21 C :   -0.074464
  22 C :    0.062105
  23 N :   -0.064415
  24 C :    0.052942
  25 C :   -0.060394
  26 C :   -0.034766
  27 N :   -0.283453
  28 S :    0.667105
  29 N :   -0.262491
  30 C :   -0.067452
  31 C :    0.022052
  32 C :   -0.059382
  33 C :    0.048264
  34 N :    0.009202
  35 C :    0.045763
  36 C :   -0.121375
  37 C :   -0.029377
  38 C :   -0.178527
  39 C :   -0.022957
  40 C :   -0.053208
  41 C :   -0.161511
  42 S :    0.358561
  43 C :   -0.201688
  44 C :   -0.029254
  45 C :   -0.047620
  46 C :   -0.139984
  47 S :    0.357059
  48 C :   -0.096674
  49 C :   -0.153331
  50 S :    0.448971
  51 C :   -0.188490
  52 C :   -0.086509
  53 C :   -0.098487
  54 C :    0.098361
  55 F :   -0.127186
  56 C :    0.072299
  57 F :   -0.115056
  58 C :    0.081597
  59 F :   -0.109534
  60 C :    0.103894
  61 F :   -0.134721
  62 H :    0.042966
  63 H :    0.042350
  64 H :    0.036045
  65 H :    0.038672
  66 H :    0.040012
  67 H :    0.048564
  68 H :    0.030278
  69 H :    0.032172
  70 H :    0.041331
  71 H :    0.032210
  72 H :    0.035711
  73 H :    0.030528
  74 H :    0.034136
  75 H :    0.083397
  76 H :    0.028132
  77 H :    0.019720
  78 H :    0.030736
  79 H :    0.031361
  80 H :    0.029259
  81 H :    0.030272
  82 H :    0.031176
  83 H :    0.037305
  84 H :    0.023278
  85 H :    0.022594
  86 H :    0.030175
  87 H :    0.025369
  88 H :    0.026725

  Mayer bond orders larger than 0.100000
B(  0-C ,  1-C ) :   1.4398 B(  0-C ,  6-C ) :   1.2030 B(  0-C , 62-H ) :   1.0063
B(  1-C ,  2-F ) :   1.0884 B(  1-C ,  3-C ) :   1.2551 B(  3-C ,  4-C ) :   1.4610
B(  3-C , 63-H ) :   0.9930 B(  4-C ,  5-C ) :   1.2339 B(  4-C , 64-H ) :   0.9969
B(  5-C ,  6-C ) :   1.2559 B(  5-C , 10-C ) :   1.1931 B(  6-C ,  7-C ) :   1.2010
B(  7-C ,  8-C ) :   1.4596 B(  7-C , 65-H ) :   0.9942 B(  8-C ,  9-C ) :   1.2136
B(  8-C , 14-C ) :   1.0091 B(  9-C , 10-C ) :   1.4683 B(  9-C , 11-C ) :   0.9218
B( 10-C , 66-H ) :   1.0151 B( 11-C , 12-O ) :   2.2693 B( 11-C , 13-C ) :   0.9337
B( 13-C , 14-C ) :   1.0352 B( 13-C , 20-C ) :   1.6823 B( 14-C , 15-C ) :   1.6428
B( 15-C , 16-C ) :   1.1467 B( 15-C , 18-C ) :   1.1649 B( 16-C , 17-N ) :   2.9831
B( 18-C , 19-N ) :   3.0022 B( 20-C , 21-C ) :   1.0758 B( 20-C , 67-H ) :   0.9399
B( 21-C , 22-C ) :   1.3884 B( 21-C , 26-C ) :   1.1915 B( 22-C , 23-N ) :   1.4566
B( 22-C , 68-H ) :   0.9805 B( 23-N , 24-C ) :   1.5878 B( 24-C , 25-C ) :   1.1330
B( 24-C , 30-C ) :   1.1465 B( 25-C , 26-C ) :   1.1846 B( 25-C , 29-N ) :   1.5569
B( 26-C , 27-N ) :   1.5239 B( 27-N , 28-S ) :   1.2461 B( 27-N , 29-N ) :   0.1400
B( 28-S , 29-N ) :   1.2886 B( 30-C , 31-C ) :   1.7049 B( 30-C , 69-H ) :   0.9587
B( 31-C , 32-C ) :   1.0895 B( 31-C , 33-C ) :   1.0305 B( 32-C , 70-H ) :   0.9288
B( 32-C , 71-H ) :   0.9158 B( 32-C , 72-H ) :   0.9353 B( 33-C , 34-N ) :   1.0125
B( 33-C , 73-H ) :   0.9430 B( 33-C , 74-H ) :   0.9292 B( 34-N , 35-C ) :   1.2331
B( 34-N , 75-H ) :   0.9358 B( 35-C , 36-C ) :   1.5782 B( 35-C , 76-H ) :   0.9659
B( 36-C , 37-C ) :   1.1804 B( 36-C , 77-H ) :   0.9647 B( 37-C , 38-C ) :   1.5780
B( 37-C , 78-H ) :   0.9785 B( 38-C , 39-C ) :   1.1505 B( 38-C , 42-S ) :   1.0081
B( 39-C , 40-C ) :   1.5853 B( 39-C , 79-H ) :   0.9981 B( 40-C , 41-C ) :   1.1891
B( 40-C , 80-H ) :   0.9937 B( 41-C , 42-S ) :   1.0587 B( 41-C , 43-C ) :   1.5094
B( 43-C , 44-C ) :   1.1913 B( 43-C , 47-S ) :   1.0206 B( 44-C , 45-C ) :   1.5876
B( 44-C , 81-H ) :   0.9926 B( 45-C , 46-C ) :   1.1407 B( 45-C , 82-H ) :   1.0003
B( 46-C , 47-S ) :   1.0437 B( 46-C , 48-C ) :   1.5726 B( 48-C , 49-C ) :   1.1799
B( 48-C , 83-H ) :   0.9593 B( 49-C , 50-S ) :   1.1331 B( 49-C , 53-C ) :   1.4768
B( 50-S , 51-C ) :   1.1577 B( 51-C , 52-C ) :   1.5566 B( 51-C , 84-H ) :   0.9693
B( 52-C , 53-C ) :   1.3404 B( 52-C , 60-C ) :   0.9555 B( 53-C , 54-C ) :   0.9801
B( 54-C , 55-F ) :   1.0433 B( 54-C , 56-C ) :   0.9877 B( 54-C , 85-H ) :   0.9169
B( 56-C , 57-F ) :   1.0426 B( 56-C , 58-C ) :   0.9925 B( 56-C , 86-H ) :   0.9310
B( 58-C , 59-F ) :   1.0384 B( 58-C , 60-C ) :   0.9954 B( 58-C , 87-H ) :   0.9299
B( 60-C , 61-F ) :   1.0185 B( 60-C , 88-H ) :   0.9314

-----------------------------------------------------------------------------
         ABSORPTION SPECTRUM VIA TRANSITION ELECTRIC DIPOLE MOMENTS
-----------------------------------------------------------------------------
State   Energy  Wavelength   fosc         T2         TX        TY        TZ
        (cm-1)    (nm)                  (au**2)     (au)      (au)      (au)
-----------------------------------------------------------------------------
   0    9043.2   1105.8   0.170855308   6.21985   1.37504  -1.27576  -1.64364
   1   16124.0    620.2   1.334849169  27.25436   0.16421   3.68029   3.69904
   2   19314.3    517.8   0.016107046   0.27454   0.41873   0.29485   0.11077
   3   21304.7    469.4   0.456715419   7.05740   2.51898  -0.23854  -0.80947
   4   23074.0    433.4   0.048736999   0.69536   0.48997  -0.45921  -0.49439
   5   23652.4    422.8   0.002833794   0.03944   0.19221  -0.04998  -0.00091
   6   24918.4    401.3   0.362143352   4.78449   2.08264  -0.47941  -0.46611
   7   25752.9    388.3   0.008591381   0.10983   0.28670   0.16003   0.04498
   8   26501.4    377.3   0.004166792   0.05176  -0.12784   0.13953  -0.12630
   9   27258.4    366.9   0.031164888   0.37639  -0.58510   0.18150  -0.03327
  10   28729.5    348.1   0.004441602   0.05090  -0.11196   0.05178   0.18889
  11   29397.2    340.2   0.254083713   2.84542  -1.32523  -0.52896   0.89965
  12   29988.9    333.5   0.206187202   2.26348   1.46280   0.34642   0.06082
  13   30806.9    324.6   0.501740199   5.36175   1.33732   0.87695  -1.67460
  14   31103.9    321.5   0.000926726   0.00981   0.05136  -0.06053   0.05922
  15   31554.6    316.9   0.082179243   0.85738   0.58133  -0.62039   0.36681
  16   32270.0    309.9   0.163245947   1.66540   1.26779   0.07679  -0.22850
  17   32501.4    307.7   0.003378041   0.03422   0.15775  -0.09656   0.00302
  18   33154.9    301.6   0.041790421   0.41496   0.57275   0.22115   0.19494
  19   33501.2    298.5   0.034139762   0.33549  -0.56808   0.06256  -0.09410
  20   33902.5    295.0   0.457796818   4.44546   2.05079  -0.36686  -0.32427
  21   33977.1    294.3   0.007952915   0.07706  -0.13485   0.09021  -0.22525
  22   33980.0    294.3   0.071027895   0.68815   0.66501  -0.22426   0.44229
  23   34460.1    290.2   0.023137668   0.22104  -0.25072  -0.32512   0.22908
  24   34800.1    287.4   0.046659639   0.44140   0.26429   0.59975  -0.10890
  25   35510.9    281.6   0.009383510   0.08699   0.09076   0.28060  -0.00444
  26   35791.4    279.4   0.004938632   0.04543   0.13686   0.09252  -0.13467
  27   36442.8    274.4   0.164616474   1.48709  -1.21568   0.08908   0.03586
  28   37000.3    270.3   0.016186784   0.14402  -0.22688  -0.23993  -0.18704
  29   37219.6    268.7   0.328346623   2.90426   1.29771  -0.54282   0.96206
  30   37466.8    266.9   0.005719763   0.05026  -0.21319   0.05589   0.04106
  31   37717.4    265.1   0.019854948   0.17330  -0.35488  -0.21207   0.04887
  32   37840.5    264.3   0.007377928   0.06419   0.07525   0.06748  -0.23232
  33   38134.5    262.2   0.038627328   0.33347   0.25830   0.27011  -0.44022
  34   39566.9    252.7   0.065648776   0.54622   0.21478   0.22069  -0.67186
  35   39669.9    252.1   0.044952541   0.37305   0.04075   0.51524  -0.32545
  36   39705.6    251.9   0.145868060   1.20944  -0.96449  -0.20186   0.48831
  37   39955.4    250.3   0.015689141   0.12927   0.15521   0.29661   0.13116
  38   40264.7    248.4   0.005434088   0.04443   0.16927   0.11735  -0.04480

FINAL SINGLE POINT ENERGY     -4260.986541338681

DIPOLE MOMENT
-------------
                                X             Y             Z
Electronic contribution:    -32.69419     -32.36879     -11.60314
Nuclear contribution   :     32.35502      34.11869      13.75805
                        -----------------------------------------
Total Dipole Moment    :     -0.33916       1.74990       2.15491
                        -----------------------------------------
Magnitude (a.u.)       :      2.79657
Magnitude (Debye)      :      7.10832

Rotational constants in cm-1:     0.001518     0.000243     0.000220
Rotational constants in MHz :    45.502839     7.295063     6.605261

                             ****ORCA TERMINATED NORMALLY****
TOTAL RUN TIME: 0 days 0 hours 7 minutes 18 seconds 689 msec
