                         Program Version 4.2.0 -  RELEASE  -
|  1> # ORCA input file
|  2> # SCF done       -206.209089476249          0.000476769659
|  3> ! CAM-B3LYP def2-SVP def2/J RIJCOSX Grid4 TightSCF
|  4> %maxcore 5000
|  5> %tddft
|  6>     Mode sTDDFT
|  7>     Ethresh 5.0
|  8>     maxcore 5000
|  9> end
| 10>
| 11> %pal
| 12>   nprocs 6
| 13>   end
| 14> * xyz 0 1
| 15>    C       13.32384       -11.99283         0.53877
| 16>    C       13.02118       -13.17432         1.15671
| 17>    F       13.82772       -14.23708         0.98359
| 18>    C       11.89293       -13.32770         1.97370
| 19>    C       11.06298       -12.25770         2.16264
| 20>    C       11.32789       -11.01555         1.55064
| 21>    C       12.47861       -10.88120         0.72016
| 22>    C       12.75798        -9.64859         0.08420
| 23>    C       11.91590        -8.58847         0.27899
| 24>    C       10.77756        -8.72265         1.12581
| 25>    C       10.47955        -9.90195         1.74437
| 26>    C       10.06701        -7.43080         1.19336
| 27>    O        9.03794        -7.17418         1.77691
| 28>    C       10.92113        -6.47690         0.43737
| 29>    C       11.91983        -7.23614        -0.27408
| 30>    C       12.55016        -6.86269        -1.43550
| 31>    C       12.26633        -5.66033        -2.11195
| 32>    N       12.02372        -4.70956        -2.70906
| 33>    C       13.47699        -7.66968        -2.12210
| 34>    N       14.26382        -8.27252        -2.70197
| 35>    C       10.70755        -5.13458         0.59126
| 36>    C       11.57046        -4.05073         0.37172
| 37>    S       13.29445        -4.21323         0.23099
| 38>    C       13.55221        -2.51350         0.09281
| 39>    C       12.32888        -1.82148         0.16244
| 40>    C       11.21077        -2.68874         0.33984
| 41>    C        9.91348        -2.15431         0.42493
| 42>    C        9.75351        -0.79952         0.34533
| 43>    F        8.52880        -0.26526         0.43215
| 44>    C       10.86102         0.06089         0.16995
| 45>    F       10.65030         1.38305         0.09457
| 46>    C       12.13153        -0.43090         0.07716
| 47>    C       14.84207        -1.96148        -0.10161
| 48>    C       15.98056        -2.69401        -0.12375
| 49>    C       17.31090        -2.21990        -0.37024
| 50>    C       17.69940        -1.17964        -1.13000
| 51>    C       16.79473        -0.32850        -1.95587
| 52>    C       19.17359        -0.88612        -1.28824
| 53>    N       19.66123        -1.42508        -2.54165
| 54>    C       19.77809        -0.74586        -3.69755
| 55>    C       19.67942         0.59885        -3.86616
| 56>    C       19.82348         1.23880        -5.11320
| 57>    S       20.11557         0.35906        -6.58694
| 58>    C       20.11526         1.82687        -7.53963
| 59>    C       19.91734         2.93921        -6.72836
| 60>    C       19.73474         2.61313        -5.36228
| 61>    C       19.45093         3.61614        -4.34508
| 62>    O       19.26152         3.35784        -3.16297
| 63>    C       19.38190         5.00832        -4.84478
| 64>    C       19.09614         6.02146        -3.93233
| 65>    C       19.02089         7.33998        -4.33873
| 66>    C       19.23308         7.66648        -5.67045
| 67>    C       19.51962         6.67159        -6.58546
| 68>    C       19.59628         5.33826        -6.18864
| 69>    C       19.91992         4.32261        -7.21517
| 70>    O       20.18722         4.63711        -8.36198
| 71>    C       20.22345         1.79381        -8.94449
| 72>    C       20.51264         0.67622        -9.66443
| 73>    C       20.57488         0.61631       -11.07548
| 74>    C       19.86008         1.37287       -11.96535
| 75>    C       20.03803         1.36371       -13.40332
| 76>    C       21.14612         0.91965       -14.07952
| 77>    C       21.28326         0.95872       -15.48194
| 78>    N       21.44592         0.95826       -16.61862
| 79>    C       22.30639         0.39687       -13.47116
| 80>    N       23.29029        -0.02157       -13.05194
| 81>    C       18.87062         1.99463       -14.00615
| 82>    C       18.01379         2.43806       -12.97040
| 83>    C       18.60221         2.10171       -11.65699
| 84>    O       18.09396         2.31459       -10.57799
| 85>    C       16.82342         3.07770       -13.21605
| 86>    C       16.46160         3.29183       -14.55009
| 87>    C       17.32199         2.84084       -15.57918
| 88>    C       18.52563         2.19290       -15.33012
| 89>    S       16.67871         3.20048       -17.15298
| 90>    C       15.28414         3.94469       -16.41686
| 91>    C       15.29634         3.92507       -15.06316
| 92>   Br       13.94281         4.67524       -17.50537
| 93>    H       14.19874       -11.91256        -0.08735
| 94>    H       11.70425       -14.28430         2.43447
| 95>    H       10.18772       -12.35134         2.78773
| 96>    H       13.63740        -9.57179        -0.53572
| 97>    H        9.60571        -9.98651         2.37282
| 98>    H        9.74889        -4.88615         1.03710
| 99>    H        9.05015        -2.78715         0.54746
|100>    H       12.95556         0.24934        -0.06065
|101>    H       14.88523        -0.88936        -0.20987
|102>    H       15.90266        -3.75232         0.09935
|103>    H       18.08634        -2.82087         0.09144
|104>    H       15.87215        -0.84957        -2.19994
|105>    H       17.29243        -0.03860        -2.87924
|106>    H       16.54828         0.59015        -1.42242
|107>    H       19.74536        -1.34327        -0.47563
|108>    H       19.34792         0.18999        -1.27647
|109>    H       19.66107        -2.43183        -2.59811
|110>    H       20.00651        -1.36289        -4.55871
|111>    H       19.47523         1.26456        -3.04185
|112>    H       18.93706         5.74523        -2.90037
|113>    H       18.79816         8.11422        -3.61971
|114>    H       19.17611         8.69560        -5.99214
|115>    H       19.69106         6.90170        -7.62662
|116>    H       20.09049         2.74669        -9.43596
|117>    H       20.78568        -0.22837        -9.13201
|118>    H       21.22391        -0.15203       -11.48000
|119>    H       16.19295         3.40484       -12.40421
|120>    H       19.14377         1.86230       -16.14801
|121>    H       14.51689         4.33858       -14.44963
|122> *
|123>
|124>                          ****END OF INPUT****

CARTESIAN COORDINATES (ANGSTROEM)
---------------------------------
  C     13.323840  -11.992830    0.538770
  C     13.021180  -13.174320    1.156710
  F     13.827720  -14.237080    0.983590
  C     11.892930  -13.327700    1.973700
  C     11.062980  -12.257700    2.162640
  C     11.327890  -11.015550    1.550640
  C     12.478610  -10.881200    0.720160
  C     12.757980   -9.648590    0.084200
  C     11.915900   -8.588470    0.278990
  C     10.777560   -8.722650    1.125810
  C     10.479550   -9.901950    1.744370
  C     10.067010   -7.430800    1.193360
  O      9.037940   -7.174180    1.776910
  C     10.921130   -6.476900    0.437370
  C     11.919830   -7.236140   -0.274080
  C     12.550160   -6.862690   -1.435500
  C     12.266330   -5.660330   -2.111950
  N     12.023720   -4.709560   -2.709060
  C     13.476990   -7.669680   -2.122100
  N     14.263820   -8.272520   -2.701970
  C     10.707550   -5.134580    0.591260
  C     11.570460   -4.050730    0.371720
  S     13.294450   -4.213230    0.230990
  C     13.552210   -2.513500    0.092810
  C     12.328880   -1.821480    0.162440
  C     11.210770   -2.688740    0.339840
  C      9.913480   -2.154310    0.424930
  C      9.753510   -0.799520    0.345330
  F      8.528800   -0.265260    0.432150
  C     10.861020    0.060890    0.169950
  F     10.650300    1.383050    0.094570
  C     12.131530   -0.430900    0.077160
  C     14.842070   -1.961480   -0.101610
  C     15.980560   -2.694010   -0.123750
  C     17.310900   -2.219900   -0.370240
  C     17.699400   -1.179640   -1.130000
  C     16.794730   -0.328500   -1.955870
  C     19.173590   -0.886120   -1.288240
  N     19.661230   -1.425080   -2.541650
  C     19.778090   -0.745860   -3.697550
  C     19.679420    0.598850   -3.866160
  C     19.823480    1.238800   -5.113200
  S     20.115570    0.359060   -6.586940
  C     20.115260    1.826870   -7.539630
  C     19.917340    2.939210   -6.728360
  C     19.734740    2.613130   -5.362280
  C     19.450930    3.616140   -4.345080
  O     19.261520    3.357840   -3.162970
  C     19.381900    5.008320   -4.844780
  C     19.096140    6.021460   -3.932330
  C     19.020890    7.339980   -4.338730
  C     19.233080    7.666480   -5.670450
  C     19.519620    6.671590   -6.585460
  C     19.596280    5.338260   -6.188640
  C     19.919920    4.322610   -7.215170
  O     20.187220    4.637110   -8.361980
  C     20.223450    1.793810   -8.944490
  C     20.512640    0.676220   -9.664430
  C     20.574880    0.616310  -11.075480
  C     19.860080    1.372870  -11.965350
  C     20.038030    1.363710  -13.403320
  C     21.146120    0.919650  -14.079520
  C     21.283260    0.958720  -15.481940
  N     21.445920    0.958260  -16.618620
  C     22.306390    0.396870  -13.471160
  N     23.290290   -0.021570  -13.051940
  C     18.870620    1.994630  -14.006150
  C     18.013790    2.438060  -12.970400
  C     18.602210    2.101710  -11.656990
  O     18.093960    2.314590  -10.577990
  C     16.823420    3.077700  -13.216050
  C     16.461600    3.291830  -14.550090
  C     17.321990    2.840840  -15.579180
  C     18.525630    2.192900  -15.330120
  S     16.678710    3.200480  -17.152980
  C     15.284140    3.944690  -16.416860
  C     15.296340    3.925070  -15.063160
  Br    13.942810    4.675240  -17.505370
  H     14.198740  -11.912560   -0.087350
  H     11.704250  -14.284300    2.434470
  H     10.187720  -12.351340    2.787730
  H     13.637400   -9.571790   -0.535720
  H      9.605710   -9.986510    2.372820
  H      9.748890   -4.886150    1.037100
  H      9.050150   -2.787150    0.547460
  H     12.955560    0.249340   -0.060650
  H     14.885230   -0.889360   -0.209870
  H     15.902660   -3.752320    0.099350
  H     18.086340   -2.820870    0.091440
  H     15.872150   -0.849570   -2.199940
  H     17.292430   -0.038600   -2.879240
  H     16.548280    0.590150   -1.422420
  H     19.745360   -1.343270   -0.475630
  H     19.347920    0.189990   -1.276470
  H     19.661070   -2.431830   -2.598110
  H     20.006510   -1.362890   -4.558710
  H     19.475230    1.264560   -3.041850
  H     18.937060    5.745230   -2.900370
  H     18.798160    8.114220   -3.619710
  H     19.176110    8.695600   -5.992140
  H     19.691060    6.901700   -7.626620
  H     20.090490    2.746690   -9.435960
  H     20.785680   -0.228370   -9.132010
  H     21.223910   -0.152030  -11.480000
  H     16.192950    3.404840  -12.404210
  H     19.143770    1.862300  -16.148010
  H     14.516890    4.338580  -14.449630

 Total Charge           Charge          ....    0
 Multiplicity           Mult            ....    1
 Number of Electrons    NEL             ....  578
 Basis Dimension        Dim             .... 1267

ORBITAL ENERGIES
----------------

  NO   OCC          E(Eh)            E(eV)
   0   2.0000    -482.880873    -13139.8566
   1   2.0000     -88.988182     -2421.4915
   2   2.0000     -88.969668     -2420.9877
   3   2.0000     -88.968616     -2420.9591
   4   2.0000     -62.558594     -1702.3059
   5   2.0000     -56.392540     -1534.5190
   6   2.0000     -56.389834     -1534.4454
   7   2.0000     -56.389798     -1534.4444
   8   2.0000     -24.801114      -674.8726
   9   2.0000     -24.798510      -674.8018
  10   2.0000     -24.786080      -674.4635
  11   2.0000     -19.211106      -522.7608
  12   2.0000     -19.210529      -522.7451
  13   2.0000     -19.206879      -522.6458
  14   2.0000     -19.205036      -522.5956
  15   2.0000     -14.467061      -393.6687
  16   2.0000     -14.415453      -392.2644
  17   2.0000     -14.413786      -392.2190
  18   2.0000     -14.406490      -392.0205
  19   2.0000     -14.405227      -391.9862
  20   2.0000     -10.386026      -282.6181
  21   2.0000     -10.381788      -282.5028
  22   2.0000     -10.369486      -282.1680
  23   2.0000     -10.365412      -282.0572
  24   2.0000     -10.363071      -281.9935
  25   2.0000     -10.361447      -281.9493
  26   2.0000     -10.359194      -281.8880
  27   2.0000     -10.353302      -281.7277
  28   2.0000     -10.344736      -281.4946
  29   2.0000     -10.341027      -281.3936
  30   2.0000     -10.340346      -281.3751
  31   2.0000     -10.340204      -281.3713
  32   2.0000     -10.332124      -281.1514
  33   2.0000     -10.332076      -281.1501
  34   2.0000     -10.331270      -281.1281
  35   2.0000     -10.331231      -281.1271
  36   2.0000     -10.323675      -280.9215
  37   2.0000     -10.322601      -280.8922
  38   2.0000     -10.319147      -280.7983
  39   2.0000     -10.318649      -280.7847
  40   2.0000     -10.316141      -280.7165
  41   2.0000     -10.316110      -280.7156
  42   2.0000     -10.315836      -280.7082
  43   2.0000     -10.311665      -280.5947
  44   2.0000     -10.309737      -280.5422
  45   2.0000     -10.308560      -280.5102
  46   2.0000     -10.308175      -280.4997
  47   2.0000     -10.308033      -280.4959
  48   2.0000     -10.307585      -280.4836
  49   2.0000     -10.307108      -280.4707
  50   2.0000     -10.307089      -280.4701
  51   2.0000     -10.305840      -280.4362
  52   2.0000     -10.305423      -280.4248
  53   2.0000     -10.303571      -280.3744
  54   2.0000     -10.301082      -280.3067
  55   2.0000     -10.300630      -280.2944
  56   2.0000     -10.300343      -280.2866
  57   2.0000     -10.299061      -280.2517
  58   2.0000     -10.298391      -280.2335
  59   2.0000     -10.297684      -280.2142
  60   2.0000     -10.297585      -280.2115
  61   2.0000     -10.294933      -280.1394
  62   2.0000     -10.294307      -280.1223
  63   2.0000     -10.294246      -280.1207
  64   2.0000     -10.293991      -280.1137
  65   2.0000     -10.293694      -280.1057
  66   2.0000     -10.293162      -280.0912
  67   2.0000     -10.291225      -280.0385
  68   2.0000     -10.289117      -279.9811
  69   2.0000     -10.289035      -279.9789
  70   2.0000     -10.287171      -279.9282
  71   2.0000     -10.286842      -279.9192
  72   2.0000     -10.286422      -279.9078
  73   2.0000     -10.284667      -279.8600
  74   2.0000     -10.283618      -279.8315
  75   2.0000     -10.282860      -279.8108
  76   2.0000     -10.282084      -279.7897
  77   2.0000     -10.280559      -279.7482
  78   2.0000     -10.280289      -279.7409
  79   2.0000     -10.280081      -279.7352
  80   2.0000     -10.279812      -279.7279
  81   2.0000     -10.269544      -279.4485
  82   2.0000      -8.788023      -239.1343
  83   2.0000      -8.082727      -219.9422
  84   2.0000      -8.065654      -219.4776
  85   2.0000      -8.064376      -219.4428
  86   2.0000      -6.624313      -180.2567
  87   2.0000      -6.609752      -179.8605
  88   2.0000      -6.609580      -179.8558
  89   2.0000      -6.051693      -164.6749
  90   2.0000      -6.047642      -164.5647
  91   2.0000      -6.045491      -164.5062
  92   2.0000      -6.035357      -164.2304
  93   2.0000      -6.033498      -164.1798
  94   2.0000      -6.031068      -164.1137
  95   2.0000      -6.029633      -164.0746
  96   2.0000      -6.026871      -163.9995
  97   2.0000      -6.026473      -163.9887
  98   2.0000      -2.740162       -74.5636
  99   2.0000      -2.736114       -74.4534
 100   2.0000      -2.735968       -74.4495
 101   2.0000      -2.724403       -74.1348
 102   2.0000      -2.724385       -74.1343
 103   2.0000      -1.323006       -36.0008
 104   2.0000      -1.307611       -35.5819
 105   2.0000      -1.300998       -35.4019
 106   2.0000      -1.126726       -30.6598
 107   2.0000      -1.126535       -30.6546
 108   2.0000      -1.122579       -30.5469
 109   2.0000      -1.119894       -30.4739
 110   2.0000      -1.063543       -28.9405
 111   2.0000      -1.026708       -27.9381
 112   2.0000      -1.016355       -27.6564
 113   2.0000      -1.015493       -27.6330
 114   2.0000      -1.005056       -27.3490
 115   2.0000      -0.999813       -27.2063
 116   2.0000      -0.999684       -27.2028
 117   2.0000      -0.993263       -27.0281
 118   2.0000      -0.984693       -26.7949
 119   2.0000      -0.981270       -26.7017
 120   2.0000      -0.975994       -26.5582
 121   2.0000      -0.964415       -26.2431
 122   2.0000      -0.962420       -26.1888
 123   2.0000      -0.945051       -25.7162
 124   2.0000      -0.937553       -25.5121
 125   2.0000      -0.929329       -25.2883
 126   2.0000      -0.920000       -25.0345
 127   2.0000      -0.916968       -24.9520
 128   2.0000      -0.901750       -24.5379
 129   2.0000      -0.901053       -24.5189
 130   2.0000      -0.895967       -24.3805
 131   2.0000      -0.888768       -24.1846
 132   2.0000      -0.885921       -24.1071
 133   2.0000      -0.880964       -23.9722
 134   2.0000      -0.878906       -23.9162
 135   2.0000      -0.867629       -23.6094
 136   2.0000      -0.866387       -23.5756
 137   2.0000      -0.851764       -23.1777
 138   2.0000      -0.849428       -23.1141
 139   2.0000      -0.844716       -22.9859
 140   2.0000      -0.837563       -22.7913
 141   2.0000      -0.834732       -22.7142
 142   2.0000      -0.828922       -22.5561
 143   2.0000      -0.822599       -22.3841
 144   2.0000      -0.814357       -22.1598
 145   2.0000      -0.808672       -22.0051
 146   2.0000      -0.797330       -21.6965
 147   2.0000      -0.776403       -21.1270
 148   2.0000      -0.771779       -21.0012
 149   2.0000      -0.759797       -20.6751
 150   2.0000      -0.752743       -20.4832
 151   2.0000      -0.751070       -20.4376
 152   2.0000      -0.745793       -20.2940
 153   2.0000      -0.738371       -20.0921
 154   2.0000      -0.735650       -20.0181
 155   2.0000      -0.719365       -19.5749
 156   2.0000      -0.716775       -19.5044
 157   2.0000      -0.709802       -19.3147
 158   2.0000      -0.707603       -19.2549
 159   2.0000      -0.703498       -19.1431
 160   2.0000      -0.686347       -18.6764
 161   2.0000      -0.683465       -18.5980
 162   2.0000      -0.681980       -18.5576
 163   2.0000      -0.678780       -18.4706
 164   2.0000      -0.676284       -18.4026
 165   2.0000      -0.669702       -18.2235
 166   2.0000      -0.664235       -18.0748
 167   2.0000      -0.654319       -17.8049
 168   2.0000      -0.651660       -17.7326
 169   2.0000      -0.649506       -17.6740
 170   2.0000      -0.639163       -17.3925
 171   2.0000      -0.636372       -17.3166
 172   2.0000      -0.634833       -17.2747
 173   2.0000      -0.629893       -17.1403
 174   2.0000      -0.625417       -17.0184
 175   2.0000      -0.624827       -17.0024
 176   2.0000      -0.623432       -16.9644
 177   2.0000      -0.618019       -16.8172
 178   2.0000      -0.614361       -16.7176
 179   2.0000      -0.607930       -16.5426
 180   2.0000      -0.604466       -16.4483
 181   2.0000      -0.601402       -16.3650
 182   2.0000      -0.591736       -16.1020
 183   2.0000      -0.588302       -16.0085
 184   2.0000      -0.587501       -15.9867
 185   2.0000      -0.582567       -15.8524
 186   2.0000      -0.579742       -15.7756
 187   2.0000      -0.576073       -15.6757
 188   2.0000      -0.569415       -15.4946
 189   2.0000      -0.566798       -15.4234
 190   2.0000      -0.563716       -15.3395
 191   2.0000      -0.559796       -15.2328
 192   2.0000      -0.558804       -15.2058
 193   2.0000      -0.558149       -15.1880
 194   2.0000      -0.552556       -15.0358
 195   2.0000      -0.549530       -14.9535
 196   2.0000      -0.548942       -14.9375
 197   2.0000      -0.546485       -14.8706
 198   2.0000      -0.544469       -14.8157
 199   2.0000      -0.539061       -14.6686
 200   2.0000      -0.534264       -14.5381
 201   2.0000      -0.533864       -14.5272
 202   2.0000      -0.532135       -14.4801
 203   2.0000      -0.531624       -14.4662
 204   2.0000      -0.530529       -14.4364
 205   2.0000      -0.527284       -14.3481
 206   2.0000      -0.526152       -14.3173
 207   2.0000      -0.525190       -14.2911
 208   2.0000      -0.523539       -14.2462
 209   2.0000      -0.523090       -14.2340
 210   2.0000      -0.521997       -14.2043
 211   2.0000      -0.516585       -14.0570
 212   2.0000      -0.514976       -14.0132
 213   2.0000      -0.513114       -13.9626
 214   2.0000      -0.511975       -13.9316
 215   2.0000      -0.511530       -13.9195
 216   2.0000      -0.509232       -13.8569
 217   2.0000      -0.502591       -13.6762
 218   2.0000      -0.498576       -13.5669
 219   2.0000      -0.498106       -13.5542
 220   2.0000      -0.496988       -13.5237
 221   2.0000      -0.496839       -13.5197
 222   2.0000      -0.491899       -13.3853
 223   2.0000      -0.490303       -13.3418
 224   2.0000      -0.486977       -13.2513
 225   2.0000      -0.485525       -13.2118
 226   2.0000      -0.483020       -13.1437
 227   2.0000      -0.482531       -13.1303
 228   2.0000      -0.481582       -13.1045
 229   2.0000      -0.480643       -13.0790
 230   2.0000      -0.478742       -13.0272
 231   2.0000      -0.476587       -12.9686
 232   2.0000      -0.472557       -12.8589
 233   2.0000      -0.470071       -12.7913
 234   2.0000      -0.467177       -12.7125
 235   2.0000      -0.464585       -12.6420
 236   2.0000      -0.458320       -12.4715
 237   2.0000      -0.456483       -12.4215
 238   2.0000      -0.453114       -12.3298
 239   2.0000      -0.451287       -12.2801
 240   2.0000      -0.450832       -12.2678
 241   2.0000      -0.449544       -12.2327
 242   2.0000      -0.445309       -12.1175
 243   2.0000      -0.444310       -12.0903
 244   2.0000      -0.442446       -12.0396
 245   2.0000      -0.440953       -11.9989
 246   2.0000      -0.440078       -11.9751
 247   2.0000      -0.439711       -11.9651
 248   2.0000      -0.438199       -11.9240
 249   2.0000      -0.437131       -11.8949
 250   2.0000      -0.435238       -11.8434
 251   2.0000      -0.434242       -11.8163
 252   2.0000      -0.432363       -11.7652
 253   2.0000      -0.431390       -11.7387
 254   2.0000      -0.428430       -11.6582
 255   2.0000      -0.426969       -11.6184
 256   2.0000      -0.426668       -11.6102
 257   2.0000      -0.423659       -11.5284
 258   2.0000      -0.418421       -11.3858
 259   2.0000      -0.417365       -11.3571
 260   2.0000      -0.414829       -11.2881
 261   2.0000      -0.410876       -11.1805
 262   2.0000      -0.406350       -11.0574
 263   2.0000      -0.400537       -10.8992
 264   2.0000      -0.396529       -10.7901
 265   2.0000      -0.391905       -10.6643
 266   2.0000      -0.383877       -10.4458
 267   2.0000      -0.381114       -10.3706
 268   2.0000      -0.377526       -10.2730
 269   2.0000      -0.370379       -10.0785
 270   2.0000      -0.366929        -9.9847
 271   2.0000      -0.347682        -9.4609
 272   2.0000      -0.345972        -9.4144
 273   2.0000      -0.339463        -9.2373
 274   2.0000      -0.338455        -9.2098
 275   2.0000      -0.334476        -9.1016
 276   2.0000      -0.331470        -9.0198
 277   2.0000      -0.329369        -8.9626
 278   2.0000      -0.329346        -8.9620
 279   2.0000      -0.328514        -8.9393
 280   2.0000      -0.327943        -8.9238
 281   2.0000      -0.326223        -8.8770
 282   2.0000      -0.312559        -8.5052
 283   2.0000      -0.308796        -8.4028
 284   2.0000      -0.298529        -8.1234
 285   2.0000      -0.295438        -8.0393
 286   2.0000      -0.285980        -7.7819
 287   2.0000      -0.258322        -7.0293
 288   2.0000      -0.246999        -6.7212
 289   0.0000      -0.109536        -2.9806
 290   0.0000      -0.093829        -2.5532
 291   0.0000      -0.062810        -1.7091
 292   0.0000      -0.060671        -1.6509
 293   0.0000      -0.054509        -1.4833

MULLIKEN ATOMIC CHARGES
-----------------------
   0 C :   -0.099530
   1 C :    0.301930
   2 F :   -0.191237
   3 C :   -0.028780
   4 C :   -0.010347
   5 C :    0.101073
   6 C :    0.102967
   7 C :   -0.088174
   8 C :    0.040059
   9 C :    0.013036
  10 C :   -0.082737
  11 C :    0.137912
  12 O :   -0.150746
  13 C :   -0.142637
  14 C :    0.255638
  15 C :   -0.331507
  16 C :   -0.219016
  17 N :    0.169311
  18 C :   -0.170547
  19 N :    0.142953
  20 C :    0.016217
  21 C :   -0.126762
  22 S :    0.176457
  23 C :   -0.072576
  24 C :    0.115433
  25 C :    0.170309
  26 C :   -0.107260
  27 C :    0.236967
  28 F :   -0.168175
  29 C :    0.223447
  30 F :   -0.174341
  31 C :   -0.105899
  32 C :   -0.003487
  33 C :    0.014839
  34 C :   -0.001634
  35 C :   -0.186969
  36 C :    0.080080
  37 C :    0.193717
  38 N :   -0.129949
  39 C :    0.070692
  40 C :   -0.090132
  41 C :   -0.093867
  42 S :    0.107131
  43 C :   -0.156898
  44 C :    0.074553
  45 C :    0.022393
  46 C :    0.121246
  47 O :   -0.191079
  48 C :   -0.004607
  49 C :   -0.025179
  50 C :    0.049807
  51 C :    0.049156
  52 C :   -0.019074
  53 C :   -0.016269
  54 C :    0.120561
  55 O :   -0.158932
  56 C :    0.095120
  57 C :   -0.021647
  58 C :    0.008285
  59 C :   -0.099995
  60 C :    0.291688
  61 C :   -0.343504
  62 C :   -0.184607
  63 N :    0.142192
  64 C :   -0.209978
  65 N :    0.160270
  66 C :    0.016628
  67 C :   -0.015420
  68 C :    0.147148
  69 O :   -0.149326
  70 C :   -0.070349
  71 C :    0.116389
  72 C :   -0.090975
  73 C :   -0.020046
  74 S :    0.183082
  75 C :   -0.123452
  76 C :    0.039858
  77 Br:    0.019226
  78 H :   -0.004252
  79 H :    0.002467
  80 H :   -0.008718
  81 H :   -0.006525
  82 H :   -0.012314
  83 H :    0.020425
  84 H :    0.003469
  85 H :   -0.006816
  86 H :   -0.004073
  87 H :    0.009928
  88 H :   -0.013239
  89 H :    0.034161
  90 H :    0.035137
  91 H :    0.043183
  92 H :    0.019908
  93 H :    0.046500
  94 H :    0.130709
  95 H :    0.020028
  96 H :    0.013271
  97 H :   -0.004862
  98 H :   -0.004905
  99 H :   -0.004817
 100 H :    0.000509
 101 H :    0.037535
 102 H :   -0.002827
 103 H :    0.030246
 104 H :   -0.012175
 105 H :   -0.007811
 106 H :   -0.004261
Sum of atomic charges:   -0.0000000

LOEWDIN ATOMIC CHARGES
----------------------
   0 C :   -0.043285
   1 C :    0.092494
   2 F :   -0.065504
   3 C :   -0.037836
   4 C :    0.004413
   5 C :   -0.019336
   6 C :    0.002920
   7 C :    0.007515
   8 C :   -0.016051
   9 C :   -0.058230
  10 C :    0.032873
  11 C :    0.080697
  12 O :   -0.151960
  13 C :   -0.110202
  14 C :    0.061162
  15 C :   -0.153791
  16 C :   -0.038021
  17 N :   -0.054921
  18 C :   -0.020078
  19 N :   -0.059915
  20 C :    0.046514
  21 C :   -0.194252
  22 S :    0.523276
  23 C :   -0.131140
  24 C :   -0.049189
  25 C :   -0.010619
  26 C :   -0.037933
  27 C :    0.076385
  28 F :   -0.045852
  29 C :    0.060749
  30 F :   -0.052616
  31 C :   -0.031341
  32 C :   -0.045903
  33 C :   -0.001112
  34 C :   -0.062548
  35 C :   -0.010519
  36 C :   -0.053458
  37 C :    0.050638
  38 N :    0.021844
  39 C :    0.062591
  40 C :   -0.151038
  41 C :   -0.087907
  42 S :    0.437147
  43 C :   -0.144466
  44 C :   -0.059107
  45 C :   -0.121782
  46 C :    0.085403
  47 O :   -0.172972
  48 C :   -0.046351
  49 C :    0.011486
  50 C :   -0.006457
  51 C :   -0.007720
  52 C :    0.016149
  53 C :   -0.050532
  54 C :    0.088765
  55 O :   -0.140058
  56 C :    0.046153
  57 C :   -0.061570
  58 C :    0.070140
  59 C :   -0.099745
  60 C :    0.075291
  61 C :   -0.144649
  62 C :   -0.017952
  63 N :   -0.059036
  64 C :   -0.024942
  65 N :   -0.055213
  66 C :   -0.020361
  67 C :   -0.048367
  68 C :    0.082568
  69 O :   -0.138396
  70 C :    0.020913
  71 C :   -0.033641
  72 C :   -0.144353
  73 C :   -0.010997
  74 S :    0.430122
  75 C :   -0.272771
  76 C :   -0.070513
  77 Br:    0.133700
  78 H :    0.042352
  79 H :    0.041578
  80 H :    0.035705
  81 H :    0.038185
  82 H :    0.039441
  83 H :    0.048158
  84 H :    0.045551
  85 H :    0.041543
  86 H :    0.035368
  87 H :    0.026698
  88 H :    0.028119
  89 H :    0.036185
  90 H :    0.039309
  91 H :    0.043765
  92 H :    0.031424
  93 H :    0.042107
  94 H :    0.085087
  95 H :    0.025652
  96 H :    0.030113
  97 H :    0.034507
  98 H :    0.032349
  99 H :    0.032560
 100 H :    0.036749
 101 H :    0.043748
 102 H :    0.023506
 103 H :    0.045546
 104 H :    0.040307
 105 H :    0.040580
 106 H :    0.038409

  Mayer bond orders larger than 0.100000
B(  0-C ,  1-C ) :   1.4399 B(  0-C ,  6-C ) :   1.2034 B(  0-C , 78-H ) :   1.0066
B(  1-C ,  2-F ) :   1.0875 B(  1-C ,  3-C ) :   1.2573 B(  3-C ,  4-C ) :   1.4599
B(  3-C , 79-H ) :   0.9924 B(  4-C ,  5-C ) :   1.2347 B(  4-C , 80-H ) :   0.9969
B(  5-C ,  6-C ) :   1.2591 B(  5-C , 10-C ) :   1.1877 B(  6-C ,  7-C ) :   1.1994
B(  7-C ,  8-C ) :   1.4664 B(  7-C , 81-H ) :   0.9943 B(  8-C ,  9-C ) :   1.2176
B(  8-C , 14-C ) :   0.9978 B(  9-C , 10-C ) :   1.4754 B(  9-C , 11-C ) :   0.9216
B( 10-C , 82-H ) :   1.0155 B( 11-C , 12-O ) :   2.2528 B( 11-C , 13-C ) :   0.9521
B( 13-C , 14-C ) :   1.0599 B( 13-C , 20-C ) :   1.5778 B( 14-C , 15-C ) :   1.6266
B( 15-C , 16-C ) :   1.1596 B( 15-C , 18-C ) :   1.1364 B( 16-C , 17-N ) :   3.0235
B( 18-C , 19-N ) :   2.9820 B( 20-C , 21-C ) :   1.2267 B( 20-C , 83-H ) :   0.9330
B( 21-C , 22-S ) :   1.1109 B( 21-C , 25-C ) :   1.2826 B( 22-S , 23-C ) :   1.1961
B( 23-C , 24-C ) :   1.3007 B( 23-C , 32-C ) :   1.1886 B( 24-C , 25-C ) :   1.2282
B( 24-C , 31-C ) :   1.1674 B( 25-C , 26-C ) :   1.1892 B( 26-C , 27-C ) :   1.4844
B( 26-C , 31-C ) :   0.1107 B( 26-C , 84-H ) :   0.9970 B( 27-C , 28-F ) :   1.1380
B( 27-C , 29-C ) :   1.1618 B( 29-C , 30-F ) :   1.1331 B( 29-C , 31-C ) :   1.5031
B( 31-C , 85-H ) :   0.9964 B( 32-C , 33-C ) :   1.6789 B( 32-C , 86-H ) :   0.9622
B( 33-C , 34-C ) :   1.1116 B( 33-C , 87-H ) :   0.9560 B( 34-C , 35-C ) :   1.7979
B( 34-C , 88-H ) :   0.9515 B( 35-C , 36-C ) :   1.0822 B( 35-C , 37-C ) :   1.0457
B( 36-C , 89-H ) :   0.9457 B( 36-C , 90-H ) :   0.9425 B( 36-C , 91-H ) :   0.9336
B( 37-C , 38-N ) :   0.9867 B( 37-C , 92-H ) :   0.9400 B( 37-C , 93-H ) :   0.9271
B( 38-N , 39-C ) :   1.2821 B( 38-N , 94-H ) :   0.9337 B( 39-C , 40-C ) :   1.5162
B( 39-C , 95-H ) :   0.9602 B( 40-C , 41-C ) :   1.2693 B( 40-C , 96-H ) :   0.9297
B( 41-C , 42-S ) :   1.1270 B( 41-C , 45-C ) :   1.4099 B( 42-S , 43-C ) :   1.0721
B( 43-C , 44-C ) :   1.4657 B( 43-C , 56-C ) :   1.2400 B( 44-C , 45-C ) :   1.2044
B( 44-C , 54-C ) :   0.9570 B( 45-C , 46-C ) :   0.9940 B( 46-C , 47-O ) :   2.1194
B( 46-C , 48-C ) :   0.9583 B( 47-O , 96-H ) :   0.1018 B( 48-C , 49-C ) :   1.4046
B( 48-C , 53-C ) :   1.3436 B( 49-C , 50-C ) :   1.3600 B( 49-C , 97-H ) :   0.9917
B( 50-C , 51-C ) :   1.3535 B( 50-C , 98-H ) :   0.9920 B( 51-C , 52-C ) :   1.3621
B( 51-C , 99-H ) :   0.9929 B( 52-C , 53-C ) :   1.4043 B( 52-C ,100-H ) :   0.9923
B( 53-C , 54-C ) :   0.9513 B( 54-C , 55-O ) :   2.1691 B( 56-C , 57-C ) :   1.5683
B( 56-C ,101-H ) :   0.9345 B( 57-C , 58-C ) :   1.2117 B( 57-C ,102-H ) :   0.9542
B( 58-C , 59-C ) :   1.5714 B( 58-C ,103-H ) :   0.9465 B( 59-C , 60-C ) :   1.0776
B( 59-C , 68-C ) :   0.9462 B( 60-C , 61-C ) :   1.6304 B( 60-C , 66-C ) :   1.0040
B( 61-C , 62-C ) :   1.1404 B( 61-C , 64-C ) :   1.1435 B( 62-C , 63-N ) :   2.9709
B( 64-C , 65-N ) :   3.0022 B( 66-C , 67-C ) :   1.2744 B( 66-C , 73-C ) :   1.4091
B( 67-C , 68-C ) :   0.9430 B( 67-C , 70-C ) :   1.4266 B( 68-C , 69-O ) :   2.2105
B( 70-C , 71-C ) :   1.2435 B( 70-C ,104-H ) :   1.0163 B( 71-C , 72-C ) :   1.3092
B( 71-C , 76-C ) :   1.1622 B( 72-C , 73-C ) :   1.3290 B( 72-C , 74-S ) :   1.0838
B( 73-C ,105-H ) :   0.9809 B( 74-S , 75-C ) :   1.0863 B( 75-C , 76-C ) :   1.6198
B( 75-C , 77-Br) :   1.0155 B( 76-C ,106-H ) :   0.9997

-----------------------------------------------------------------------------
         ABSORPTION SPECTRUM VIA TRANSITION ELECTRIC DIPOLE MOMENTS
-----------------------------------------------------------------------------
State   Energy  Wavelength   fosc         T2         TX        TY        TZ
        (cm-1)    (nm)                  (au**2)     (au)      (au)      (au)
-----------------------------------------------------------------------------
   0   15399.7    649.4   0.656861174  14.04223   1.66382   3.20580  -0.99840
   1   17174.0    582.3   0.897804163  17.21016  -0.12960  -1.11495  -3.99378
   2   19622.8    509.6   0.017385887   0.29168  -0.39671  -0.04649   0.36352
   3   24184.1    413.5   0.349642273   4.75959  -0.35362  -1.48723   1.55650
   4   24584.0    406.8   0.033762136   0.45212  -0.63558   0.20980  -0.06436
   5   24736.0    404.3   0.066226673   0.88141   0.05705  -0.70628   0.61590
   6   25738.0    388.5   0.178752060   2.28640   0.41287   1.28001  -0.69102
   7   26108.5    383.0   0.040370546   0.50905   0.69866  -0.09345  -0.11042
   8   26892.7    371.8   0.097170200   1.18953  -0.83036   0.65794  -0.25913
   9   27112.8    368.8   0.087633622   1.06407   0.55948  -0.47726   0.72339
  10   27151.7    368.3   0.263012504   3.18901   1.55414   0.50981  -0.71677
  11   27492.3    363.7   0.020982048   0.25125   0.11184  -0.16248   0.46081
  12   28734.7    348.0   0.068710976   0.78722   0.32157   0.67652  -0.47552
  13   29032.8    344.4   0.031112711   0.35280  -0.03705   0.48911  -0.33495
  14   29405.2    340.1   0.041468985   0.46427   0.28057  -0.15479  -0.60133
  15   29729.2    336.4   0.128108660   1.41864   0.95437  -0.63618  -0.32107
  16   29940.1    334.0   0.044064951   0.48453   0.17338   0.27800   0.61415
  17   30104.1    332.2   0.309228198   3.38165  -1.02612   1.41423  -0.57331
  18   30478.9    328.1   0.003677469   0.03972   0.01287  -0.06159  -0.18911
  19   31010.0    322.5   0.081425721   0.86444   0.57647  -0.34121  -0.64474
  20   31345.9    319.0   0.193645591   2.03377  -0.80218  -0.26571  -1.14877
  21   31673.2    315.7   0.017626903   0.18321   0.02155   0.22818   0.36150
  22   32311.5    309.5   0.063836149   0.65041   0.65302  -0.28106   0.38076
  23   32791.8    305.0   0.072098306   0.72383  -0.67222  -0.35469   0.38229
  24   32903.3    303.9   0.116924230   1.16988   1.06027   0.15722  -0.14490
  25   32936.4    303.6   0.576499774   5.76233   1.83690  -1.32978   0.78727
  26   33090.9    302.2   0.003737707   0.03719   0.12604   0.14222  -0.03278
  27   33682.2    296.9   0.060882196   0.59507   0.10697  -0.75059  -0.14228
  28   34008.8    294.0   0.316281178   3.06166  -0.17892   1.64297  -0.57473
  29   34181.0    292.6   0.337881258   3.25428   0.66034  -1.67605   0.09544
  30   34474.1    290.1   0.045577844   0.43525  -0.03131   0.64539   0.13317
  31   34961.2    286.0   0.004315359   0.04064  -0.06141   0.14782  -0.12254
  32   35282.4    283.4   0.017418747   0.16253   0.20629  -0.31615   0.14151
  33   35560.8    281.2   0.237754071   2.20106   1.39602   0.05115  -0.49956
  34   35987.1    277.9   0.019060633   0.17437   0.34256  -0.23041  -0.06269
  35   36128.9    276.8   0.013222833   0.12049  -0.32701   0.11530   0.01607
  36   36711.8    272.4   0.047939601   0.42990   0.24238   0.08695  -0.60298
  37   36785.7    271.8   0.184437400   1.65061   0.41789  -1.17483   0.30943
  38   37116.5    269.4   0.013325090   0.11819   0.18170   0.28933  -0.03826
  39   37137.9    269.3   0.011780530   0.10443  -0.27615  -0.16602  -0.02460
  40   37557.8    266.3   0.185943909   1.62989   0.70243   0.14868  -1.05564
  41   37963.6    263.4   0.004563987   0.03958  -0.17773   0.06552   0.06079
  42   38063.2    262.7   0.059256644   0.51252   0.47223  -0.42614  -0.32851
  43   38305.6    261.1   0.019739254   0.16965   0.20898  -0.01784  -0.35448
  44   38336.7    260.8   0.017935050   0.15402  -0.11698  -0.26520   0.26458
  45   38698.1    258.4   0.188148902   1.60062   0.55509  -0.36546  -1.07653
  46   38841.8    257.5   0.012042316   0.10207   0.12126   0.29475  -0.02202
  47   38906.3    257.0   0.072876339   0.61666   0.52189  -0.41600  -0.41381
  48   39252.4    254.8   0.084836142   0.71153  -0.07980   0.79674   0.26526
  49   39336.0    254.2   0.268258900   2.24512   1.08343   0.20721  -1.01408
  50   39421.4    253.7   0.001997651   0.01668  -0.10608   0.00733  -0.07332
  51   39789.2    251.3   0.115792197   0.95805   0.10992   0.50031  -0.83406
  52   39926.5    250.5   0.023263568   0.19182  -0.04348   0.33986  -0.27280
  53   40204.3    248.7   0.007289547   0.05969  -0.08943   0.22335  -0.04251

FINAL SINGLE POINT ENERGY     -7018.270170491146

DIPOLE MOMENT
-------------
                                X             Y             Z
Electronic contribution:    -48.52183      48.95832    -148.08209
Nuclear contribution   :     47.49930     -49.11792     152.84532
                        -----------------------------------------
Total Dipole Moment    :     -1.02252      -0.15960       4.76324
                        -----------------------------------------
Magnitude (a.u.)       :      4.87437
Magnitude (Debye)      :     12.38965

Rotational constants in cm-1:     0.000738     0.000195     0.000186
Rotational constants in MHz :    22.136937     5.845594     5.563413

                             ****ORCA TERMINATED NORMALLY****
TOTAL RUN TIME: 0 days 0 hours 12 minutes 59 seconds 446 msec
