                         Program Version 4.2.0 -  RELEASE  -
|  1> # ORCA input file
|  2> # SCF done       -202.000928394122          0.003681701522
|  3> ! CAM-B3LYP def2-SVP def2/J RIJCOSX Grid4 TightSCF
|  4> %maxcore 5000
|  5> %tddft
|  6>     Mode sTDDFT
|  7>     Ethresh 5.0
|  8>     maxcore 5000
|  9> end
| 10>
| 11> %pal
| 12>   nprocs 6
| 13>   end
| 14> * xyz 0 1
| 15>    C        2.56556         2.60429         9.47976
| 16>    C        1.69469         3.11780        10.40090
| 17>    F        0.96474         2.28047        11.15642
| 18>    C        1.53590         4.49501        10.59513
| 19>    C        2.27767         5.36022         9.83981
| 20>    C        3.18256         4.88475         8.87039
| 21>    C        3.32419         3.48008         8.68268
| 22>    C        4.20023         2.97773         7.69051
| 23>    C        4.89555         3.85259         6.90328
| 24>    C        4.78254         5.25573         7.12476
| 25>    C        3.95072         5.76791         8.07766
| 26>    C        5.67417         5.96509         6.18661
| 27>    O        5.87392         7.16171         6.11379
| 28>    C        6.21345         4.91759         5.29412
| 29>    C        5.82973         3.63141         5.80081
| 30>    C        6.36985         2.41520         5.44699
| 31>    C        5.97109         1.18514         5.99961
| 32>    N        5.67030         0.15135         6.40221
| 33>    C        7.46487         2.26275         4.57374
| 34>    N        8.39034         2.08941         3.91597
| 35>    C        6.82869         5.27165         4.11163
| 36>    C        6.87152         4.51353         2.94697
| 37>    C        7.52337         4.88351         1.79185
| 38>    C        7.42145         4.21567         0.54756
| 39>    C        8.19544         4.75201        -0.43258
| 40>    C        8.96700         5.86150        -0.00693
| 41>    S        8.63140         6.22799         1.67509
| 42>    C        9.90144         6.56216        -0.73282
| 43>    C       10.31260         6.31691        -2.07235
| 44>    C       11.28656         7.14367        -2.51010
| 45>    C       11.70799         8.12958        -1.55383
| 46>    S       10.79758         7.90023        -0.05522
| 47>    C       12.64924         9.06375        -1.78190
| 48>    C       13.10083        10.18729        -0.89241
| 49>    C       12.28386        10.36157         0.34532
| 50>    N       12.59516         9.88792         1.53096
| 51>    S       11.46538        10.34670         2.60123
| 52>    N       10.55535        11.19979         1.55938
| 53>    C       11.09463        11.13700         0.36535
| 54>    C       10.54867        11.80384        -0.86658
| 55>    C       11.74330        12.22119        -1.66408
| 56>    C       12.94383        11.46087        -1.67717
| 57>    N       13.86735        11.98609        -2.44753
| 58>    S       13.28798        13.35048        -3.11463
| 59>    N       11.81809        13.28979        -2.42240
| 60>    C        9.73502        10.80629        -1.64688
| 61>    C        8.67298        10.13539        -1.16181
| 62>    C        7.97933         9.06432        -1.81873
| 63>    C        7.04092         8.46558        -1.05326
| 64>    C        6.89418         9.04204         0.23865
| 65>    S        7.98452        10.39134         0.44155
| 66>    C        6.07286         8.61091         1.25373
| 67>    C        5.91470         9.18657         2.53572
| 68>    C        5.08946         8.48322         3.35774
| 69>    C        4.58999         7.28970         2.78304
| 70>    S        5.11369         7.14702         1.12257
| 71>    C        3.88727         6.29907         3.43944
| 72>    C        3.71650         5.02983         2.90083
| 73>    C        3.23979         3.87739         3.49024
| 74>    C        3.71750         2.58770         2.94490
| 75>    O        4.38160         2.43062         1.93643
| 76>    C        3.31959         1.56682         3.92627
| 77>    C        3.59385         0.22991         3.93625
| 78>    C        3.14699        -0.55616         5.02120
| 79>    C        2.38993         0.05845         6.06004
| 80>    C        1.96174        -0.72677         7.14679
| 81>    C        2.29430        -2.05249         7.18806
| 82>    C        3.04052        -2.67346         6.17840
| 83>    C        3.45130        -1.92888         5.10822
| 84>    F        1.89327        -2.80087         8.23257
| 85>    C        2.09748         1.44242         6.00735
| 86>    C        2.57467         2.19183         4.96716
| 87>    C        2.46224         3.62057         4.66979
| 88>    C        1.63588         4.50057         5.32984
| 89>    C        1.33161         5.79941         4.87695
| 90>    N        0.99975         6.84471         4.53354
| 91>    C        0.90504         4.18866         6.49181
| 92>    N        0.30168         4.01410         7.45420
| 93>    H        2.66968         1.53742         9.35851
| 94>    H        0.82933         4.84444        11.33080
| 95>    H        2.17148         6.42634         9.97099
| 96>    H        4.28658         1.90952         7.57308
| 97>    H        3.87712         6.83462         8.22777
| 98>    H        7.20030         6.29108         4.06301
| 99>    H        6.30209         3.59740         2.88698
|100>    H        6.76790         3.36916         0.43247
|101>    H        8.23968         4.38144        -1.44044
|102>    H        9.87795         5.52781        -2.65907
|103>    H       11.73051         7.10548        -3.48898
|104>    H       13.14604         9.04839        -2.74365
|105>    H       14.15546        10.03184        -0.63807
|106>    H        9.93112        12.66219        -0.58412
|107>    H       10.07948        10.56994        -2.64403
|108>    H        8.23962         8.77070        -2.82016
|109>    H        6.43843         7.62542        -1.35292
|110>    H        6.42830        10.09351         2.80278
|111>    H        4.87070         8.74099         4.37816
|112>    H        3.58534         6.51217         4.45324
|113>    H        4.16414         4.86392         1.92319
|114>    H        4.16114        -0.22092         3.13543
|115>    H        1.37872        -0.28689         7.94113
|116>    H        3.27762        -3.72153         6.26888
|117>    H        4.03137        -2.38137         4.31845
|118>    H        1.52044         1.88109         6.80627
|119> *
|120>
|121>                          ****END OF INPUT****

CARTESIAN COORDINATES (ANGSTROEM)
---------------------------------
  C      2.565560    2.604290    9.479760
  C      1.694690    3.117800   10.400900
  F      0.964740    2.280470   11.156420
  C      1.535900    4.495010   10.595130
  C      2.277670    5.360220    9.839810
  C      3.182560    4.884750    8.870390
  C      3.324190    3.480080    8.682680
  C      4.200230    2.977730    7.690510
  C      4.895550    3.852590    6.903280
  C      4.782540    5.255730    7.124760
  C      3.950720    5.767910    8.077660
  C      5.674170    5.965090    6.186610
  O      5.873920    7.161710    6.113790
  C      6.213450    4.917590    5.294120
  C      5.829730    3.631410    5.800810
  C      6.369850    2.415200    5.446990
  C      5.971090    1.185140    5.999610
  N      5.670300    0.151350    6.402210
  C      7.464870    2.262750    4.573740
  N      8.390340    2.089410    3.915970
  C      6.828690    5.271650    4.111630
  C      6.871520    4.513530    2.946970
  C      7.523370    4.883510    1.791850
  C      7.421450    4.215670    0.547560
  C      8.195440    4.752010   -0.432580
  C      8.967000    5.861500   -0.006930
  S      8.631400    6.227990    1.675090
  C      9.901440    6.562160   -0.732820
  C     10.312600    6.316910   -2.072350
  C     11.286560    7.143670   -2.510100
  C     11.707990    8.129580   -1.553830
  S     10.797580    7.900230   -0.055220
  C     12.649240    9.063750   -1.781900
  C     13.100830   10.187290   -0.892410
  C     12.283860   10.361570    0.345320
  N     12.595160    9.887920    1.530960
  S     11.465380   10.346700    2.601230
  N     10.555350   11.199790    1.559380
  C     11.094630   11.137000    0.365350
  C     10.548670   11.803840   -0.866580
  C     11.743300   12.221190   -1.664080
  C     12.943830   11.460870   -1.677170
  N     13.867350   11.986090   -2.447530
  S     13.287980   13.350480   -3.114630
  N     11.818090   13.289790   -2.422400
  C      9.735020   10.806290   -1.646880
  C      8.672980   10.135390   -1.161810
  C      7.979330    9.064320   -1.818730
  C      7.040920    8.465580   -1.053260
  C      6.894180    9.042040    0.238650
  S      7.984520   10.391340    0.441550
  C      6.072860    8.610910    1.253730
  C      5.914700    9.186570    2.535720
  C      5.089460    8.483220    3.357740
  C      4.589990    7.289700    2.783040
  S      5.113690    7.147020    1.122570
  C      3.887270    6.299070    3.439440
  C      3.716500    5.029830    2.900830
  C      3.239790    3.877390    3.490240
  C      3.717500    2.587700    2.944900
  O      4.381600    2.430620    1.936430
  C      3.319590    1.566820    3.926270
  C      3.593850    0.229910    3.936250
  C      3.146990   -0.556160    5.021200
  C      2.389930    0.058450    6.060040
  C      1.961740   -0.726770    7.146790
  C      2.294300   -2.052490    7.188060
  C      3.040520   -2.673460    6.178400
  C      3.451300   -1.928880    5.108220
  F      1.893270   -2.800870    8.232570
  C      2.097480    1.442420    6.007350
  C      2.574670    2.191830    4.967160
  C      2.462240    3.620570    4.669790
  C      1.635880    4.500570    5.329840
  C      1.331610    5.799410    4.876950
  N      0.999750    6.844710    4.533540
  C      0.905040    4.188660    6.491810
  N      0.301680    4.014100    7.454200
  H      2.669680    1.537420    9.358510
  H      0.829330    4.844440   11.330800
  H      2.171480    6.426340    9.970990
  H      4.286580    1.909520    7.573080
  H      3.877120    6.834620    8.227770
  H      7.200300    6.291080    4.063010
  H      6.302090    3.597400    2.886980
  H      6.767900    3.369160    0.432470
  H      8.239680    4.381440   -1.440440
  H      9.877950    5.527810   -2.659070
  H     11.730510    7.105480   -3.488980
  H     13.146040    9.048390   -2.743650
  H     14.155460   10.031840   -0.638070
  H      9.931120   12.662190   -0.584120
  H     10.079480   10.569940   -2.644030
  H      8.239620    8.770700   -2.820160
  H      6.438430    7.625420   -1.352920
  H      6.428300   10.093510    2.802780
  H      4.870700    8.740990    4.378160
  H      3.585340    6.512170    4.453240
  H      4.164140    4.863920    1.923190
  H      4.161140   -0.220920    3.135430
  H      1.378720   -0.286890    7.941130
  H      3.277620   -3.721530    6.268880
  H      4.031370   -2.381370    4.318450
  H      1.520440    1.881090    6.806270

 Total Charge           Charge          ....    0
 Multiplicity           Mult            ....    1
 Number of Electrons    NEL             ....  572
 Basis Dimension        Dim             .... 1246

ORBITAL ENERGIES
----------------

  NO   OCC          E(Eh)            E(eV)
   0   2.0000     -89.022982     -2422.4385
   1   2.0000     -89.021763     -2422.4053
   2   2.0000     -88.969919     -2420.9946
   3   2.0000     -88.966309     -2420.8963
   4   2.0000     -88.965698     -2420.8797
   5   2.0000     -88.964203     -2420.8390
   6   2.0000     -24.772268      -674.0877
   7   2.0000     -24.772085      -674.0827
   8   2.0000     -19.203077      -522.5423
   9   2.0000     -19.203009      -522.5404
  10   2.0000     -14.453529      -393.3005
  11   2.0000     -14.453436      -393.2980
  12   2.0000     -14.451164      -393.2362
  13   2.0000     -14.450939      -393.2300
  14   2.0000     -14.403235      -391.9319
  15   2.0000     -14.401914      -391.8960
  16   2.0000     -14.399528      -391.8311
  17   2.0000     -14.398564      -391.8048
  18   2.0000     -10.354667      -281.7648
  19   2.0000     -10.354550      -281.7616
  20   2.0000     -10.353769      -281.7404
  21   2.0000     -10.352695      -281.7112
  22   2.0000     -10.344123      -281.4779
  23   2.0000     -10.343177      -281.4522
  24   2.0000     -10.342476      -281.4331
  25   2.0000     -10.341566      -281.4083
  26   2.0000     -10.339164      -281.3430
  27   2.0000     -10.338383      -281.3217
  28   2.0000     -10.335552      -281.2447
  29   2.0000     -10.332847      -281.1711
  30   2.0000     -10.332047      -281.1493
  31   2.0000     -10.330727      -281.1134
  32   2.0000     -10.330303      -281.1018
  33   2.0000     -10.327954      -281.0379
  34   2.0000     -10.326732      -281.0047
  35   2.0000     -10.325978      -280.9842
  36   2.0000     -10.325882      -280.9815
  37   2.0000     -10.325757      -280.9781
  38   2.0000     -10.325317      -280.9662
  39   2.0000     -10.325095      -280.9601
  40   2.0000     -10.315257      -280.6924
  41   2.0000     -10.314844      -280.6812
  42   2.0000     -10.314093      -280.6607
  43   2.0000     -10.313384      -280.6414
  44   2.0000     -10.310821      -280.5717
  45   2.0000     -10.309250      -280.5290
  46   2.0000     -10.309191      -280.5273
  47   2.0000     -10.307295      -280.4758
  48   2.0000     -10.305805      -280.4352
  49   2.0000     -10.304866      -280.4097
  50   2.0000     -10.304387      -280.3966
  51   2.0000     -10.303048      -280.3602
  52   2.0000     -10.302847      -280.3547
  53   2.0000     -10.302109      -280.3346
  54   2.0000     -10.296574      -280.1840
  55   2.0000     -10.293928      -280.1120
  56   2.0000     -10.291043      -280.0335
  57   2.0000     -10.290756      -280.0257
  58   2.0000     -10.290624      -280.0221
  59   2.0000     -10.289981      -280.0046
  60   2.0000     -10.286720      -279.9159
  61   2.0000     -10.285762      -279.8898
  62   2.0000     -10.284389      -279.8525
  63   2.0000     -10.283963      -279.8409
  64   2.0000     -10.283782      -279.8359
  65   2.0000     -10.283747      -279.8350
  66   2.0000     -10.283568      -279.8301
  67   2.0000     -10.282820      -279.8098
  68   2.0000     -10.281738      -279.7803
  69   2.0000     -10.280828      -279.7555
  70   2.0000     -10.280148      -279.7371
  71   2.0000     -10.280024      -279.7337
  72   2.0000     -10.278019      -279.6791
  73   2.0000     -10.277914      -279.6762
  74   2.0000     -10.276335      -279.6333
  75   2.0000     -10.274647      -279.5873
  76   2.0000     -10.274351      -279.5793
  77   2.0000     -10.273859      -279.5659
  78   2.0000      -8.115874      -220.8442
  79   2.0000      -8.114460      -220.8057
  80   2.0000      -8.064707      -219.4518
  81   2.0000      -8.062003      -219.3783
  82   2.0000      -8.061155      -219.3552
  83   2.0000      -8.060010      -219.3240
  84   2.0000      -6.087559      -165.6509
  85   2.0000      -6.086128      -165.6120
  86   2.0000      -6.079899      -165.4425
  87   2.0000      -6.078459      -165.4033
  88   2.0000      -6.076921      -165.3614
  89   2.0000      -6.075579      -165.3249
  90   2.0000      -6.034615      -164.2102
  91   2.0000      -6.031661      -164.1298
  92   2.0000      -6.030815      -164.1068
  93   2.0000      -6.030502      -164.0983
  94   2.0000      -6.029846      -164.0805
  95   2.0000      -6.027632      -164.0202
  96   2.0000      -6.026810      -163.9978
  97   2.0000      -6.025702      -163.9677
  98   2.0000      -6.025489      -163.9619
  99   2.0000      -6.023128      -163.8976
 100   2.0000      -6.022302      -163.8752
 101   2.0000      -6.020712      -163.8319
 102   2.0000      -1.287655       -35.0389
 103   2.0000      -1.286773       -35.0149
 104   2.0000      -1.138607       -30.9831
 105   2.0000      -1.133143       -30.8344
 106   2.0000      -1.116624       -30.3849
 107   2.0000      -1.116038       -30.3689
 108   2.0000      -1.020062       -27.7573
 109   2.0000      -1.015313       -27.6281
 110   2.0000      -1.006674       -27.3930
 111   2.0000      -1.002728       -27.2856
 112   2.0000      -1.000767       -27.2322
 113   2.0000      -0.998031       -27.1578
 114   2.0000      -0.990830       -26.9619
 115   2.0000      -0.987303       -26.8659
 116   2.0000      -0.986638       -26.8478
 117   2.0000      -0.985347       -26.8126
 118   2.0000      -0.980162       -26.6716
 119   2.0000      -0.979429       -26.6516
 120   2.0000      -0.975770       -26.5521
 121   2.0000      -0.962438       -26.1893
 122   2.0000      -0.959355       -26.1054
 123   2.0000      -0.923755       -25.1367
 124   2.0000      -0.923032       -25.1170
 125   2.0000      -0.914343       -24.8805
 126   2.0000      -0.907707       -24.7000
 127   2.0000      -0.901943       -24.5431
 128   2.0000      -0.893326       -24.3086
 129   2.0000      -0.882050       -24.0018
 130   2.0000      -0.879456       -23.9312
 131   2.0000      -0.876545       -23.8520
 132   2.0000      -0.871870       -23.7248
 133   2.0000      -0.870906       -23.6986
 134   2.0000      -0.868782       -23.6408
 135   2.0000      -0.864170       -23.5153
 136   2.0000      -0.859106       -23.3775
 137   2.0000      -0.848009       -23.0755
 138   2.0000      -0.845844       -23.0166
 139   2.0000      -0.840554       -22.8726
 140   2.0000      -0.833133       -22.6707
 141   2.0000      -0.821830       -22.3631
 142   2.0000      -0.818453       -22.2712
 143   2.0000      -0.814568       -22.1655
 144   2.0000      -0.799798       -21.7636
 145   2.0000      -0.794426       -21.6174
 146   2.0000      -0.771763       -21.0007
 147   2.0000      -0.768625       -20.9153
 148   2.0000      -0.750008       -20.4087
 149   2.0000      -0.749302       -20.3895
 150   2.0000      -0.740714       -20.1558
 151   2.0000      -0.734526       -19.9875
 152   2.0000      -0.722389       -19.6572
 153   2.0000      -0.710645       -19.3376
 154   2.0000      -0.707649       -19.2561
 155   2.0000      -0.705018       -19.1845
 156   2.0000      -0.699670       -19.0390
 157   2.0000      -0.696616       -18.9559
 158   2.0000      -0.694075       -18.8867
 159   2.0000      -0.691987       -18.8299
 160   2.0000      -0.685031       -18.6406
 161   2.0000      -0.675744       -18.3879
 162   2.0000      -0.669873       -18.2282
 163   2.0000      -0.667093       -18.1525
 164   2.0000      -0.665259       -18.1026
 165   2.0000      -0.660005       -17.9596
 166   2.0000      -0.656924       -17.8758
 167   2.0000      -0.647382       -17.6162
 168   2.0000      -0.642855       -17.4930
 169   2.0000      -0.638155       -17.3651
 170   2.0000      -0.635282       -17.2869
 171   2.0000      -0.631871       -17.1941
 172   2.0000      -0.629277       -17.1235
 173   2.0000      -0.623237       -16.9591
 174   2.0000      -0.621626       -16.9153
 175   2.0000      -0.617746       -16.8097
 176   2.0000      -0.616351       -16.7718
 177   2.0000      -0.614787       -16.7292
 178   2.0000      -0.609514       -16.5857
 179   2.0000      -0.606985       -16.5169
 180   2.0000      -0.602813       -16.4034
 181   2.0000      -0.590770       -16.0757
 182   2.0000      -0.583764       -15.8850
 183   2.0000      -0.579024       -15.7560
 184   2.0000      -0.570490       -15.5238
 185   2.0000      -0.568781       -15.4773
 186   2.0000      -0.564232       -15.3535
 187   2.0000      -0.562220       -15.2988
 188   2.0000      -0.559326       -15.2200
 189   2.0000      -0.555726       -15.1221
 190   2.0000      -0.551273       -15.0009
 191   2.0000      -0.548751       -14.9323
 192   2.0000      -0.546806       -14.8794
 193   2.0000      -0.546160       -14.8618
 194   2.0000      -0.544887       -14.8271
 195   2.0000      -0.544363       -14.8129
 196   2.0000      -0.540798       -14.7159
 197   2.0000      -0.539227       -14.6731
 198   2.0000      -0.536613       -14.6020
 199   2.0000      -0.534449       -14.5431
 200   2.0000      -0.532461       -14.4890
 201   2.0000      -0.530964       -14.4483
 202   2.0000      -0.528171       -14.3723
 203   2.0000      -0.525408       -14.2971
 204   2.0000      -0.519682       -14.1413
 205   2.0000      -0.518172       -14.1002
 206   2.0000      -0.515675       -14.0322
 207   2.0000      -0.511687       -13.9237
 208   2.0000      -0.510869       -13.9014
 209   2.0000      -0.510013       -13.8782
 210   2.0000      -0.508585       -13.8393
 211   2.0000      -0.507965       -13.8224
 212   2.0000      -0.506738       -13.7891
 213   2.0000      -0.504290       -13.7224
 214   2.0000      -0.501009       -13.6331
 215   2.0000      -0.496473       -13.5097
 216   2.0000      -0.495476       -13.4826
 217   2.0000      -0.494737       -13.4625
 218   2.0000      -0.492845       -13.4110
 219   2.0000      -0.490382       -13.3440
 220   2.0000      -0.485073       -13.1995
 221   2.0000      -0.484430       -13.1820
 222   2.0000      -0.482311       -13.1243
 223   2.0000      -0.481580       -13.1045
 224   2.0000      -0.480018       -13.0619
 225   2.0000      -0.477506       -12.9936
 226   2.0000      -0.474133       -12.9018
 227   2.0000      -0.470344       -12.7987
 228   2.0000      -0.468636       -12.7522
 229   2.0000      -0.466924       -12.7057
 230   2.0000      -0.466365       -12.6904
 231   2.0000      -0.463326       -12.6077
 232   2.0000      -0.457017       -12.4361
 233   2.0000      -0.455973       -12.4077
 234   2.0000      -0.453251       -12.3336
 235   2.0000      -0.450437       -12.2570
 236   2.0000      -0.445748       -12.1294
 237   2.0000      -0.442455       -12.0398
 238   2.0000      -0.442089       -12.0299
 239   2.0000      -0.439602       -11.9622
 240   2.0000      -0.437708       -11.9106
 241   2.0000      -0.434327       -11.8186
 242   2.0000      -0.433827       -11.8050
 243   2.0000      -0.430975       -11.7274
 244   2.0000      -0.430452       -11.7132
 245   2.0000      -0.426378       -11.6023
 246   2.0000      -0.425176       -11.5696
 247   2.0000      -0.423535       -11.5250
 248   2.0000      -0.421118       -11.4592
 249   2.0000      -0.419942       -11.4272
 250   2.0000      -0.418582       -11.3902
 251   2.0000      -0.414311       -11.2740
 252   2.0000      -0.411914       -11.2088
 253   2.0000      -0.411172       -11.1886
 254   2.0000      -0.410078       -11.1588
 255   2.0000      -0.405569       -11.0361
 256   2.0000      -0.403394       -10.9769
 257   2.0000      -0.402005       -10.9391
 258   2.0000      -0.401220       -10.9178
 259   2.0000      -0.396354       -10.7853
 260   2.0000      -0.394643       -10.7388
 261   2.0000      -0.393069       -10.6959
 262   2.0000      -0.384821       -10.4715
 263   2.0000      -0.380692       -10.3592
 264   2.0000      -0.379137       -10.3168
 265   2.0000      -0.377558       -10.2739
 266   2.0000      -0.370230       -10.0745
 267   2.0000      -0.364156        -9.9092
 268   2.0000      -0.359762        -9.7896
 269   2.0000      -0.357920        -9.7395
 270   2.0000      -0.353634        -9.6229
 271   2.0000      -0.349201        -9.5023
 272   2.0000      -0.347666        -9.4605
 273   2.0000      -0.345398        -9.3987
 274   2.0000      -0.342516        -9.3203
 275   2.0000      -0.338033        -9.1983
 276   2.0000      -0.327773        -8.9192
 277   2.0000      -0.326272        -8.8783
 278   2.0000      -0.307844        -8.3769
 279   2.0000      -0.307055        -8.3554
 280   2.0000      -0.303316        -8.2536
 281   2.0000      -0.292333        -7.9548
 282   2.0000      -0.287302        -7.8179
 283   2.0000      -0.277540        -7.5523
 284   2.0000      -0.241319        -6.5666
 285   2.0000      -0.237898        -6.4735
 286   0.0000      -0.109223        -2.9721
 287   0.0000      -0.107904        -2.9362
 288   0.0000      -0.060123        -1.6360
 289   0.0000      -0.054460        -1.4819
 290   0.0000      -0.045224        -1.2306

MULLIKEN ATOMIC CHARGES
-----------------------
   0 C :   -0.101718
   1 C :    0.315680
   2 F :   -0.189345
   3 C :   -0.013931
   4 C :   -0.007006
   5 C :    0.112685
   6 C :    0.100624
   7 C :   -0.090089
   8 C :    0.047196
   9 C :    0.002420
  10 C :   -0.098192
  11 C :    0.130093
  12 O :   -0.170544
  13 C :   -0.130106
  14 C :    0.298345
  15 C :   -0.358541
  16 C :   -0.166268
  17 N :    0.136371
  18 C :   -0.230828
  19 N :    0.168662
  20 C :    0.034937
  21 C :   -0.013767
  22 C :   -0.017628
  23 C :    0.045431
  24 C :    0.033441
  25 C :   -0.056020
  26 S :    0.113092
  27 C :   -0.019785
  28 C :    0.026213
  29 C :    0.049113
  30 C :    0.018509
  31 S :    0.077943
  32 C :   -0.112262
  33 C :    0.345877
  34 C :   -0.207415
  35 N :   -0.235711
  36 S :    0.468542
  37 N :   -0.258886
  38 C :   -0.066877
  39 C :    0.250849
  40 C :   -0.109323
  41 C :   -0.130569
  42 N :   -0.266902
  43 S :    0.460013
  44 N :   -0.256350
  45 C :   -0.085482
  46 C :    0.014601
  47 C :    0.070415
  48 C :    0.030544
  49 C :   -0.050443
  50 S :    0.119266
  51 C :   -0.052708
  52 C :    0.026353
  53 C :    0.065086
  54 C :   -0.049190
  55 S :    0.096341
  56 C :    0.020291
  57 C :    0.014545
  58 C :   -0.140400
  59 C :    0.144640
  60 O :   -0.183005
  61 C :    0.012540
  62 C :   -0.094130
  63 C :    0.127918
  64 C :    0.121083
  65 C :   -0.112048
  66 C :    0.305821
  67 C :   -0.025514
  68 C :    0.003568
  69 F :   -0.193515
  70 C :   -0.122026
  71 C :    0.034997
  72 C :    0.339711
  73 C :   -0.360306
  74 C :   -0.228504
  75 N :    0.166976
  76 C :   -0.183535
  77 N :    0.139419
  78 H :   -0.016667
  79 H :   -0.001204
  80 H :   -0.012822
  81 H :   -0.007875
  82 H :   -0.018405
  83 H :    0.009193
  84 H :    0.031602
  85 H :    0.018755
  86 H :   -0.007516
  87 H :   -0.004909
  88 H :   -0.003987
  89 H :    0.012332
  90 H :    0.038056
  91 H :    0.036240
  92 H :    0.010247
  93 H :   -0.004001
  94 H :    0.005899
  95 H :    0.010722
  96 H :    0.020552
  97 H :    0.023285
  98 H :    0.012432
  99 H :   -0.019100
 100 H :   -0.006239
 101 H :   -0.001618
 102 H :   -0.014750
 103 H :   -0.011508
Sum of atomic charges:   -0.0000000

LOEWDIN ATOMIC CHARGES
----------------------
   0 C :   -0.048482
   1 C :    0.100604
   2 F :   -0.063663
   3 C :   -0.028701
   4 C :    0.009846
   5 C :   -0.017284
   6 C :    0.001347
   7 C :    0.009932
   8 C :   -0.020992
   9 C :   -0.064530
  10 C :    0.029082
  11 C :    0.079934
  12 O :   -0.170456
  13 C :   -0.101833
  14 C :    0.063975
  15 C :   -0.152927
  16 C :   -0.012697
  17 N :   -0.066289
  18 C :   -0.023095
  19 N :   -0.061320
  20 C :    0.056398
  21 C :   -0.060307
  22 C :   -0.102156
  23 C :   -0.020444
  24 C :   -0.015796
  25 C :   -0.183958
  26 S :    0.405435
  27 C :   -0.158441
  28 C :   -0.029247
  29 C :   -0.017079
  30 C :   -0.144749
  31 S :    0.402333
  32 C :   -0.031666
  33 C :   -0.021019
  34 C :   -0.077029
  35 N :   -0.260369
  36 S :    0.598086
  37 N :   -0.269256
  38 C :   -0.057868
  39 C :   -0.026655
  40 C :   -0.050541
  41 C :   -0.051496
  42 N :   -0.268642
  43 S :    0.588892
  44 N :   -0.262664
  45 C :   -0.036081
  46 C :   -0.147214
  47 C :   -0.005418
  48 C :   -0.034191
  49 C :   -0.150702
  50 S :    0.410302
  51 C :   -0.189256
  52 C :   -0.011202
  53 C :   -0.016220
  54 C :   -0.094777
  55 S :    0.412949
  56 C :   -0.061564
  57 C :    0.051848
  58 C :   -0.110998
  59 C :    0.082116
  60 O :   -0.180015
  61 C :   -0.063683
  62 C :    0.035638
  63 C :   -0.011783
  64 C :    0.002861
  65 C :   -0.049550
  66 C :    0.095908
  67 C :   -0.035452
  68 C :    0.015426
  69 F :   -0.067703
  70 C :    0.006537
  71 C :   -0.018425
  72 C :    0.068431
  73 C :   -0.151430
  74 C :   -0.024263
  75 N :   -0.061855
  76 C :   -0.015200
  77 N :   -0.066036
  78 H :    0.037099
  79 H :    0.040986
  80 H :    0.034505
  81 H :    0.036902
  82 H :    0.037330
  83 H :    0.033362
  84 H :    0.040787
  85 H :    0.047128
  86 H :    0.034717
  87 H :    0.035835
  88 H :    0.037327
  89 H :    0.038634
  90 H :    0.064498
  91 H :    0.059659
  92 H :    0.032444
  93 H :    0.035804
  94 H :    0.033165
  95 H :    0.036592
  96 H :    0.044719
  97 H :    0.039196
  98 H :    0.028870
  99 H :    0.037513
 100 H :    0.038874
 101 H :    0.040279
 102 H :    0.034607
 103 H :    0.035958

  Mayer bond orders larger than 0.100000
B(  0-C ,  1-C ) :   1.4334 B(  0-C ,  6-C ) :   1.2110 B(  0-C , 78-H ) :   0.9997
B(  1-C ,  2-F ) :   1.0942 B(  1-C ,  3-C ) :   1.2604 B(  3-C ,  4-C ) :   1.4564
B(  3-C , 79-H ) :   0.9907 B(  4-C ,  5-C ) :   1.2377 B(  4-C , 80-H ) :   0.9948
B(  5-C ,  6-C ) :   1.2577 B(  5-C , 10-C ) :   1.1786 B(  6-C ,  7-C ) :   1.2002
B(  7-C ,  8-C ) :   1.4773 B(  7-C , 81-H ) :   0.9725 B(  8-C ,  9-C ) :   1.2142
B(  8-C , 14-C ) :   0.9946 B(  9-C , 10-C ) :   1.4620 B(  9-C , 11-C ) :   0.9268
B( 10-C , 82-H ) :   1.0165 B( 11-C , 12-O ) :   2.2059 B( 11-C , 13-C ) :   0.9680
B( 13-C , 14-C ) :   1.0950 B( 13-C , 20-C ) :   1.5202 B( 14-C , 15-C ) :   1.5986
B( 15-C , 16-C ) :   1.1480 B( 15-C , 18-C ) :   1.1683 B( 16-C , 17-N ) :   2.9172
B( 18-C , 19-N ) :   3.0146 B( 20-C , 21-C ) :   1.2156 B( 20-C , 83-H ) :   0.9393
B( 21-C , 22-C ) :   1.5373 B( 21-C , 84-H ) :   0.9376 B( 22-C , 23-C ) :   1.1577
B( 22-C , 26-S ) :   1.0795 B( 23-C , 24-C ) :   1.5674 B( 23-C , 85-H ) :   1.0002
B( 24-C , 25-C ) :   1.1758 B( 24-C , 86-H ) :   0.9962 B( 25-C , 26-S ) :   1.0408
B( 25-C , 27-C ) :   1.5308 B( 27-C , 28-C ) :   1.1487 B( 27-C , 31-S ) :   1.0582
B( 28-C , 29-C ) :   1.6368 B( 28-C , 87-H ) :   0.9952 B( 29-C , 30-C ) :   1.0880
B( 29-C , 88-H ) :   1.0021 B( 30-C , 31-S ) :   1.0083 B( 30-C , 32-C ) :   1.7327
B( 32-C , 33-C ) :   1.0159 B( 32-C , 89-H ) :   0.9635 B( 33-C , 34-C ) :   0.9701
B( 33-C , 41-C ) :   0.9720 B( 33-C , 90-H ) :   0.8269 B( 34-C , 35-N ) :   1.6955
B( 34-C , 38-C ) :   1.1961 B( 35-N , 36-S ) :   1.2100 B( 35-N , 37-N ) :   0.1129
B( 36-S , 37-N ) :   1.1998 B( 37-N , 38-C ) :   1.6620 B( 38-C , 39-C ) :   0.9965
B( 39-C , 40-C ) :   0.9860 B( 39-C , 45-C ) :   1.0363 B( 39-C , 91-H ) :   0.8357
B( 40-C , 41-C ) :   1.2113 B( 40-C , 44-N ) :   1.7061 B( 41-C , 42-N ) :   1.6894
B( 42-N , 43-S ) :   1.2024 B( 42-N , 44-N ) :   0.1184 B( 43-S , 44-N ) :   1.2032
B( 45-C , 46-C ) :   1.7241 B( 45-C , 92-H ) :   0.9654 B( 46-C , 47-C ) :   1.0943
B( 46-C , 50-S ) :   1.0260 B( 47-C , 48-C ) :   1.6397 B( 47-C , 93-H ) :   0.9999
B( 48-C , 49-C ) :   1.1302 B( 48-C , 94-H ) :   0.9914 B( 49-C , 50-S ) :   1.0644
B( 49-C , 51-C ) :   1.5603 B( 51-C , 52-C ) :   1.1609 B( 51-C , 55-S ) :   1.0361
B( 52-C , 53-C ) :   1.5661 B( 52-C , 95-H ) :   0.9951 B( 53-C , 54-C ) :   1.1720
B( 53-C , 96-H ) :   0.9928 B( 54-C , 55-S ) :   1.0963 B( 54-C , 56-C ) :   1.4882
B( 56-C , 57-C ) :   1.2533 B( 56-C , 97-H ) :   0.9517 B( 57-C , 58-C ) :   1.5244
B( 57-C , 98-H ) :   0.9147 B( 58-C , 59-C ) :   0.9836 B( 58-C , 72-C ) :   1.0759
B( 59-C , 60-O ) :   2.1541 B( 59-C , 61-C ) :   0.9356 B( 61-C , 62-C ) :   1.4498
B( 61-C , 71-C ) :   1.2192 B( 62-C , 63-C ) :   1.1765 B( 62-C , 99-H ) :   1.0199
B( 63-C , 64-C ) :   1.2661 B( 63-C , 68-C ) :   1.2363 B( 64-C , 65-C ) :   1.2009
B( 64-C , 70-C ) :   1.1935 B( 65-C , 66-C ) :   1.4374 B( 65-C ,100-H ) :   1.0014
B( 66-C , 67-C ) :   1.2579 B( 66-C , 69-F ) :   1.0856 B( 67-C , 68-C ) :   1.4566
B( 67-C ,101-H ) :   0.9919 B( 68-C ,102-H ) :   0.9949 B( 70-C , 71-C ) :   1.4575
B( 70-C ,103-H ) :   0.9900 B( 71-C , 72-C ) :   0.9861 B( 72-C , 73-C ) :   1.5983
B( 73-C , 74-C ) :   1.1735 B( 73-C , 76-C ) :   1.1479 B( 74-C , 75-N ) :   2.9994
B( 76-C , 77-N ) :   2.9420

-----------------------------------------------------------------------------
         ABSORPTION SPECTRUM VIA TRANSITION ELECTRIC DIPOLE MOMENTS
-----------------------------------------------------------------------------
State   Energy  Wavelength   fosc         T2         TX        TY        TZ
        (cm-1)    (nm)                  (au**2)     (au)      (au)      (au)
-----------------------------------------------------------------------------
   0   11460.2    872.6   0.020148741   0.57880  -0.08849   0.56837  -0.49792
   1   11622.6    860.4   0.006961622   0.19719   0.30377  -0.23093   0.22713
   2   12727.3    785.7   0.074727821   1.93295   0.55953   1.22808   0.33420
   3   15860.9    630.5   2.729341599  56.65059   4.30048   3.96804  -4.73404
   4   22070.2    453.1   0.020707466   0.30888  -0.30991  -0.29830   0.35194
   5   22411.7    446.2   0.010329455   0.15173  -0.34809  -0.13688  -0.10875
   6   23030.9    434.2   0.013987799   0.19995   0.39613  -0.12863   0.16272
   7   23314.7    428.9   0.040187117   0.56746   0.33814   0.60103  -0.30313
   8   23702.7    421.9   0.020185961   0.28037  -0.18872  -0.36401   0.33504
   9   23947.4    417.6   0.029933011   0.41150  -0.30710   0.49071  -0.27639
  10   24468.2    408.7   0.013084294   0.17605  -0.07745   0.40957   0.04793
  11   25309.2    395.1   0.055278615   0.71904   0.50673   0.22601  -0.64124
  12   25497.3    392.2   0.087939549   1.13545   0.63080   0.61004  -0.60447
  13   25792.9    387.7   0.029898575   0.38162   0.36943  -0.10876  -0.48302
  14   26088.0    383.3   0.013073827   0.16498   0.11080   0.36016  -0.15163
  15   26349.2    379.5   0.051420382   0.64246  -0.67875  -0.12394   0.40792
  16   26493.9    377.4   0.022313057   0.27726  -0.23611   0.45320   0.12696
  17   26768.3    373.6   0.017890697   0.22003   0.07867   0.34835  -0.30412
  18   27017.5    370.1   0.014555742   0.17736   0.22269   0.32900   0.13976
  19   27191.0    367.8   0.003017588   0.03654   0.17763   0.04134  -0.05721
  20   27590.9    362.4   0.048672474   0.58075  -0.53115   0.10643   0.53601
  21   27817.6    359.5   0.011275535   0.13344   0.33094   0.03394  -0.15089
  22   28162.9    355.1   0.008637320   0.10097  -0.28041   0.01690   0.14849
  23   28561.4    350.1   0.128517104   1.48135   0.53034  -1.09143   0.09412
  24   28642.1    349.1   0.031205415   0.35867   0.17302   0.24557   0.51811
  25   28837.7    346.8   0.011058123   0.12624   0.20032   0.09509  -0.27761
  26   29314.4    341.1   0.021755917   0.24433  -0.36230   0.06779   0.32935
  27   29666.9    337.1   0.068722084   0.76260   0.21357  -0.69883  -0.47815
  28   30018.3    333.1   0.078906440   0.86537   0.51496   0.76599   0.11599
  29   30256.2    330.5   0.044049258   0.47929   0.49752   0.43106   0.21436
  30   30756.5    325.1   0.199534243   2.13578   0.83117  -1.13861  -0.38536
  31   31050.8    322.1   0.037685365   0.39955  -0.05205   0.54526  -0.31549
  32   31301.2    319.5   0.079403785   0.83513  -0.61287  -0.63284   0.24298
  33   31710.0    315.4   0.262912888   2.72955  -0.75816  -0.77517   1.24654
  34   32518.2    307.5   0.084173691   0.85217   0.17328   0.57230  -0.70329
  35   33089.0    302.2   0.001835410   0.01826   0.09835   0.08515  -0.03656
  36   33184.9    301.3   0.041724287   0.41393   0.19966  -0.05998   0.60866
  37   33376.1    299.6   0.001624613   0.01602   0.08624  -0.09247  -0.00608
  38   33579.2    297.8   0.046697336   0.45782  -0.10683  -0.66518   0.06280
  39   33813.8    295.7   0.018781076   0.18285   0.27797  -0.32143   0.04763
  40   33953.0    294.5   0.024784476   0.24031   0.31652  -0.34975  -0.13343
  41   33999.7    294.1   0.139580124   1.35153  -0.56054   0.78627   0.64737
  42   34040.5    293.8   0.014306662   0.13836  -0.24250   0.28206  -0.00006
  43   34232.1    292.1   0.028217073   0.27137   0.27067   0.13868  -0.42293
  44   34502.5    289.8   0.005279799   0.05038  -0.13541  -0.02851   0.17672
  45   34677.2    288.4   0.025668389   0.24369  -0.28875   0.39517   0.06441
  46   34749.4    287.8   0.036638585   0.34711  -0.47001   0.03273   0.35373
  47   35302.0    283.3   0.007187009   0.06702  -0.17967  -0.06366   0.17518
  48   35395.8    282.5   0.109439332   1.01788  -0.52812   0.82901   0.22739
  49   35739.7    279.8   0.018918676   0.17427   0.00797   0.38551  -0.15995
  50   35775.8    279.5   0.022212609   0.20440  -0.29631   0.22723   0.25489
  51   36119.9    276.9   0.013944068   0.12709   0.07688   0.16557   0.30621
  52   36494.8    274.0   0.011486904   0.10362  -0.08701   0.10145  -0.29284
  53   36634.6    273.0   0.076966803   0.69165   0.01548   0.82738   0.08280
  54   36774.3    271.9   0.031386701   0.28098  -0.45385   0.25520   0.09935
  55   36849.4    271.4   0.040022226   0.35756  -0.49490  -0.18729   0.27848
  56   36996.3    270.3   0.101275081   0.90120   0.51197  -0.67608  -0.42661
  57   37378.7    267.5   0.046819536   0.41236  -0.44789   0.45542   0.06593
  58   37581.3    266.1   0.241906567   2.11910  -0.41884   1.29119   0.52584
  59   37618.5    265.8   0.004036103   0.03532  -0.00131   0.18778  -0.00759
  60   37908.7    263.8   0.050097933   0.43507   0.05963   0.05901  -0.65424
  61   38047.8    262.8   0.538828574   4.66226   1.00502  -1.56323  -1.09932
  62   38388.4    260.5   0.022530065   0.19321  -0.18189   0.06076   0.39552
  63   38486.2    259.8   0.022184733   0.18977  -0.06753   0.36733   0.22423
  64   38902.1    257.1   0.004258293   0.03604  -0.11413  -0.12388   0.08754
  65   39056.5    256.0   0.027527982   0.23204  -0.21412   0.35148  -0.25031
  66   39368.2    254.0   0.043520577   0.36394   0.41812   0.22903  -0.36968
  67   39494.1    253.2   0.000289417   0.00241  -0.04534   0.01030  -0.01582
  68   39695.2    251.9   0.086864605   0.72041  -0.13002   0.81629   0.19280
  69   39998.2    250.0   0.036591296   0.30117   0.40168  -0.36117  -0.09686
  70   40198.1    248.8   0.008432753   0.06906   0.05805   0.25629  -0.00294

FINAL SINGLE POINT ENERGY     -5474.554182527000

DIPOLE MOMENT
-------------
                                X             Y             Z
Electronic contribution:      4.65716       7.76879      10.63339
Nuclear contribution   :     -1.73142      -5.51076     -14.81250
                        -----------------------------------------
Total Dipole Moment    :      2.92574       2.25803      -4.17911
                        -----------------------------------------
Magnitude (a.u.)       :      5.57886
Magnitude (Debye)      :     14.18034

Rotational constants in cm-1:     0.002142     0.000379     0.000359
Rotational constants in MHz :    64.221880    11.355178    10.773523

                             ****ORCA TERMINATED NORMALLY****
TOTAL RUN TIME: 0 days 0 hours 17 minutes 49 seconds 630 msec
