                         Program Version 4.2.0 -  RELEASE  -
|  1> # ORCA input file
|  2> # SCF done       -192.543789419300          0.000675567710
|  3> ! CAM-B3LYP def2-SVP def2/J RIJCOSX Grid4 TightSCF
|  4> %maxcore 5000
|  5> %tddft
|  6>     Mode sTDDFT
|  7>     Ethresh 5.0
|  8>     maxcore 5000
|  9> end
| 10>
| 11> %pal
| 12>   nprocs 6
| 13>   end
| 14> * xyz 0 1
| 15>    C        6.42582         7.03018        -1.31201
| 16>    C        5.31555         7.76354        -0.99821
| 17>    F        4.44083         8.08824        -1.96770
| 18>    C        5.04497         8.19643         0.30695
| 19>    C        5.92165         7.87446         1.30544
| 20>    C        7.08174         7.11880         1.03869
| 21>    C        7.34022         6.69042        -0.29621
| 22>    C        8.50167         5.93830        -0.59002
| 23>    C        9.36719         5.62142         0.42075
| 24>    C        9.09640         6.03805         1.75681
| 25>    C        7.98905         6.77362         2.06579
| 26>    C       10.15750         5.53245         2.65114
| 27>    O       10.29294         5.73284         3.83692
| 28>    C       11.00163         4.66105         1.79163
| 29>    C       10.63529         4.89949         0.41376
| 30>    C       11.45619         4.73752        -0.67265
| 31>    C       12.79477         4.31084        -0.55721
| 32>    N       13.90234         4.01922        -0.47400
| 33>    C       11.08592         5.06503        -1.99095
| 34>    N       10.82016         5.29795        -3.08332
| 35>    C       11.85121         3.76003         2.35895
| 36>    C       12.38377         2.57694         1.79949
| 37>    S       11.62992         1.74495         0.47091
| 38>    C       12.78182         0.44514         0.55211
| 39>    C       13.69933         0.65783         1.57487
| 40>    C       13.47055         1.85035         2.27355
| 41>    C       14.33094         2.32043         3.40206
| 42>    C       15.65979         1.56973         3.42482
| 43>    C       15.40975         0.06542         3.30095
| 44>    C       14.52784        -0.41763         4.42677
| 45>    O       13.57509        -1.13321         4.30832
| 46>    C       14.80719        -0.28039         1.93806
| 47>    C       12.61550        -0.59586        -0.40376
| 48>    C       13.41021        -1.66201        -0.64449
| 49>    C       13.08576        -2.62012        -1.65721
| 50>    C       13.77919        -3.73844        -1.93087
| 51>    C       15.00022        -4.16465        -1.17300
| 52>    C       13.28420        -4.69107        -2.99264
| 53>    N       12.63332        -5.83949        -2.39647
| 54>    C       11.37309        -5.79476        -1.92992
| 55>    C       10.80009        -6.75388        -1.15049
| 56>    C        9.46957        -6.67927        -0.71229
| 57>    C        8.84685        -7.61080         0.07911
| 58>    C        7.52635        -7.55357         0.58127
| 59>    C        7.17683        -8.61576         1.35929
| 60>    C        8.20000        -9.57916         1.50791
| 61>    S        9.62545        -9.09262         0.63393
| 62>    C        8.14814       -10.75708         2.23623
| 63>    C        7.07303       -11.24451         3.00715
| 64>    C        7.34909       -12.42911         3.62316
| 65>    C        8.63797       -12.94658         3.34645
| 66>    S        9.48675       -11.88202         2.27718
| 67>    C        9.15899       -14.07342         3.97499
| 68>    C       10.38839       -14.69887         3.85016
| 69>    C       11.30796       -14.67538         2.80451
| 70>    C       12.65584       -15.17127         2.88146
| 71>    C       13.35627       -15.48561         4.02421
| 72>    C       14.68260       -15.95538         4.03216
| 73>    N       15.76161       -16.34552         4.10220
| 74>    C       12.86721       -15.34613         5.33761
| 75>    N       12.56100       -15.23552         6.44029
| 76>    C       13.20275       -15.20162         1.52500
| 77>    C       12.22140       -14.69451         0.64079
| 78>    C       11.00400       -14.36170         1.41408
| 79>    O        9.94342       -13.97300         0.94479
| 80>    C       12.42619       -14.59087        -0.71111
| 81>    C       13.66355       -15.00932        -1.21725
| 82>    C       14.63486       -15.51693        -0.32726
| 83>    C       14.42672       -15.62080         1.04437
| 84>    S       16.08691       -15.98537        -1.16378
| 85>    C       15.37452       -15.49564        -2.67730
| 86>    C       14.11730       -15.00770        -2.56567
| 87>   Br       16.36046       -15.66990        -4.26603
| 88>    H        6.60423         6.71713        -2.32888
| 89>    H        4.15292         8.77263         0.49477
| 90>    H        5.73448         8.19643         2.31881
| 91>    H        8.67323         5.62008        -1.60643
| 92>    H        7.80486         7.08804         3.08216
| 93>    H       12.06542         3.92495         3.41063
| 94>    H       13.79481         2.15521         4.34363
| 95>    H       14.51171         3.39267         3.30843
| 96>    H       16.19452         1.79204         4.34960
| 97>    H       16.27757         1.89620         2.58657
| 98>    H       16.36270        -0.46584         3.42097
| 99>    H       14.85756        -0.05841         5.42230
|100>    H       14.41277        -1.29855         1.98237
|101>    H       15.58403        -0.23916         1.16920
|102>    H       11.72839        -0.48519        -1.01738
|103>    H       14.31666        -1.81989        -0.08724
|104>    H       12.20171        -2.40032        -2.24278
|105>    H       14.75458        -4.38250        -0.13343
|106>    H       15.75053        -3.37576        -1.17840
|107>    H       15.44216        -5.05434        -1.61461
|108>    H       14.11664        -5.05020        -3.60376
|109>    H       12.56329        -4.19092        -3.64373
|110>    H       13.23151        -6.56423        -2.02624
|111>    H       10.79384        -4.93857        -2.24855
|112>    H       11.38372        -7.61077        -0.84220
|113>    H        8.88750        -5.81463        -1.00475
|114>    H        6.87708        -6.72597         0.35490
|115>    H        6.21518        -8.73474         1.82422
|116>    H        6.13885       -10.71948         3.09382
|117>    H        6.66218       -12.95377         4.26374
|118>    H        8.51811       -14.46638         4.75674
|119>    H       10.64732       -15.34399         4.68213
|120>    H       11.65839       -14.20170        -1.36135
|121>    H       15.19793       -16.02063         1.68131
|122>    H       13.53055       -14.66309        -3.39772
|123> *
|124>
|125>                          ****END OF INPUT****

CARTESIAN COORDINATES (ANGSTROEM)
---------------------------------
  C      6.425820    7.030180   -1.312010
  C      5.315550    7.763540   -0.998210
  F      4.440830    8.088240   -1.967700
  C      5.044970    8.196430    0.306950
  C      5.921650    7.874460    1.305440
  C      7.081740    7.118800    1.038690
  C      7.340220    6.690420   -0.296210
  C      8.501670    5.938300   -0.590020
  C      9.367190    5.621420    0.420750
  C      9.096400    6.038050    1.756810
  C      7.989050    6.773620    2.065790
  C     10.157500    5.532450    2.651140
  O     10.292940    5.732840    3.836920
  C     11.001630    4.661050    1.791630
  C     10.635290    4.899490    0.413760
  C     11.456190    4.737520   -0.672650
  C     12.794770    4.310840   -0.557210
  N     13.902340    4.019220   -0.474000
  C     11.085920    5.065030   -1.990950
  N     10.820160    5.297950   -3.083320
  C     11.851210    3.760030    2.358950
  C     12.383770    2.576940    1.799490
  S     11.629920    1.744950    0.470910
  C     12.781820    0.445140    0.552110
  C     13.699330    0.657830    1.574870
  C     13.470550    1.850350    2.273550
  C     14.330940    2.320430    3.402060
  C     15.659790    1.569730    3.424820
  C     15.409750    0.065420    3.300950
  C     14.527840   -0.417630    4.426770
  O     13.575090   -1.133210    4.308320
  C     14.807190   -0.280390    1.938060
  C     12.615500   -0.595860   -0.403760
  C     13.410210   -1.662010   -0.644490
  C     13.085760   -2.620120   -1.657210
  C     13.779190   -3.738440   -1.930870
  C     15.000220   -4.164650   -1.173000
  C     13.284200   -4.691070   -2.992640
  N     12.633320   -5.839490   -2.396470
  C     11.373090   -5.794760   -1.929920
  C     10.800090   -6.753880   -1.150490
  C      9.469570   -6.679270   -0.712290
  C      8.846850   -7.610800    0.079110
  C      7.526350   -7.553570    0.581270
  C      7.176830   -8.615760    1.359290
  C      8.200000   -9.579160    1.507910
  S      9.625450   -9.092620    0.633930
  C      8.148140  -10.757080    2.236230
  C      7.073030  -11.244510    3.007150
  C      7.349090  -12.429110    3.623160
  C      8.637970  -12.946580    3.346450
  S      9.486750  -11.882020    2.277180
  C      9.158990  -14.073420    3.974990
  C     10.388390  -14.698870    3.850160
  C     11.307960  -14.675380    2.804510
  C     12.655840  -15.171270    2.881460
  C     13.356270  -15.485610    4.024210
  C     14.682600  -15.955380    4.032160
  N     15.761610  -16.345520    4.102200
  C     12.867210  -15.346130    5.337610
  N     12.561000  -15.235520    6.440290
  C     13.202750  -15.201620    1.525000
  C     12.221400  -14.694510    0.640790
  C     11.004000  -14.361700    1.414080
  O      9.943420  -13.973000    0.944790
  C     12.426190  -14.590870   -0.711110
  C     13.663550  -15.009320   -1.217250
  C     14.634860  -15.516930   -0.327260
  C     14.426720  -15.620800    1.044370
  S     16.086910  -15.985370   -1.163780
  C     15.374520  -15.495640   -2.677300
  C     14.117300  -15.007700   -2.565670
  Br    16.360460  -15.669900   -4.266030
  H      6.604230    6.717130   -2.328880
  H      4.152920    8.772630    0.494770
  H      5.734480    8.196430    2.318810
  H      8.673230    5.620080   -1.606430
  H      7.804860    7.088040    3.082160
  H     12.065420    3.924950    3.410630
  H     13.794810    2.155210    4.343630
  H     14.511710    3.392670    3.308430
  H     16.194520    1.792040    4.349600
  H     16.277570    1.896200    2.586570
  H     16.362700   -0.465840    3.420970
  H     14.857560   -0.058410    5.422300
  H     14.412770   -1.298550    1.982370
  H     15.584030   -0.239160    1.169200
  H     11.728390   -0.485190   -1.017380
  H     14.316660   -1.819890   -0.087240
  H     12.201710   -2.400320   -2.242780
  H     14.754580   -4.382500   -0.133430
  H     15.750530   -3.375760   -1.178400
  H     15.442160   -5.054340   -1.614610
  H     14.116640   -5.050200   -3.603760
  H     12.563290   -4.190920   -3.643730
  H     13.231510   -6.564230   -2.026240
  H     10.793840   -4.938570   -2.248550
  H     11.383720   -7.610770   -0.842200
  H      8.887500   -5.814630   -1.004750
  H      6.877080   -6.725970    0.354900
  H      6.215180   -8.734740    1.824220
  H      6.138850  -10.719480    3.093820
  H      6.662180  -12.953770    4.263740
  H      8.518110  -14.466380    4.756740
  H     10.647320  -15.343990    4.682130
  H     11.658390  -14.201700   -1.361350
  H     15.197930  -16.020630    1.681310
  H     13.530550  -14.663090   -3.397720

 Total Charge           Charge          ....    0
 Multiplicity           Mult            ....    1
 Number of Electrons    NEL             ....  556
 Basis Dimension        Dim             .... 1231

ORBITAL ENERGIES
----------------

  NO   OCC          E(Eh)            E(eV)
   0   2.0000    -482.871684    -13139.6065
   1   2.0000     -88.969662     -2420.9876
   2   2.0000     -88.957219     -2420.6490
   3   2.0000     -88.956215     -2420.6217
   4   2.0000     -88.946530     -2420.3581
   5   2.0000     -62.549394     -1702.0555
   6   2.0000     -56.383317     -1534.2680
   7   2.0000     -56.380656     -1534.1957
   8   2.0000     -56.380611     -1534.1944
   9   2.0000     -24.788605      -674.5322
  10   2.0000     -19.232857      -523.3527
  11   2.0000     -19.215262      -522.8739
  12   2.0000     -19.181256      -521.9485
  13   2.0000     -14.469871      -393.7452
  14   2.0000     -14.418441      -392.3457
  15   2.0000     -14.416090      -392.2818
  16   2.0000     -14.385873      -391.4595
  17   2.0000     -14.383701      -391.4004
  18   2.0000     -10.372207      -282.2421
  19   2.0000     -10.370428      -282.1937
  20   2.0000     -10.367357      -282.1101
  21   2.0000     -10.350524      -281.6521
  22   2.0000     -10.344762      -281.4953
  23   2.0000     -10.343171      -281.4520
  24   2.0000     -10.340413      -281.3770
  25   2.0000     -10.338398      -281.3221
  26   2.0000     -10.330261      -281.1007
  27   2.0000     -10.327698      -281.0309
  28   2.0000     -10.323686      -280.9218
  29   2.0000     -10.323196      -280.9085
  30   2.0000     -10.320996      -280.8486
  31   2.0000     -10.318506      -280.7808
  32   2.0000     -10.314659      -280.6761
  33   2.0000     -10.311075      -280.5786
  34   2.0000     -10.309630      -280.5393
  35   2.0000     -10.308793      -280.5165
  36   2.0000     -10.308448      -280.5071
  37   2.0000     -10.308098      -280.4976
  38   2.0000     -10.307585      -280.4836
  39   2.0000     -10.306303      -280.4488
  40   2.0000     -10.303653      -280.3766
  41   2.0000     -10.303165      -280.3634
  42   2.0000     -10.303124      -280.3623
  43   2.0000     -10.303102      -280.3617
  44   2.0000     -10.302348      -280.3411
  45   2.0000     -10.301849      -280.3276
  46   2.0000     -10.301563      -280.3198
  47   2.0000     -10.300883      -280.3013
  48   2.0000     -10.300343      -280.2866
  49   2.0000     -10.299541      -280.2648
  50   2.0000     -10.298178      -280.2277
  51   2.0000     -10.297880      -280.2196
  52   2.0000     -10.297673      -280.2139
  53   2.0000     -10.296956      -280.1944
  54   2.0000     -10.295901      -280.1657
  55   2.0000     -10.293351      -280.0963
  56   2.0000     -10.292372      -280.0697
  57   2.0000     -10.292207      -280.0652
  58   2.0000     -10.291779      -280.0535
  59   2.0000     -10.291678      -280.0508
  60   2.0000     -10.290907      -280.0298
  61   2.0000     -10.290757      -280.0257
  62   2.0000     -10.290703      -280.0243
  63   2.0000     -10.290131      -280.0087
  64   2.0000     -10.288449      -279.9629
  65   2.0000     -10.284378      -279.8521
  66   2.0000     -10.284005      -279.8420
  67   2.0000     -10.283959      -279.8407
  68   2.0000     -10.280356      -279.7427
  69   2.0000     -10.279743      -279.7260
  70   2.0000     -10.279362      -279.7157
  71   2.0000     -10.276989      -279.6511
  72   2.0000     -10.275126      -279.6004
  73   2.0000     -10.271093      -279.4906
  74   2.0000     -10.264567      -279.3131
  75   2.0000     -10.260859      -279.2122
  76   2.0000     -10.255444      -279.0648
  77   2.0000      -8.778802      -238.8833
  78   2.0000      -8.064924      -219.4577
  79   2.0000      -8.053418      -219.1446
  80   2.0000      -8.052142      -219.1099
  81   2.0000      -8.041337      -218.8159
  82   2.0000      -6.614980      -180.0028
  83   2.0000      -6.600569      -179.6106
  84   2.0000      -6.600447      -179.6073
  85   2.0000      -6.034128      -164.1970
  86   2.0000      -6.030181      -164.0896
  87   2.0000      -6.026990      -164.0027
  88   2.0000      -6.023018      -163.8947
  89   2.0000      -6.021844      -163.8627
  90   2.0000      -6.019020      -163.7859
  91   2.0000      -6.017590      -163.7470
  92   2.0000      -6.014567      -163.6647
  93   2.0000      -6.013376      -163.6323
  94   2.0000      -6.010759      -163.5611
  95   2.0000      -6.006449      -163.4438
  96   2.0000      -6.003275      -163.3574
  97   2.0000      -2.730854       -74.3103
  98   2.0000      -2.726846       -74.2012
  99   2.0000      -2.726712       -74.1976
 100   2.0000      -2.715277       -73.8864
 101   2.0000      -2.715261       -73.8860
 102   2.0000      -1.303378       -35.4667
 103   2.0000      -1.147181       -31.2164
 104   2.0000      -1.130321       -30.7576
 105   2.0000      -1.094632       -29.7865
 106   2.0000      -1.069267       -29.0962
 107   2.0000      -1.022436       -27.8219
 108   2.0000      -1.008601       -27.4454
 109   2.0000      -1.002576       -27.2815
 110   2.0000      -1.000637       -27.2287
 111   2.0000      -0.998677       -27.1754
 112   2.0000      -0.995054       -27.0768
 113   2.0000      -0.985228       -26.8094
 114   2.0000      -0.978610       -26.6293
 115   2.0000      -0.973893       -26.5010
 116   2.0000      -0.963939       -26.2301
 117   2.0000      -0.961059       -26.1517
 118   2.0000      -0.946403       -25.7529
 119   2.0000      -0.942682       -25.6517
 120   2.0000      -0.931026       -25.3345
 121   2.0000      -0.921082       -25.0639
 122   2.0000      -0.918542       -24.9948
 123   2.0000      -0.912088       -24.8192
 124   2.0000      -0.898307       -24.4442
 125   2.0000      -0.889410       -24.2021
 126   2.0000      -0.887623       -24.1535
 127   2.0000      -0.882967       -24.0268
 128   2.0000      -0.877450       -23.8766
 129   2.0000      -0.866269       -23.5724
 130   2.0000      -0.863432       -23.4952
 131   2.0000      -0.861085       -23.4313
 132   2.0000      -0.851835       -23.1796
 133   2.0000      -0.849048       -23.1038
 134   2.0000      -0.847210       -23.0537
 135   2.0000      -0.837465       -22.7886
 136   2.0000      -0.826363       -22.4865
 137   2.0000      -0.823341       -22.4042
 138   2.0000      -0.819523       -22.3003
 139   2.0000      -0.806363       -21.9423
 140   2.0000      -0.805674       -21.9235
 141   2.0000      -0.799144       -21.7458
 142   2.0000      -0.779547       -21.2126
 143   2.0000      -0.770478       -20.9658
 144   2.0000      -0.762664       -20.7531
 145   2.0000      -0.754954       -20.5434
 146   2.0000      -0.749054       -20.3828
 147   2.0000      -0.732196       -19.9241
 148   2.0000      -0.729828       -19.8596
 149   2.0000      -0.727527       -19.7970
 150   2.0000      -0.724058       -19.7026
 151   2.0000      -0.711744       -19.3675
 152   2.0000      -0.710281       -19.3277
 153   2.0000      -0.703378       -19.1399
 154   2.0000      -0.689994       -18.7757
 155   2.0000      -0.684517       -18.6267
 156   2.0000      -0.683133       -18.5890
 157   2.0000      -0.670419       -18.2430
 158   2.0000      -0.668806       -18.1991
 159   2.0000      -0.661371       -17.9968
 160   2.0000      -0.654425       -17.8078
 161   2.0000      -0.649182       -17.6651
 162   2.0000      -0.643568       -17.5124
 163   2.0000      -0.638070       -17.3628
 164   2.0000      -0.636832       -17.3291
 165   2.0000      -0.635029       -17.2800
 166   2.0000      -0.633019       -17.2253
 167   2.0000      -0.632163       -17.2020
 168   2.0000      -0.622603       -16.9419
 169   2.0000      -0.617335       -16.7985
 170   2.0000      -0.614891       -16.7320
 171   2.0000      -0.608965       -16.5708
 172   2.0000      -0.605792       -16.4845
 173   2.0000      -0.599627       -16.3167
 174   2.0000      -0.595648       -16.2084
 175   2.0000      -0.594471       -16.1764
 176   2.0000      -0.590538       -16.0694
 177   2.0000      -0.579793       -15.7770
 178   2.0000      -0.575017       -15.6470
 179   2.0000      -0.571133       -15.5413
 180   2.0000      -0.568006       -15.4562
 181   2.0000      -0.564983       -15.3740
 182   2.0000      -0.564211       -15.3530
 183   2.0000      -0.563408       -15.3311
 184   2.0000      -0.561031       -15.2664
 185   2.0000      -0.553959       -15.0740
 186   2.0000      -0.552650       -15.0384
 187   2.0000      -0.551367       -15.0035
 188   2.0000      -0.545533       -14.8447
 189   2.0000      -0.541939       -14.7469
 190   2.0000      -0.539588       -14.6829
 191   2.0000      -0.535715       -14.5775
 192   2.0000      -0.528888       -14.3918
 193   2.0000      -0.526200       -14.3186
 194   2.0000      -0.524777       -14.2799
 195   2.0000      -0.523319       -14.2402
 196   2.0000      -0.520490       -14.1633
 197   2.0000      -0.519606       -14.1392
 198   2.0000      -0.518673       -14.1138
 199   2.0000      -0.516910       -14.0658
 200   2.0000      -0.516004       -14.0412
 201   2.0000      -0.514394       -13.9974
 202   2.0000      -0.511333       -13.9141
 203   2.0000      -0.508557       -13.8385
 204   2.0000      -0.502678       -13.6786
 205   2.0000      -0.501147       -13.6369
 206   2.0000      -0.500294       -13.6137
 207   2.0000      -0.498598       -13.5676
 208   2.0000      -0.498269       -13.5586
 209   2.0000      -0.495503       -13.4833
 210   2.0000      -0.492928       -13.4132
 211   2.0000      -0.490604       -13.3500
 212   2.0000      -0.486510       -13.2386
 213   2.0000      -0.485297       -13.2056
 214   2.0000      -0.485108       -13.2005
 215   2.0000      -0.481918       -13.1137
 216   2.0000      -0.481212       -13.0945
 217   2.0000      -0.480581       -13.0773
 218   2.0000      -0.475670       -12.9436
 219   2.0000      -0.473857       -12.8943
 220   2.0000      -0.470813       -12.8115
 221   2.0000      -0.468968       -12.7613
 222   2.0000      -0.468645       -12.7525
 223   2.0000      -0.467221       -12.7137
 224   2.0000      -0.461824       -12.5669
 225   2.0000      -0.461427       -12.5561
 226   2.0000      -0.458591       -12.4789
 227   2.0000      -0.457118       -12.4388
 228   2.0000      -0.456248       -12.4151
 229   2.0000      -0.452441       -12.3115
 230   2.0000      -0.451961       -12.2985
 231   2.0000      -0.449327       -12.2268
 232   2.0000      -0.445745       -12.1293
 233   2.0000      -0.441461       -12.0128
 234   2.0000      -0.437720       -11.9110
 235   2.0000      -0.435938       -11.8625
 236   2.0000      -0.434560       -11.8250
 237   2.0000      -0.432999       -11.7825
 238   2.0000      -0.430439       -11.7128
 239   2.0000      -0.429794       -11.6953
 240   2.0000      -0.426084       -11.5943
 241   2.0000      -0.425366       -11.5748
 242   2.0000      -0.423494       -11.5239
 243   2.0000      -0.420757       -11.4494
 244   2.0000      -0.420686       -11.4474
 245   2.0000      -0.418354       -11.3840
 246   2.0000      -0.417631       -11.3643
 247   2.0000      -0.414649       -11.2832
 248   2.0000      -0.412278       -11.2187
 249   2.0000      -0.410195       -11.1620
 250   2.0000      -0.403600       -10.9825
 251   2.0000      -0.397937       -10.8284
 252   2.0000      -0.397080       -10.8051
 253   2.0000      -0.395302       -10.7567
 254   2.0000      -0.393022       -10.6947
 255   2.0000      -0.383468       -10.4347
 256   2.0000      -0.383113       -10.4250
 257   2.0000      -0.379219       -10.3191
 258   2.0000      -0.369544       -10.0558
 259   2.0000      -0.366878        -9.9832
 260   2.0000      -0.361605        -9.8398
 261   2.0000      -0.361019        -9.8238
 262   2.0000      -0.345777        -9.4091
 263   2.0000      -0.342141        -9.3101
 264   2.0000      -0.338745        -9.2177
 265   2.0000      -0.337582        -9.1861
 266   2.0000      -0.328099        -8.9280
 267   2.0000      -0.324819        -8.8388
 268   2.0000      -0.323736        -8.8093
 269   2.0000      -0.314749        -8.5648
 270   2.0000      -0.313105        -8.5200
 271   2.0000      -0.300762        -8.1842
 272   2.0000      -0.298269        -8.1163
 273   2.0000      -0.286134        -7.7861
 274   2.0000      -0.275587        -7.4991
 275   2.0000      -0.267796        -7.2871
 276   2.0000      -0.264567        -7.1992
 277   2.0000      -0.214906        -5.8479
 278   0.0000      -0.101676        -2.7667
 279   0.0000      -0.090433        -2.4608
 280   0.0000      -0.059448        -1.6177
 281   0.0000      -0.046230        -1.2580
 282   0.0000      -0.042426        -1.1545

MULLIKEN ATOMIC CHARGES
-----------------------
   0 C :   -0.098953
   1 C :    0.303392
   2 F :   -0.190515
   3 C :   -0.028038
   4 C :   -0.009682
   5 C :    0.100387
   6 C :    0.104045
   7 C :   -0.088069
   8 C :    0.043918
   9 C :    0.009055
  10 C :   -0.082644
  11 C :    0.141290
  12 O :   -0.146304
  13 C :   -0.128550
  14 C :    0.245270
  15 C :   -0.319350
  16 C :   -0.200026
  17 N :    0.162737
  18 C :   -0.174155
  19 N :    0.149392
  20 C :    0.022525
  21 C :   -0.150686
  22 S :    0.143801
  23 C :   -0.101537
  24 C :   -0.073784
  25 C :   -0.021291
  26 C :    0.098349
  27 C :    0.047181
  28 C :   -0.108831
  29 C :    0.131487
  30 O :   -0.166912
  31 C :    0.154761
  32 C :    0.052064
  33 C :   -0.002097
  34 C :    0.011863
  35 C :   -0.194183
  36 C :    0.080418
  37 C :    0.190476
  38 N :   -0.136156
  39 C :    0.082411
  40 C :   -0.032031
  41 C :    0.018039
  42 C :   -0.055893
  43 C :    0.061299
  44 C :    0.006946
  45 C :   -0.017290
  46 S :    0.099690
  47 C :   -0.087098
  48 C :    0.042077
  49 C :    0.013298
  50 C :    0.006431
  51 S :    0.174137
  52 C :   -0.018066
  53 C :   -0.005309
  54 C :   -0.117090
  55 C :    0.307081
  56 C :   -0.363701
  57 C :   -0.187725
  58 N :    0.129705
  59 C :   -0.213090
  60 N :    0.143007
  61 C :    0.006875
  62 C :   -0.000578
  63 C :    0.115335
  64 O :   -0.186247
  65 C :   -0.090496
  66 C :    0.118122
  67 C :   -0.095398
  68 C :   -0.027724
  69 S :    0.170384
  70 C :   -0.124762
  71 C :    0.035715
  72 Br:    0.001761
  73 H :   -0.004102
  74 H :    0.003480
  75 H :   -0.008891
  76 H :   -0.005250
  77 H :   -0.011704
  78 H :    0.024123
  79 H :    0.033741
  80 H :    0.035939
  81 H :    0.013997
  82 H :    0.029780
  83 H :    0.027996
  84 H :   -0.000400
  85 H :    0.035323
  86 H :    0.029377
  87 H :   -0.018157
  88 H :   -0.015436
  89 H :   -0.028395
  90 H :    0.045438
  91 H :    0.045541
  92 H :    0.005304
  93 H :    0.025742
  94 H :    0.020499
  95 H :    0.129495
  96 H :    0.008416
  97 H :   -0.003155
  98 H :   -0.008706
  99 H :   -0.008288
 100 H :   -0.011279
 101 H :   -0.016724
 102 H :   -0.013734
 103 H :   -0.011819
 104 H :    0.020301
 105 H :   -0.023730
 106 H :   -0.011945
 107 H :   -0.013239
Sum of atomic charges:   -0.0000000

LOEWDIN ATOMIC CHARGES
----------------------
   0 C :   -0.042749
   1 C :    0.093186
   2 F :   -0.065104
   3 C :   -0.037023
   4 C :    0.005018
   5 C :   -0.018880
   6 C :    0.003276
   7 C :    0.009592
   8 C :   -0.016561
   9 C :   -0.058964
  10 C :    0.034157
  11 C :    0.082149
  12 O :   -0.147867
  13 C :   -0.100528
  14 C :    0.061386
  15 C :   -0.143605
  16 C :   -0.030790
  17 N :   -0.055057
  18 C :   -0.019596
  19 N :   -0.054470
  20 C :    0.053144
  21 C :   -0.191398
  22 S :    0.470264
  23 C :   -0.139184
  24 C :   -0.049170
  25 C :   -0.013170
  26 C :   -0.028092
  27 C :   -0.014708
  28 C :   -0.073499
  29 C :    0.115576
  30 O :   -0.116379
  31 C :   -0.020883
  32 C :   -0.036247
  33 C :   -0.014515
  34 C :   -0.043863
  35 C :   -0.039989
  36 C :   -0.054952
  37 C :    0.045757
  38 N :    0.018279
  39 C :    0.075557
  40 C :   -0.121568
  41 C :    0.004392
  42 C :   -0.187528
  43 C :   -0.002940
  44 C :   -0.056981
  45 C :   -0.128514
  46 S :    0.392145
  47 C :   -0.216935
  48 C :   -0.021134
  49 C :   -0.053643
  50 C :   -0.105631
  51 S :    0.484152
  52 C :   -0.090129
  53 C :    0.038019
  54 C :   -0.136035
  55 C :    0.077151
  56 C :   -0.162962
  57 C :   -0.018624
  58 N :   -0.077768
  59 C :   -0.024960
  60 N :   -0.071670
  61 C :   -0.019027
  62 C :   -0.042206
  63 C :    0.050536
  64 O :   -0.187965
  65 C :    0.006773
  66 C :   -0.039573
  67 C :   -0.150722
  68 C :   -0.016203
  69 S :    0.419770
  70 C :   -0.279353
  71 C :   -0.073087
  72 Br:    0.119769
  73 H :    0.042591
  74 H :    0.042004
  75 H :    0.035815
  76 H :    0.038723
  77 H :    0.039697
  78 H :    0.048236
  79 H :    0.038311
  80 H :    0.042190
  81 H :    0.027722
  82 H :    0.034305
  83 H :    0.046158
  84 H :   -0.004796
  85 H :    0.035418
  86 H :    0.035448
  87 H :    0.028305
  88 H :    0.026482
  89 H :    0.023363
  90 H :    0.042528
  91 H :    0.042475
  92 H :    0.026305
  93 H :    0.032663
  94 H :    0.032321
  95 H :    0.084270
  96 H :    0.031929
  97 H :    0.022697
  98 H :    0.036349
  99 H :    0.035731
 100 H :    0.032844
 101 H :    0.030339
 102 H :    0.032268
 103 H :    0.036264
 104 H :    0.044350
 105 H :    0.035331
 106 H :    0.038900
 107 H :    0.034819

  Mayer bond orders larger than 0.100000
B(  0-C ,  1-C ) :   1.4417 B(  0-C ,  6-C ) :   1.2008 B(  0-C , 73-H ) :   1.0070
B(  1-C ,  2-F ) :   1.0889 B(  1-C ,  3-C ) :   1.2540 B(  3-C ,  4-C ) :   1.4611
B(  3-C , 74-H ) :   0.9928 B(  4-C ,  5-C ) :   1.2359 B(  4-C , 75-H ) :   0.9969
B(  5-C ,  6-C ) :   1.2574 B(  5-C , 10-C ) :   1.1897 B(  6-C ,  7-C ) :   1.2015
B(  7-C ,  8-C ) :   1.4626 B(  7-C , 76-H ) :   0.9959 B(  8-C ,  9-C ) :   1.2165
B(  8-C , 14-C ) :   0.9991 B(  9-C , 10-C ) :   1.4728 B(  9-C , 11-C ) :   0.9193
B( 10-C , 77-H ) :   1.0157 B( 11-C , 12-O ) :   2.2674 B( 11-C , 13-C ) :   0.9430
B( 13-C , 14-C ) :   1.0451 B( 13-C , 20-C ) :   1.6267 B( 14-C , 15-C ) :   1.6537
B( 15-C , 16-C ) :   1.1538 B( 15-C , 18-C ) :   1.1355 B( 16-C , 17-N ) :   3.0212
B( 18-C , 19-N ) :   2.9874 B( 20-C , 21-C ) :   1.1501 B( 20-C , 78-H ) :   0.9407
B( 21-C , 22-S ) :   1.1061 B( 21-C , 25-C ) :   1.4312 B( 22-S , 23-C ) :   1.1460
B( 23-C , 24-C ) :   1.4712 B( 23-C , 32-C ) :   1.1114 B( 24-C , 25-C ) :   1.3567
B( 24-C , 31-C ) :   1.0513 B( 25-C , 26-C ) :   1.0548 B( 26-C , 27-C ) :   1.0882
B( 26-C , 79-H ) :   0.8962 B( 26-C , 80-H ) :   0.9134 B( 27-C , 28-C ) :   1.0386
B( 27-C , 81-H ) :   0.9349 B( 27-C , 82-H ) :   0.9467 B( 28-C , 29-C ) :   0.9103
B( 28-C , 31-C ) :   1.0457 B( 28-C , 83-H ) :   0.8915 B( 29-C , 30-O ) :   2.1996
B( 29-C , 84-H ) :   0.9489 B( 31-C , 85-H ) :   0.8950 B( 31-C , 86-H ) :   0.9013
B( 32-C , 33-C ) :   1.6946 B( 32-C , 87-H ) :   0.9538 B( 33-C , 34-C ) :   1.1157
B( 33-C , 88-H ) :   0.9616 B( 34-C , 35-C ) :   1.7614 B( 34-C , 89-H ) :   0.9779
B( 35-C , 36-C ) :   1.0664 B( 35-C , 37-C ) :   1.0471 B( 36-C , 90-H ) :   0.9502
B( 36-C , 91-H ) :   0.9443 B( 36-C , 92-H ) :   0.9529 B( 37-C , 38-N ) :   1.0061
B( 37-C , 93-H ) :   0.9350 B( 37-C , 94-H ) :   0.9418 B( 38-N , 39-C ) :   1.2688
B( 38-N , 95-H ) :   0.9358 B( 39-C , 40-C ) :   1.5479 B( 39-C , 96-H ) :   0.9688
B( 40-C , 41-C ) :   1.2155 B( 40-C , 97-H ) :   0.9643 B( 41-C , 42-C ) :   1.5403
B( 41-C , 98-H ) :   0.9774 B( 42-C , 43-C ) :   1.1732 B( 42-C , 46-S ) :   1.0122
B( 43-C , 44-C ) :   1.5524 B( 43-C , 99-H ) :   0.9979 B( 44-C , 45-C ) :   1.2187
B( 44-C ,100-H ) :   0.9947 B( 45-C , 46-S ) :   1.1050 B( 45-C , 47-C ) :   1.4258
B( 47-C , 48-C ) :   1.2266 B( 47-C , 51-S ) :   1.0681 B( 48-C , 49-C ) :   1.5245
B( 48-C ,101-H ) :   0.9923 B( 49-C , 50-C ) :   1.2128 B( 49-C ,102-H ) :   0.9985
B( 50-C , 51-S ) :   1.1507 B( 50-C , 52-C ) :   1.3754 B( 52-C , 53-C ) :   1.4373
B( 52-C ,103-H ) :   0.9494 B( 53-C , 54-C ) :   1.3486 B( 53-C ,104-H ) :   0.9406
B( 54-C , 55-C ) :   1.1372 B( 54-C , 63-C ) :   1.0331 B( 55-C , 56-C ) :   1.5835
B( 55-C , 61-C ) :   0.9850 B( 56-C , 57-C ) :   1.1477 B( 56-C , 59-C ) :   1.1501
B( 57-C , 58-N ) :   2.9633 B( 59-C , 60-N ) :   2.9969 B( 61-C , 62-C ) :   1.2805
B( 61-C , 68-C ) :   1.4274 B( 62-C , 63-C ) :   0.9226 B( 62-C , 65-C ) :   1.4422
B( 63-C , 64-O ) :   2.1449 B( 65-C , 66-C ) :   1.2262 B( 65-C ,105-H ) :   1.0162
B( 66-C , 67-C ) :   1.3315 B( 66-C , 71-C ) :   1.1598 B( 67-C , 68-C ) :   1.3104
B( 67-C , 69-S ) :   1.0755 B( 68-C ,106-H ) :   0.9799 B( 69-S , 70-C ) :   1.0868
B( 70-C , 71-C ) :   1.6206 B( 70-C , 72-Br) :   1.0052 B( 71-C ,107-H ) :   0.9998

-----------------------------------------------------------------------------
         ABSORPTION SPECTRUM VIA TRANSITION ELECTRIC DIPOLE MOMENTS
-----------------------------------------------------------------------------
State   Energy  Wavelength   fosc         T2         TX        TY        TZ
        (cm-1)    (nm)                  (au**2)     (au)      (au)      (au)
-----------------------------------------------------------------------------
   0   12737.1    785.1   1.142849172  29.53895   1.22051  -4.96193   1.85163
   1   16609.9    602.1   0.014995011   0.29720  -0.12129  -0.51742  -0.12154
   2   19400.8    515.4   0.609604717  10.34435   1.05477  -3.03657   0.10525
   3   21075.2    474.5   0.094737768   1.47988  -1.03144  -0.61376   0.19827
   4   23418.8    427.0   0.147007973   2.06658   1.32168   0.47330  -0.30940
   5   24539.6    407.5   0.067959067   0.91171  -0.78653  -0.43124   0.32728
   6   25978.4    384.9   0.045896618   0.58163   0.61242   0.42145   0.17016
   7   26305.4    380.1   0.053973429   0.67548   0.38253   0.06525  -0.72449
   8   26530.9    376.9   0.022793839   0.28284  -0.45054   0.13525  -0.24812
   9   27538.3    363.1   0.174613692   2.08746   1.12451   0.54763  -0.72321
  10   27679.4    361.3   0.098875320   1.17600  -0.89758  -0.06159   0.60544
  11   27937.7    357.9   0.029943990   0.35285   0.49650   0.16426  -0.28170
  12   28228.9    354.2   0.358193057   4.17733  -1.49525  -0.23245   1.37387
  13   29002.9    344.8   0.117914726   1.33845  -1.06755  -0.33563   0.29349
  14   29103.2    343.6   0.259948148   2.94050  -0.98685   0.88719   1.08606
  15   29138.6    343.2   0.202346396   2.28614  -1.14750   0.96704   0.18498
  16   29602.9    337.8   0.086118618   0.95772   0.76679  -0.25984  -0.54977
  17   30007.1    333.3   0.333762797   3.66176  -1.45457   1.14345   0.48837
  18   30083.1    332.4   0.169529158   1.85523   0.65472  -0.23667  -1.17071
  19   31155.7    321.0   0.024735700   0.26137  -0.08848   0.02311   0.50300
  20   31368.5    318.8   0.009660097   0.10138   0.18995  -0.22069   0.12884
  21   32040.1    312.1   0.041824110   0.42974   0.31456   0.13027  -0.56020
  22   32682.7    306.0   0.394741393   3.97622  -0.94235  -0.12390   1.75295
  23   32803.5    304.8   0.085662663   0.85970  -0.35032   0.58942  -0.62414
  24   33462.6    298.8   0.107022698   1.05291  -0.03359  -0.00176   1.02556
  25   33629.1    297.4   0.003670788   0.03594   0.05857  -0.16558  -0.07134
  26   33880.9    295.2   0.770249570   7.48432   1.99369  -1.47207  -1.15868
  27   34496.8    289.9   0.266437225   2.54268   0.81421  -0.14674   1.36316
  28   35063.3    285.2   0.204827726   1.92314   0.85767   0.51632   0.95967
  29   35590.8    281.0   0.018941608   0.17521   0.25565  -0.04579   0.32826
  30   35621.5    280.7   0.033145255   0.30633   0.54128  -0.10545   0.04711
  31   35671.6    280.3   0.025064409   0.23132   0.08636  -0.18781   0.43427
  32   35941.6    278.2   0.124514112   1.14051  -0.84715   0.19370  -0.62075
  33   36228.7    276.0   0.059913693   0.54444  -0.16344  -0.03446  -0.71871
  34   36525.1    273.8   0.003135148   0.02826  -0.12250   0.11271   0.02343
  35   37375.0    267.6   0.086069944   0.75813   0.49714  -0.64986   0.29778
  36   37667.3    265.5   0.005095561   0.04454  -0.14135  -0.04818  -0.14911
  37   38303.6    261.1   0.108873666   0.93575  -0.52040   0.30439  -0.75649
  38   38363.5    260.7   0.016828147   0.14441   0.36820  -0.05188  -0.07839
  39   38527.2    259.6   0.037775248   0.32279   0.09297  -0.19541   0.52532
  40   38766.0    258.0   0.021007419   0.17840  -0.17456   0.01464  -0.38434
  41   38873.7    257.2   0.098682180   0.83571  -0.58762   0.10466   0.69243
  42   39252.7    254.8   0.073693170   0.61806   0.70395  -0.21809   0.27379
  43   39301.0    254.4   0.041518155   0.34778  -0.55047   0.11579  -0.17709
  44   39878.3    250.8   0.158397696   1.30764  -0.67441   0.50965   0.77010
  45   40241.0    248.5   0.065141149   0.53292  -0.03843  -0.25039  -0.68465

FINAL SINGLE POINT ENERGY     -7031.092786988134

DIPOLE MOMENT
-------------
                                X             Y             Z
Electronic contribution:     35.60180    -143.92925     -57.54595
Nuclear contribution   :    -37.07002     149.56359      55.08923
                        -----------------------------------------
Total Dipole Moment    :     -1.46823       5.63433      -2.45672
                        -----------------------------------------
Magnitude (a.u.)       :      6.31956
Magnitude (Debye)      :     16.06306

Rotational constants in cm-1:     0.001102     0.000186     0.000179
Rotational constants in MHz :    33.043045     5.577416     5.363126

                             ****ORCA TERMINATED NORMALLY****
TOTAL RUN TIME: 0 days 0 hours 11 minutes 26 seconds 235 msec
