                         Program Version 4.2.0 -  RELEASE  -
|  1> # ORCA input file
|  2> # SCF done       -199.999522608721          0.000300106613
|  3> ! CAM-B3LYP def2-SVP def2/J RIJCOSX Grid4 TightSCF
|  4> %maxcore 5000
|  5> %tddft
|  6>     Mode sTDDFT
|  7>     Ethresh 5.0
|  8>     maxcore 5000
|  9> end
| 10>
| 11> %pal
| 12>   nprocs 6
| 13>   end
| 14> * xyz 0 1
| 15>    C        1.82392        -5.05140         3.88628
| 16>    C        0.67434        -5.75391         3.65239
| 17>    F       -0.23023        -5.89056         4.63824
| 18>    C        0.39404        -6.34548         2.41325
| 19>    C        1.30206        -6.21845         1.39894
| 20>    C        2.50387        -5.50545         1.58514
| 21>    C        2.76838        -4.90780         2.85186
| 22>    C        3.96166        -4.17633         3.05952
| 23>    C        4.85866        -4.05302         2.03403
| 24>    C        4.59967        -4.67184         0.77678
| 25>    C        3.45306        -5.37499         0.54624
| 26>    C        5.73901        -4.42746        -0.12729
| 27>    O        5.85791        -4.75729        -1.28593
| 28>    C        6.75655        -3.72720         0.70318
| 29>    C        6.13415        -3.34478         1.94692
| 30>    C        6.53260        -2.33366         2.78755
| 31>    C        7.62768        -1.48834         2.53310
| 32>    N        8.48697        -0.75000         2.34349
| 33>    C        5.83464        -1.96009         3.95340
| 34>    N        5.31616        -1.62564         4.92131
| 35>    C        8.02726        -3.59415         0.21359
| 36>    C        9.22748        -3.30542         0.88435
| 37>    S       10.52653        -2.57651        -0.00868
| 38>    C       11.53590        -2.42000         1.37968
| 39>    C       10.91291        -2.99028         2.50696
| 40>    C        9.61488        -3.50928         2.22203
| 41>    C        8.90893        -4.20716         3.21832
| 42>    C        9.45145        -4.30341         4.46918
| 43>    F        8.79398        -4.96958         5.42764
| 44>    C       10.70452        -3.72691         4.76963
| 45>    F       11.19115        -3.83887         6.01394
| 46>    C       11.43866        -3.09470         3.80613
| 47>    C       12.79693        -1.78262         1.33088
| 48>    C       13.38231        -1.31798         0.19981
| 49>    C       14.65268        -0.67239         0.19963
| 50>    C       15.33867        -0.23067        -0.87263
| 51>    C       14.92359        -0.37445        -2.29679
| 52>    C       16.70452         0.38599        -0.67387
| 53>    N       17.72614        -0.63231        -0.79844
| 54>    C       18.29620        -0.95846        -1.97360
| 55>    C       18.99939        -2.10008        -2.18790
| 56>    C       19.66169        -2.41133        -3.39661
| 57>    S       20.58411        -3.87962        -3.53124
| 58>    C       21.06440        -3.56990        -5.18997
| 59>    C       20.50432        -2.35088        -5.61340
| 60>    C       19.72866        -1.72564        -4.60272
| 61>    S       19.03493        -0.23055        -5.14004
| 62>    C       19.78633        -0.44195        -6.70643
| 63>    C       19.53883         0.61777        -7.68757
| 64>    O       18.83984         1.56591        -7.40206
| 65>    C       20.20212         0.43843        -9.03393
| 66>    C       19.90021         1.60081        -9.96921
| 67>    C       20.51897        -1.59040        -6.80514
| 68>    C       21.88795        -4.49568        -5.83445
| 69>    C       22.36593        -4.38401        -7.11549
| 70>    C       23.20212        -5.34252        -7.69344
| 71>    C       23.70787        -5.25157        -8.97272
| 72>    C       24.58671        -6.19432        -9.62268
| 73>    C       25.08801        -7.36329        -9.10096
| 74>    C       25.94829        -8.23599        -9.79661
| 75>    N       26.65140        -8.98898       -10.30485
| 76>    C       24.82780        -7.86688        -7.81108
| 77>    N       24.66798        -8.34987        -6.78050
| 78>    C       24.86902        -5.68778       -10.96414
| 79>    C       24.18026        -4.46351       -11.14023
| 80>    C       23.43082        -4.14505        -9.90779
| 81>    O       22.73452        -3.15996        -9.73304
| 82>    C       24.24539        -3.73651       -12.30310
| 83>    C       25.03008        -4.24120       -13.34580
| 84>    C       25.71480        -5.46438       -13.16106
| 85>    C       25.64787        -6.20034       -11.98369
| 86>    S       26.62705        -5.90613       -14.57308
| 87>    C       26.08251        -4.45995       -15.38075
| 88>    C       25.26051        -3.68538       -14.63433
| 89>   Br       26.65101        -4.10886       -17.13400
| 90>    H        2.00537        -4.60636         4.85208
| 91>    H       -0.52981        -6.88736         2.28718
| 92>    H        1.10868        -6.66604         0.43571
| 93>    H        4.13988        -3.74068         4.02987
| 94>    H        3.27143        -5.82761        -0.41699
| 95>    H        8.11169        -3.76579        -0.85624
| 96>    H        7.97085        -4.69306         3.00751
| 97>    H       12.40814        -2.69674         4.05579
| 98>    H       13.31165        -1.67078         2.27525
| 99>    H       12.86132        -1.44319        -0.73861
|100>    H       15.09151        -0.52077         1.17933
|101>    H       14.00772        -0.94402        -2.40798
|102>    H       15.71262        -0.87105        -2.86335
|103>    H       14.77689         0.61071        -2.74035
|104>    H       16.78665         0.83566         0.31918
|105>    H       16.89417         1.15276        -1.42766
|106>    H       17.72068        -1.34542        -0.08177
|107>    H       18.21215        -0.21205        -2.75057
|108>    H       19.08539        -2.82931        -1.39444
|109>    H       19.85115        -0.50209        -9.46596
|110>    H       21.27924         0.34151        -8.87779
|111>    H       18.82771         1.69227       -10.12169
|112>    H       20.38198         1.44756       -10.93116
|113>    H       20.25903         2.53258        -9.53911
|114>    H       21.03987        -1.86581        -7.70245
|115>    H       22.16877        -5.36716        -5.25453
|116>    H       22.10639        -3.53006        -7.71496
|117>    H       23.46509        -6.20012        -7.08853
|118>    H       23.70856        -2.80650       -12.40684
|119>    H       26.18930        -7.12698       -11.89427
|120>    H       24.83356        -2.76023       -14.97619
|121> *
|122>
|123>                          ****END OF INPUT****

CARTESIAN COORDINATES (ANGSTROEM)
---------------------------------
  C      1.823920   -5.051400    3.886280
  C      0.674340   -5.753910    3.652390
  F     -0.230230   -5.890560    4.638240
  C      0.394040   -6.345480    2.413250
  C      1.302060   -6.218450    1.398940
  C      2.503870   -5.505450    1.585140
  C      2.768380   -4.907800    2.851860
  C      3.961660   -4.176330    3.059520
  C      4.858660   -4.053020    2.034030
  C      4.599670   -4.671840    0.776780
  C      3.453060   -5.374990    0.546240
  C      5.739010   -4.427460   -0.127290
  O      5.857910   -4.757290   -1.285930
  C      6.756550   -3.727200    0.703180
  C      6.134150   -3.344780    1.946920
  C      6.532600   -2.333660    2.787550
  C      7.627680   -1.488340    2.533100
  N      8.486970   -0.750000    2.343490
  C      5.834640   -1.960090    3.953400
  N      5.316160   -1.625640    4.921310
  C      8.027260   -3.594150    0.213590
  C      9.227480   -3.305420    0.884350
  S     10.526530   -2.576510   -0.008680
  C     11.535900   -2.420000    1.379680
  C     10.912910   -2.990280    2.506960
  C      9.614880   -3.509280    2.222030
  C      8.908930   -4.207160    3.218320
  C      9.451450   -4.303410    4.469180
  F      8.793980   -4.969580    5.427640
  C     10.704520   -3.726910    4.769630
  F     11.191150   -3.838870    6.013940
  C     11.438660   -3.094700    3.806130
  C     12.796930   -1.782620    1.330880
  C     13.382310   -1.317980    0.199810
  C     14.652680   -0.672390    0.199630
  C     15.338670   -0.230670   -0.872630
  C     14.923590   -0.374450   -2.296790
  C     16.704520    0.385990   -0.673870
  N     17.726140   -0.632310   -0.798440
  C     18.296200   -0.958460   -1.973600
  C     18.999390   -2.100080   -2.187900
  C     19.661690   -2.411330   -3.396610
  S     20.584110   -3.879620   -3.531240
  C     21.064400   -3.569900   -5.189970
  C     20.504320   -2.350880   -5.613400
  C     19.728660   -1.725640   -4.602720
  S     19.034930   -0.230550   -5.140040
  C     19.786330   -0.441950   -6.706430
  C     19.538830    0.617770   -7.687570
  O     18.839840    1.565910   -7.402060
  C     20.202120    0.438430   -9.033930
  C     19.900210    1.600810   -9.969210
  C     20.518970   -1.590400   -6.805140
  C     21.887950   -4.495680   -5.834450
  C     22.365930   -4.384010   -7.115490
  C     23.202120   -5.342520   -7.693440
  C     23.707870   -5.251570   -8.972720
  C     24.586710   -6.194320   -9.622680
  C     25.088010   -7.363290   -9.100960
  C     25.948290   -8.235990   -9.796610
  N     26.651400   -8.988980  -10.304850
  C     24.827800   -7.866880   -7.811080
  N     24.667980   -8.349870   -6.780500
  C     24.869020   -5.687780  -10.964140
  C     24.180260   -4.463510  -11.140230
  C     23.430820   -4.145050   -9.907790
  O     22.734520   -3.159960   -9.733040
  C     24.245390   -3.736510  -12.303100
  C     25.030080   -4.241200  -13.345800
  C     25.714800   -5.464380  -13.161060
  C     25.647870   -6.200340  -11.983690
  S     26.627050   -5.906130  -14.573080
  C     26.082510   -4.459950  -15.380750
  C     25.260510   -3.685380  -14.634330
  Br    26.651010   -4.108860  -17.134000
  H      2.005370   -4.606360    4.852080
  H     -0.529810   -6.887360    2.287180
  H      1.108680   -6.666040    0.435710
  H      4.139880   -3.740680    4.029870
  H      3.271430   -5.827610   -0.416990
  H      8.111690   -3.765790   -0.856240
  H      7.970850   -4.693060    3.007510
  H     12.408140   -2.696740    4.055790
  H     13.311650   -1.670780    2.275250
  H     12.861320   -1.443190   -0.738610
  H     15.091510   -0.520770    1.179330
  H     14.007720   -0.944020   -2.407980
  H     15.712620   -0.871050   -2.863350
  H     14.776890    0.610710   -2.740350
  H     16.786650    0.835660    0.319180
  H     16.894170    1.152760   -1.427660
  H     17.720680   -1.345420   -0.081770
  H     18.212150   -0.212050   -2.750570
  H     19.085390   -2.829310   -1.394440
  H     19.851150   -0.502090   -9.465960
  H     21.279240    0.341510   -8.877790
  H     18.827710    1.692270  -10.121690
  H     20.381980    1.447560  -10.931160
  H     20.259030    2.532580   -9.539110
  H     21.039870   -1.865810   -7.702450
  H     22.168770   -5.367160   -5.254530
  H     22.106390   -3.530060   -7.714960
  H     23.465090   -6.200120   -7.088530
  H     23.708560   -2.806500  -12.406840
  H     26.189300   -7.126980  -11.894270
  H     24.833560   -2.760230  -14.976190

 Total Charge           Charge          ....    0
 Multiplicity           Mult            ....    1
 Number of Electrons    NEL             ....  570
 Basis Dimension        Dim             .... 1239

ORBITAL ENERGIES
----------------

  NO   OCC          E(Eh)            E(eV)
   0   2.0000    -482.880342    -13139.8421
   1   2.0000     -88.988332     -2421.4956
   2   2.0000     -88.973578     -2421.0941
   3   2.0000     -88.968328     -2420.9513
   4   2.0000     -88.966958     -2420.9140
   5   2.0000     -62.558025     -1702.2904
   6   2.0000     -56.391968     -1534.5035
   7   2.0000     -56.389270     -1534.4300
   8   2.0000     -56.389232     -1534.4290
   9   2.0000     -24.801448      -674.8817
  10   2.0000     -24.798456      -674.8003
  11   2.0000     -24.784740      -674.4271
  12   2.0000     -19.216427      -522.9056
  13   2.0000     -19.212304      -522.7934
  14   2.0000     -19.207061      -522.6507
  15   2.0000     -14.464792      -393.6070
  16   2.0000     -14.413888      -392.2218
  17   2.0000     -14.413137      -392.2014
  18   2.0000     -14.404194      -391.9581
  19   2.0000     -14.401867      -391.8947
  20   2.0000     -10.386543      -282.6322
  21   2.0000     -10.381731      -282.5013
  22   2.0000     -10.368308      -282.1360
  23   2.0000     -10.367694      -282.1193
  24   2.0000     -10.363519      -282.0057
  25   2.0000     -10.356840      -281.8239
  26   2.0000     -10.352053      -281.6937
  27   2.0000     -10.344957      -281.5006
  28   2.0000     -10.340382      -281.3761
  29   2.0000     -10.338950      -281.3371
  30   2.0000     -10.338538      -281.3259
  31   2.0000     -10.336828      -281.2794
  32   2.0000     -10.334388      -281.2130
  33   2.0000     -10.328040      -281.0402
  34   2.0000     -10.326010      -280.9850
  35   2.0000     -10.324796      -280.9520
  36   2.0000     -10.322203      -280.8814
  37   2.0000     -10.316997      -280.7397
  38   2.0000     -10.316523      -280.7269
  39   2.0000     -10.316282      -280.7203
  40   2.0000     -10.315787      -280.7068
  41   2.0000     -10.313967      -280.6573
  42   2.0000     -10.313301      -280.6392
  43   2.0000     -10.310972      -280.5758
  44   2.0000     -10.310647      -280.5670
  45   2.0000     -10.309825      -280.5446
  46   2.0000     -10.308123      -280.4983
  47   2.0000     -10.308034      -280.4959
  48   2.0000     -10.307867      -280.4913
  49   2.0000     -10.307481      -280.4808
  50   2.0000     -10.307170      -280.4724
  51   2.0000     -10.305922      -280.4384
  52   2.0000     -10.304694      -280.4050
  53   2.0000     -10.304549      -280.4010
  54   2.0000     -10.304193      -280.3914
  55   2.0000     -10.302309      -280.3401
  56   2.0000     -10.301437      -280.3163
  57   2.0000     -10.300976      -280.3038
  58   2.0000     -10.299611      -280.2667
  59   2.0000     -10.299209      -280.2557
  60   2.0000     -10.298654      -280.2406
  61   2.0000     -10.297810      -280.2177
  62   2.0000     -10.296675      -280.1868
  63   2.0000     -10.296555      -280.1835
  64   2.0000     -10.296345      -280.1778
  65   2.0000     -10.296268      -280.1757
  66   2.0000     -10.295811      -280.1633
  67   2.0000     -10.293100      -280.0895
  68   2.0000     -10.292540      -280.0743
  69   2.0000     -10.290308      -280.0135
  70   2.0000     -10.290254      -280.0120
  71   2.0000     -10.288227      -279.9569
  72   2.0000     -10.287743      -279.9437
  73   2.0000     -10.286063      -279.8980
  74   2.0000     -10.282307      -279.7958
  75   2.0000     -10.279163      -279.7103
  76   2.0000     -10.276379      -279.6345
  77   2.0000     -10.271123      -279.4915
  78   2.0000     -10.256361      -279.0898
  79   2.0000      -8.787432      -239.1182
  80   2.0000      -8.083501      -219.9632
  81   2.0000      -8.068967      -219.5678
  82   2.0000      -8.064356      -219.4423
  83   2.0000      -8.061612      -219.3676
  84   2.0000      -6.623678      -180.2394
  85   2.0000      -6.609183      -179.8450
  86   2.0000      -6.609009      -179.8403
  87   2.0000      -6.052427      -164.6949
  88   2.0000      -6.048435      -164.5863
  89   2.0000      -6.046248      -164.5268
  90   2.0000      -6.038226      -164.3085
  91   2.0000      -6.034200      -164.1989
  92   2.0000      -6.034037      -164.1945
  93   2.0000      -6.031338      -164.1211
  94   2.0000      -6.031041      -164.1130
  95   2.0000      -6.029786      -164.0788
  96   2.0000      -6.027061      -164.0047
  97   2.0000      -6.025563      -163.9639
  98   2.0000      -6.023096      -163.8968
  99   2.0000      -2.739577       -74.5477
 100   2.0000      -2.735479       -74.4362
 101   2.0000      -2.735352       -74.4327
 102   2.0000      -2.723820       -74.1189
 103   2.0000      -2.723816       -74.1188
 104   2.0000      -1.322914       -35.9983
 105   2.0000      -1.307668       -35.5835
 106   2.0000      -1.299803       -35.3695
 107   2.0000      -1.134066       -30.8595
 108   2.0000      -1.127478       -30.6802
 109   2.0000      -1.119250       -30.4563
 110   2.0000      -1.066433       -29.0191
 111   2.0000      -1.026947       -27.9446
 112   2.0000      -1.019565       -27.7438
 113   2.0000      -1.014923       -27.6175
 114   2.0000      -1.013345       -27.5745
 115   2.0000      -1.002628       -27.2829
 116   2.0000      -0.999094       -27.1867
 117   2.0000      -0.992034       -26.9946
 118   2.0000      -0.982223       -26.7277
 119   2.0000      -0.978459       -26.6252
 120   2.0000      -0.975000       -26.5311
 121   2.0000      -0.963014       -26.2050
 122   2.0000      -0.961037       -26.1511
 123   2.0000      -0.946948       -25.7678
 124   2.0000      -0.935392       -25.4533
 125   2.0000      -0.930926       -25.3318
 126   2.0000      -0.923073       -25.1181
 127   2.0000      -0.917208       -24.9585
 128   2.0000      -0.900219       -24.4962
 129   2.0000      -0.898584       -24.4517
 130   2.0000      -0.894483       -24.3401
 131   2.0000      -0.885678       -24.1005
 132   2.0000      -0.883335       -24.0368
 133   2.0000      -0.877109       -23.8673
 134   2.0000      -0.876161       -23.8415
 135   2.0000      -0.869837       -23.6695
 136   2.0000      -0.866510       -23.5789
 137   2.0000      -0.852934       -23.2095
 138   2.0000      -0.850686       -23.1483
 139   2.0000      -0.837221       -22.7819
 140   2.0000      -0.834541       -22.7090
 141   2.0000      -0.831514       -22.6267
 142   2.0000      -0.829370       -22.5683
 143   2.0000      -0.820714       -22.3328
 144   2.0000      -0.810471       -22.0540
 145   2.0000      -0.805771       -21.9261
 146   2.0000      -0.784640       -21.3512
 147   2.0000      -0.774561       -21.0769
 148   2.0000      -0.759886       -20.6775
 149   2.0000      -0.757375       -20.6092
 150   2.0000      -0.752328       -20.4719
 151   2.0000      -0.752086       -20.4653
 152   2.0000      -0.746469       -20.3124
 153   2.0000      -0.734305       -19.9815
 154   2.0000      -0.725307       -19.7366
 155   2.0000      -0.720236       -19.5986
 156   2.0000      -0.709786       -19.3143
 157   2.0000      -0.707512       -19.2524
 158   2.0000      -0.703245       -19.1363
 159   2.0000      -0.695438       -18.9238
 160   2.0000      -0.683444       -18.5975
 161   2.0000      -0.679922       -18.5016
 162   2.0000      -0.678341       -18.4586
 163   2.0000      -0.677685       -18.4407
 164   2.0000      -0.672491       -18.2994
 165   2.0000      -0.662535       -18.0285
 166   2.0000      -0.654344       -17.8056
 167   2.0000      -0.651154       -17.7188
 168   2.0000      -0.648201       -17.6384
 169   2.0000      -0.645431       -17.5631
 170   2.0000      -0.638578       -17.3766
 171   2.0000      -0.632930       -17.2229
 172   2.0000      -0.629142       -17.1198
 173   2.0000      -0.627467       -17.0742
 174   2.0000      -0.624392       -16.9906
 175   2.0000      -0.615613       -16.7517
 176   2.0000      -0.609905       -16.5963
 177   2.0000      -0.606312       -16.4986
 178   2.0000      -0.602673       -16.3996
 179   2.0000      -0.598597       -16.2886
 180   2.0000      -0.597398       -16.2560
 181   2.0000      -0.590456       -16.0671
 182   2.0000      -0.587783       -15.9944
 183   2.0000      -0.586080       -15.9481
 184   2.0000      -0.585502       -15.9323
 185   2.0000      -0.580038       -15.7836
 186   2.0000      -0.571183       -15.5427
 187   2.0000      -0.567880       -15.4528
 188   2.0000      -0.565214       -15.3803
 189   2.0000      -0.562335       -15.3019
 190   2.0000      -0.558229       -15.1902
 191   2.0000      -0.557028       -15.1575
 192   2.0000      -0.556666       -15.1476
 193   2.0000      -0.555622       -15.1192
 194   2.0000      -0.554226       -15.0812
 195   2.0000      -0.549026       -14.9397
 196   2.0000      -0.548017       -14.9123
 197   2.0000      -0.542465       -14.7612
 198   2.0000      -0.541899       -14.7458
 199   2.0000      -0.536060       -14.5869
 200   2.0000      -0.532864       -14.5000
 201   2.0000      -0.531092       -14.4517
 202   2.0000      -0.529863       -14.4183
 203   2.0000      -0.529537       -14.4094
 204   2.0000      -0.525738       -14.3061
 205   2.0000      -0.523176       -14.2364
 206   2.0000      -0.522329       -14.2133
 207   2.0000      -0.519656       -14.1406
 208   2.0000      -0.519092       -14.1252
 209   2.0000      -0.516852       -14.0643
 210   2.0000      -0.514022       -13.9872
 211   2.0000      -0.512476       -13.9452
 212   2.0000      -0.510154       -13.8820
 213   2.0000      -0.508967       -13.8497
 214   2.0000      -0.502287       -13.6679
 215   2.0000      -0.501117       -13.6361
 216   2.0000      -0.500253       -13.6126
 217   2.0000      -0.493579       -13.4310
 218   2.0000      -0.492244       -13.3947
 219   2.0000      -0.491335       -13.3699
 220   2.0000      -0.487898       -13.2764
 221   2.0000      -0.486910       -13.2495
 222   2.0000      -0.484376       -13.1805
 223   2.0000      -0.483542       -13.1579
 224   2.0000      -0.482947       -13.1417
 225   2.0000      -0.480866       -13.0850
 226   2.0000      -0.478989       -13.0339
 227   2.0000      -0.476617       -12.9694
 228   2.0000      -0.474603       -12.9146
 229   2.0000      -0.470437       -12.8012
 230   2.0000      -0.468976       -12.7615
 231   2.0000      -0.466438       -12.6924
 232   2.0000      -0.460541       -12.5320
 233   2.0000      -0.456489       -12.4217
 234   2.0000      -0.456352       -12.4180
 235   2.0000      -0.452415       -12.3108
 236   2.0000      -0.451017       -12.2728
 237   2.0000      -0.449193       -12.2232
 238   2.0000      -0.446659       -12.1542
 239   2.0000      -0.445931       -12.1344
 240   2.0000      -0.444637       -12.0992
 241   2.0000      -0.442429       -12.0391
 242   2.0000      -0.440662       -11.9910
 243   2.0000      -0.438279       -11.9262
 244   2.0000      -0.438205       -11.9242
 245   2.0000      -0.437164       -11.8958
 246   2.0000      -0.436293       -11.8721
 247   2.0000      -0.433561       -11.7978
 248   2.0000      -0.432731       -11.7752
 249   2.0000      -0.432313       -11.7638
 250   2.0000      -0.430838       -11.7237
 251   2.0000      -0.430018       -11.7014
 252   2.0000      -0.426989       -11.6190
 253   2.0000      -0.423279       -11.5180
 254   2.0000      -0.423026       -11.5111
 255   2.0000      -0.422042       -11.4843
 256   2.0000      -0.416713       -11.3393
 257   2.0000      -0.415979       -11.3194
 258   2.0000      -0.413727       -11.2581
 259   2.0000      -0.412467       -11.2238
 260   2.0000      -0.407503       -11.0887
 261   2.0000      -0.401058       -10.9133
 262   2.0000      -0.398905       -10.8548
 263   2.0000      -0.395975       -10.7750
 264   2.0000      -0.383398       -10.4328
 265   2.0000      -0.382362       -10.4046
 266   2.0000      -0.377379       -10.2690
 267   2.0000      -0.374793       -10.1986
 268   2.0000      -0.369796       -10.0627
 269   2.0000      -0.349591        -9.5129
 270   2.0000      -0.344106        -9.3636
 271   2.0000      -0.339486        -9.2379
 272   2.0000      -0.335263        -9.1230
 273   2.0000      -0.329799        -8.9743
 274   2.0000      -0.328058        -8.9269
 275   2.0000      -0.326749        -8.8913
 276   2.0000      -0.323508        -8.8031
 277   2.0000      -0.318538        -8.6679
 278   2.0000      -0.310658        -8.4534
 279   2.0000      -0.307708        -8.3732
 280   2.0000      -0.299104        -8.1390
 281   2.0000      -0.296703        -8.0737
 282   2.0000      -0.284816        -7.7502
 283   2.0000      -0.258614        -7.0372
 284   2.0000      -0.234472        -6.3803
 285   0.0000      -0.107934        -2.9370
 286   0.0000      -0.095941        -2.6107
 287   0.0000      -0.063709        -1.7336
 288   0.0000      -0.058042        -1.5794
 289   0.0000      -0.046622        -1.2687

MULLIKEN ATOMIC CHARGES
-----------------------
   0 C :   -0.096581
   1 C :    0.301627
   2 F :   -0.190687
   3 C :   -0.028272
   4 C :   -0.008671
   5 C :    0.099086
   6 C :    0.102080
   7 C :   -0.091470
   8 C :    0.044943
   9 C :    0.018081
  10 C :   -0.085018
  11 C :    0.133511
  12 O :   -0.147091
  13 C :   -0.150656
  14 C :    0.241396
  15 C :   -0.336870
  16 C :   -0.190267
  17 N :    0.159537
  18 C :   -0.184175
  19 N :    0.156728
  20 C :    0.065454
  21 C :   -0.150875
  22 S :    0.179944
  23 C :   -0.054066
  24 C :    0.140211
  25 C :    0.116693
  26 C :   -0.085181
  27 C :    0.220818
  28 F :   -0.166816
  29 C :    0.238505
  30 F :   -0.174060
  31 C :   -0.113213
  32 C :   -0.013515
  33 C :    0.019182
  34 C :    0.007278
  35 C :   -0.178347
  36 C :    0.096272
  37 C :    0.186067
  38 N :   -0.137371
  39 C :    0.053397
  40 C :    0.000428
  41 C :   -0.120575
  42 S :    0.154615
  43 C :   -0.130810
  44 C :    0.160075
  45 C :   -0.069204
  46 S :    0.126458
  47 C :   -0.082232
  48 C :    0.040693
  49 O :   -0.179966
  50 C :   -0.057111
  51 C :    0.063528
  52 C :   -0.054388
  53 C :    0.097455
  54 C :   -0.042870
  55 C :   -0.016132
  56 C :   -0.099027
  57 C :    0.338438
  58 C :   -0.363423
  59 C :   -0.186508
  60 N :    0.137203
  61 C :   -0.192027
  62 N :    0.135675
  63 C :    0.010186
  64 C :   -0.002245
  65 C :    0.146304
  66 O :   -0.184047
  67 C :   -0.079864
  68 C :    0.118494
  69 C :   -0.092127
  70 C :   -0.023521
  71 S :    0.182175
  72 C :   -0.123943
  73 C :    0.037784
  74 Br:    0.017097
  75 H :   -0.003179
  76 H :    0.002517
  77 H :   -0.010122
  78 H :   -0.005318
  79 H :   -0.013709
  80 H :    0.022283
  81 H :    0.003618
  82 H :   -0.009362
  83 H :   -0.008775
  84 H :    0.003276
  85 H :   -0.025287
  86 H :    0.016081
  87 H :    0.034123
  88 H :    0.038308
  89 H :    0.024309
  90 H :    0.025193
  91 H :    0.121111
  92 H :    0.019976
  93 H :   -0.029484
  94 H :    0.044411
  95 H :    0.046679
  96 H :    0.019939
  97 H :    0.008578
  98 H :    0.018782
  99 H :    0.029283
 100 H :   -0.003753
 101 H :    0.000724
 102 H :    0.001348
 103 H :   -0.019344
 104 H :   -0.009304
 105 H :   -0.007094
Sum of atomic charges:   -0.0000000

LOEWDIN ATOMIC CHARGES
----------------------
   0 C :   -0.042105
   1 C :    0.092828
   2 F :   -0.064778
   3 C :   -0.037879
   4 C :    0.004386
   5 C :   -0.019891
   6 C :    0.003349
   7 C :    0.008367
   8 C :   -0.017767
   9 C :   -0.060224
  10 C :    0.033806
  11 C :    0.081048
  12 O :   -0.149281
  13 C :   -0.105994
  14 C :    0.055594
  15 C :   -0.142526
  16 C :   -0.013866
  17 N :   -0.057978
  18 C :   -0.020434
  19 N :   -0.054939
  20 C :    0.036725
  21 C :   -0.190188
  22 S :    0.507669
  23 C :   -0.136300
  24 C :   -0.041166
  25 C :   -0.025123
  26 C :   -0.039938
  27 C :    0.078707
  28 F :   -0.045310
  29 C :    0.060896
  30 F :   -0.052164
  31 C :   -0.026673
  32 C :   -0.043777
  33 C :   -0.001479
  34 C :   -0.053056
  35 C :   -0.022993
  36 C :   -0.046915
  37 C :    0.048911
  38 N :    0.015531
  39 C :    0.053377
  40 C :   -0.144841
  41 C :   -0.146836
  42 S :    0.458110
  43 C :   -0.196849
  44 C :   -0.047443
  45 C :   -0.209498
  46 S :    0.426111
  47 C :   -0.182603
  48 C :    0.063844
  49 O :   -0.147398
  50 C :   -0.064617
  51 C :   -0.048219
  52 C :   -0.023088
  53 C :    0.018208
  54 C :   -0.058912
  55 C :    0.066787
  56 C :   -0.117405
  57 C :    0.075837
  58 C :   -0.154463
  59 C :   -0.018658
  60 N :   -0.066100
  61 C :   -0.019607
  62 N :   -0.065589
  63 C :   -0.018494
  64 C :   -0.049096
  65 C :    0.086448
  66 O :   -0.174146
  67 C :    0.016624
  68 C :   -0.035668
  69 C :   -0.145467
  70 C :   -0.011992
  71 S :    0.429341
  72 C :   -0.274011
  73 C :   -0.071484
  74 Br:    0.131526
  75 H :    0.043073
  76 H :    0.041583
  77 H :    0.035377
  78 H :    0.039065
  79 H :    0.039183
  80 H :    0.045245
  81 H :    0.044868
  82 H :    0.041252
  83 H :    0.034346
  84 H :    0.022925
  85 H :    0.025857
  86 H :    0.031401
  87 H :    0.039646
  88 H :    0.043673
  89 H :    0.031574
  90 H :    0.034414
  91 H :    0.081698
  92 H :    0.018562
  93 H :    0.025059
  94 H :    0.044788
  95 H :    0.044901
  96 H :    0.029191
  97 H :    0.025453
  98 H :    0.029017
  99 H :    0.041333
 100 H :    0.035995
 101 H :    0.026484
 102 H :    0.040050
 103 H :    0.037491
 104 H :    0.040448
 105 H :    0.037243

  Mayer bond orders larger than 0.100000
B(  0-C ,  1-C ) :   1.4395 B(  0-C ,  6-C ) :   1.2039 B(  0-C , 75-H ) :   1.0063
B(  1-C ,  2-F ) :   1.0882 B(  1-C ,  3-C ) :   1.2571 B(  3-C ,  4-C ) :   1.4595
B(  3-C , 76-H ) :   0.9921 B(  4-C ,  5-C ) :   1.2373 B(  4-C , 77-H ) :   0.9962
B(  5-C ,  6-C ) :   1.2590 B(  5-C , 10-C ) :   1.1857 B(  6-C ,  7-C ) :   1.1983
B(  7-C ,  8-C ) :   1.4650 B(  7-C , 78-H ) :   0.9947 B(  8-C ,  9-C ) :   1.2201
B(  8-C , 14-C ) :   0.9932 B(  9-C , 10-C ) :   1.4721 B(  9-C , 11-C ) :   0.9176
B( 10-C , 79-H ) :   1.0159 B( 11-C , 12-O ) :   2.2660 B( 11-C , 13-C ) :   0.9468
B( 13-C , 14-C ) :   1.0730 B( 13-C , 20-C ) :   1.5916 B( 14-C , 15-C ) :   1.6218
B( 15-C , 16-C ) :   1.1696 B( 15-C , 18-C ) :   1.1396 B( 16-C , 17-N ) :   3.0036
B( 18-C , 19-N ) :   2.9846 B( 20-C , 21-C ) :   1.1947 B( 20-C , 80-H ) :   0.9265
B( 21-C , 22-S ) :   1.1195 B( 21-C , 25-C ) :   1.3074 B( 22-S , 23-C ) :   1.1890
B( 23-C , 24-C ) :   1.2995 B( 23-C , 32-C ) :   1.1553 B( 24-C , 25-C ) :   1.2355
B( 24-C , 31-C ) :   1.1743 B( 25-C , 26-C ) :   1.1954 B( 26-C , 27-C ) :   1.4740
B( 26-C , 31-C ) :   0.1079 B( 26-C , 81-H ) :   0.9882 B( 27-C , 28-F ) :   1.1439
B( 27-C , 29-C ) :   1.1710 B( 29-C , 30-F ) :   1.1307 B( 29-C , 31-C ) :   1.4878
B( 31-C , 82-H ) :   0.9964 B( 32-C , 33-C ) :   1.6592 B( 32-C , 83-H ) :   0.9766
B( 33-C , 34-C ) :   1.1224 B( 33-C , 84-H ) :   0.9720 B( 34-C , 35-C ) :   1.7381
B( 34-C , 85-H ) :   0.9763 B( 35-C , 36-C ) :   1.0836 B( 35-C , 37-C ) :   1.0272
B( 36-C , 86-H ) :   0.9518 B( 36-C , 87-H ) :   0.9406 B( 36-C , 88-H ) :   0.9419
B( 37-C , 38-N ) :   1.0124 B( 37-C , 89-H ) :   0.9448 B( 37-C , 90-H ) :   0.9328
B( 38-N , 39-C ) :   1.2585 B( 38-N , 91-H ) :   0.9378 B( 39-C , 40-C ) :   1.5622
B( 39-C , 92-H ) :   0.9541 B( 40-C , 41-C ) :   1.1984 B( 40-C , 93-H ) :   0.9496
B( 41-C , 42-S ) :   1.1639 B( 41-C , 45-C ) :   1.4197 B( 42-S , 43-C ) :   1.0760
B( 43-C , 44-C ) :   1.3026 B( 43-C , 53-C ) :   1.2349 B( 44-C , 45-C ) :   1.2978
B( 44-C , 52-C ) :   1.1555 B( 45-C , 46-S ) :   1.0451 B( 46-S , 47-C ) :   1.0740
B( 47-C , 48-C ) :   0.9615 B( 47-C , 52-C ) :   1.6191 B( 48-C , 49-O ) :   2.2005
B( 48-C , 50-C ) :   1.0214 B( 50-C , 51-C ) :   1.1082 B( 50-C , 94-H ) :   0.9181
B( 50-C , 95-H ) :   0.9197 B( 51-C , 96-H ) :   0.9665 B( 51-C , 97-H ) :   0.9628
B( 51-C , 98-H ) :   0.9676 B( 52-C , 99-H ) :   0.9814 B( 53-C , 54-C ) :   1.4541
B( 53-C ,100-H ) :   0.9643 B( 54-C , 55-C ) :   1.2651 B( 54-C ,101-H ) :   0.9848
B( 55-C , 56-C ) :   1.4390 B( 55-C ,102-H ) :   0.9626 B( 56-C , 57-C ) :   1.0927
B( 56-C , 65-C ) :   0.9770 B( 57-C , 58-C ) :   1.5970 B( 57-C , 63-C ) :   0.9905
B( 58-C , 59-C ) :   1.1462 B( 58-C , 61-C ) :   1.1532 B( 59-C , 60-N ) :   2.9620
B( 61-C , 62-N ) :   2.9553 B( 63-C , 64-C ) :   1.2797 B( 63-C , 70-C ) :   1.4183
B( 64-C , 65-C ) :   0.9446 B( 64-C , 67-C ) :   1.4251 B( 65-C , 66-O ) :   2.1526
B( 67-C , 68-C ) :   1.2402 B( 67-C ,103-H ) :   1.0163 B( 68-C , 69-C ) :   1.3161
B( 68-C , 73-C ) :   1.1597 B( 69-C , 70-C ) :   1.3213 B( 69-C , 71-S ) :   1.0839
B( 70-C ,104-H ) :   0.9789 B( 71-S , 72-C ) :   1.0866 B( 72-C , 73-C ) :   1.6192
B( 72-C , 74-Br) :   1.0154 B( 73-C ,105-H ) :   1.0005

-----------------------------------------------------------------------------
         ABSORPTION SPECTRUM VIA TRANSITION ELECTRIC DIPOLE MOMENTS
-----------------------------------------------------------------------------
State   Energy  Wavelength   fosc         T2         TX        TY        TZ
        (cm-1)    (nm)                  (au**2)     (au)      (au)      (au)
-----------------------------------------------------------------------------
   0   14692.2    680.6   1.944993068  43.58207   4.99143  -1.92597  -3.86760
   1   16453.0    607.8   0.439043495   8.78490  -2.13301  -1.81996  -0.96069
   2   18666.2    535.7   0.050459496   0.88995   0.94027  -0.06690  -0.03682
   3   23108.4    432.7   0.016872593   0.24037   0.15625  -0.41077   0.21733
   4   24726.0    404.4   0.038529413   0.51300   0.47894   0.47452  -0.24175
   5   25961.2    385.2   0.160051069   2.02960  -0.84233  -1.13286   0.19160
   6   26331.3    379.8   0.080939509   1.01196  -0.96527  -0.00806   0.28312
   7   26620.0    375.7   0.053954601   0.66726   0.06967   0.30988   0.75258
   8   27097.2    369.0   0.262647937   3.19098  -0.42854  -0.42927   1.68020
   9   27206.0    367.6   0.100770056   1.21939   0.68773   0.68514   0.52631
  10   28397.6    352.1   0.000002314   0.00003  -0.00070  -0.00268   0.00438
  11   28849.7    346.6   0.029584938   0.33760   0.49671   0.26380   0.14591
  12   28950.6    345.4   0.012612473   0.14342   0.23712   0.29521  -0.00680
  13   29153.9    343.0   0.029187042   0.32959  -0.24965   0.29447  -0.42491
  14   29489.9    339.1   0.069683907   0.77792   0.26252  -0.06900  -0.83919
  15   29994.3    333.4   0.027446789   0.30125  -0.11555  -0.27903   0.45830
  16   30178.2    331.4   0.129060776   1.40791  -0.14922  -0.84797   0.81645
  17   31137.0    321.2   0.006998896   0.07400   0.25734   0.06263   0.06207
  18   31907.7    313.4   0.008449053   0.08717   0.07158   0.11841  -0.26083
  19   31929.5    313.2   0.205340364   2.11718  -0.33152  -0.56087   1.30104
  20   32074.1    311.8   0.148206939   1.52121  -1.02705  -0.56816  -0.37891
  21   32254.7    310.0   0.000083537   0.00085   0.01071   0.01521  -0.02251
  22   32556.4    307.2   0.186487782   1.88578   0.51294   0.98561  -0.80699
  23   32680.4    306.0   0.636933645   6.41627  -0.25729  -0.84740   2.37318
  24   33154.2    301.6   0.016966364   0.16847  -0.02125  -0.26340   0.31407
  25   33613.2    297.5   0.067944691   0.66546  -0.23589   0.78090  -0.00036
  26   33944.9    294.6   0.025414602   0.24648   0.38272   0.06211  -0.31008
  27   34056.2    293.6   0.530107129   5.12440   2.12258   0.71056  -0.33786
  28   34240.1    292.1   0.050103451   0.48174   0.49437   0.47351   0.11454
  29   34510.8    289.8   0.067235858   0.64139   0.41939  -0.48597  -0.47889
  30   35704.0    280.1   0.252473434   2.32796   0.66001   0.79580  -1.12207
  31   36031.9    277.5   0.015073337   0.13772  -0.20692  -0.15116   0.26843
  32   36163.5    276.5   0.210137847   1.91297   0.78001   1.08139   0.36763
  33   36769.5    272.0   0.153243770   1.37205   0.52720  -1.04134  -0.09861
  34   37076.3    269.7   0.001692800   0.01503  -0.07311   0.06233  -0.07617
  35   37359.1    267.7   0.104512203   0.92097  -0.25739   0.79621  -0.46986
  36   37603.7    265.9   0.047930153   0.41962   0.53470   0.34413   0.12366
  37   37659.8    265.5   0.010512008   0.09189  -0.03687  -0.23644   0.18609
  38   37886.7    263.9   0.007425376   0.06452   0.12723   0.05334   0.21328
  39   37903.4    263.8   0.106871022   0.92823  -0.43448  -0.59086  -0.62477
  40   38070.7    262.7   0.007124054   0.06160  -0.04352   0.09480  -0.22522
  41   38444.9    260.1   0.055269893   0.47329  -0.24515  -0.41261  -0.49289
  42   38588.6    259.1   0.002732100   0.02331   0.07925   0.02361  -0.12834
  43   38688.5    258.5   0.122980574   1.04648  -0.07273   0.48295  -0.89886
  44   39650.8    252.2   0.129708894   1.07694   0.61106  -0.79619  -0.26389
  45   40030.2    249.8   0.091335224   0.75115   0.57870   0.24478   0.59694
  46   40322.9    248.0   0.303973012   2.48175   0.49019   0.34047  -1.45792

FINAL SINGLE POINT ENERGY     -7228.216075347440

DIPOLE MOMENT
-------------
                                X             Y             Z
Electronic contribution:     88.46806     -44.23268    -111.16894
Nuclear contribution   :    -89.78879      46.00242     111.65699
                        -----------------------------------------
Total Dipole Moment    :     -1.32073       1.76974       0.48805
                        -----------------------------------------
Magnitude (a.u.)       :      2.26153
Magnitude (Debye)      :      5.74835

Rotational constants in cm-1:     0.001340     0.000130     0.000127
Rotational constants in MHz :    40.176468     3.887537     3.807698

                             ****ORCA TERMINATED NORMALLY****
TOTAL RUN TIME: 0 days 0 hours 14 minutes 10 seconds 758 msec
