                         Program Version 4.2.0 -  RELEASE  -
|  1> # ORCA input file
|  2> # SCF done       -204.241309612533          0.000734567247
|  3> ! CAM-B3LYP def2-SVP def2/J RIJCOSX Grid4 TightSCF
|  4> %maxcore 5000
|  5> %tddft
|  6>     Mode sTDDFT
|  7>     Ethresh 5.0
|  8>     maxcore 5000
|  9> end
| 10>
| 11> %pal
| 12>   nprocs 6
| 13>   end
| 14> * xyz 0 1
| 15>    C        3.80094        14.89318        -3.22653
| 16>    C        2.45362        15.07715        -3.08539
| 17>    F        1.95533        15.43044        -1.88382
| 18>    C        1.55669        14.91242        -4.14822
| 19>    C        2.04447        14.55161        -5.37405
| 20>    C        3.42386        14.34529        -5.57522
| 21>    C        4.31938        14.52181        -4.48173
| 22>    C        5.71008        14.32921        -4.66183
| 23>    C        6.18205        13.95965        -5.88981
| 24>    C        5.28132        13.77354        -6.97629
| 25>    C        3.93856        13.96548        -6.83695
| 26>    C        6.05045        13.35752        -8.16731
| 27>    O        5.63362        13.17045        -9.29064
| 28>    C        7.44473        13.17603        -7.69377
| 29>    C        7.54056        13.69734        -6.36550
| 30>    C        8.69110        14.08402        -5.71062
| 31>    C        8.71514        14.68105        -4.43803
| 32>    N        8.81015        15.17031        -3.40272
| 33>    C        9.97397        14.04443        -6.28374
| 34>    N       11.04020        14.04873        -6.71243
| 35>    C        8.35824        12.58799        -8.54855
| 36>    C        9.55013        11.91186        -8.30621
| 37>    C        9.99333        11.29427        -7.14932
| 38>    C       11.21954        10.59723        -7.03650
| 39>    C       11.39350         9.94704        -5.85184
| 40>    C       10.29847        10.07064        -4.97168
| 41>    S        9.07059        11.10140        -5.67834
| 42>    C       10.13391         9.45310        -3.74372
| 43>    C       11.05551         8.61365        -3.08064
| 44>    C       10.57924         8.08484        -1.92023
| 45>    C        9.25440         8.47009        -1.59436
| 46>    S        8.65132         9.56875        -2.82448
| 47>    C        8.57693         7.98625        -0.49948
| 48>    C        7.28155         8.21207        -0.01866
| 49>    S        6.78054         7.19865         1.34162
| 50>    C        6.23075         9.06483        -0.33983
| 51>    C        5.97959        10.23484        -1.24318
| 52>    N        6.73692        11.36545        -0.76000
| 53>    C        6.67049        12.53891        -1.61424
| 54>    C        7.33926        13.71030        -0.91277
| 55>    O        4.58947        10.50057        -1.10490
| 56>    C        4.05985         9.89357         0.05902
| 57>    O        2.85345         9.26078        -0.22477
| 58>    C        5.11371         8.91206         0.47024
| 59>    C        5.20001         7.93277         1.44415
| 60>    C        4.20273         7.56260         2.36394
| 61>    C        4.38505         6.64125         3.35127
| 62>    C        3.44489         6.21057         4.30598
| 63>    S        4.05575         5.39229         5.71456
| 64>    C        2.49583         5.26341         6.45388
| 65>    C        1.51256         5.80330         5.60300
| 66>    C        2.04275         6.32847         4.38336
| 67>    C        1.15863         6.82760         3.40807
| 68>    C       -0.18184         6.84583         3.67232
| 69>    F       -1.03513         7.31424         2.74818
| 70>    C       -0.69728         6.36998         4.89714
| 71>    F       -2.02176         6.41698         5.11078
| 72>    C        0.12833         5.84530         5.84936
| 73>    C        2.31013         4.70398         7.73273
| 74>    C        3.30444         4.20322         8.51224
| 75>    C        3.11528         3.66963         9.80682
| 76>    S        1.55579         3.63554        10.60782
| 77>    C        4.05402         3.12782        10.65744
| 78>    C        5.50576         2.78506        10.57283
| 79>    N        5.72046         1.71628         9.62423
| 80>    C        7.12272         1.41596         9.39193
| 81>    C        7.25542         0.27002         8.40187
| 82>    O        5.83610         2.33094        11.87941
| 83>    C        4.69103         2.14120        12.69174
| 84>    O        4.86722         2.80655        13.90557
| 85>    C        3.55346         2.70891        11.89481
| 86>    C        2.20350         2.90829        12.05660
| 87>    C        1.31979         2.61943        13.14967
| 88>    C        1.72101         2.23657        14.36052
| 89>    H        4.46283        15.03429        -2.38636
| 90>    H        0.50396        15.07381        -3.97813
| 91>    H        1.37286        14.41866        -6.20897
| 92>    H        6.36432        14.47033        -3.81762
| 93>    H        3.27331        13.82892        -7.67641
| 94>    H        8.04230        12.61258        -9.58835
| 95>    H       10.18818        11.75305        -9.16698
| 96>    H       11.93856        10.60707        -7.83566
| 97>    H       12.26666         9.37300        -5.60065
| 98>    H       12.03686         8.42213        -3.47414
| 99>    H       11.13546         7.41807        -1.28533
|100>    H        9.14178         7.27101         0.08835
|101>    H        6.14071        10.02634        -2.31748
|102>    H        7.70388        11.09891        -0.60550
|103>    H        5.61038        12.74173        -1.78406
|104>    H        7.14508        12.35422        -2.59421
|105>    H        6.83651        13.91619         0.02815
|106>    H        7.31467        14.59900        -1.53646
|107>    H        8.38150        13.47830        -0.70586
|108>    H        3.90641        10.66825         0.83913
|109>    H        2.34778         9.83556        -0.81102
|110>    H        3.27183         8.09466         2.24871
|111>    H        5.37976         6.22241         3.45931
|112>    H        1.50480         7.16751         2.44742
|113>    H       -0.29021         5.46455         6.76614
|114>    H        1.29906         4.68486         8.11551
|115>    H        4.32404         4.21433         8.14656
|116>    H        6.15160         3.66589        10.36768
|117>    H        5.25139         1.92781         8.74938
|118>    H        7.54795         1.13421        10.35779
|119>    H        7.67291         2.30056         9.02324
|120>    H        6.70520        -0.59470         8.76160
|121>    H        8.30082        -0.00059         8.28100
|122>    H        6.85536         0.55544         7.43084
|123>    H        4.55414         1.05614        12.87686
|124>    H        5.80140         2.74595        14.13709
|125>    H        0.26723         2.74596        12.93087
|126>    H        2.76433         2.14594        14.60413
|127>    H        1.01073         2.02973        15.14169
|128> *
|129>
|130>                          ****END OF INPUT****

CARTESIAN COORDINATES (ANGSTROEM)
---------------------------------
  C      3.800940   14.893180   -3.226530
  C      2.453620   15.077150   -3.085390
  F      1.955330   15.430440   -1.883820
  C      1.556690   14.912420   -4.148220
  C      2.044470   14.551610   -5.374050
  C      3.423860   14.345290   -5.575220
  C      4.319380   14.521810   -4.481730
  C      5.710080   14.329210   -4.661830
  C      6.182050   13.959650   -5.889810
  C      5.281320   13.773540   -6.976290
  C      3.938560   13.965480   -6.836950
  C      6.050450   13.357520   -8.167310
  O      5.633620   13.170450   -9.290640
  C      7.444730   13.176030   -7.693770
  C      7.540560   13.697340   -6.365500
  C      8.691100   14.084020   -5.710620
  C      8.715140   14.681050   -4.438030
  N      8.810150   15.170310   -3.402720
  C      9.973970   14.044430   -6.283740
  N     11.040200   14.048730   -6.712430
  C      8.358240   12.587990   -8.548550
  C      9.550130   11.911860   -8.306210
  C      9.993330   11.294270   -7.149320
  C     11.219540   10.597230   -7.036500
  C     11.393500    9.947040   -5.851840
  C     10.298470   10.070640   -4.971680
  S      9.070590   11.101400   -5.678340
  C     10.133910    9.453100   -3.743720
  C     11.055510    8.613650   -3.080640
  C     10.579240    8.084840   -1.920230
  C      9.254400    8.470090   -1.594360
  S      8.651320    9.568750   -2.824480
  C      8.576930    7.986250   -0.499480
  C      7.281550    8.212070   -0.018660
  S      6.780540    7.198650    1.341620
  C      6.230750    9.064830   -0.339830
  C      5.979590   10.234840   -1.243180
  N      6.736920   11.365450   -0.760000
  C      6.670490   12.538910   -1.614240
  C      7.339260   13.710300   -0.912770
  O      4.589470   10.500570   -1.104900
  C      4.059850    9.893570    0.059020
  O      2.853450    9.260780   -0.224770
  C      5.113710    8.912060    0.470240
  C      5.200010    7.932770    1.444150
  C      4.202730    7.562600    2.363940
  C      4.385050    6.641250    3.351270
  C      3.444890    6.210570    4.305980
  S      4.055750    5.392290    5.714560
  C      2.495830    5.263410    6.453880
  C      1.512560    5.803300    5.603000
  C      2.042750    6.328470    4.383360
  C      1.158630    6.827600    3.408070
  C     -0.181840    6.845830    3.672320
  F     -1.035130    7.314240    2.748180
  C     -0.697280    6.369980    4.897140
  F     -2.021760    6.416980    5.110780
  C      0.128330    5.845300    5.849360
  C      2.310130    4.703980    7.732730
  C      3.304440    4.203220    8.512240
  C      3.115280    3.669630    9.806820
  S      1.555790    3.635540   10.607820
  C      4.054020    3.127820   10.657440
  C      5.505760    2.785060   10.572830
  N      5.720460    1.716280    9.624230
  C      7.122720    1.415960    9.391930
  C      7.255420    0.270020    8.401870
  O      5.836100    2.330940   11.879410
  C      4.691030    2.141200   12.691740
  O      4.867220    2.806550   13.905570
  C      3.553460    2.708910   11.894810
  C      2.203500    2.908290   12.056600
  C      1.319790    2.619430   13.149670
  C      1.721010    2.236570   14.360520
  H      4.462830   15.034290   -2.386360
  H      0.503960   15.073810   -3.978130
  H      1.372860   14.418660   -6.208970
  H      6.364320   14.470330   -3.817620
  H      3.273310   13.828920   -7.676410
  H      8.042300   12.612580   -9.588350
  H     10.188180   11.753050   -9.166980
  H     11.938560   10.607070   -7.835660
  H     12.266660    9.373000   -5.600650
  H     12.036860    8.422130   -3.474140
  H     11.135460    7.418070   -1.285330
  H      9.141780    7.271010    0.088350
  H      6.140710   10.026340   -2.317480
  H      7.703880   11.098910   -0.605500
  H      5.610380   12.741730   -1.784060
  H      7.145080   12.354220   -2.594210
  H      6.836510   13.916190    0.028150
  H      7.314670   14.599000   -1.536460
  H      8.381500   13.478300   -0.705860
  H      3.906410   10.668250    0.839130
  H      2.347780    9.835560   -0.811020
  H      3.271830    8.094660    2.248710
  H      5.379760    6.222410    3.459310
  H      1.504800    7.167510    2.447420
  H     -0.290210    5.464550    6.766140
  H      1.299060    4.684860    8.115510
  H      4.324040    4.214330    8.146560
  H      6.151600    3.665890   10.367680
  H      5.251390    1.927810    8.749380
  H      7.547950    1.134210   10.357790
  H      7.672910    2.300560    9.023240
  H      6.705200   -0.594700    8.761600
  H      8.300820   -0.000590    8.281000
  H      6.855360    0.555440    7.430840
  H      4.554140    1.056140   12.876860
  H      5.801400    2.745950   14.137090
  H      0.267230    2.745960   12.930870
  H      2.764330    2.145940   14.604130
  H      1.010730    2.029730   15.141690

 Total Charge           Charge          ....    0
 Multiplicity           Mult            ....    1
 Number of Electrons    NEL             ....  556
 Basis Dimension        Dim             .... 1251

ORBITAL ENERGIES
----------------

  NO   OCC          E(Eh)            E(eV)
   0   2.0000     -88.976495     -2421.1735
   1   2.0000     -88.970316     -2421.0054
   2   2.0000     -88.966968     -2420.9143
   3   2.0000     -88.963941     -2420.8319
   4   2.0000     -88.959634     -2420.7147
   5   2.0000     -24.790648      -674.5878
   6   2.0000     -24.790311      -674.5787
   7   2.0000     -24.774725      -674.1545
   8   2.0000     -19.224542      -523.1264
   9   2.0000     -19.222387      -523.0678
  10   2.0000     -19.220912      -523.0276
  11   2.0000     -19.218490      -522.9617
  12   2.0000     -19.194554      -522.3104
  13   2.0000     -14.399007      -391.8169
  14   2.0000     -14.395755      -391.7284
  15   2.0000     -14.394409      -391.6918
  16   2.0000     -14.388298      -391.5255
  17   2.0000     -10.374417      -282.3022
  18   2.0000     -10.374304      -282.2992
  19   2.0000     -10.373119      -282.2669
  20   2.0000     -10.372695      -282.2554
  21   2.0000     -10.356816      -281.8233
  22   2.0000     -10.355514      -281.7879
  23   2.0000     -10.353799      -281.7412
  24   2.0000     -10.345241      -281.5083
  25   2.0000     -10.338116      -281.3144
  26   2.0000     -10.327085      -281.0143
  27   2.0000     -10.324403      -280.9413
  28   2.0000     -10.323550      -280.9181
  29   2.0000     -10.321863      -280.8722
  30   2.0000     -10.320671      -280.8397
  31   2.0000     -10.320505      -280.8352
  32   2.0000     -10.318584      -280.7830
  33   2.0000     -10.317381      -280.7502
  34   2.0000     -10.317222      -280.7459
  35   2.0000     -10.317074      -280.7418
  36   2.0000     -10.311137      -280.5803
  37   2.0000     -10.310639      -280.5667
  38   2.0000     -10.308076      -280.4970
  39   2.0000     -10.303821      -280.3812
  40   2.0000     -10.302303      -280.3399
  41   2.0000     -10.301916      -280.3294
  42   2.0000     -10.301325      -280.3133
  43   2.0000     -10.301175      -280.3092
  44   2.0000     -10.299523      -280.2643
  45   2.0000     -10.298459      -280.2353
  46   2.0000     -10.296935      -280.1938
  47   2.0000     -10.296337      -280.1776
  48   2.0000     -10.296089      -280.1708
  49   2.0000     -10.294292      -280.1219
  50   2.0000     -10.293513      -280.1007
  51   2.0000     -10.292259      -280.0666
  52   2.0000     -10.291911      -280.0571
  53   2.0000     -10.291390      -280.0429
  54   2.0000     -10.288361      -279.9605
  55   2.0000     -10.287159      -279.9278
  56   2.0000     -10.286296      -279.9043
  57   2.0000     -10.286028      -279.8971
  58   2.0000     -10.285140      -279.8729
  59   2.0000     -10.283889      -279.8389
  60   2.0000     -10.283012      -279.8150
  61   2.0000     -10.282266      -279.7947
  62   2.0000     -10.282140      -279.7913
  63   2.0000     -10.281731      -279.7801
  64   2.0000     -10.280505      -279.7468
  65   2.0000     -10.280410      -279.7442
  66   2.0000     -10.276502      -279.6378
  67   2.0000     -10.275765      -279.6178
  68   2.0000     -10.274833      -279.5924
  69   2.0000     -10.274514      -279.5838
  70   2.0000     -10.272234      -279.5217
  71   2.0000     -10.266577      -279.3678
  72   2.0000     -10.256341      -279.0892
  73   2.0000     -10.235632      -278.5257
  74   2.0000      -8.071791      -219.6446
  75   2.0000      -8.065651      -219.4775
  76   2.0000      -8.062378      -219.3885
  77   2.0000      -8.058708      -219.2886
  78   2.0000      -8.055064      -219.1894
  79   2.0000      -6.040701      -164.3758
  80   2.0000      -6.036794      -164.2695
  81   2.0000      -6.035397      -164.2315
  82   2.0000      -6.034511      -164.2074
  83   2.0000      -6.031746      -164.1321
  84   2.0000      -6.031198      -164.1172
  85   2.0000      -6.028239      -164.0367
  86   2.0000      -6.027761      -164.0237
  87   2.0000      -6.026814      -163.9980
  88   2.0000      -6.024327      -163.9303
  89   2.0000      -6.024179      -163.9263
  90   2.0000      -6.024077      -163.9235
  91   2.0000      -6.020346      -163.8220
  92   2.0000      -6.020344      -163.8219
  93   2.0000      -6.017108      -163.7338
  94   2.0000      -1.312702       -35.7204
  95   2.0000      -1.297721       -35.3128
  96   2.0000      -1.288825       -35.0707
  97   2.0000      -1.162125       -31.6230
  98   2.0000      -1.162052       -31.6210
  99   2.0000      -1.108611       -30.1668
 100   2.0000      -1.093775       -29.7631
 101   2.0000      -1.091575       -29.7033
 102   2.0000      -1.013581       -27.5810
 103   2.0000      -1.012256       -27.5449
 104   2.0000      -1.002044       -27.2670
 105   2.0000      -0.998660       -27.1749
 106   2.0000      -0.993955       -27.0469
 107   2.0000      -0.987015       -26.8580
 108   2.0000      -0.986906       -26.8551
 109   2.0000      -0.984193       -26.7813
 110   2.0000      -0.983272       -26.7562
 111   2.0000      -0.975870       -26.5548
 112   2.0000      -0.959726       -26.1155
 113   2.0000      -0.951286       -25.8858
 114   2.0000      -0.929447       -25.2915
 115   2.0000      -0.917831       -24.9754
 116   2.0000      -0.911808       -24.8116
 117   2.0000      -0.902266       -24.5519
 118   2.0000      -0.893653       -24.3175
 119   2.0000      -0.883377       -24.0379
 120   2.0000      -0.877092       -23.8669
 121   2.0000      -0.871330       -23.7101
 122   2.0000      -0.870142       -23.6778
 123   2.0000      -0.864167       -23.5152
 124   2.0000      -0.859682       -23.3931
 125   2.0000      -0.852723       -23.2038
 126   2.0000      -0.848164       -23.0797
 127   2.0000      -0.841657       -22.9026
 128   2.0000      -0.839067       -22.8322
 129   2.0000      -0.837485       -22.7891
 130   2.0000      -0.833769       -22.6880
 131   2.0000      -0.823367       -22.4050
 132   2.0000      -0.820029       -22.3141
 133   2.0000      -0.813035       -22.1238
 134   2.0000      -0.802482       -21.8366
 135   2.0000      -0.788340       -21.4518
 136   2.0000      -0.779453       -21.2100
 137   2.0000      -0.772881       -21.0312
 138   2.0000      -0.758411       -20.6374
 139   2.0000      -0.747919       -20.3519
 140   2.0000      -0.741913       -20.1885
 141   2.0000      -0.741002       -20.1637
 142   2.0000      -0.726310       -19.7639
 143   2.0000      -0.719987       -19.5918
 144   2.0000      -0.713060       -19.4033
 145   2.0000      -0.711523       -19.3615
 146   2.0000      -0.706739       -19.2313
 147   2.0000      -0.697060       -18.9680
 148   2.0000      -0.695836       -18.9347
 149   2.0000      -0.694623       -18.9017
 150   2.0000      -0.683346       -18.5948
 151   2.0000      -0.679958       -18.5026
 152   2.0000      -0.677157       -18.4264
 153   2.0000      -0.672327       -18.2950
 154   2.0000      -0.667640       -18.1674
 155   2.0000      -0.661899       -18.0112
 156   2.0000      -0.658020       -17.9056
 157   2.0000      -0.650663       -17.7054
 158   2.0000      -0.643845       -17.5199
 159   2.0000      -0.640141       -17.4191
 160   2.0000      -0.636751       -17.3269
 161   2.0000      -0.634168       -17.2566
 162   2.0000      -0.626820       -17.0566
 163   2.0000      -0.621801       -16.9201
 164   2.0000      -0.619155       -16.8481
 165   2.0000      -0.616075       -16.7643
 166   2.0000      -0.614687       -16.7265
 167   2.0000      -0.611147       -16.6302
 168   2.0000      -0.608274       -16.5520
 169   2.0000      -0.608109       -16.5475
 170   2.0000      -0.604466       -16.4483
 171   2.0000      -0.599289       -16.3075
 172   2.0000      -0.592028       -16.1099
 173   2.0000      -0.586112       -15.9489
 174   2.0000      -0.579729       -15.7752
 175   2.0000      -0.578718       -15.7477
 176   2.0000      -0.577828       -15.7235
 177   2.0000      -0.572066       -15.5667
 178   2.0000      -0.566071       -15.4036
 179   2.0000      -0.562194       -15.2981
 180   2.0000      -0.557187       -15.1618
 181   2.0000      -0.554189       -15.0803
 182   2.0000      -0.552992       -15.0477
 183   2.0000      -0.550671       -14.9845
 184   2.0000      -0.546911       -14.8822
 185   2.0000      -0.546780       -14.8787
 186   2.0000      -0.545943       -14.8559
 187   2.0000      -0.542431       -14.7603
 188   2.0000      -0.541171       -14.7260
 189   2.0000      -0.539745       -14.6872
 190   2.0000      -0.539358       -14.6767
 191   2.0000      -0.534199       -14.5363
 192   2.0000      -0.531269       -14.4566
 193   2.0000      -0.529223       -14.4009
 194   2.0000      -0.523616       -14.2483
 195   2.0000      -0.521188       -14.1822
 196   2.0000      -0.519466       -14.1354
 197   2.0000      -0.515825       -14.0363
 198   2.0000      -0.515160       -14.0182
 199   2.0000      -0.513607       -13.9760
 200   2.0000      -0.509764       -13.8714
 201   2.0000      -0.509556       -13.8657
 202   2.0000      -0.507166       -13.8007
 203   2.0000      -0.504493       -13.7280
 204   2.0000      -0.502928       -13.6854
 205   2.0000      -0.501054       -13.6344
 206   2.0000      -0.497963       -13.5503
 207   2.0000      -0.495446       -13.4818
 208   2.0000      -0.491315       -13.3694
 209   2.0000      -0.490664       -13.3517
 210   2.0000      -0.485886       -13.2216
 211   2.0000      -0.485267       -13.2048
 212   2.0000      -0.481730       -13.1085
 213   2.0000      -0.479294       -13.0423
 214   2.0000      -0.476533       -12.9671
 215   2.0000      -0.474298       -12.9063
 216   2.0000      -0.473738       -12.8911
 217   2.0000      -0.470193       -12.7946
 218   2.0000      -0.469523       -12.7764
 219   2.0000      -0.466819       -12.7028
 220   2.0000      -0.465502       -12.6670
 221   2.0000      -0.463420       -12.6103
 222   2.0000      -0.461724       -12.5642
 223   2.0000      -0.460658       -12.5351
 224   2.0000      -0.453914       -12.3516
 225   2.0000      -0.453073       -12.3287
 226   2.0000      -0.449665       -12.2360
 227   2.0000      -0.447853       -12.1867
 228   2.0000      -0.444592       -12.0980
 229   2.0000      -0.442293       -12.0354
 230   2.0000      -0.441604       -12.0167
 231   2.0000      -0.441461       -12.0128
 232   2.0000      -0.439235       -11.9522
 233   2.0000      -0.436782       -11.8854
 234   2.0000      -0.436254       -11.8711
 235   2.0000      -0.434689       -11.8285
 236   2.0000      -0.431083       -11.7304
 237   2.0000      -0.430100       -11.7036
 238   2.0000      -0.428508       -11.6603
 239   2.0000      -0.426603       -11.6085
 240   2.0000      -0.425996       -11.5919
 241   2.0000      -0.423572       -11.5260
 242   2.0000      -0.422356       -11.4929
 243   2.0000      -0.420619       -11.4456
 244   2.0000      -0.417120       -11.3504
 245   2.0000      -0.415298       -11.3008
 246   2.0000      -0.411423       -11.1954
 247   2.0000      -0.409792       -11.1510
 248   2.0000      -0.405727       -11.0404
 249   2.0000      -0.403608       -10.9827
 250   2.0000      -0.398924       -10.8553
 251   2.0000      -0.392561       -10.6821
 252   2.0000      -0.391053       -10.6411
 253   2.0000      -0.389952       -10.6111
 254   2.0000      -0.383019       -10.4225
 255   2.0000      -0.371363       -10.1053
 256   2.0000      -0.369553       -10.0560
 257   2.0000      -0.368128       -10.0173
 258   2.0000      -0.364542        -9.9197
 259   2.0000      -0.354530        -9.6472
 260   2.0000      -0.352001        -9.5784
 261   2.0000      -0.350905        -9.5486
 262   2.0000      -0.348683        -9.4881
 263   2.0000      -0.347156        -9.4466
 264   2.0000      -0.336189        -9.1482
 265   2.0000      -0.329598        -8.9688
 266   2.0000      -0.323798        -8.8110
 267   2.0000      -0.322836        -8.7848
 268   2.0000      -0.320711        -8.7270
 269   2.0000      -0.316603        -8.6152
 270   2.0000      -0.306262        -8.3338
 271   2.0000      -0.300875        -8.1872
 272   2.0000      -0.298267        -8.1163
 273   2.0000      -0.293867        -7.9965
 274   2.0000      -0.283167        -7.7054
 275   2.0000      -0.277567        -7.5530
 276   2.0000      -0.241472        -6.5708
 277   2.0000      -0.217916        -5.9298
 278   0.0000      -0.111065        -3.0222
 279   0.0000      -0.080041        -2.1780
 280   0.0000      -0.052785        -1.4364
 281   0.0000      -0.040241        -1.0950
 282   0.0000      -0.026001        -0.7075

MULLIKEN ATOMIC CHARGES
-----------------------
   0 C :   -0.094279
   1 C :    0.298438
   2 F :   -0.196393
   3 C :   -0.038232
   4 C :   -0.012304
   5 C :    0.096189
   6 C :    0.106065
   7 C :   -0.085862
   8 C :    0.041164
   9 C :    0.016240
  10 C :   -0.089506
  11 C :    0.134965
  12 O :   -0.153927
  13 C :   -0.155886
  14 C :    0.295590
  15 C :   -0.359656
  16 C :   -0.178069
  17 N :    0.146019
  18 C :   -0.206484
  19 N :    0.154643
  20 C :    0.022722
  21 C :   -0.001224
  22 C :   -0.033970
  23 C :    0.050848
  24 C :    0.040182
  25 C :   -0.066217
  26 S :    0.129432
  27 C :   -0.013516
  28 C :    0.026318
  29 C :    0.043355
  30 C :   -0.041026
  31 S :    0.080936
  32 C :    0.038710
  33 C :   -0.174361
  34 S :    0.106767
  35 C :    0.010056
  36 C :    0.288745
  37 N :   -0.258904
  38 C :    0.074827
  39 C :    0.021122
  40 O :   -0.366002
  41 C :    0.402465
  42 O :   -0.261222
  43 C :   -0.076385
  44 C :   -0.086757
  45 C :   -0.027281
  46 C :    0.048754
  47 C :   -0.121888
  48 S :    0.143801
  49 C :   -0.080112
  50 C :    0.121400
  51 C :    0.134044
  52 C :   -0.125604
  53 C :    0.226552
  54 F :   -0.175279
  55 C :    0.224997
  56 F :   -0.177395
  57 C :   -0.115025
  58 C :   -0.017932
  59 C :   -0.014368
  60 C :   -0.126254
  61 S :    0.107305
  62 C :   -0.023343
  63 C :    0.316076
  64 N :   -0.263606
  65 C :    0.091224
  66 C :    0.014110
  67 O :   -0.376552
  68 C :    0.390329
  69 O :   -0.255982
  70 C :   -0.033168
  71 C :   -0.143117
  72 C :    0.022867
  73 C :   -0.014883
  74 H :   -0.007079
  75 H :   -0.001512
  76 H :   -0.012723
  77 H :   -0.027683
  78 H :   -0.017492
  79 H :    0.024793
  80 H :   -0.000025
  81 H :   -0.003430
  82 H :   -0.010250
  83 H :   -0.005173
  84 H :   -0.000935
  85 H :   -0.006260
  86 H :    0.007400
  87 H :    0.100186
  88 H :    0.005016
  89 H :   -0.015326
  90 H :    0.008778
  91 H :    0.030557
  92 H :    0.005270
  93 H :    0.002499
  94 H :    0.178632
  95 H :    0.003588
  96 H :   -0.010867
  97 H :    0.001141
  98 H :   -0.010051
  99 H :   -0.004193
 100 H :   -0.009325
 101 H :   -0.008038
 102 H :    0.096170
 103 H :    0.012979
 104 H :   -0.018700
 105 H :    0.023426
 106 H :    0.014625
 107 H :    0.003978
 108 H :    0.003497
 109 H :    0.174691
 110 H :   -0.013086
 111 H :    0.032924
 112 H :    0.026712
Sum of atomic charges:   -0.0000000

LOEWDIN ATOMIC CHARGES
----------------------
   0 C :   -0.045436
   1 C :    0.090093
   2 F :   -0.070960
   3 C :   -0.044656
   4 C :    0.002918
   5 C :   -0.022164
   6 C :    0.003552
   7 C :    0.001306
   8 C :   -0.011536
   9 C :   -0.057119
  10 C :    0.028710
  11 C :    0.080943
  12 O :   -0.155414
  13 C :   -0.114378
  14 C :    0.041801
  15 C :   -0.166414
  16 C :   -0.013792
  17 N :   -0.066375
  18 C :   -0.022900
  19 N :   -0.062860
  20 C :    0.039105
  21 C :   -0.068166
  22 C :   -0.109785
  23 C :   -0.031026
  24 C :   -0.018711
  25 C :   -0.197878
  26 S :    0.445882
  27 C :   -0.141306
  28 C :   -0.044849
  29 C :   -0.007328
  30 C :   -0.168437
  31 S :    0.415978
  32 C :   -0.044102
  33 C :   -0.177115
  34 S :    0.425717
  35 C :   -0.044402
  36 C :    0.104803
  37 N :   -0.107846
  38 C :    0.015528
  39 C :   -0.061189
  40 O :   -0.166210
  41 C :    0.142385
  42 O :   -0.118967
  43 C :   -0.067345
  44 C :   -0.139988
  45 C :   -0.048902
  46 C :   -0.034918
  47 C :   -0.178151
  48 S :    0.474146
  49 C :   -0.167523
  50 C :   -0.044240
  51 C :   -0.038545
  52 C :   -0.039718
  53 C :    0.065804
  54 F :   -0.053799
  55 C :    0.060957
  56 F :   -0.055460
  57 C :   -0.036902
  58 C :   -0.051620
  59 C :   -0.040074
  60 C :   -0.176022
  61 S :    0.430403
  62 C :   -0.057588
  63 C :    0.117116
  64 N :   -0.110664
  65 C :    0.019967
  66 C :   -0.060535
  67 O :   -0.169494
  68 C :    0.146414
  69 O :   -0.115979
  70 C :   -0.072523
  71 C :   -0.148991
  72 C :   -0.049589
  73 C :   -0.020128
  74 H :    0.040600
  75 H :    0.039457
  76 H :    0.034052
  77 H :    0.035362
  78 H :    0.037318
  79 H :    0.045936
  80 H :    0.041043
  81 H :    0.037974
  82 H :    0.033776
  83 H :    0.035549
  84 H :    0.037790
  85 H :    0.039286
  86 H :   -0.005948
  87 H :    0.048782
  88 H :    0.016874
  89 H :   -0.006349
  90 H :    0.022302
  91 H :    0.023176
  92 H :    0.022869
  93 H :    0.005952
  94 H :    0.084800
  95 H :    0.036932
  96 H :    0.023664
  97 H :    0.044134
  98 H :    0.040870
  99 H :    0.028147
 100 H :    0.023285
 101 H :    0.002709
 102 H :    0.054618
 103 H :    0.021381
 104 H :   -0.001594
 105 H :    0.027902
 106 H :    0.027486
 107 H :    0.018860
 108 H :    0.006067
 109 H :    0.081381
 110 H :    0.028049
 111 H :    0.024720
 112 H :    0.027279

  Mayer bond orders larger than 0.100000
B(  0-C ,  1-C ) :   1.4422 B(  0-C ,  6-C ) :   1.2068 B(  0-C , 74-H ) :   0.9992
B(  1-C ,  2-F ) :   1.0818 B(  1-C ,  3-C ) :   1.2587 B(  3-C ,  4-C ) :   1.4520
B(  3-C , 75-H ) :   0.9940 B(  4-C ,  5-C ) :   1.2393 B(  4-C , 76-H ) :   0.9969
B(  5-C ,  6-C ) :   1.2615 B(  5-C , 10-C ) :   1.1774 B(  6-C ,  7-C ) :   1.1978
B(  7-C ,  8-C ) :   1.4810 B(  7-C , 77-H ) :   0.9880 B(  8-C ,  9-C ) :   1.2174
B(  8-C , 14-C ) :   0.9839 B(  9-C , 10-C ) :   1.4778 B(  9-C , 11-C ) :   0.9146
B( 10-C , 78-H ) :   1.0161 B( 11-C , 12-O ) :   2.2579 B( 11-C , 13-C ) :   0.9626
B( 13-C , 14-C ) :   1.1421 B( 13-C , 20-C ) :   1.4541 B( 14-C , 15-C ) :   1.5445
B( 15-C , 16-C ) :   1.1582 B( 15-C , 18-C ) :   1.1731 B( 16-C , 17-N ) :   2.9600
B( 18-C , 19-N ) :   2.9933 B( 20-C , 21-C ) :   1.3374 B( 20-C , 79-H ) :   0.9322
B( 21-C , 22-C ) :   1.4333 B( 21-C , 80-H ) :   0.9532 B( 22-C , 23-C ) :   1.1840
B( 22-C , 26-S ) :   1.1109 B( 23-C , 24-C ) :   1.5560 B( 23-C , 81-H ) :   0.9981
B( 24-C , 25-C ) :   1.2080 B( 24-C , 82-H ) :   0.9920 B( 25-C , 26-S ) :   1.0397
B( 25-C , 27-C ) :   1.4668 B( 27-C , 28-C ) :   1.1985 B( 27-C , 31-S ) :   1.0783
B( 28-C , 29-C ) :   1.5668 B( 28-C , 83-H ) :   0.9935 B( 29-C , 30-C ) :   1.1578
B( 29-C , 84-H ) :   1.0001 B( 30-C , 31-S ) :   1.0195 B( 30-C , 32-C ) :   1.5763
B( 32-C , 33-C ) :   1.2044 B( 32-C , 85-H ) :   0.9368 B( 33-C , 34-S ) :   1.0899
B( 33-C , 35-C ) :   1.4091 B( 34-S , 44-C ) :   1.1087 B( 35-C , 36-C ) :   0.9706
B( 35-C , 43-C ) :   1.4288 B( 36-C , 37-N ) :   1.0732 B( 36-C , 40-O ) :   1.0111
B( 36-C , 86-H ) :   0.8885 B( 37-N , 38-C ) :   0.9872 B( 37-N , 87-H ) :   0.9412
B( 38-C , 39-C ) :   1.1018 B( 38-C , 88-H ) :   0.9421 B( 38-C , 89-H ) :   0.9353
B( 39-C , 90-H ) :   0.9633 B( 39-C , 91-H ) :   0.9558 B( 39-C , 92-H ) :   0.9661
B( 40-O , 41-C ) :   1.0239 B( 41-C , 42-O ) :   1.2019 B( 41-C , 43-C ) :   0.9522
B( 41-C , 93-H ) :   0.9191 B( 42-O , 94-H ) :   0.9660 B( 43-C , 44-C ) :   1.4372
B( 44-C , 45-C ) :   1.2194 B( 45-C , 46-C ) :   1.5795 B( 45-C , 95-H ) :   0.9679
B( 46-C , 47-C ) :   1.1943 B( 46-C , 96-H ) :   0.9477 B( 47-C , 48-S ) :   1.1333
B( 47-C , 49-C ) :   0.1035 B( 47-C , 51-C ) :   1.3317 B( 48-S , 49-C ) :   1.1492
B( 49-C , 50-C ) :   1.3102 B( 49-C , 58-C ) :   1.2005 B( 50-C , 51-C ) :   1.2162
B( 50-C , 57-C ) :   1.1705 B( 51-C , 52-C ) :   1.1632 B( 52-C , 53-C ) :   1.4992
B( 52-C , 57-C ) :   0.1116 B( 52-C , 97-H ) :   0.9971 B( 53-C , 54-F ) :   1.1317
B( 53-C , 55-C ) :   1.1589 B( 55-C , 56-F ) :   1.1299 B( 55-C , 57-C ) :   1.5014
B( 57-C , 98-H ) :   0.9987 B( 58-C , 59-C ) :   1.6148 B( 58-C , 99-H ) :   0.9683
B( 59-C , 60-C ) :   1.1876 B( 59-C ,100-H ) :   0.9668 B( 60-C , 61-S ) :   1.0900
B( 60-C , 62-C ) :   1.4714 B( 61-S , 71-C ) :   1.1257 B( 62-C , 63-C ) :   0.9682
B( 62-C , 70-C ) :   1.3828 B( 63-C , 64-N ) :   1.0624 B( 63-C , 67-O ) :   1.0195
B( 63-C ,101-H ) :   0.8976 B( 64-N , 65-C ) :   0.9989 B( 64-N ,102-H ) :   0.9434
B( 65-C , 66-C ) :   1.0993 B( 65-C ,103-H ) :   0.9476 B( 65-C ,104-H ) :   0.9403
B( 66-C ,105-H ) :   0.9695 B( 66-C ,106-H ) :   0.9643 B( 66-C ,107-H ) :   0.9710
B( 67-O , 68-C ) :   1.0191 B( 68-C , 69-O ) :   1.1692 B( 68-C , 70-C ) :   0.9480
B( 68-C ,108-H ) :   0.9235 B( 69-O ,109-H ) :   0.9657 B( 70-C , 71-C ) :   1.5257
B( 71-C , 72-C ) :   1.1005 B( 72-C , 73-C ) :   1.9344 B( 72-C ,110-H ) :   0.9535
B( 73-C ,111-H ) :   0.9384 B( 73-C ,112-H ) :   0.9475

-----------------------------------------------------------------------------
         ABSORPTION SPECTRUM VIA TRANSITION ELECTRIC DIPOLE MOMENTS
-----------------------------------------------------------------------------
State   Energy  Wavelength   fosc         T2         TX        TY        TZ
        (cm-1)    (nm)                  (au**2)     (au)      (au)      (au)
-----------------------------------------------------------------------------
   0   10179.3    982.4   1.599195804  51.72010   1.90224   3.72642  -5.84939
   1   16366.8    611.0   0.457125579   9.19488  -2.09769   0.27250   2.17263
   2   17754.5    563.2   0.256364099   4.75362   0.59176   0.72766  -1.96824
   3   21547.4    464.1   0.044154979   0.67462   0.64190  -0.50868   0.06190
   4   22774.7    439.1   0.053676880   0.77591  -0.66945   0.56822   0.06983
   5   23291.8    429.3   0.220318982   3.11404  -1.41285   1.05420   0.08087
   6   23746.1    421.1   0.068254959   0.94628  -0.26932   0.13853  -0.92442
   7   24103.4    414.9   0.154604874   2.11164   1.09428  -0.44908   0.84412
   8   25760.1    388.2   0.004954314   0.06332   0.13300   0.13672   0.16412
   9   26009.9    384.5   0.335188616   4.24254  -1.98432   0.43104   0.34530
  10   27508.5    363.5   0.081368165   0.97378  -0.87728   0.42942   0.14057
  11   28116.6    355.7   0.010462020   0.12250   0.03169  -0.09221   0.33614
  12   28778.3    347.5   0.114391808   1.30860  -0.45188  -0.03935  -1.05017
  13   29498.3    339.0   0.383606684   4.28119   0.21087  -0.47305   2.00323
  14   29643.5    337.3   0.040474854   0.44950   0.24261   0.13762   0.60967
  15   30263.2    330.4   0.017408296   0.18937  -0.15532   0.19163  -0.35851
  16   30646.2    326.3   0.013406930   0.14402   0.08194  -0.13169  -0.34636
  17   31371.6    318.8   0.075784415   0.79528   0.85987  -0.20682   0.11456
  18   31660.2    315.9   0.183365623   1.90669   1.22100  -0.21419  -0.60825
  19   31912.4    313.4   0.038405163   0.39619  -0.09859   0.39235  -0.48222
  20   32232.0    310.3   0.063741614   0.65105  -0.56223  -0.10519   0.56910
  21   32580.8    306.9   0.021791485   0.22019  -0.22773   0.24383   0.32997
  22   32724.8    305.6   0.037931417   0.38159   0.40459   0.23361  -0.40414
  23   33063.5    302.4   0.114148308   1.13657  -0.98558   0.40641  -0.00649
  24   33479.0    298.7   0.017361668   0.17072   0.38694   0.03400   0.14088
  25   33558.2    298.0   0.070184285   0.68852  -0.73758  -0.37927  -0.02561
  26   33653.4    297.1   0.082337140   0.80546  -0.78846   0.12211  -0.41095
  27   34794.0    287.4   0.032638378   0.30882   0.46027  -0.01173   0.31117
  28   34878.4    286.7   0.092278372   0.87100   0.80588  -0.08081  -0.46371
  29   35112.8    284.8   0.030066429   0.28190  -0.50893  -0.10516   0.10876
  30   35185.2    284.2   0.018019660   0.16860   0.40501  -0.01412  -0.06611
  31   35318.2    283.1   0.019766557   0.18425  -0.41739  -0.09505  -0.03161
  32   35982.3    277.9   0.334467704   3.06014   1.70769  -0.37169   0.07598
  33   36509.8    273.9   0.004898374   0.04417   0.01649   0.20435   0.04622
  34   36658.7    272.8   0.011146830   0.10010  -0.04336   0.07246   0.30491
  35   36975.1    270.5   0.044421668   0.39551  -0.22330  -0.22819   0.54183
  36   37220.3    268.7   0.002642585   0.02337  -0.11873   0.01423   0.09526
  37   37309.9    268.0   0.004874004   0.04301  -0.18400   0.08878  -0.03562
  38   37504.9    266.6   0.089972918   0.78977   0.87769   0.09070   0.10582
  39   37798.9    264.6   0.021147152   0.18418   0.42209  -0.06017  -0.04904
  40   37849.7    264.2   0.028600561   0.24876  -0.26512  -0.09472   0.41170
  41   38092.2    262.5   0.024524329   0.21195   0.44362   0.11096   0.05327
  42   38311.7    261.0   0.132240178   1.13634  -0.58376   0.19217  -0.87100
  43   38603.1    259.0   0.084540196   0.72097  -0.83653  -0.04659  -0.13789
  44   39077.8    255.9   0.050560943   0.42595   0.61316  -0.18186  -0.13008
  45   39146.6    255.4   0.073497065   0.61809   0.37061  -0.13251  -0.68057
  46   39349.3    254.1   0.024764899   0.20719   0.34808   0.01836   0.29274
  47   39661.8    252.1   0.014355335   0.11916  -0.20430  -0.12135  -0.25038
  48   39740.5    251.6   0.004294191   0.03557  -0.15438  -0.05978  -0.09036

FINAL SINGLE POINT ENERGY     -5076.581322108813

DIPOLE MOMENT
-------------
                                X             Y             Z
Electronic contribution:    -31.07540      32.88843     -45.87885
Nuclear contribution   :     31.77534     -36.51305      48.10384
                        -----------------------------------------
Total Dipole Moment    :      0.69994      -3.62461       2.22499
                        -----------------------------------------
Magnitude (a.u.)       :      4.31025
Magnitude (Debye)      :     10.95579

Rotational constants in cm-1:     0.001518     0.000245     0.000220
Rotational constants in MHz :    45.506838     7.335280     6.604214

                             ****ORCA TERMINATED NORMALLY****
TOTAL RUN TIME: 0 days 0 hours 12 minutes 43 seconds 633 msec
