                         Program Version 4.2.0 -  RELEASE  -
|  1> # ORCA input file
|  2> # SCF done       -210.373921789679          0.000762449396
|  3> ! CAM-B3LYP def2-SVP def2/J RIJCOSX Grid4 TightSCF
|  4> %maxcore 5000
|  5> %tddft
|  6>     Mode sTDDFT
|  7>     Ethresh 5.0
|  8>     maxcore 5000
|  9> end
| 10>
| 11> %pal
| 12>   nprocs 6
| 13>   end
| 14> * xyz 0 1
| 15>    C        3.78829        -7.80688        -2.41230
| 16>    C        2.74624        -8.63472        -2.09839
| 17>    F        2.15107        -9.34791        -3.07114
| 18>    C        2.26505        -8.77434        -0.78965
| 19>    C        2.85614        -8.05622         0.21248
| 20>    C        3.93320        -7.18695        -0.05503
| 21>    C        4.41092        -7.06248        -1.39208
| 22>    C        5.49961        -6.20683        -1.68360
| 23>    C        6.08492        -5.49798        -0.67040
| 24>    C        5.58713        -5.60820         0.66014
| 25>    C        4.54547        -6.43286         0.97134
| 26>    C        6.35579        -4.70902         1.54018
| 27>    O        6.24983        -4.56487         2.73744
| 28>    C        7.27201        -3.96125         0.63654
| 29>    C        7.22363        -4.58079        -0.66466
| 30>    C        8.18443        -4.51695        -1.64506
| 31>    C        9.40625        -3.83274        -1.51531
| 32>    N       10.43452        -3.32422        -1.45130
| 33>    C        8.10563        -5.21278        -2.86822
| 34>    N        8.08826        -5.74143        -3.88684
| 35>    C        7.94087        -2.87716         1.13698
| 36>    C        8.58908        -1.82411         0.47214
| 37>    S        9.86735        -0.98412         1.29293
| 38>    C       10.27512        -0.03654        -0.08858
| 39>    C        9.35510        -0.26286        -1.13085
| 40>    C        8.39852        -1.27413        -0.81023
| 41>    C        7.35420        -1.56131        -1.70606
| 42>    C        7.30287        -0.89606        -2.89951
| 43>    F        6.31078        -1.15493        -3.76173
| 44>    C        8.25549         0.09209        -3.22392
| 45>    F        8.14644         0.74450        -4.39092
| 46>    C        9.25484         0.42552        -2.35230
| 47>    C       11.44462         0.76390        -0.03940
| 48>    C       12.19677         1.12052        -1.10866
| 49>    C       13.38226         1.92827        -1.03070
| 50>    C       13.54220         2.85190        -0.00349
| 51>    C       14.65888         3.66065         0.08045
| 52>    C       15.70045         3.59924        -0.84373
| 53>    C       15.57033         2.66607        -1.92616
| 54>    C       14.41757         1.83239        -2.01379
| 55>    C       14.38192         0.90225        -3.07341
| 56>    C       15.40355         0.85493        -3.98503
| 57>    C       16.47174         1.74473        -3.82420
| 58>    N       16.55190         2.59831        -2.84088
| 59>    C       16.82461         4.45521        -0.63183
| 60>    C       17.98662         4.48563        -1.33502
| 61>    C       19.07136         5.32865        -1.02436
| 62>    S       19.02719         6.48083         0.26648
| 63>    C       20.66099         6.99823         0.00029
| 64>    C       21.22977         6.29295        -1.08023
| 65>    C       20.32921         5.35400        -1.66202
| 66>    C       20.73904         4.56829        -2.75293
| 67>    C       22.00680         4.72571        -3.23815
| 68>    F       22.41898         3.99046        -4.28194
| 69>    C       22.90007         5.65503        -2.66184
| 70>    F       24.13246         5.77590        -3.17554
| 71>    C       22.52818         6.43083        -1.59933
| 72>    C       21.28504         7.93726         0.83231
| 73>    C       20.65716         8.63894         1.82376
| 74>    C       21.27403         9.56180         2.68821
| 75>    C       22.58875         9.70911         3.04632
| 76>    C       23.01378        11.01016         3.63082
| 77>    O       22.28783        11.91051         3.99014
| 78>    C       24.48802        10.98047         3.63226
| 79>    C       25.36881        11.96553         3.97287
| 80>    C       26.75581        11.71293         3.87732
| 81>    C       27.20207        10.44038         3.41655
| 82>    C       28.58534        10.19557         3.31829
| 83>    C       29.46738        11.17878         3.67107
| 84>    C       29.04870        12.43563         4.12806
| 85>    C       27.70920        12.69105         4.22627
| 86>    F       30.78952        10.94578         3.58129
| 87>    C       26.26499         9.43743         3.07321
| 88>    C       24.92730         9.69989         3.19057
| 89>    C       23.75163         8.86005         2.95674
| 90>    C       23.78088         7.48668         2.91526
| 91>    C       22.64027         6.66318         2.92726
| 92>    N       21.74930         5.93905         2.95686
| 93>    C       24.96547         6.72361         2.92960
| 94>    N       25.89407         6.04830         2.91784
| 95>    H        4.13478        -7.72694        -3.43075
| 96>    H        1.44041        -9.44349        -0.60196
| 97>    H        2.50282        -8.14648         1.22860
| 98>    H        5.83561        -6.12723        -2.70524
| 99>    H        4.19135        -6.50912         1.98839
|100>    H        7.94652        -2.82453         2.22260
|101>    H        6.57576        -2.26239        -1.45470
|102>    H        9.91990         1.23607        -2.59854
|103>    H       11.79383         1.00254         0.95660
|104>    H       11.92153         0.73406        -2.07745
|105>    H       12.76014         2.96474         0.73173
|106>    H       14.73105         4.36680         0.89517
|107>    H       13.55625         0.21370        -3.16564
|108>    H       15.39433         0.15166        -4.80252
|109>    H       17.29777         1.75200        -4.52420
|110>    H       16.73070         5.12766         0.21470
|111>    H       18.09870         3.81307        -2.17129
|112>    H       20.07566         3.85180        -3.20815
|113>    H       23.23307         7.13141        -1.18290
|114>    H       22.33198         8.12812         0.63727
|115>    H       19.58345         8.53518         1.91530
|116>    H       20.62453        10.32436         3.10949
|117>    H       25.01246        12.92592         4.31401
|118>    H       28.94364         9.23789         2.97433
|119>    H       29.79081        13.17228         4.39204
|120>    H       27.36225        13.65179         4.57578
|121>    H       26.63351         8.48752         2.72007
|122> *
|123>
|124>                          ****END OF INPUT****

CARTESIAN COORDINATES (ANGSTROEM)
---------------------------------
  C      3.788290   -7.806880   -2.412300
  C      2.746240   -8.634720   -2.098390
  F      2.151070   -9.347910   -3.071140
  C      2.265050   -8.774340   -0.789650
  C      2.856140   -8.056220    0.212480
  C      3.933200   -7.186950   -0.055030
  C      4.410920   -7.062480   -1.392080
  C      5.499610   -6.206830   -1.683600
  C      6.084920   -5.497980   -0.670400
  C      5.587130   -5.608200    0.660140
  C      4.545470   -6.432860    0.971340
  C      6.355790   -4.709020    1.540180
  O      6.249830   -4.564870    2.737440
  C      7.272010   -3.961250    0.636540
  C      7.223630   -4.580790   -0.664660
  C      8.184430   -4.516950   -1.645060
  C      9.406250   -3.832740   -1.515310
  N     10.434520   -3.324220   -1.451300
  C      8.105630   -5.212780   -2.868220
  N      8.088260   -5.741430   -3.886840
  C      7.940870   -2.877160    1.136980
  C      8.589080   -1.824110    0.472140
  S      9.867350   -0.984120    1.292930
  C     10.275120   -0.036540   -0.088580
  C      9.355100   -0.262860   -1.130850
  C      8.398520   -1.274130   -0.810230
  C      7.354200   -1.561310   -1.706060
  C      7.302870   -0.896060   -2.899510
  F      6.310780   -1.154930   -3.761730
  C      8.255490    0.092090   -3.223920
  F      8.146440    0.744500   -4.390920
  C      9.254840    0.425520   -2.352300
  C     11.444620    0.763900   -0.039400
  C     12.196770    1.120520   -1.108660
  C     13.382260    1.928270   -1.030700
  C     13.542200    2.851900   -0.003490
  C     14.658880    3.660650    0.080450
  C     15.700450    3.599240   -0.843730
  C     15.570330    2.666070   -1.926160
  C     14.417570    1.832390   -2.013790
  C     14.381920    0.902250   -3.073410
  C     15.403550    0.854930   -3.985030
  C     16.471740    1.744730   -3.824200
  N     16.551900    2.598310   -2.840880
  C     16.824610    4.455210   -0.631830
  C     17.986620    4.485630   -1.335020
  C     19.071360    5.328650   -1.024360
  S     19.027190    6.480830    0.266480
  C     20.660990    6.998230    0.000290
  C     21.229770    6.292950   -1.080230
  C     20.329210    5.354000   -1.662020
  C     20.739040    4.568290   -2.752930
  C     22.006800    4.725710   -3.238150
  F     22.418980    3.990460   -4.281940
  C     22.900070    5.655030   -2.661840
  F     24.132460    5.775900   -3.175540
  C     22.528180    6.430830   -1.599330
  C     21.285040    7.937260    0.832310
  C     20.657160    8.638940    1.823760
  C     21.274030    9.561800    2.688210
  C     22.588750    9.709110    3.046320
  C     23.013780   11.010160    3.630820
  O     22.287830   11.910510    3.990140
  C     24.488020   10.980470    3.632260
  C     25.368810   11.965530    3.972870
  C     26.755810   11.712930    3.877320
  C     27.202070   10.440380    3.416550
  C     28.585340   10.195570    3.318290
  C     29.467380   11.178780    3.671070
  C     29.048700   12.435630    4.128060
  C     27.709200   12.691050    4.226270
  F     30.789520   10.945780    3.581290
  C     26.264990    9.437430    3.073210
  C     24.927300    9.699890    3.190570
  C     23.751630    8.860050    2.956740
  C     23.780880    7.486680    2.915260
  C     22.640270    6.663180    2.927260
  N     21.749300    5.939050    2.956860
  C     24.965470    6.723610    2.929600
  N     25.894070    6.048300    2.917840
  H      4.134780   -7.726940   -3.430750
  H      1.440410   -9.443490   -0.601960
  H      2.502820   -8.146480    1.228600
  H      5.835610   -6.127230   -2.705240
  H      4.191350   -6.509120    1.988390
  H      7.946520   -2.824530    2.222600
  H      6.575760   -2.262390   -1.454700
  H      9.919900    1.236070   -2.598540
  H     11.793830    1.002540    0.956600
  H     11.921530    0.734060   -2.077450
  H     12.760140    2.964740    0.731730
  H     14.731050    4.366800    0.895170
  H     13.556250    0.213700   -3.165640
  H     15.394330    0.151660   -4.802520
  H     17.297770    1.752000   -4.524200
  H     16.730700    5.127660    0.214700
  H     18.098700    3.813070   -2.171290
  H     20.075660    3.851800   -3.208150
  H     23.233070    7.131410   -1.182900
  H     22.331980    8.128120    0.637270
  H     19.583450    8.535180    1.915300
  H     20.624530   10.324360    3.109490
  H     25.012460   12.925920    4.314010
  H     28.943640    9.237890    2.974330
  H     29.790810   13.172280    4.392040
  H     27.362250   13.651790    4.575780
  H     26.633510    8.487520    2.720070

 Total Charge           Charge          ....    0
 Multiplicity           Mult            ....    1
 Number of Electrons    NEL             ....  554
 Basis Dimension        Dim             .... 1263

ORBITAL ENERGIES
----------------

  NO   OCC          E(Eh)            E(eV)
   0   2.0000     -88.989448     -2421.5260
   1   2.0000     -88.976736     -2421.1801
   2   2.0000     -24.802169      -674.9013
   3   2.0000     -24.798884      -674.8119
   4   2.0000     -24.793346      -674.6612
   5   2.0000     -24.791119      -674.6007
   6   2.0000     -24.784949      -674.4327
   7   2.0000     -24.781103      -674.3281
   8   2.0000     -19.212352      -522.7947
   9   2.0000     -19.204076      -522.5695
  10   2.0000     -14.418328      -392.3427
  11   2.0000     -14.415140      -392.2559
  12   2.0000     -14.413770      -392.2186
  13   2.0000     -14.409232      -392.0951
  14   2.0000     -14.407663      -392.0524
  15   2.0000     -10.387067      -282.6465
  16   2.0000     -10.382077      -282.5107
  17   2.0000     -10.377024      -282.3732
  18   2.0000     -10.373516      -282.2777
  19   2.0000     -10.368531      -282.1421
  20   2.0000     -10.364336      -282.0279
  21   2.0000     -10.363481      -282.0047
  22   2.0000     -10.355438      -281.7858
  23   2.0000     -10.340971      -281.3921
  24   2.0000     -10.339997      -281.3656
  25   2.0000     -10.339434      -281.3503
  26   2.0000     -10.335007      -281.2298
  27   2.0000     -10.333189      -281.1804
  28   2.0000     -10.326307      -280.9931
  29   2.0000     -10.325231      -280.9638
  30   2.0000     -10.324792      -280.9519
  31   2.0000     -10.323287      -280.9109
  32   2.0000     -10.322867      -280.8995
  33   2.0000     -10.318140      -280.7709
  34   2.0000     -10.316977      -280.7392
  35   2.0000     -10.314861      -280.6816
  36   2.0000     -10.314824      -280.6806
  37   2.0000     -10.311863      -280.6000
  38   2.0000     -10.311313      -280.5851
  39   2.0000     -10.310951      -280.5752
  40   2.0000     -10.310297      -280.5574
  41   2.0000     -10.309032      -280.5230
  42   2.0000     -10.307598      -280.4840
  43   2.0000     -10.307222      -280.4738
  44   2.0000     -10.307068      -280.4696
  45   2.0000     -10.306713      -280.4599
  46   2.0000     -10.305825      -280.4358
  47   2.0000     -10.305820      -280.4356
  48   2.0000     -10.305132      -280.4169
  49   2.0000     -10.304933      -280.4115
  50   2.0000     -10.304905      -280.4107
  51   2.0000     -10.302869      -280.3553
  52   2.0000     -10.301696      -280.3234
  53   2.0000     -10.300252      -280.2841
  54   2.0000     -10.299966      -280.2763
  55   2.0000     -10.299816      -280.2723
  56   2.0000     -10.299266      -280.2573
  57   2.0000     -10.298780      -280.2441
  58   2.0000     -10.297463      -280.2082
  59   2.0000     -10.296859      -280.1918
  60   2.0000     -10.296746      -280.1887
  61   2.0000     -10.296664      -280.1865
  62   2.0000     -10.296494      -280.1819
  63   2.0000     -10.295283      -280.1489
  64   2.0000     -10.294574      -280.1296
  65   2.0000     -10.294205      -280.1195
  66   2.0000     -10.293412      -280.0980
  67   2.0000     -10.293396      -280.0975
  68   2.0000     -10.293141      -280.0906
  69   2.0000     -10.292675      -280.0779
  70   2.0000     -10.291791      -280.0539
  71   2.0000     -10.291425      -280.0439
  72   2.0000     -10.289345      -279.9873
  73   2.0000     -10.288373      -279.9609
  74   2.0000     -10.287952      -279.9494
  75   2.0000     -10.286014      -279.8967
  76   2.0000     -10.285379      -279.8794
  77   2.0000     -10.284990      -279.8688
  78   2.0000     -10.284000      -279.8419
  79   2.0000     -10.282628      -279.8045
  80   2.0000      -8.085016      -220.0045
  81   2.0000      -8.071625      -219.6401
  82   2.0000      -6.053904      -164.7351
  83   2.0000      -6.049861      -164.6251
  84   2.0000      -6.047793      -164.5688
  85   2.0000      -6.040476      -164.3697
  86   2.0000      -6.036559      -164.2631
  87   2.0000      -6.034510      -164.2074
  88   2.0000      -1.323394       -36.0114
  89   2.0000      -1.314955       -35.7817
  90   2.0000      -1.308098       -35.5951
  91   2.0000      -1.300011       -35.3751
  92   2.0000      -1.299775       -35.3687
  93   2.0000      -1.296009       -35.2662
  94   2.0000      -1.127545       -30.6820
  95   2.0000      -1.119329       -30.4585
  96   2.0000      -1.057245       -28.7691
  97   2.0000      -1.027495       -27.9596
  98   2.0000      -1.015612       -27.6362
  99   2.0000      -1.014764       -27.6131
 100   2.0000      -1.011209       -27.5164
 101   2.0000      -0.999734       -27.2041
 102   2.0000      -0.994160       -27.0525
 103   2.0000      -0.992890       -27.0179
 104   2.0000      -0.987287       -26.8655
 105   2.0000      -0.975450       -26.5434
 106   2.0000      -0.972452       -26.4618
 107   2.0000      -0.969699       -26.3869
 108   2.0000      -0.961733       -26.1701
 109   2.0000      -0.953534       -25.9470
 110   2.0000      -0.939411       -25.5627
 111   2.0000      -0.931747       -25.3541
 112   2.0000      -0.926480       -25.2108
 113   2.0000      -0.919197       -25.0126
 114   2.0000      -0.915535       -24.9130
 115   2.0000      -0.899333       -24.4721
 116   2.0000      -0.898337       -24.4450
 117   2.0000      -0.889249       -24.1977
 118   2.0000      -0.885106       -24.0850
 119   2.0000      -0.883822       -24.0500
 120   2.0000      -0.878091       -23.8941
 121   2.0000      -0.871558       -23.7163
 122   2.0000      -0.866904       -23.5896
 123   2.0000      -0.860474       -23.4147
 124   2.0000      -0.854890       -23.2627
 125   2.0000      -0.850356       -23.1394
 126   2.0000      -0.846480       -23.0339
 127   2.0000      -0.837967       -22.8022
 128   2.0000      -0.833475       -22.6800
 129   2.0000      -0.828547       -22.5459
 130   2.0000      -0.819548       -22.3010
 131   2.0000      -0.806503       -21.9460
 132   2.0000      -0.790406       -21.5080
 133   2.0000      -0.774700       -21.0807
 134   2.0000      -0.762040       -20.7362
 135   2.0000      -0.757397       -20.6098
 136   2.0000      -0.753094       -20.4927
 137   2.0000      -0.751577       -20.4515
 138   2.0000      -0.744283       -20.2530
 139   2.0000      -0.741987       -20.1905
 140   2.0000      -0.737938       -20.0803
 141   2.0000      -0.732574       -19.9343
 142   2.0000      -0.730960       -19.8904
 143   2.0000      -0.715166       -19.4606
 144   2.0000      -0.710300       -19.3283
 145   2.0000      -0.708226       -19.2718
 146   2.0000      -0.703606       -19.1461
 147   2.0000      -0.703086       -19.1320
 148   2.0000      -0.685164       -18.6443
 149   2.0000      -0.681520       -18.5451
 150   2.0000      -0.680238       -18.5102
 151   2.0000      -0.677197       -18.4275
 152   2.0000      -0.672801       -18.3078
 153   2.0000      -0.666954       -18.1487
 154   2.0000      -0.663466       -18.0538
 155   2.0000      -0.659225       -17.9384
 156   2.0000      -0.650163       -17.6918
 157   2.0000      -0.636178       -17.3113
 158   2.0000      -0.634816       -17.2742
 159   2.0000      -0.633254       -17.2317
 160   2.0000      -0.631791       -17.1919
 161   2.0000      -0.628101       -17.0915
 162   2.0000      -0.626486       -17.0475
 163   2.0000      -0.625734       -17.0271
 164   2.0000      -0.623329       -16.9616
 165   2.0000      -0.618730       -16.8365
 166   2.0000      -0.616758       -16.7828
 167   2.0000      -0.615306       -16.7433
 168   2.0000      -0.606328       -16.4990
 169   2.0000      -0.601833       -16.3767
 170   2.0000      -0.599568       -16.3151
 171   2.0000      -0.597011       -16.2455
 172   2.0000      -0.590665       -16.0728
 173   2.0000      -0.588249       -16.0071
 174   2.0000      -0.583337       -15.8734
 175   2.0000      -0.580055       -15.7841
 176   2.0000      -0.579662       -15.7734
 177   2.0000      -0.569823       -15.5057
 178   2.0000      -0.567495       -15.4423
 179   2.0000      -0.566532       -15.4161
 180   2.0000      -0.559613       -15.2278
 181   2.0000      -0.559459       -15.2237
 182   2.0000      -0.557931       -15.1821
 183   2.0000      -0.557218       -15.1627
 184   2.0000      -0.554319       -15.0838
 185   2.0000      -0.553671       -15.0661
 186   2.0000      -0.553060       -15.0495
 187   2.0000      -0.549767       -14.9599
 188   2.0000      -0.548479       -14.9249
 189   2.0000      -0.545499       -14.8438
 190   2.0000      -0.544802       -14.8248
 191   2.0000      -0.542409       -14.7597
 192   2.0000      -0.541336       -14.7305
 193   2.0000      -0.537741       -14.6327
 194   2.0000      -0.533933       -14.5290
 195   2.0000      -0.530255       -14.4290
 196   2.0000      -0.527962       -14.3666
 197   2.0000      -0.526564       -14.3285
 198   2.0000      -0.525679       -14.3045
 199   2.0000      -0.523573       -14.2472
 200   2.0000      -0.522584       -14.2202
 201   2.0000      -0.522229       -14.2106
 202   2.0000      -0.518236       -14.1019
 203   2.0000      -0.517960       -14.0944
 204   2.0000      -0.515515       -14.0279
 205   2.0000      -0.511816       -13.9272
 206   2.0000      -0.511572       -13.9206
 207   2.0000      -0.508161       -13.8278
 208   2.0000      -0.505230       -13.7480
 209   2.0000      -0.503057       -13.6889
 210   2.0000      -0.499058       -13.5801
 211   2.0000      -0.498502       -13.5649
 212   2.0000      -0.494556       -13.4576
 213   2.0000      -0.492138       -13.3917
 214   2.0000      -0.491405       -13.3718
 215   2.0000      -0.491196       -13.3661
 216   2.0000      -0.486416       -13.2360
 217   2.0000      -0.485041       -13.1986
 218   2.0000      -0.480995       -13.0886
 219   2.0000      -0.479957       -13.0603
 220   2.0000      -0.477947       -13.0056
 221   2.0000      -0.476424       -12.9641
 222   2.0000      -0.475733       -12.9454
 223   2.0000      -0.474364       -12.9081
 224   2.0000      -0.466548       -12.6954
 225   2.0000      -0.464528       -12.6404
 226   2.0000      -0.458522       -12.4770
 227   2.0000      -0.457112       -12.4387
 228   2.0000      -0.455997       -12.4083
 229   2.0000      -0.454311       -12.3624
 230   2.0000      -0.452651       -12.3173
 231   2.0000      -0.451001       -12.2724
 232   2.0000      -0.449671       -12.2362
 233   2.0000      -0.448352       -12.2003
 234   2.0000      -0.446926       -12.1615
 235   2.0000      -0.443847       -12.0777
 236   2.0000      -0.443552       -12.0697
 237   2.0000      -0.443182       -12.0596
 238   2.0000      -0.440806       -11.9949
 239   2.0000      -0.438233       -11.9249
 240   2.0000      -0.435393       -11.8477
 241   2.0000      -0.434598       -11.8260
 242   2.0000      -0.431709       -11.7474
 243   2.0000      -0.431117       -11.7313
 244   2.0000      -0.428699       -11.6655
 245   2.0000      -0.426037       -11.5930
 246   2.0000      -0.422331       -11.4922
 247   2.0000      -0.421988       -11.4829
 248   2.0000      -0.419967       -11.4279
 249   2.0000      -0.419092       -11.4041
 250   2.0000      -0.416800       -11.3417
 251   2.0000      -0.412322       -11.2198
 252   2.0000      -0.409728       -11.1493
 253   2.0000      -0.404237       -10.9999
 254   2.0000      -0.399816       -10.8795
 255   2.0000      -0.392230       -10.6731
 256   2.0000      -0.386359       -10.5134
 257   2.0000      -0.378463       -10.2985
 258   2.0000      -0.375444       -10.2164
 259   2.0000      -0.366434        -9.9712
 260   2.0000      -0.361736        -9.8433
 261   2.0000      -0.352293        -9.5864
 262   2.0000      -0.344086        -9.3631
 263   2.0000      -0.339637        -9.2420
 264   2.0000      -0.337684        -9.1888
 265   2.0000      -0.333520        -9.0755
 266   2.0000      -0.328994        -8.9524
 267   2.0000      -0.328528        -8.9397
 268   2.0000      -0.321374        -8.7450
 269   2.0000      -0.320325        -8.7165
 270   2.0000      -0.311194        -8.4680
 271   2.0000      -0.308329        -8.3901
 272   2.0000      -0.300296        -8.1715
 273   2.0000      -0.296756        -8.0752
 274   2.0000      -0.291713        -7.9379
 275   2.0000      -0.262953        -7.1553
 276   2.0000      -0.234653        -6.3852
 277   0.0000      -0.113696        -3.0938
 278   0.0000      -0.098120        -2.6700
 279   0.0000      -0.069897        -1.9020
 280   0.0000      -0.060005        -1.6328
 281   0.0000      -0.049444        -1.3454

MULLIKEN ATOMIC CHARGES
-----------------------
   0 C :   -0.096557
   1 C :    0.303229
   2 F :   -0.190419
   3 C :   -0.032729
   4 C :   -0.008079
   5 C :    0.098728
   6 C :    0.100936
   7 C :   -0.088361
   8 C :    0.039023
   9 C :    0.018062
  10 C :   -0.082451
  11 C :    0.133085
  12 O :   -0.148732
  13 C :   -0.153690
  14 C :    0.254848
  15 C :   -0.344443
  16 C :   -0.186760
  17 N :    0.157917
  18 C :   -0.183283
  19 N :    0.153185
  20 C :    0.069228
  21 C :   -0.160882
  22 S :    0.208189
  23 C :   -0.101164
  24 C :    0.130949
  25 C :    0.113436
  26 C :   -0.093281
  27 C :    0.227104
  28 F :   -0.166586
  29 C :    0.237799
  30 F :   -0.174400
  31 C :   -0.125258
  32 C :    0.053841
  33 C :   -0.035650
  34 C :    0.082906
  35 C :   -0.028076
  36 C :   -0.047276
  37 C :    0.149164
  38 C :   -0.038995
  39 C :    0.077123
  40 C :   -0.004024
  41 C :    0.014026
  42 C :    0.038979
  43 N :   -0.061052
  44 C :   -0.057266
  45 C :    0.008879
  46 C :   -0.055189
  47 S :    0.162950
  48 C :   -0.100694
  49 C :    0.151961
  50 C :    0.112186
  51 C :   -0.110605
  52 C :    0.228639
  53 F :   -0.176615
  54 C :    0.232918
  55 F :   -0.172349
  56 C :   -0.119776
  57 C :    0.029531
  58 C :   -0.007853
  59 C :    0.044596
  60 C :   -0.139524
  61 C :    0.133878
  62 O :   -0.151831
  63 C :    0.015966
  64 C :   -0.085448
  65 C :    0.100993
  66 C :    0.102788
  67 C :   -0.098493
  68 C :    0.302237
  69 C :   -0.031479
  70 C :   -0.009404
  71 F :   -0.192346
  72 C :   -0.089330
  73 C :    0.032093
  74 C :    0.282708
  75 C :   -0.355267
  76 C :   -0.202704
  77 N :    0.165805
  78 C :   -0.176894
  79 N :    0.145537
  80 H :   -0.002373
  81 H :    0.003404
  82 H :   -0.009684
  83 H :   -0.005298
  84 H :   -0.012792
  85 H :    0.023995
  86 H :    0.004327
  87 H :   -0.003559
  88 H :   -0.002067
  89 H :    0.007710
  90 H :   -0.014623
  91 H :   -0.015915
  92 H :   -0.000333
  93 H :    0.004923
  94 H :    0.006839
  95 H :   -0.018070
  96 H :    0.010437
  97 H :   -0.004227
  98 H :   -0.008448
  99 H :    0.013273
 100 H :    0.001430
 101 H :    0.024481
 102 H :   -0.014449
 103 H :   -0.003268
 104 H :    0.002095
 105 H :   -0.011211
 106 H :   -0.006806
Sum of atomic charges:   -0.0000000

LOEWDIN ATOMIC CHARGES
----------------------
   0 C :   -0.042253
   1 C :    0.092892
   2 F :   -0.064824
   3 C :   -0.037807
   4 C :    0.004407
   5 C :   -0.019769
   6 C :    0.003280
   7 C :    0.008495
   8 C :   -0.017746
   9 C :   -0.060071
  10 C :    0.033820
  11 C :    0.081244
  12 O :   -0.149302
  13 C :   -0.107330
  14 C :    0.056557
  15 C :   -0.143694
  16 C :   -0.012706
  17 N :   -0.061126
  18 C :   -0.020047
  19 N :   -0.055674
  20 C :    0.037404
  21 C :   -0.193697
  22 S :    0.517724
  23 C :   -0.136387
  24 C :   -0.041938
  25 C :   -0.024483
  26 C :   -0.039516
  27 C :    0.078434
  28 F :   -0.045327
  29 C :    0.060351
  30 F :   -0.052926
  31 C :   -0.029945
  32 C :   -0.040443
  33 C :    0.002805
  34 C :   -0.021936
  35 C :   -0.009780
  36 C :   -0.006938
  37 C :   -0.014272
  38 C :    0.017481
  39 C :   -0.023559
  40 C :    0.021491
  41 C :   -0.039752
  42 C :    0.032867
  43 N :   -0.057892
  44 C :   -0.011870
  45 C :   -0.030937
  46 C :   -0.143328
  47 S :    0.498723
  48 C :   -0.182300
  49 C :   -0.023965
  50 C :   -0.045491
  51 C :   -0.030477
  52 C :    0.059497
  53 F :   -0.054897
  54 C :    0.071232
  55 F :   -0.050236
  56 C :   -0.041096
  57 C :    0.024260
  58 C :   -0.060460
  59 C :    0.064951
  60 C :   -0.107643
  61 C :    0.080027
  62 O :   -0.152435
  63 C :   -0.058308
  64 C :    0.031637
  65 C :   -0.019513
  66 C :    0.002520
  67 C :   -0.042597
  68 C :    0.091790
  69 C :   -0.038894
  70 C :    0.003773
  71 F :   -0.066248
  72 C :    0.008111
  73 C :   -0.017245
  74 C :    0.064319
  75 C :   -0.152986
  76 C :   -0.016565
  77 N :   -0.049996
  78 C :   -0.021477
  79 N :   -0.060639
  80 H :    0.043090
  81 H :    0.041709
  82 H :    0.035459
  83 H :    0.038983
  84 H :    0.039348
  85 H :    0.046031
  86 H :    0.045059
  87 H :    0.042383
  88 H :    0.032349
  89 H :    0.030732
  90 H :    0.030988
  91 H :    0.032719
  92 H :    0.035821
  93 H :    0.037411
  94 H :    0.023303
  95 H :    0.021456
  96 H :    0.031478
  97 H :    0.044126
  98 H :    0.041197
  99 H :    0.038228
 100 H :    0.026720
 101 H :    0.046272
 102 H :    0.038641
 103 H :    0.042747
 104 H :    0.041208
 105 H :    0.034918
 106 H :    0.038274

  Mayer bond orders larger than 0.100000
B(  0-C ,  1-C ) :   1.4386 B(  0-C ,  6-C ) :   1.2044 B(  0-C , 80-H ) :   1.0066
B(  1-C ,  2-F ) :   1.0886 B(  1-C ,  3-C ) :   1.2572 B(  3-C ,  4-C ) :   1.4572
B(  3-C , 81-H ) :   0.9937 B(  4-C ,  5-C ) :   1.2369 B(  4-C , 82-H ) :   0.9972
B(  5-C ,  6-C ) :   1.2577 B(  5-C , 10-C ) :   1.1855 B(  6-C ,  7-C ) :   1.1994
B(  7-C ,  8-C ) :   1.4662 B(  7-C , 83-H ) :   0.9947 B(  8-C ,  9-C ) :   1.2197
B(  8-C , 14-C ) :   0.9905 B(  9-C , 10-C ) :   1.4735 B(  9-C , 11-C ) :   0.9200
B( 10-C , 84-H ) :   1.0160 B( 11-C , 12-O ) :   2.2628 B( 11-C , 13-C ) :   0.9489
B( 13-C , 14-C ) :   1.0725 B( 13-C , 20-C ) :   1.5906 B( 14-C , 15-C ) :   1.6195
B( 15-C , 16-C ) :   1.1692 B( 15-C , 18-C ) :   1.1400 B( 16-C , 17-N ) :   3.0032
B( 18-C , 19-N ) :   2.9834 B( 20-C , 21-C ) :   1.1968 B( 20-C , 85-H ) :   0.9248
B( 21-C , 22-S ) :   1.1260 B( 21-C , 25-C ) :   1.2907 B( 22-S , 23-C ) :   1.2029
B( 23-C , 24-C ) :   1.3120 B( 23-C , 32-C ) :   1.1364 B( 24-C , 25-C ) :   1.2385
B( 24-C , 31-C ) :   1.1738 B( 25-C , 26-C ) :   1.2018 B( 26-C , 27-C ) :   1.4677
B( 26-C , 31-C ) :   0.1068 B( 26-C , 86-H ) :   0.9900 B( 27-C , 28-F ) :   1.1440
B( 27-C , 29-C ) :   1.1747 B( 29-C , 30-F ) :   1.1296 B( 29-C , 31-C ) :   1.4755
B( 31-C , 87-H ) :   0.9964 B( 32-C , 33-C ) :   1.6801 B( 32-C , 88-H ) :   0.9514
B( 33-C , 34-C ) :   1.0977 B( 33-C , 89-H ) :   0.9618 B( 34-C , 35-C ) :   1.4109
B( 34-C , 39-C ) :   1.1802 B( 35-C , 36-C ) :   1.2934 B( 35-C , 90-H ) :   0.9877
B( 36-C , 37-C ) :   1.3711 B( 36-C , 91-H ) :   0.9992 B( 37-C , 38-C ) :   1.1827
B( 37-C , 44-C ) :   1.1427 B( 38-C , 39-C ) :   1.2459 B( 38-C , 43-N ) :   1.4466
B( 39-C , 40-C ) :   1.2833 B( 40-C , 41-C ) :   1.5246 B( 40-C , 92-H ) :   0.9748
B( 41-C , 42-C ) :   1.2618 B( 41-C , 93-H ) :   0.9719 B( 42-C , 43-N ) :   1.6224
B( 42-C , 94-H ) :   0.9757 B( 43-N , 96-H ) :   0.1106 B( 44-C , 45-C ) :   1.6139
B( 44-C , 95-H ) :   0.9726 B( 45-C , 46-C ) :   1.1802 B( 45-C , 96-H ) :   0.9368
B( 46-C , 47-S ) :   1.1668 B( 46-C , 50-C ) :   1.2961 B( 47-S , 48-C ) :   1.1137
B( 48-C , 49-C ) :   1.2869 B( 48-C , 57-C ) :   1.2947 B( 49-C , 50-C ) :   1.2278
B( 49-C , 56-C ) :   1.1788 B( 50-C , 51-C ) :   1.1770 B( 51-C , 52-C ) :   1.4886
B( 51-C , 56-C ) :   0.1131 B( 51-C , 97-H ) :   1.0011 B( 52-C , 53-F ) :   1.1322
B( 52-C , 54-C ) :   1.1627 B( 54-C , 55-F ) :   1.1349 B( 54-C , 56-C ) :   1.4903
B( 56-C , 98-H ) :   0.9985 B( 57-C , 58-C ) :   1.5237 B( 57-C , 99-H ) :   0.9548
B( 58-C , 59-C ) :   1.2352 B( 58-C ,100-H ) :   0.9580 B( 59-C , 60-C ) :   1.5718
B( 59-C ,101-H ) :   0.9299 B( 60-C , 61-C ) :   0.9573 B( 60-C , 74-C ) :   1.0705
B( 61-C , 62-O ) :   2.2566 B( 61-C , 63-C ) :   0.9163 B( 63-C , 64-C ) :   1.4754
B( 63-C , 73-C ) :   1.2191 B( 64-C , 65-C ) :   1.1865 B( 64-C ,102-H ) :   1.0151
B( 65-C , 66-C ) :   1.2562 B( 65-C , 70-C ) :   1.2379 B( 66-C , 67-C ) :   1.2026
B( 66-C , 72-C ) :   1.2030 B( 67-C , 68-C ) :   1.4417 B( 67-C ,103-H ) :   1.0060
B( 68-C , 69-C ) :   1.2550 B( 68-C , 71-F ) :   1.0866 B( 69-C , 70-C ) :   1.4597
B( 69-C ,104-H ) :   0.9927 B( 70-C ,105-H ) :   0.9961 B( 72-C , 73-C ) :   1.4636
B( 72-C ,106-H ) :   0.9935 B( 73-C , 74-C ) :   0.9900 B( 74-C , 75-C ) :   1.6107
B( 75-C , 76-C ) :   1.1783 B( 75-C , 78-C ) :   1.1320 B( 76-C , 77-N ) :   2.9845
B( 78-C , 79-N ) :   2.9804

-----------------------------------------------------------------------------
         ABSORPTION SPECTRUM VIA TRANSITION ELECTRIC DIPOLE MOMENTS
-----------------------------------------------------------------------------
State   Energy  Wavelength   fosc         T2         TX        TY        TZ
        (cm-1)    (nm)                  (au**2)     (au)      (au)      (au)
-----------------------------------------------------------------------------
   0   12441.4    803.8   1.855707684  49.10393   5.30319   4.22065   1.77940
   1   16107.8    620.8   0.391423418   7.99993  -1.36715  -2.02375   1.42663
   2   19601.3    510.2   0.047308265   0.79456   0.12730   0.87280   0.12875
   3   21817.5    458.3   0.209535518   3.16176   1.40515   1.03275  -0.34748
   4   23739.8    421.2   0.134160902   1.86048  -0.93824   0.41737   0.89777
   5   24955.2    400.7   0.005005558   0.06603  -0.05698  -0.23414  -0.08925
   6   25549.8    391.4   0.050947789   0.65647   0.65566   0.23453  -0.41422
   7   25997.0    384.7   0.034478961   0.43662   0.24035  -0.53639  -0.30189
   8   26646.6    375.3   0.080330777   0.99247   0.71120   0.69757  -0.00734
   9   27174.5    368.0   0.042997802   0.52091  -0.29256  -0.63285   0.18660
  10   27467.0    364.1   0.110546310   1.32498   0.87759   0.35703  -0.65372
  11   27710.8    360.9   0.051421634   0.61090   0.25733  -0.49063  -0.55134
  12   28167.3    355.0   0.023540300   0.27513   0.19583  -0.48491  -0.04065
  13   29102.8    343.6   0.077157236   0.87281   0.33296   0.87200   0.03942
  14   29157.3    343.0   0.014390885   0.16249   0.29502   0.26079  -0.08625
  15   29378.6    340.4   0.016550051   0.18546  -0.37439   0.01345   0.21239
  16   29763.4    336.0   0.148008691   1.63712  -0.66404   0.29287  -1.05376
  17   30278.0    330.3   0.089368217   0.97170  -0.75420   0.50908   0.37910
  18   30411.7    328.8   0.017631991   0.19087  -0.26974  -0.19781   0.28104
  19   30898.2    323.6   0.002722032   0.02900   0.14663  -0.08652   0.00405
  20   31036.4    322.2   0.041707874   0.44241   0.66156  -0.02118  -0.06554
  21   31903.1    313.4   0.012009301   0.12393  -0.04038   0.18582   0.29625
  22   32159.5    311.0   0.029637958   0.30340  -0.48696  -0.25643  -0.02270
  23   32427.7    308.4   0.043209370   0.43867  -0.50672  -0.28688   0.31560
  24   32604.0    306.7   0.280774406   2.83506  -1.27145  -1.09522   0.13767
  25   32948.5    303.5   0.335099865   3.34822   1.29986   1.15338   0.57299
  26   33429.3    299.1   0.019816407   0.19515   0.29143  -0.00709   0.33192
  27   33836.2    295.5   0.025801931   0.25104   0.32495  -0.06168  -0.37636
  28   33929.6    294.7   0.157580542   1.52897   0.96252   0.77078   0.09185
  29   34024.9    293.9   0.219310715   2.12197   1.13385   0.86729   0.29014
  30   34386.9    290.8   0.039543238   0.37858  -0.19942   0.51693   0.26757
  31   34744.8    287.8   0.040853032   0.38709   0.29401  -0.30001  -0.45895
  32   34896.6    286.6   0.353445012   3.33438  -1.46471  -1.08662  -0.09084
  33   35397.5    282.5   0.029711984   0.27633  -0.24085  -0.35040  -0.30911
  34   35781.7    279.5   0.004045587   0.03722  -0.02975  -0.14089   0.12840
  35   36211.2    276.2   0.012951297   0.11775   0.09126   0.31868   0.08867
  36   36626.9    273.0   0.156341574   1.40524   0.51071  -0.49471  -0.94851
  37   36677.6    272.6   0.253086194   2.27166   1.11656   1.01176  -0.03578
  38   36991.2    270.3   0.047847094   0.42583   0.40576   0.51011  -0.03121
  39   37028.5    270.1   0.147301551   1.30963  -0.83497  -0.44344   0.64484
  40   37369.7    267.6   0.033079732   0.29142  -0.47441   0.11082   0.23254
  41   37619.2    265.8   0.027541984   0.24102   0.48486  -0.07397  -0.02163
  42   37841.5    264.3   0.104370045   0.90799  -0.79211  -0.51568   0.12098
  43   38111.4    262.4   0.013543062   0.11699   0.31588   0.07930  -0.10449
  44   38226.1    261.6   0.038685216   0.33317   0.42647   0.14303   0.36170
  45   38640.7    258.8   0.002235061   0.01904   0.00540   0.10939   0.08395
  46   38849.8    257.4   0.163033003   1.38154  -0.34994  -1.07669  -0.31593
  47   38953.4    256.7   0.048115602   0.40665   0.21088   0.32383  -0.50726
  48   39058.1    256.0   0.106118807   0.89445  -0.53121  -0.75126   0.21882
  49   39331.6    254.2   0.102574403   0.85856   0.28167  -0.16886  -0.86644
  50   39458.9    253.4   0.064145205   0.53517   0.03469   0.66576  -0.30122
  51   39613.6    252.4   0.108881173   0.90487  -0.79662  -0.19714   0.48104
  52   39785.5    251.3   0.006123782   0.05067  -0.16250  -0.09307   0.12491
  53   39837.2    251.0   0.149039264   1.23165   0.68500  -0.44419  -0.75175
  54   40151.8    249.1   0.019259769   0.15791   0.35485   0.02944   0.17643

FINAL SINGLE POINT ENERGY     -4308.136179316552

DIPOLE MOMENT
-------------
                                X             Y             Z
Electronic contribution:     -3.29206     -11.70248     -16.99372
Nuclear contribution   :      0.97985      12.84416      16.94286
                        -----------------------------------------
Total Dipole Moment    :     -2.31222       1.14168      -0.05086
                        -----------------------------------------
Magnitude (a.u.)       :      2.57922
Magnitude (Debye)      :      6.55585

Rotational constants in cm-1:     0.002271     0.000146     0.000143
Rotational constants in MHz :    68.081249     4.373881     4.273828

                             ****ORCA TERMINATED NORMALLY****
TOTAL RUN TIME: 0 days 0 hours 11 minutes 45 seconds 842 msec
