                         Program Version 4.2.0 -  RELEASE  -
|  1> # ORCA input file
|  2> # SCF done       -193.175805888154          0.000811337542
|  3> ! CAM-B3LYP def2-SVP def2/J RIJCOSX Grid4 TightSCF
|  4> %maxcore 5000
|  5> %tddft
|  6>     Mode sTDDFT
|  7>     Ethresh 5.0
|  8>     maxcore 5000
|  9> end
| 10>
| 11> %pal
| 12>   nprocs 6
| 13>   end
| 14> * xyz 0 1
| 15>    C        9.43249        22.38439         5.37170
| 16>    C        8.32272        23.04360         5.82290
| 17>    F        8.46048        24.24611         6.41164
| 18>    C        7.03162        22.51420         5.69784
| 19>    C        6.87257        21.29334         5.10272
| 20>    C        7.98209        20.57013         4.62030
| 21>    C        9.28678        21.12664         4.75600
| 22>    C       10.41617        20.42183         4.27484
| 23>    C       10.24283        19.20096         3.68375
| 24>    C        8.93707        18.64307         3.56386
| 25>    C        7.83033        19.30371         4.01075
| 26>    C        9.03712        17.31016         2.93662
| 27>    O        8.13400        16.56040         2.63220
| 28>    C       10.49012        17.05270         2.79741
| 29>    C       11.19895        18.26932         3.08377
| 30>    C       12.47424        18.59643         2.68391
| 31>    C       13.09263        19.82944         2.96744
| 32>    N       13.65374        20.80702         3.18793
| 33>    C       13.27074        17.79015         1.84759
| 34>    N       13.93947        17.19471         1.12802
| 35>    C       10.92978        15.76967         2.55720
| 36>    C       12.20023        15.24944         2.78189
| 37>    C       12.56596        13.95630         2.46255
| 38>    C       13.82500        13.35856         2.69130
| 39>    C       13.91296        12.06471         2.26568
| 40>    C       12.72646        11.58142         1.67758
| 41>    S       11.49516        12.82195         1.67450
| 42>    C       12.48879        10.32031         1.15255
| 43>    C       13.38245         9.23503         1.05619
| 44>    C       12.83229         8.12351         0.48800
| 45>    C       11.47930         8.26954         0.09768
| 46>    S       10.93154         9.89015         0.48797
| 47>    C       10.70394         7.23108        -0.38039
| 48>    C        9.36136         7.19491        -0.77170
| 49>    S        8.54469         5.65610        -0.63289
| 50>    C        7.04379         6.41431        -1.04326
| 51>    N        5.89342         5.61290        -1.06093
| 52>    O        4.81622         6.16288        -1.20113
| 53>    O        6.05505         4.41531        -0.91305
| 54>    C        7.15350         7.74597        -1.33031
| 55>    C        8.48137         8.21611        -1.22396
| 56>    C        8.95227         9.47198        -1.67602
| 57>    C        8.23112        10.59984        -1.96412
| 58>    C        8.77730        11.79288        -2.51328
| 59>    C        7.85997        12.75876        -2.78394
| 60>    C        6.53399        12.38599        -2.45932
| 61>    S        6.50725        10.80004        -1.73067
| 62>    C        5.35679        13.04127        -2.76055
| 63>    C        5.15808        14.20341        -3.54038
| 64>    C        3.85372        14.42388        -3.85811
| 65>    C        2.95278        13.44282        -3.36250
| 66>    S        3.81830        12.31220        -2.35758
| 67>    C        1.59875        13.41165        -3.62473
| 68>    C        0.62722        12.46870        -3.27593
| 69>    C        0.67418        11.16000        -2.84616
| 70>    C       -0.53139        10.63912        -2.13910
| 71>    O       -1.61749        11.17219        -2.07892
| 72>    C       -0.10010         9.38297        -1.50344
| 73>    C       -0.79175         8.57140        -0.65270
| 74>    C       -0.15874         7.41763        -0.13789
| 75>    C        1.18161         7.12745        -0.52497
| 76>    C        1.81238         5.98248        -0.00273
| 77>    C        1.12690         5.17789         0.86462
| 78>    C       -0.19248         5.44366         1.25527
| 79>    C       -0.82065         6.55012         0.75408
| 80>    F        1.72570         4.08618         1.37697
| 81>    C        1.87102         7.97911        -1.42290
| 82>    C        1.23735         9.09244        -1.90269
| 83>    C        1.66881        10.12706        -2.84081
| 84>    C        2.75117        10.03034        -3.68939
| 85>    C        2.92539        10.88590        -4.79322
| 86>    N        3.07754        11.56086        -5.71006
| 87>    C        3.78248         9.08043        -3.57750
| 88>    N        4.70812         8.40278        -3.51029
| 89>    H       10.41144        22.82409         5.48231
| 90>    H        6.19334        23.07960         6.07293
| 91>    H        5.88760        20.86443         4.99494
| 92>    H       11.39187        20.86470         4.39728
| 93>    H        6.84928        18.86559         3.90363
| 94>    H       10.15697        15.07599         2.23806
| 95>    H       12.95381        15.85800         3.26033
| 96>    H       14.62648        13.90362         3.15664
| 97>    H       14.79248        11.45446         2.36304
| 98>    H       14.39763         9.29696         1.40322
| 99>    H       13.35997         7.19888         0.33469
|100>    H       11.18915         6.26207        -0.34230
|101>    H        6.31227         8.31789        -1.67946
|102>    H       10.01397         9.53506        -1.86950
|103>    H        9.83144        11.88397        -2.70614
|104>    H        8.09092        13.71492        -3.21721
|105>    H        5.97799        14.81241        -3.87500
|106>    H        3.50716        15.23126        -4.47793
|107>    H        1.22429        14.28943        -4.13826
|108>    H       -0.39159        12.85090        -3.29527
|109>    H       -1.80777         8.80703        -0.37297
|110>    H        2.82511         5.75435        -0.29449
|111>    H       -0.68341         4.77145         1.94130
|112>    H       -1.83736         6.77575         1.03945
|113>    H        2.88481         7.72308        -1.68901
|114> *
|115>
|116>                          ****END OF INPUT****

CARTESIAN COORDINATES (ANGSTROEM)
---------------------------------
  C      9.432490   22.384390    5.371700
  C      8.322720   23.043600    5.822900
  F      8.460480   24.246110    6.411640
  C      7.031620   22.514200    5.697840
  C      6.872570   21.293340    5.102720
  C      7.982090   20.570130    4.620300
  C      9.286780   21.126640    4.756000
  C     10.416170   20.421830    4.274840
  C     10.242830   19.200960    3.683750
  C      8.937070   18.643070    3.563860
  C      7.830330   19.303710    4.010750
  C      9.037120   17.310160    2.936620
  O      8.134000   16.560400    2.632200
  C     10.490120   17.052700    2.797410
  C     11.198950   18.269320    3.083770
  C     12.474240   18.596430    2.683910
  C     13.092630   19.829440    2.967440
  N     13.653740   20.807020    3.187930
  C     13.270740   17.790150    1.847590
  N     13.939470   17.194710    1.128020
  C     10.929780   15.769670    2.557200
  C     12.200230   15.249440    2.781890
  C     12.565960   13.956300    2.462550
  C     13.825000   13.358560    2.691300
  C     13.912960   12.064710    2.265680
  C     12.726460   11.581420    1.677580
  S     11.495160   12.821950    1.674500
  C     12.488790   10.320310    1.152550
  C     13.382450    9.235030    1.056190
  C     12.832290    8.123510    0.488000
  C     11.479300    8.269540    0.097680
  S     10.931540    9.890150    0.487970
  C     10.703940    7.231080   -0.380390
  C      9.361360    7.194910   -0.771700
  S      8.544690    5.656100   -0.632890
  C      7.043790    6.414310   -1.043260
  N      5.893420    5.612900   -1.060930
  O      4.816220    6.162880   -1.201130
  O      6.055050    4.415310   -0.913050
  C      7.153500    7.745970   -1.330310
  C      8.481370    8.216110   -1.223960
  C      8.952270    9.471980   -1.676020
  C      8.231120   10.599840   -1.964120
  C      8.777300   11.792880   -2.513280
  C      7.859970   12.758760   -2.783940
  C      6.533990   12.385990   -2.459320
  S      6.507250   10.800040   -1.730670
  C      5.356790   13.041270   -2.760550
  C      5.158080   14.203410   -3.540380
  C      3.853720   14.423880   -3.858110
  C      2.952780   13.442820   -3.362500
  S      3.818300   12.312200   -2.357580
  C      1.598750   13.411650   -3.624730
  C      0.627220   12.468700   -3.275930
  C      0.674180   11.160000   -2.846160
  C     -0.531390   10.639120   -2.139100
  O     -1.617490   11.172190   -2.078920
  C     -0.100100    9.382970   -1.503440
  C     -0.791750    8.571400   -0.652700
  C     -0.158740    7.417630   -0.137890
  C      1.181610    7.127450   -0.524970
  C      1.812380    5.982480   -0.002730
  C      1.126900    5.177890    0.864620
  C     -0.192480    5.443660    1.255270
  C     -0.820650    6.550120    0.754080
  F      1.725700    4.086180    1.376970
  C      1.871020    7.979110   -1.422900
  C      1.237350    9.092440   -1.902690
  C      1.668810   10.127060   -2.840810
  C      2.751170   10.030340   -3.689390
  C      2.925390   10.885900   -4.793220
  N      3.077540   11.560860   -5.710060
  C      3.782480    9.080430   -3.577500
  N      4.708120    8.402780   -3.510290
  H     10.411440   22.824090    5.482310
  H      6.193340   23.079600    6.072930
  H      5.887600   20.864430    4.994940
  H     11.391870   20.864700    4.397280
  H      6.849280   18.865590    3.903630
  H     10.156970   15.075990    2.238060
  H     12.953810   15.858000    3.260330
  H     14.626480   13.903620    3.156640
  H     14.792480   11.454460    2.363040
  H     14.397630    9.296960    1.403220
  H     13.359970    7.198880    0.334690
  H     11.189150    6.262070   -0.342300
  H      6.312270    8.317890   -1.679460
  H     10.013970    9.535060   -1.869500
  H      9.831440   11.883970   -2.706140
  H      8.090920   13.714920   -3.217210
  H      5.977990   14.812410   -3.875000
  H      3.507160   15.231260   -4.477930
  H      1.224290   14.289430   -4.138260
  H     -0.391590   12.850900   -3.295270
  H     -1.807770    8.807030   -0.372970
  H      2.825110    5.754350   -0.294490
  H     -0.683410    4.771450    1.941300
  H     -1.837360    6.775750    1.039450
  H      2.884810    7.723080   -1.689010

 Total Charge           Charge          ....    0
 Multiplicity           Mult            ....    1
 Number of Electrons    NEL             ....  538
 Basis Dimension        Dim             .... 1181

ORBITAL ENERGIES
----------------

  NO   OCC          E(Eh)            E(eV)
   0   2.0000     -88.987081     -2421.4616
   1   2.0000     -88.978776     -2421.2356
   2   2.0000     -88.974388     -2421.1162
   3   2.0000     -88.966097     -2420.8906
   4   2.0000     -88.965880     -2420.8847
   5   2.0000     -24.783099      -674.3824
   6   2.0000     -24.767792      -673.9659
   7   2.0000     -19.250371      -523.8292
   8   2.0000     -19.249778      -523.8131
   9   2.0000     -19.207748      -522.6694
  10   2.0000     -19.198296      -522.4122
  11   2.0000     -14.659915      -398.9166
  12   2.0000     -14.411353      -392.1528
  13   2.0000     -14.410585      -392.1320
  14   2.0000     -14.405982      -392.0067
  15   2.0000     -14.399455      -391.8291
  16   2.0000     -10.366369      -282.0832
  17   2.0000     -10.359188      -281.8878
  18   2.0000     -10.354258      -281.7537
  19   2.0000     -10.349923      -281.6357
  20   2.0000     -10.348036      -281.5844
  21   2.0000     -10.345722      -281.5214
  22   2.0000     -10.344028      -281.4753
  23   2.0000     -10.340748      -281.3861
  24   2.0000     -10.340474      -281.3786
  25   2.0000     -10.339694      -281.3574
  26   2.0000     -10.337766      -281.3049
  27   2.0000     -10.337489      -281.2974
  28   2.0000     -10.336287      -281.2647
  29   2.0000     -10.330030      -281.0944
  30   2.0000     -10.328272      -281.0466
  31   2.0000     -10.326909      -281.0095
  32   2.0000     -10.324676      -280.9487
  33   2.0000     -10.321878      -280.8726
  34   2.0000     -10.320089      -280.8239
  35   2.0000     -10.317782      -280.7611
  36   2.0000     -10.317249      -280.7466
  37   2.0000     -10.317145      -280.7438
  38   2.0000     -10.316630      -280.7298
  39   2.0000     -10.314429      -280.6699
  40   2.0000     -10.313666      -280.6491
  41   2.0000     -10.312409      -280.6149
  42   2.0000     -10.310975      -280.5759
  43   2.0000     -10.310815      -280.5715
  44   2.0000     -10.308569      -280.5104
  45   2.0000     -10.307941      -280.4933
  46   2.0000     -10.307818      -280.4900
  47   2.0000     -10.306350      -280.4500
  48   2.0000     -10.302364      -280.3416
  49   2.0000     -10.302132      -280.3353
  50   2.0000     -10.301702      -280.3236
  51   2.0000     -10.300804      -280.2991
  52   2.0000     -10.297573      -280.2112
  53   2.0000     -10.297439      -280.2076
  54   2.0000     -10.297375      -280.2058
  55   2.0000     -10.295622      -280.1581
  56   2.0000     -10.294596      -280.1302
  57   2.0000     -10.294017      -280.1144
  58   2.0000     -10.293805      -280.1087
  59   2.0000     -10.291393      -280.0430
  60   2.0000     -10.291200      -280.0378
  61   2.0000     -10.287416      -279.9348
  62   2.0000     -10.287233      -279.9298
  63   2.0000     -10.286316      -279.9049
  64   2.0000     -10.285958      -279.8952
  65   2.0000     -10.285376      -279.8793
  66   2.0000     -10.282911      -279.8122
  67   2.0000     -10.282325      -279.7963
  68   2.0000     -10.281450      -279.7725
  69   2.0000     -10.280445      -279.7451
  70   2.0000     -10.277742      -279.6716
  71   2.0000     -10.277168      -279.6560
  72   2.0000     -10.271483      -279.5013
  73   2.0000     -10.265254      -279.3318
  74   2.0000      -8.082622      -219.9393
  75   2.0000      -8.074491      -219.7181
  76   2.0000      -8.070622      -219.6128
  77   2.0000      -8.062036      -219.3791
  78   2.0000      -8.061182      -219.3559
  79   2.0000      -6.052079      -164.6854
  80   2.0000      -6.047816      -164.5694
  81   2.0000      -6.044348      -164.4751
  82   2.0000      -6.044228      -164.4718
  83   2.0000      -6.040234      -164.3631
  84   2.0000      -6.040040      -164.3578
  85   2.0000      -6.036211      -164.2537
  86   2.0000      -6.035529      -164.2351
  87   2.0000      -6.031815      -164.1340
  88   2.0000      -6.031752      -164.1323
  89   2.0000      -6.030740      -164.1048
  90   2.0000      -6.027647      -164.0206
  91   2.0000      -6.026503      -163.9895
  92   2.0000      -6.022880      -163.8909
  93   2.0000      -6.022725      -163.8867
  94   2.0000      -1.330324       -36.2000
  95   2.0000      -1.297775       -35.3142
  96   2.0000      -1.282409       -34.8961
  97   2.0000      -1.148876       -31.2625
  98   2.0000      -1.121985       -30.5308
  99   2.0000      -1.112902       -30.2836
 100   2.0000      -1.028667       -27.9915
 101   2.0000      -1.021878       -27.8067
 102   2.0000      -1.015287       -27.6274
 103   2.0000      -1.014218       -27.5983
 104   2.0000      -1.004646       -27.3378
 105   2.0000      -1.003246       -27.2997
 106   2.0000      -0.996470       -27.1153
 107   2.0000      -0.991271       -26.9739
 108   2.0000      -0.989692       -26.9309
 109   2.0000      -0.984248       -26.7827
 110   2.0000      -0.980208       -26.6728
 111   2.0000      -0.972456       -26.4619
 112   2.0000      -0.958117       -26.0717
 113   2.0000      -0.937950       -25.5229
 114   2.0000      -0.928980       -25.2788
 115   2.0000      -0.920711       -25.0538
 116   2.0000      -0.914617       -24.8880
 117   2.0000      -0.910444       -24.7744
 118   2.0000      -0.900715       -24.5097
 119   2.0000      -0.893530       -24.3142
 120   2.0000      -0.885690       -24.1008
 121   2.0000      -0.880869       -23.9697
 122   2.0000      -0.878775       -23.9127
 123   2.0000      -0.874387       -23.7933
 124   2.0000      -0.869298       -23.6548
 125   2.0000      -0.866909       -23.5898
 126   2.0000      -0.857142       -23.3240
 127   2.0000      -0.854587       -23.2545
 128   2.0000      -0.848518       -23.0894
 129   2.0000      -0.840876       -22.8814
 130   2.0000      -0.835817       -22.7437
 131   2.0000      -0.831163       -22.6171
 132   2.0000      -0.823093       -22.3975
 133   2.0000      -0.816243       -22.2111
 134   2.0000      -0.808496       -22.0003
 135   2.0000      -0.796653       -21.6780
 136   2.0000      -0.781936       -21.2776
 137   2.0000      -0.766856       -20.8672
 138   2.0000      -0.757326       -20.6079
 139   2.0000      -0.749463       -20.3939
 140   2.0000      -0.741697       -20.1826
 141   2.0000      -0.730437       -19.8762
 142   2.0000      -0.720755       -19.6127
 143   2.0000      -0.711768       -19.3682
 144   2.0000      -0.706177       -19.2161
 145   2.0000      -0.705394       -19.1947
 146   2.0000      -0.699266       -19.0280
 147   2.0000      -0.691774       -18.8241
 148   2.0000      -0.690855       -18.7991
 149   2.0000      -0.680571       -18.5193
 150   2.0000      -0.676873       -18.4187
 151   2.0000      -0.673656       -18.3311
 152   2.0000      -0.664771       -18.0893
 153   2.0000      -0.660711       -17.9789
 154   2.0000      -0.660301       -17.9677
 155   2.0000      -0.652625       -17.7588
 156   2.0000      -0.645738       -17.5714
 157   2.0000      -0.642484       -17.4829
 158   2.0000      -0.639733       -17.4080
 159   2.0000      -0.638444       -17.3729
 160   2.0000      -0.632917       -17.2225
 161   2.0000      -0.631099       -17.1731
 162   2.0000      -0.626896       -17.0587
 163   2.0000      -0.626559       -17.0495
 164   2.0000      -0.621026       -16.8990
 165   2.0000      -0.618924       -16.8418
 166   2.0000      -0.617485       -16.8026
 167   2.0000      -0.611232       -16.6325
 168   2.0000      -0.609785       -16.5931
 169   2.0000      -0.598054       -16.2739
 170   2.0000      -0.594109       -16.1665
 171   2.0000      -0.590291       -16.0626
 172   2.0000      -0.582683       -15.8556
 173   2.0000      -0.578468       -15.7409
 174   2.0000      -0.575093       -15.6491
 175   2.0000      -0.568578       -15.4718
 176   2.0000      -0.561989       -15.2925
 177   2.0000      -0.558549       -15.1989
 178   2.0000      -0.555493       -15.1157
 179   2.0000      -0.553409       -15.0590
 180   2.0000      -0.550217       -14.9722
 181   2.0000      -0.546843       -14.8803
 182   2.0000      -0.544159       -14.8073
 183   2.0000      -0.542066       -14.7504
 184   2.0000      -0.540385       -14.7046
 185   2.0000      -0.535998       -14.5853
 186   2.0000      -0.531648       -14.4669
 187   2.0000      -0.529431       -14.4066
 188   2.0000      -0.527434       -14.3522
 189   2.0000      -0.526692       -14.3320
 190   2.0000      -0.525441       -14.2980
 191   2.0000      -0.524311       -14.2672
 192   2.0000      -0.520240       -14.1565
 193   2.0000      -0.520189       -14.1551
 194   2.0000      -0.519677       -14.1411
 195   2.0000      -0.517462       -14.0809
 196   2.0000      -0.513801       -13.9812
 197   2.0000      -0.511047       -13.9063
 198   2.0000      -0.507224       -13.8023
 199   2.0000      -0.506182       -13.7739
 200   2.0000      -0.505051       -13.7431
 201   2.0000      -0.504542       -13.7293
 202   2.0000      -0.500116       -13.6088
 203   2.0000      -0.497098       -13.5267
 204   2.0000      -0.495747       -13.4900
 205   2.0000      -0.494422       -13.4539
 206   2.0000      -0.492334       -13.3971
 207   2.0000      -0.492009       -13.3883
 208   2.0000      -0.487141       -13.2558
 209   2.0000      -0.483910       -13.1679
 210   2.0000      -0.480193       -13.0667
 211   2.0000      -0.477062       -12.9815
 212   2.0000      -0.476093       -12.9551
 213   2.0000      -0.475690       -12.9442
 214   2.0000      -0.469800       -12.7839
 215   2.0000      -0.466026       -12.6812
 216   2.0000      -0.464765       -12.6469
 217   2.0000      -0.464227       -12.6323
 218   2.0000      -0.460978       -12.5439
 219   2.0000      -0.455441       -12.3932
 220   2.0000      -0.453772       -12.3478
 221   2.0000      -0.450918       -12.2701
 222   2.0000      -0.447908       -12.1882
 223   2.0000      -0.446156       -12.1405
 224   2.0000      -0.445183       -12.1140
 225   2.0000      -0.441980       -12.0269
 226   2.0000      -0.441035       -12.0012
 227   2.0000      -0.439880       -11.9697
 228   2.0000      -0.438486       -11.9318
 229   2.0000      -0.437947       -11.9171
 230   2.0000      -0.433456       -11.7950
 231   2.0000      -0.431291       -11.7360
 232   2.0000      -0.429497       -11.6872
 233   2.0000      -0.425590       -11.5809
 234   2.0000      -0.424033       -11.5385
 235   2.0000      -0.421658       -11.4739
 236   2.0000      -0.421231       -11.4623
 237   2.0000      -0.419523       -11.4158
 238   2.0000      -0.415504       -11.3064
 239   2.0000      -0.412511       -11.2250
 240   2.0000      -0.409440       -11.1414
 241   2.0000      -0.408034       -11.1032
 242   2.0000      -0.404952       -11.0193
 243   2.0000      -0.398724       -10.8498
 244   2.0000      -0.398251       -10.8370
 245   2.0000      -0.394457       -10.7337
 246   2.0000      -0.387335       -10.5399
 247   2.0000      -0.385365       -10.4863
 248   2.0000      -0.379866       -10.3367
 249   2.0000      -0.375971       -10.2307
 250   2.0000      -0.372036       -10.1236
 251   2.0000      -0.366039        -9.9604
 252   2.0000      -0.365066        -9.9339
 253   2.0000      -0.360186        -9.8012
 254   2.0000      -0.353397        -9.6164
 255   2.0000      -0.351810        -9.5732
 256   2.0000      -0.346852        -9.4383
 257   2.0000      -0.343398        -9.3443
 258   2.0000      -0.332534        -9.0487
 259   2.0000      -0.331215        -9.0128
 260   2.0000      -0.320552        -8.7227
 261   2.0000      -0.313518        -8.5312
 262   2.0000      -0.307412        -8.3651
 263   2.0000      -0.297250        -8.0886
 264   2.0000      -0.293378        -7.9832
 265   2.0000      -0.292078        -7.9478
 266   2.0000      -0.278402        -7.5757
 267   2.0000      -0.249712        -6.7950
 268   2.0000      -0.231336        -6.2950
 269   0.0000      -0.130149        -3.5415
 270   0.0000      -0.102094        -2.7781
 271   0.0000      -0.077778        -2.1164
 272   0.0000      -0.057072        -1.5530
 273   0.0000      -0.053707        -1.4614

MULLIKEN ATOMIC CHARGES
-----------------------
   0 C :   -0.101012
   1 C :    0.303379
   2 F :   -0.191469
   3 C :   -0.028128
   4 C :   -0.014218
   5 C :    0.104192
   6 C :    0.105456
   7 C :   -0.094162
   8 C :    0.045176
   9 C :    0.005113
  10 C :   -0.086892
  11 C :    0.142748
  12 O :   -0.153195
  13 C :   -0.128878
  14 C :    0.285952
  15 C :   -0.341365
  16 C :   -0.176387
  17 N :    0.143862
  18 C :   -0.219495
  19 N :    0.160993
  20 C :    0.022832
  21 C :    0.003798
  22 C :   -0.020281
  23 C :    0.046487
  24 C :    0.036201
  25 C :   -0.052088
  26 S :    0.111418
  27 C :   -0.033914
  28 C :    0.034627
  29 C :    0.040833
  30 C :   -0.038773
  31 S :    0.101167
  32 C :   -0.000632
  33 C :   -0.124414
  34 S :    0.193962
  35 C :   -0.008471
  36 N :    0.295588
  37 O :   -0.228654
  38 O :   -0.245830
  39 C :    0.016300
  40 C :    0.107352
  41 C :   -0.051391
  42 C :   -0.027946
  43 C :    0.046765
  44 C :    0.040131
  45 C :   -0.021225
  46 S :    0.100487
  47 C :   -0.055952
  48 C :    0.044749
  49 C :    0.063024
  50 C :   -0.039646
  51 S :    0.121453
  52 C :   -0.003563
  53 C :    0.025588
  54 C :   -0.135039
  55 C :    0.133418
  56 O :   -0.153972
  57 C :    0.007225
  58 C :   -0.081849
  59 C :    0.094722
  60 C :    0.095769
  61 C :   -0.091147
  62 C :    0.303051
  63 C :   -0.039724
  64 C :   -0.010339
  65 F :   -0.193866
  66 C :   -0.103807
  67 C :    0.064134
  68 C :    0.280376
  69 C :   -0.365147
  70 C :   -0.212750
  71 N :    0.158136
  72 C :   -0.149449
  73 N :    0.131046
  74 H :   -0.003993
  75 H :    0.002016
  76 H :   -0.010238
  77 H :   -0.006247
  78 H :   -0.014429
  79 H :    0.016528
  80 H :    0.012652
  81 H :    0.006652
  82 H :   -0.000471
  83 H :   -0.002232
  84 H :    0.003047
  85 H :    0.006308
  86 H :    0.030629
  87 H :    0.012795
  88 H :    0.000745
  89 H :    0.000031
  90 H :   -0.005117
  91 H :   -0.001977
  92 H :    0.000815
  93 H :    0.026188
  94 H :   -0.018099
  95 H :   -0.023012
  96 H :   -0.003195
  97 H :   -0.015964
  98 H :   -0.005871
Sum of atomic charges:   -0.0000000

LOEWDIN ATOMIC CHARGES
----------------------
   0 C :   -0.042618
   1 C :    0.092052
   2 F :   -0.066245
   3 C :   -0.038349
   4 C :    0.003592
   5 C :   -0.019488
   6 C :    0.002697
   7 C :    0.008052
   8 C :   -0.016065
   9 C :   -0.058042
  10 C :    0.031205
  11 C :    0.078385
  12 O :   -0.154580
  13 C :   -0.095784
  14 C :    0.067637
  15 C :   -0.147760
  16 C :   -0.019820
  17 N :   -0.058206
  18 C :   -0.024481
  19 N :   -0.059907
  20 C :    0.048672
  21 C :   -0.056989
  22 C :   -0.104433
  23 C :   -0.026139
  24 C :   -0.009939
  25 C :   -0.179690
  26 S :    0.404405
  27 C :   -0.159451
  28 C :   -0.030215
  29 C :   -0.016944
  30 C :   -0.144871
  31 S :    0.420563
  32 C :   -0.067446
  33 C :   -0.148159
  34 S :    0.478713
  35 C :   -0.187953
  36 N :    0.280769
  37 O :   -0.197658
  38 O :   -0.211954
  39 C :   -0.001081
  40 C :   -0.066096
  41 C :   -0.053072
  42 C :   -0.141481
  43 C :   -0.008146
  44 C :   -0.028629
  45 C :   -0.145542
  46 S :    0.415785
  47 C :   -0.183024
  48 C :   -0.018064
  49 C :   -0.021891
  50 C :   -0.114334
  51 S :    0.464765
  52 C :   -0.065764
  53 C :    0.038198
  54 C :   -0.100064
  55 C :    0.083127
  56 O :   -0.151094
  57 C :   -0.062535
  58 C :    0.031449
  59 C :   -0.022991
  60 C :    0.003999
  61 C :   -0.040393
  62 C :    0.088280
  63 C :   -0.042699
  64 C :   -0.001193
  65 F :   -0.069161
  66 C :    0.005305
  67 C :   -0.016888
  68 C :    0.042034
  69 C :   -0.165602
  70 C :   -0.029877
  71 N :   -0.064008
  72 C :   -0.012572
  73 N :   -0.071635
  74 H :    0.042652
  75 H :    0.041287
  76 H :    0.035190
  77 H :    0.038598
  78 H :    0.038726
  79 H :    0.035644
  80 H :    0.039787
  81 H :    0.042198
  82 H :    0.037357
  83 H :    0.036822
  84 H :    0.039229
  85 H :    0.040660
  86 H :    0.031937
  87 H :    0.031607
  88 H :    0.038899
  89 H :    0.037937
  90 H :    0.036051
  91 H :    0.038577
  92 H :    0.041843
  93 H :    0.046990
  94 H :    0.037040
  95 H :    0.033190
  96 H :    0.038583
  97 H :    0.032808
  98 H :    0.037729

  Mayer bond orders larger than 0.100000
B(  0-C ,  1-C ) :   1.4372 B(  0-C ,  6-C ) :   1.2034 B(  0-C , 74-H ) :   1.0074
B(  1-C ,  2-F ) :   1.0881 B(  1-C ,  3-C ) :   1.2582 B(  3-C ,  4-C ) :   1.4566
B(  3-C , 75-H ) :   0.9931 B(  4-C ,  5-C ) :   1.2355 B(  4-C , 76-H ) :   0.9977
B(  5-C ,  6-C ) :   1.2608 B(  5-C , 10-C ) :   1.1840 B(  6-C ,  7-C ) :   1.1950
B(  7-C ,  8-C ) :   1.4666 B(  7-C , 77-H ) :   0.9941 B(  8-C ,  9-C ) :   1.2170
B(  8-C , 14-C ) :   0.9912 B(  9-C , 10-C ) :   1.4756 B(  9-C , 11-C ) :   0.9190
B( 10-C , 78-H ) :   1.0164 B( 11-C , 12-O ) :   2.2521 B( 11-C , 13-C ) :   0.9564
B( 13-C , 14-C ) :   1.0790 B( 13-C , 20-C ) :   1.5502 B( 14-C , 15-C ) :   1.6100
B( 15-C , 16-C ) :   1.1358 B( 15-C , 18-C ) :   1.1634 B( 16-C , 17-N ) :   2.9761
B( 18-C , 19-N ) :   3.0128 B( 20-C , 21-C ) :   1.2066 B( 20-C , 79-H ) :   0.9391
B( 21-C , 22-C ) :   1.5178 B( 21-C , 80-H ) :   0.9608 B( 22-C , 23-C ) :   1.1733
B( 22-C , 26-S ) :   1.0747 B( 23-C , 24-C ) :   1.5547 B( 23-C , 81-H ) :   1.0004
B( 24-C , 25-C ) :   1.2116 B( 24-C , 82-H ) :   0.9947 B( 25-C , 26-S ) :   1.0514
B( 25-C , 27-C ) :   1.4700 B( 27-C , 28-C ) :   1.1980 B( 27-C , 31-S ) :   1.0602
B( 28-C , 29-C ) :   1.5734 B( 28-C , 83-H ) :   0.9942 B( 29-C , 30-C ) :   1.1560
B( 29-C , 84-H ) :   0.9997 B( 30-C , 31-S ) :   1.0426 B( 30-C , 32-C ) :   1.5704
B( 32-C , 33-C ) :   1.2082 B( 32-C , 85-H ) :   0.9433 B( 33-C , 34-S ) :   1.1242
B( 33-C , 40-C ) :   1.3304 B( 34-S , 35-C ) :   1.1086 B( 35-C , 36-N ) :   0.9557
B( 35-C , 39-C ) :   1.5176 B( 36-N , 37-O ) :   1.4901 B( 36-N , 38-O ) :   1.5267
B( 37-O , 38-O ) :   0.2590 B( 39-C , 40-C ) :   1.2150 B( 39-C , 86-H ) :   0.9690
B( 40-C , 41-C ) :   1.1381 B( 41-C , 42-C ) :   1.6072 B( 41-C , 87-H ) :   0.9517
B( 42-C , 43-C ) :   1.1335 B( 42-C , 46-S ) :   1.0472 B( 43-C , 44-C ) :   1.5971
B( 43-C , 88-H ) :   0.9994 B( 44-C , 45-C ) :   1.1776 B( 44-C , 89-H ) :   0.9936
B( 45-C , 46-S ) :   1.0779 B( 45-C , 47-C ) :   1.4941 B( 47-C , 48-C ) :   1.1862
B( 47-C , 51-S ) :   1.0380 B( 48-C , 49-C ) :   1.5891 B( 48-C , 90-H ) :   0.9910
B( 49-C , 50-C ) :   1.1492 B( 49-C , 91-H ) :   0.9967 B( 50-C , 51-S ) :   1.1052
B( 50-C , 52-C ) :   1.4812 B( 52-C , 53-C ) :   1.2979 B( 52-C , 92-H ) :   0.9528
B( 53-C , 54-C ) :   1.5165 B( 53-C , 93-H ) :   0.9228 B( 54-C , 55-C ) :   0.9473
B( 54-C , 68-C ) :   1.1149 B( 55-C , 56-O ) :   2.2476 B( 55-C , 57-C ) :   0.9263
B( 57-C , 58-C ) :   1.4800 B( 57-C , 67-C ) :   1.2074 B( 58-C , 59-C ) :   1.1830
B( 58-C , 94-H ) :   1.0145 B( 59-C , 60-C ) :   1.2527 B( 59-C , 64-C ) :   1.2392
B( 60-C , 61-C ) :   1.2168 B( 60-C , 66-C ) :   1.2010 B( 61-C , 62-C ) :   1.4294
B( 61-C , 95-H ) :   0.9877 B( 62-C , 63-C ) :   1.2552 B( 62-C , 65-F ) :   1.0885
B( 63-C , 64-C ) :   1.4540 B( 63-C , 96-H ) :   0.9927 B( 64-C , 97-H ) :   0.9963
B( 66-C , 67-C ) :   1.4565 B( 66-C , 98-H ) :   0.9987 B( 67-C , 68-C ) :   1.0035
B( 68-C , 69-C ) :   1.5536 B( 69-C , 70-C ) :   1.1675 B( 69-C , 72-C ) :   1.1446
B( 70-C , 71-N ) :   3.0079 B( 72-C , 73-N ) :   2.9261

-----------------------------------------------------------------------------
         ABSORPTION SPECTRUM VIA TRANSITION ELECTRIC DIPOLE MOMENTS
-----------------------------------------------------------------------------
State   Energy  Wavelength   fosc         T2         TX        TY        TZ
        (cm-1)    (nm)                  (au**2)     (au)      (au)      (au)
-----------------------------------------------------------------------------
   0    8666.3   1153.9   0.693134264  26.33049   3.52737   2.84772   2.40389
   1   12821.5    779.9   0.305017381   7.83177   0.37769   2.62928   0.88093
   2   13881.9    720.4   0.649235921  15.39677   2.38884  -3.09329  -0.34899
   3   18164.2    550.5   0.289144466   5.24052  -0.03722  -2.28781  -0.07113
   4   19947.0    501.3   0.059182102   0.97676   0.82000   0.49862   0.23609
   5   20277.7    493.2   0.031033712   0.50384   0.70052  -0.02784  -0.11108
   6   22503.4    444.4   0.063981943   0.93602  -0.48552   0.77888  -0.30601
   7   22920.2    436.3   0.022001465   0.31602   0.16988  -0.49737   0.19945
   8   23115.4    432.6   0.233936299   3.33175  -0.85224   1.48160  -0.64055
   9   23544.6    424.7   0.030044544   0.42010   0.50902   0.38995   0.09450
  10   23822.2    419.8   0.138716332   1.91699   0.54637  -1.24490  -0.26209
  11   24371.6    410.3   0.012626389   0.17056   0.02689  -0.36958   0.18232
  12   24823.1    402.9   0.021658363   0.28724   0.36350   0.33816   0.20189
  13   25090.1    398.6   0.211708829   2.77787  -1.06138   1.27502   0.16020
  14   26078.5    383.5   0.122585292   1.54750   0.80412   0.93014  -0.18902
  15   26217.1    381.4   0.201841819   2.53456  -1.41932   0.72028  -0.03574
  16   26805.4    373.1   0.125376619   1.53982  -1.11126   0.40792   0.37219
  17   27076.6    369.3   0.057903910   0.70403  -0.50621   0.66572   0.06777
  18   27785.4    359.9   0.114001619   1.35073  -0.08594  -1.12046   0.29649
  19   27862.1    358.9   0.110949815   1.31096  -0.08018   1.13766  -0.10131
  20   28688.9    348.6   0.312279718   3.58349   0.51213   1.81835  -0.12165
  21   29173.9    342.8   0.139570731   1.57498   0.70451  -1.03117  -0.12388
  22   29274.1    341.6   0.019990750   0.22481  -0.07545   0.34734   0.31380
  23   29660.7    337.1   0.052826132   0.58633   0.72794  -0.23159  -0.05288
  24   30101.2    332.2   0.013189142   0.14425   0.19036  -0.21231  -0.25087
  25   30935.5    323.3   0.012734450   0.13552   0.07183   0.07230   0.35374
  26   30975.6    322.8   0.131543714   1.39806   0.50122   1.03341  -0.28089
  27   31359.0    318.9   0.132825382   1.39442   0.14450   0.78288  -0.87215
  28   31529.4    317.2   0.162870171   1.70059  -0.76792  -0.89474   0.55707
  29   31672.0    315.7   0.150767680   1.56714  -0.05403  -1.03643   0.70002
  30   31856.0    313.9   0.106103328   1.09651  -0.61826   0.69152   0.48587
  31   32169.9    310.8   0.272146019   2.78502   0.42921  -1.59587   0.23239
  32   32575.8    307.0   0.043194210   0.43652  -0.39902   0.01595   0.52635
  33   32933.0    303.6   0.024104298   0.24096  -0.26791   0.41106   0.01450
  34   33099.5    302.1   0.005551806   0.05522  -0.00006   0.14554  -0.18450
  35   33528.2    298.3   0.147039501   1.44377  -0.60570  -0.53262   0.89062
  36   33709.4    296.7   0.090494085   0.88378   0.92435  -0.16973  -0.02336
  37   33752.1    296.3   0.007967798   0.07772   0.08675   0.03356  -0.26280
  38   34028.9    293.9   0.086571766   0.83754   0.89052   0.20910  -0.02795
  39   34136.6    292.9   0.066502399   0.64135  -0.40783  -0.60630   0.32774
  40   34429.4    290.4   0.080413671   0.76891   0.83736  -0.13189  -0.22436
  41   34632.1    288.7   0.047906224   0.45540  -0.64863  -0.03957   0.18195
  42   34859.6    286.9   0.012414335   0.11724   0.22007  -0.16053  -0.20746
  43   34968.7    286.0   0.071941998   0.67730  -0.15593   0.79337   0.15347
  44   35127.3    284.7   0.145262633   1.36140  -0.89935   0.56225   0.48625
  45   35330.1    283.0   0.060165297   0.56063  -0.30826   0.59794  -0.32874
  46   35619.1    280.7   0.250928556   2.31923   0.91226   0.73094  -0.97608
  47   35784.1    279.5   0.005115414   0.04706   0.16911   0.09898  -0.09308
  48   36097.3    277.0   0.021518494   0.19625   0.33955   0.02015  -0.28382
  49   36147.1    276.6   0.036635705   0.33366   0.25963   0.50418  -0.10980
  50   36382.1    274.9   0.192522055   1.74208   1.11464   0.28867  -0.64524
  51   36521.0    273.8   0.063907093   0.57608  -0.52696   0.49096   0.23948
  52   36725.3    272.3   0.002858857   0.02563  -0.11641   0.10309   0.03806
  53   36909.0    270.9   0.047845819   0.42676   0.44932   0.04727   0.47185
  54   37233.3    268.6   0.049817936   0.44048   0.59106  -0.22028  -0.20643
  55   37426.8    267.2   0.202205835   1.77864   1.28346   0.01553  -0.36210
  56   37721.6    265.1   0.151824436   1.32503  -0.28511  -1.00440   0.48469
  57   37945.3    263.5   0.233059240   2.02201  -1.23227   0.20099   0.68053
  58   38557.1    259.4   0.012813954   0.10941   0.28288   0.00207  -0.17142
  59   38808.6    257.7   0.191035494   1.62055  -1.23309   0.30158  -0.09538
  60   38926.0    256.9   0.028523349   0.24123  -0.45540   0.04193  -0.17912
  61   39102.6    255.7   0.015627726   0.13157   0.26781  -0.20385  -0.13527
  62   39172.0    255.3   0.019547499   0.16428  -0.38698   0.11311  -0.04170
  63   39446.6    253.5   0.027670972   0.23094  -0.42227   0.19661   0.11820
  64   39801.4    251.2   0.035562333   0.29415   0.02427  -0.51766   0.15995
  65   39920.6    250.5   0.026708393   0.22026   0.24469   0.18632   0.35449
  66   40006.0    250.0   0.005764873   0.04744  -0.19706  -0.03804   0.08462
  67   40196.6    248.8   0.103210126   0.84530  -0.33411  -0.84424   0.14463

FINAL SINGLE POINT ENERGY     -4985.919990913471

DIPOLE MOMENT
-------------
                                X             Y             Z
Electronic contribution:     -3.73799      -9.12124       1.46531
Nuclear contribution   :      6.29877       8.55742       0.17447
                        -----------------------------------------
Total Dipole Moment    :      2.56077      -0.56382       1.63978
                        -----------------------------------------
Magnitude (a.u.)       :      3.09263
Magnitude (Debye)      :      7.86083

Rotational constants in cm-1:     0.000958     0.000389     0.000315
Rotational constants in MHz :    28.715708    11.655577     9.448702

                             ****ORCA TERMINATED NORMALLY****
TOTAL RUN TIME: 0 days 0 hours 11 minutes 47 seconds 522 msec
