                         Program Version 4.2.0 -  RELEASE  -
|  1> # ORCA input file
|  2> # SCF done       -191.345225094903          0.000683897328
|  3> ! CAM-B3LYP def2-SVP def2/J RIJCOSX Grid4 TightSCF
|  4> %maxcore 5000
|  5> %tddft
|  6>     Mode sTDDFT
|  7>     Ethresh 5.0
|  8>     maxcore 5000
|  9> end
| 10>
| 11> %pal
| 12>   nprocs 6
| 13>   end
| 14> * xyz 0 1
| 15>    C        3.43702         4.93810        -6.81618
| 16>    C        2.44115         5.87367        -6.86472
| 17>    F        2.42752         6.77360        -7.86445
| 18>    C        1.42191         5.93739        -5.90494
| 19>    C        1.42150         5.03199        -4.88039
| 20>    C        2.42517         4.04694        -4.78062
| 21>    C        3.45203         3.99683        -5.76848
| 22>    C        4.46471         3.01218        -5.69427
| 23>    C        4.45428         2.11364        -4.66129
| 24>    C        3.43204         2.17765        -3.66964
| 25>    C        2.43718         3.11076        -3.72236
| 26>    C        3.66488         1.12887        -2.65906
| 27>    O        2.98419         0.85334        -1.69996
| 28>    C        4.97377         0.51236        -3.03508
| 29>    C        5.32762         0.98768        -4.35321
| 30>    C        6.18508         0.37483        -5.22929
| 31>    C        6.76822        -0.88576        -4.99111
| 32>    N        7.24416        -1.92097        -4.85122
| 33>    C        6.57872         0.92630        -6.46202
| 34>    N        6.99976         1.36110        -7.43845
| 35>    C        5.64136        -0.21722        -2.10704
| 36>    C        7.01943        -0.60325        -2.04926
| 37>    C        7.41498        -1.65698        -1.22982
| 38>    F        6.48238        -2.33893        -0.54855
| 39>    C        8.74476        -2.07927        -1.08934
| 40>    F        8.97052        -3.15232        -0.30504
| 41>    C        9.80604        -1.47438        -1.73779
| 42>    C        9.43958        -0.40628        -2.57926
| 43>    C        8.09071         0.03865        -2.71664
| 44>    N        8.10996         1.09828        -3.53697
| 45>    N        9.36742         1.23828        -3.86285
| 46>    N       10.20534         0.39542        -3.33557
| 47>    C        9.78911         2.25304        -4.77806
| 48>    C       11.19028        -1.89813        -1.60339
| 49>    C       11.82135        -2.11859        -0.44916
| 50>    C       11.23764        -1.86439         0.90380
| 51>    C       13.25135        -2.61297        -0.41817
| 52>    N       13.65655        -3.36837        -1.57628
| 53>    C       13.19638        -4.60587        -1.85227
| 54>    C       12.17061        -5.23068        -1.20875
| 55>    C       11.82264        -6.56543        -1.47699
| 56>    C       10.75270        -7.22912        -0.92887
| 57>    C        9.69645        -6.73440        -0.12777
| 58>    C        8.78536        -7.68050         0.23496
| 59>    C        9.08410        -8.97983        -0.23429
| 60>    S       10.53539        -8.95896        -1.19210
| 61>    C        8.38033       -10.15053         0.00981
| 62>    C        7.17511       -10.30310         0.72419
| 63>    C        6.75339       -11.59877         0.79348
| 64>    C        7.62059       -12.52945         0.17229
| 65>    S        8.97312       -11.70418        -0.52491
| 66>    C        7.33577       -13.88633         0.04990
| 67>    C        8.07421       -14.92218        -0.49933
| 68>    C        9.44601       -15.03117        -0.71295
| 69>    C       10.08104       -16.05361        -1.50142
| 70>    C        9.46845       -16.92943        -2.36907
| 71>    C       10.15203       -17.90648        -3.11657
| 72>    N       10.65269       -18.72640        -3.74746
| 73>    C        8.08998       -16.95775        -2.65655
| 74>    N        6.98612       -17.03834        -2.96722
| 75>    C       11.52531       -15.95500        -1.28902
| 76>    C       11.77034       -14.87735        -0.40574
| 77>    C       10.47795       -14.27896        -0.00673
| 78>    O       10.32897       -13.38135         0.80988
| 79>    C       13.03216       -14.51731        -0.00752
| 80>    C       14.10983       -15.25850        -0.50814
| 81>    C       13.85544       -16.33450        -1.38632
| 82>    C       12.57477       -16.69892        -1.78954
| 83>    S       15.32770       -17.12039        -1.87811
| 84>    C       16.24985       -16.00229        -0.90987
| 85>    C       15.49880       -15.08914        -0.25171
| 86>   Br       18.12111       -16.14472        -0.85754
| 87>    H        4.20336         4.91736        -7.57525
| 88>    H        0.66199         6.69718        -5.99536
| 89>    H        0.64691         5.06064        -4.12893
| 90>    H        5.23120         2.99802        -6.45307
| 91>    H        1.66771         3.13544        -2.96536
| 92>    H        5.04810        -0.50389        -1.24311
| 93>    H        9.51719         3.23571        -4.39205
| 94>    H        9.29672         2.10814        -5.74133
| 95>    H       10.86737         2.17614        -4.89275
| 96>    H       11.72048        -2.00165        -2.54016
| 97>    H       10.38549        -1.19258         0.84890
| 98>    H       11.99050        -1.42390         1.55558
| 99>    H       10.90606        -2.79651         1.36135
|100>    H       13.37293        -3.24132         0.47369
|101>    H       13.92394        -1.75644        -0.31457
|102>    H       14.36122        -2.97511        -2.17581
|103>    H       13.71080        -5.11463        -2.65661
|104>    H       11.60107        -4.69708        -0.46613
|105>    H       12.46338        -7.12416        -2.14645
|106>    H        9.61559        -5.69498         0.13377
|107>    H        7.91515        -7.48078         0.83337
|108>    H        6.65096        -9.47041         1.15730
|109>    H        5.85223       -11.91753         1.28717
|110>    H        6.33410       -14.15063         0.37089
|111>    H        7.49157       -15.79994        -0.75473
|112>    H       13.18690       -13.69006         0.66732
|113>    H       12.43378       -17.53099        -2.45885
|114>    H       15.90393       -14.32798         0.39000
|115> *
|116>
|117>                          ****END OF INPUT****

CARTESIAN COORDINATES (ANGSTROEM)
---------------------------------
  C      3.437020    4.938100   -6.816180
  C      2.441150    5.873670   -6.864720
  F      2.427520    6.773600   -7.864450
  C      1.421910    5.937390   -5.904940
  C      1.421500    5.031990   -4.880390
  C      2.425170    4.046940   -4.780620
  C      3.452030    3.996830   -5.768480
  C      4.464710    3.012180   -5.694270
  C      4.454280    2.113640   -4.661290
  C      3.432040    2.177650   -3.669640
  C      2.437180    3.110760   -3.722360
  C      3.664880    1.128870   -2.659060
  O      2.984190    0.853340   -1.699960
  C      4.973770    0.512360   -3.035080
  C      5.327620    0.987680   -4.353210
  C      6.185080    0.374830   -5.229290
  C      6.768220   -0.885760   -4.991110
  N      7.244160   -1.920970   -4.851220
  C      6.578720    0.926300   -6.462020
  N      6.999760    1.361100   -7.438450
  C      5.641360   -0.217220   -2.107040
  C      7.019430   -0.603250   -2.049260
  C      7.414980   -1.656980   -1.229820
  F      6.482380   -2.338930   -0.548550
  C      8.744760   -2.079270   -1.089340
  F      8.970520   -3.152320   -0.305040
  C      9.806040   -1.474380   -1.737790
  C      9.439580   -0.406280   -2.579260
  C      8.090710    0.038650   -2.716640
  N      8.109960    1.098280   -3.536970
  N      9.367420    1.238280   -3.862850
  N     10.205340    0.395420   -3.335570
  C      9.789110    2.253040   -4.778060
  C     11.190280   -1.898130   -1.603390
  C     11.821350   -2.118590   -0.449160
  C     11.237640   -1.864390    0.903800
  C     13.251350   -2.612970   -0.418170
  N     13.656550   -3.368370   -1.576280
  C     13.196380   -4.605870   -1.852270
  C     12.170610   -5.230680   -1.208750
  C     11.822640   -6.565430   -1.476990
  C     10.752700   -7.229120   -0.928870
  C      9.696450   -6.734400   -0.127770
  C      8.785360   -7.680500    0.234960
  C      9.084100   -8.979830   -0.234290
  S     10.535390   -8.958960   -1.192100
  C      8.380330  -10.150530    0.009810
  C      7.175110  -10.303100    0.724190
  C      6.753390  -11.598770    0.793480
  C      7.620590  -12.529450    0.172290
  S      8.973120  -11.704180   -0.524910
  C      7.335770  -13.886330    0.049900
  C      8.074210  -14.922180   -0.499330
  C      9.446010  -15.031170   -0.712950
  C     10.081040  -16.053610   -1.501420
  C      9.468450  -16.929430   -2.369070
  C     10.152030  -17.906480   -3.116570
  N     10.652690  -18.726400   -3.747460
  C      8.089980  -16.957750   -2.656550
  N      6.986120  -17.038340   -2.967220
  C     11.525310  -15.955000   -1.289020
  C     11.770340  -14.877350   -0.405740
  C     10.477950  -14.278960   -0.006730
  O     10.328970  -13.381350    0.809880
  C     13.032160  -14.517310   -0.007520
  C     14.109830  -15.258500   -0.508140
  C     13.855440  -16.334500   -1.386320
  C     12.574770  -16.698920   -1.789540
  S     15.327700  -17.120390   -1.878110
  C     16.249850  -16.002290   -0.909870
  C     15.498800  -15.089140   -0.251710
  Br    18.121110  -16.144720   -0.857540
  H      4.203360    4.917360   -7.575250
  H      0.661990    6.697180   -5.995360
  H      0.646910    5.060640   -4.128930
  H      5.231200    2.998020   -6.453070
  H      1.667710    3.135440   -2.965360
  H      5.048100   -0.503890   -1.243110
  H      9.517190    3.235710   -4.392050
  H      9.296720    2.108140   -5.741330
  H     10.867370    2.176140   -4.892750
  H     11.720480   -2.001650   -2.540160
  H     10.385490   -1.192580    0.848900
  H     11.990500   -1.423900    1.555580
  H     10.906060   -2.796510    1.361350
  H     13.372930   -3.241320    0.473690
  H     13.923940   -1.756440   -0.314570
  H     14.361220   -2.975110   -2.175810
  H     13.710800   -5.114630   -2.656610
  H     11.601070   -4.697080   -0.466130
  H     12.463380   -7.124160   -2.146450
  H      9.615590   -5.694980    0.133770
  H      7.915150   -7.480780    0.833370
  H      6.650960   -9.470410    1.157300
  H      5.852230  -11.917530    1.287170
  H      6.334100  -14.150630    0.370890
  H      7.491570  -15.799940   -0.754730
  H     13.186900  -13.690060    0.667320
  H     12.433780  -17.530990   -2.458850
  H     15.903930  -14.327980    0.390000

 Total Charge           Charge          ....    0
 Multiplicity           Mult            ....    1
 Number of Electrons    NEL             ....  540
 Basis Dimension        Dim             .... 1178

ORBITAL ENERGIES
----------------

  NO   OCC          E(Eh)            E(eV)
   0   2.0000    -482.868237    -13139.5127
   1   2.0000     -88.953104     -2420.5370
   2   2.0000     -88.952664     -2420.5251
   3   2.0000     -88.943139     -2420.2659
   4   2.0000     -62.545960     -1701.9621
   5   2.0000     -56.379877     -1534.1745
   6   2.0000     -56.377223     -1534.1022
   7   2.0000     -56.377176     -1534.1010
   8   2.0000     -24.817450      -675.3171
   9   2.0000     -24.815581      -675.2663
  10   2.0000     -24.791962      -674.6236
  11   2.0000     -19.222842      -523.0801
  12   2.0000     -19.177840      -521.8556
  13   2.0000     -14.565308      -396.3422
  14   2.0000     -14.470704      -393.7679
  15   2.0000     -14.468491      -393.7077
  16   2.0000     -14.461954      -393.5298
  17   2.0000     -14.429022      -392.6336
  18   2.0000     -14.421895      -392.4397
  19   2.0000     -14.382401      -391.3650
  20   2.0000     -14.380632      -391.3169
  21   2.0000     -10.401092      -283.0281
  22   2.0000     -10.391091      -282.7560
  23   2.0000     -10.376122      -282.3486
  24   2.0000     -10.373429      -282.2753
  25   2.0000     -10.350140      -281.6416
  26   2.0000     -10.346142      -281.5328
  27   2.0000     -10.344599      -281.4909
  28   2.0000     -10.342223      -281.4262
  29   2.0000     -10.337271      -281.2915
  30   2.0000     -10.336780      -281.2781
  31   2.0000     -10.331415      -281.1321
  32   2.0000     -10.331370      -281.1309
  33   2.0000     -10.329249      -281.0731
  34   2.0000     -10.328446      -281.0513
  35   2.0000     -10.327345      -281.0214
  36   2.0000     -10.327098      -281.0146
  37   2.0000     -10.324393      -280.9410
  38   2.0000     -10.324212      -280.9361
  39   2.0000     -10.323770      -280.9241
  40   2.0000     -10.313211      -280.6367
  41   2.0000     -10.312880      -280.6277
  42   2.0000     -10.311926      -280.6018
  43   2.0000     -10.308230      -280.5012
  44   2.0000     -10.308118      -280.4981
  45   2.0000     -10.307760      -280.4884
  46   2.0000     -10.307680      -280.4862
  47   2.0000     -10.307143      -280.4716
  48   2.0000     -10.304908      -280.4108
  49   2.0000     -10.304855      -280.4094
  50   2.0000     -10.304617      -280.4029
  51   2.0000     -10.304208      -280.3918
  52   2.0000     -10.302986      -280.3585
  53   2.0000     -10.300669      -280.2955
  54   2.0000     -10.298116      -280.2260
  55   2.0000     -10.297632      -280.2128
  56   2.0000     -10.297409      -280.2067
  57   2.0000     -10.296721      -280.1880
  58   2.0000     -10.296265      -280.1756
  59   2.0000     -10.295631      -280.1584
  60   2.0000     -10.290107      -280.0080
  61   2.0000     -10.289852      -280.0011
  62   2.0000     -10.287228      -279.9297
  63   2.0000     -10.285395      -279.8798
  64   2.0000     -10.281546      -279.7751
  65   2.0000     -10.280837      -279.7558
  66   2.0000     -10.280647      -279.7506
  67   2.0000     -10.276820      -279.6465
  68   2.0000     -10.276220      -279.6302
  69   2.0000     -10.275611      -279.6136
  70   2.0000     -10.273966      -279.5688
  71   2.0000     -10.271460      -279.5006
  72   2.0000     -10.268616      -279.4233
  73   2.0000     -10.260769      -279.2097
  74   2.0000     -10.258044      -279.1356
  75   2.0000     -10.252557      -278.9863
  76   2.0000      -8.775384      -238.7903
  77   2.0000      -8.049576      -219.0401
  78   2.0000      -8.048552      -219.0122
  79   2.0000      -8.038156      -218.7293
  80   2.0000      -6.611539      -179.9091
  81   2.0000      -6.597161      -179.5179
  82   2.0000      -6.597052      -179.5149
  83   2.0000      -6.019211      -163.7911
  84   2.0000      -6.018285      -163.7659
  85   2.0000      -6.015165      -163.6810
  86   2.0000      -6.013979      -163.6487
  87   2.0000      -6.010643      -163.5579
  88   2.0000      -6.009792      -163.5348
  89   2.0000      -6.007568      -163.4742
  90   2.0000      -6.003272      -163.3573
  91   2.0000      -6.000056      -163.2698
  92   2.0000      -2.727426       -74.2170
  93   2.0000      -2.723391       -74.1072
  94   2.0000      -2.723303       -74.1049
  95   2.0000      -2.711878       -73.7939
  96   2.0000      -2.711852       -73.7933
  97   2.0000      -1.339033       -36.4369
  98   2.0000      -1.321306       -35.9546
  99   2.0000      -1.306932       -35.5634
 100   2.0000      -1.243253       -33.8306
 101   2.0000      -1.138349       -30.9761
 102   2.0000      -1.091317       -29.6962
 103   2.0000      -1.068031       -29.0626
 104   2.0000      -1.029922       -28.0256
 105   2.0000      -1.015568       -27.6350
 106   2.0000      -1.012273       -27.5454
 107   2.0000      -1.008493       -27.4425
 108   2.0000      -1.001895       -27.2630
 109   2.0000      -0.997902       -27.1543
 110   2.0000      -0.995077       -27.0774
 111   2.0000      -0.982921       -26.7467
 112   2.0000      -0.981970       -26.7208
 113   2.0000      -0.971183       -26.4272
 114   2.0000      -0.960792       -26.1445
 115   2.0000      -0.957637       -26.0586
 116   2.0000      -0.951604       -25.8945
 117   2.0000      -0.943071       -25.6623
 118   2.0000      -0.932825       -25.3835
 119   2.0000      -0.917863       -24.9763
 120   2.0000      -0.915211       -24.9042
 121   2.0000      -0.910840       -24.7852
 122   2.0000      -0.897989       -24.4355
 123   2.0000      -0.891540       -24.2600
 124   2.0000      -0.884601       -24.0712
 125   2.0000      -0.879075       -23.9208
 126   2.0000      -0.866308       -23.5734
 127   2.0000      -0.860071       -23.4037
 128   2.0000      -0.857473       -23.3330
 129   2.0000      -0.848035       -23.0762
 130   2.0000      -0.844516       -22.9805
 131   2.0000      -0.841666       -22.9029
 132   2.0000      -0.836992       -22.7757
 133   2.0000      -0.822458       -22.3802
 134   2.0000      -0.820245       -22.3200
 135   2.0000      -0.814868       -22.1737
 136   2.0000      -0.802985       -21.8503
 137   2.0000      -0.799851       -21.7651
 138   2.0000      -0.793250       -21.5854
 139   2.0000      -0.774363       -21.0715
 140   2.0000      -0.768490       -20.9117
 141   2.0000      -0.761485       -20.7211
 142   2.0000      -0.753799       -20.5119
 143   2.0000      -0.746428       -20.3113
 144   2.0000      -0.731313       -19.9000
 145   2.0000      -0.726429       -19.7671
 146   2.0000      -0.716534       -19.4979
 147   2.0000      -0.715098       -19.4588
 148   2.0000      -0.712015       -19.3749
 149   2.0000      -0.694468       -18.8974
 150   2.0000      -0.688789       -18.7429
 151   2.0000      -0.686320       -18.6757
 152   2.0000      -0.683532       -18.5998
 153   2.0000      -0.674765       -18.3613
 154   2.0000      -0.667199       -18.1554
 155   2.0000      -0.665357       -18.1053
 156   2.0000      -0.664330       -18.0773
 157   2.0000      -0.657324       -17.8867
 158   2.0000      -0.646010       -17.5788
 159   2.0000      -0.645594       -17.5675
 160   2.0000      -0.644757       -17.5447
 161   2.0000      -0.637390       -17.3443
 162   2.0000      -0.633973       -17.2513
 163   2.0000      -0.631946       -17.1961
 164   2.0000      -0.629603       -17.1324
 165   2.0000      -0.628584       -17.1046
 166   2.0000      -0.626293       -17.0423
 167   2.0000      -0.615516       -16.7490
 168   2.0000      -0.611522       -16.6404
 169   2.0000      -0.608603       -16.5609
 170   2.0000      -0.602574       -16.3969
 171   2.0000      -0.599237       -16.3061
 172   2.0000      -0.593548       -16.1513
 173   2.0000      -0.592397       -16.1199
 174   2.0000      -0.591008       -16.0822
 175   2.0000      -0.588453       -16.0126
 176   2.0000      -0.579217       -15.7613
 177   2.0000      -0.572887       -15.5890
 178   2.0000      -0.568740       -15.4762
 179   2.0000      -0.567279       -15.4364
 180   2.0000      -0.565164       -15.3789
 181   2.0000      -0.564535       -15.3618
 182   2.0000      -0.561532       -15.2801
 183   2.0000      -0.556971       -15.1559
 184   2.0000      -0.552000       -15.0207
 185   2.0000      -0.551093       -14.9960
 186   2.0000      -0.546307       -14.8658
 187   2.0000      -0.541748       -14.7417
 188   2.0000      -0.539536       -14.6815
 189   2.0000      -0.533816       -14.5259
 190   2.0000      -0.530535       -14.4366
 191   2.0000      -0.527030       -14.3412
 192   2.0000      -0.525493       -14.2994
 193   2.0000      -0.524812       -14.2809
 194   2.0000      -0.523405       -14.2426
 195   2.0000      -0.520339       -14.1591
 196   2.0000      -0.519198       -14.1281
 197   2.0000      -0.516073       -14.0431
 198   2.0000      -0.512100       -13.9350
 199   2.0000      -0.511331       -13.9140
 200   2.0000      -0.506189       -13.7741
 201   2.0000      -0.504973       -13.7410
 202   2.0000      -0.504461       -13.7271
 203   2.0000      -0.502782       -13.6814
 204   2.0000      -0.498752       -13.5717
 205   2.0000      -0.496903       -13.5214
 206   2.0000      -0.494071       -13.4444
 207   2.0000      -0.492786       -13.4094
 208   2.0000      -0.490001       -13.3336
 209   2.0000      -0.489622       -13.3233
 210   2.0000      -0.487029       -13.2527
 211   2.0000      -0.484647       -13.1879
 212   2.0000      -0.482618       -13.1327
 213   2.0000      -0.481040       -13.0898
 214   2.0000      -0.474210       -12.9039
 215   2.0000      -0.471752       -12.8370
 216   2.0000      -0.470524       -12.8036
 217   2.0000      -0.466550       -12.6955
 218   2.0000      -0.465925       -12.6785
 219   2.0000      -0.465589       -12.6693
 220   2.0000      -0.462365       -12.5816
 221   2.0000      -0.460712       -12.5366
 222   2.0000      -0.458416       -12.4741
 223   2.0000      -0.454959       -12.3801
 224   2.0000      -0.452057       -12.3011
 225   2.0000      -0.448808       -12.2127
 226   2.0000      -0.445849       -12.1322
 227   2.0000      -0.445155       -12.1133
 228   2.0000      -0.442213       -12.0332
 229   2.0000      -0.438687       -11.9373
 230   2.0000      -0.436270       -11.8715
 231   2.0000      -0.432990       -11.7823
 232   2.0000      -0.431021       -11.7287
 233   2.0000      -0.429860       -11.6971
 234   2.0000      -0.425908       -11.5895
 235   2.0000      -0.424398       -11.5485
 236   2.0000      -0.421353       -11.4656
 237   2.0000      -0.417872       -11.3709
 238   2.0000      -0.417498       -11.3607
 239   2.0000      -0.415917       -11.3177
 240   2.0000      -0.414149       -11.2696
 241   2.0000      -0.411415       -11.1952
 242   2.0000      -0.402525       -10.9533
 243   2.0000      -0.401367       -10.9217
 244   2.0000      -0.394811       -10.7434
 245   2.0000      -0.392728       -10.6867
 246   2.0000      -0.392046       -10.6681
 247   2.0000      -0.389986       -10.6121
 248   2.0000      -0.385801       -10.4982
 249   2.0000      -0.380825       -10.3628
 250   2.0000      -0.375923       -10.2294
 251   2.0000      -0.366440        -9.9713
 252   2.0000      -0.363792        -9.8993
 253   2.0000      -0.358478        -9.7547
 254   2.0000      -0.357976        -9.7410
 255   2.0000      -0.351521        -9.5654
 256   2.0000      -0.342774        -9.3274
 257   2.0000      -0.341886        -9.3032
 258   2.0000      -0.338140        -9.2012
 259   2.0000      -0.335524        -9.1301
 260   2.0000      -0.320647        -8.7252
 261   2.0000      -0.316626        -8.6158
 262   2.0000      -0.312012        -8.4903
 263   2.0000      -0.304633        -8.2895
 264   2.0000      -0.298066        -8.1108
 265   2.0000      -0.294960        -8.0263
 266   2.0000      -0.282432        -7.6854
 267   2.0000      -0.272310        -7.4099
 268   2.0000      -0.262733        -7.1493
 269   2.0000      -0.211702        -5.7607
 270   0.0000      -0.105649        -2.8748
 271   0.0000      -0.088776        -2.4157
 272   0.0000      -0.064123        -1.7449
 273   0.0000      -0.046696        -1.2707
 274   0.0000      -0.042635        -1.1602

MULLIKEN ATOMIC CHARGES
-----------------------
   0 C :   -0.099453
   1 C :    0.303023
   2 F :   -0.190049
   3 C :   -0.031263
   4 C :   -0.009008
   5 C :    0.098617
   6 C :    0.106206
   7 C :   -0.097343
   8 C :    0.054474
   9 C :    0.000277
  10 C :   -0.076644
  11 C :    0.138863
  12 O :   -0.134622
  13 C :   -0.114311
  14 C :    0.303949
  15 C :   -0.304815
  16 C :   -0.219574
  17 N :    0.171383
  18 C :   -0.166299
  19 N :    0.129525
  20 C :   -0.006124
  21 C :   -0.015057
  22 C :    0.194205
  23 F :   -0.159712
  24 C :    0.158311
  25 F :   -0.178232
  26 C :   -0.038197
  27 C :    0.001425
  28 C :   -0.022205
  29 N :   -0.070566
  30 N :   -0.067078
  31 N :   -0.032046
  32 C :    0.138744
  33 C :    0.003511
  34 C :   -0.247245
  35 C :    0.104870
  36 C :    0.198315
  37 N :   -0.139103
  38 C :    0.069024
  39 C :   -0.040224
  40 C :    0.062127
  41 C :   -0.086508
  42 C :    0.054682
  43 C :    0.009770
  44 C :   -0.023643
  45 S :    0.120474
  46 C :   -0.084692
  47 C :    0.043095
  48 C :    0.014215
  49 C :    0.003893
  50 S :    0.174433
  51 C :   -0.014251
  52 C :   -0.005837
  53 C :   -0.116348
  54 C :    0.306790
  55 C :   -0.364269
  56 C :   -0.186959
  57 N :    0.126736
  58 C :   -0.212118
  59 N :    0.145096
  60 C :    0.011388
  61 C :   -0.000727
  62 C :    0.112472
  63 O :   -0.184794
  64 C :   -0.090102
  65 C :    0.120474
  66 C :   -0.093258
  67 C :   -0.030386
  68 S :    0.170094
  69 C :   -0.124166
  70 C :    0.032741
  71 Br:    0.001233
  72 H :   -0.002283
  73 H :    0.006233
  74 H :   -0.005734
  75 H :   -0.007947
  76 H :   -0.008142
  77 H :    0.029452
  78 H :    0.054668
  79 H :    0.067867
  80 H :    0.053123
  81 H :    0.004966
  82 H :    0.030788
  83 H :    0.022810
  84 H :    0.036769
  85 H :    0.025899
  86 H :    0.040997
  87 H :    0.135329
  88 H :    0.015186
  89 H :   -0.003619
  90 H :   -0.006960
  91 H :   -0.013884
  92 H :   -0.010222
  93 H :   -0.016156
  94 H :   -0.015245
  95 H :   -0.012669
  96 H :    0.018700
  97 H :   -0.022695
  98 H :   -0.012278
  99 H :   -0.012166
Sum of atomic charges:   -0.0000000

LOEWDIN ATOMIC CHARGES
----------------------
   0 C :   -0.043860
   1 C :    0.094392
   2 F :   -0.064138
   3 C :   -0.036451
   4 C :    0.005797
   5 C :   -0.019302
   6 C :    0.004233
   7 C :    0.006787
   8 C :   -0.013592
   9 C :   -0.061398
  10 C :    0.037099
  11 C :    0.085306
  12 O :   -0.136111
  13 C :   -0.073727
  14 C :    0.072190
  15 C :   -0.127945
  16 C :   -0.021798
  17 N :   -0.052606
  18 C :   -0.012253
  19 N :   -0.061433
  20 C :    0.069758
  21 C :   -0.072373
  22 C :    0.099213
  23 F :   -0.038898
  24 C :    0.054103
  25 F :   -0.052423
  26 C :   -0.021009
  27 C :   -0.050399
  28 C :   -0.040523
  29 N :   -0.088057
  30 N :    0.163371
  31 N :   -0.076086
  32 C :    0.033249
  33 C :   -0.040408
  34 C :   -0.019935
  35 C :   -0.049051
  36 C :    0.041761
  37 N :    0.014372
  38 C :    0.063243
  39 C :   -0.116340
  40 C :    0.007074
  41 C :   -0.185521
  42 C :   -0.006845
  43 C :   -0.045560
  44 C :   -0.132411
  45 S :    0.399884
  46 C :   -0.215384
  47 C :   -0.021501
  48 C :   -0.053494
  49 C :   -0.105317
  50 S :    0.484782
  51 C :   -0.090211
  52 C :    0.037736
  53 C :   -0.135449
  54 C :    0.077273
  55 C :   -0.162825
  56 C :   -0.018206
  57 N :   -0.077961
  58 C :   -0.024606
  59 N :   -0.071756
  60 C :   -0.018972
  61 C :   -0.042131
  62 C :    0.049921
  63 O :   -0.186569
  64 C :    0.007069
  65 C :   -0.039067
  66 C :   -0.150389
  67 C :   -0.015966
  68 S :    0.420033
  69 C :   -0.279188
  70 C :   -0.073115
  71 Br:    0.119534
  72 H :    0.042625
  73 H :    0.042800
  74 H :    0.036688
  75 H :    0.037746
  76 H :    0.040722
  77 H :    0.049360
  78 H :    0.042491
  79 H :    0.045542
  80 H :    0.043309
  81 H :    0.034059
  82 H :    0.034732
  83 H :    0.034173
  84 H :    0.039261
  85 H :    0.031334
  86 H :    0.043493
  87 H :    0.086057
  88 H :    0.033488
  89 H :    0.026267
  90 H :    0.033066
  91 H :    0.031957
  92 H :    0.033827
  93 H :    0.030429
  94 H :    0.031997
  95 H :    0.035958
  96 H :    0.043987
  97 H :    0.035343
  98 H :    0.038745
  99 H :    0.034924

  Mayer bond orders larger than 0.100000
B(  0-C ,  1-C ) :   1.4420 B(  0-C ,  6-C ) :   1.2037 B(  0-C , 72-H ) :   1.0058
B(  1-C ,  2-F ) :   1.0889 B(  1-C ,  3-C ) :   1.2539 B(  3-C ,  4-C ) :   1.4626
B(  3-C , 73-H ) :   0.9930 B(  4-C ,  5-C ) :   1.2349 B(  4-C , 74-H ) :   0.9969
B(  5-C ,  6-C ) :   1.2536 B(  5-C , 10-C ) :   1.1953 B(  6-C ,  7-C ) :   1.2037
B(  7-C ,  8-C ) :   1.4593 B(  7-C , 75-H ) :   0.9945 B(  8-C ,  9-C ) :   1.2120
B(  8-C , 14-C ) :   1.0128 B(  9-C , 10-C ) :   1.4716 B(  9-C , 11-C ) :   0.9239
B( 10-C , 76-H ) :   1.0145 B( 11-C , 12-O ) :   2.2760 B( 11-C , 13-C ) :   0.9267
B( 13-C , 14-C ) :   1.0366 B( 13-C , 20-C ) :   1.6891 B( 14-C , 15-C ) :   1.6487
B( 15-C , 16-C ) :   1.1598 B( 15-C , 18-C ) :   1.1525 B( 16-C , 17-N ) :   3.0118
B( 18-C , 19-N ) :   2.9131 B( 20-C , 21-C ) :   1.0796 B( 20-C , 77-H ) :   0.9400
B( 21-C , 22-C ) :   1.3807 B( 21-C , 26-C ) :   0.1243 B( 21-C , 28-C ) :   1.1685
B( 22-C , 23-F ) :   1.1809 B( 22-C , 24-C ) :   1.1644 B( 24-C , 25-F ) :   1.1129
B( 24-C , 26-C ) :   1.4147 B( 26-C , 27-C ) :   1.2073 B( 26-C , 33-C ) :   1.0077
B( 27-C , 28-C ) :   1.2153 B( 27-C , 31-N ) :   1.4982 B( 28-C , 29-N ) :   1.4756
B( 29-N , 30-N ) :   1.2008 B( 29-N , 31-N ) :   0.1532 B( 30-N , 31-N ) :   1.2585
B( 30-N , 32-C ) :   0.9481 B( 32-C , 78-H ) :   0.9685 B( 32-C , 79-H ) :   0.9625
B( 32-C , 80-H ) :   0.9649 B( 33-C , 34-C ) :   1.8706 B( 33-C , 81-H ) :   0.9518
B( 34-C , 35-C ) :   1.0974 B( 34-C , 36-C ) :   0.9904 B( 35-C , 82-H ) :   0.9433
B( 35-C , 83-H ) :   0.9486 B( 35-C , 84-H ) :   0.9390 B( 36-C , 37-N ) :   1.0439
B( 36-C , 85-H ) :   0.9363 B( 36-C , 86-H ) :   0.9291 B( 37-N , 38-C ) :   1.2423
B( 37-N , 87-H ) :   0.9380 B( 38-C , 39-C ) :   1.5768 B( 38-C , 88-H ) :   0.9697
B( 39-C , 40-C ) :   1.2304 B( 39-C , 89-H ) :   0.9593 B( 40-C , 41-C ) :   1.5273
B( 40-C , 90-H ) :   0.9664 B( 41-C , 42-C ) :   1.1808 B( 41-C , 45-S ) :   1.0129
B( 42-C , 43-C ) :   1.5750 B( 42-C , 91-H ) :   0.9847 B( 43-C , 44-C ) :   1.2124
B( 43-C , 92-H ) :   0.9941 B( 44-C , 45-S ) :   1.1164 B( 44-C , 46-C ) :   1.4163
B( 46-C , 47-C ) :   1.2273 B( 46-C , 50-S ) :   1.0735 B( 47-C , 48-C ) :   1.5235
B( 47-C , 93-H ) :   0.9925 B( 48-C , 49-C ) :   1.2140 B( 48-C , 94-H ) :   0.9982
B( 49-C , 50-S ) :   1.1506 B( 49-C , 51-C ) :   1.3765 B( 51-C , 52-C ) :   1.4364
B( 51-C , 95-H ) :   0.9485 B( 52-C , 53-C ) :   1.3505 B( 52-C , 96-H ) :   0.9397
B( 53-C , 54-C ) :   1.1409 B( 53-C , 62-C ) :   1.0294 B( 54-C , 55-C ) :   1.5823
B( 54-C , 60-C ) :   0.9847 B( 55-C , 56-C ) :   1.1493 B( 55-C , 58-C ) :   1.1500
B( 56-C , 57-N ) :   2.9620 B( 58-C , 59-N ) :   2.9953 B( 60-C , 61-C ) :   1.2812
B( 60-C , 67-C ) :   1.4271 B( 61-C , 62-C ) :   0.9233 B( 61-C , 64-C ) :   1.4406
B( 62-C , 63-O ) :   2.1495 B( 64-C , 65-C ) :   1.2279 B( 64-C , 97-H ) :   1.0167
B( 65-C , 66-C ) :   1.3302 B( 65-C , 70-C ) :   1.1586 B( 66-C , 67-C ) :   1.3108
B( 66-C , 68-S ) :   1.0758 B( 67-C , 98-H ) :   0.9811 B( 68-S , 69-C ) :   1.0865
B( 69-C , 70-C ) :   1.6212 B( 69-C , 71-Br) :   1.0053 B( 70-C , 99-H ) :   0.9999

-----------------------------------------------------------------------------
         ABSORPTION SPECTRUM VIA TRANSITION ELECTRIC DIPOLE MOMENTS
-----------------------------------------------------------------------------
State   Energy  Wavelength   fosc         T2         TX        TY        TZ
        (cm-1)    (nm)                  (au**2)     (au)      (au)      (au)
-----------------------------------------------------------------------------
   0   12638.3    791.2   1.168762758  30.44482   0.71418   5.46748  -0.20364
   1   13477.3    742.0   0.025743670   0.62884   0.18785   0.77000   0.02547
   2   21005.6    476.1   0.076690918   1.20194  -0.52520  -0.44582   0.85285
   3   22980.8    435.1   0.092144358   1.32002   0.54692   0.36690  -0.94142
   4   23546.7    424.7   0.002018123   0.02822  -0.13760   0.07935  -0.05464
   5   24064.2    415.6   0.452336318   6.18821  -1.51480   1.11067  -1.63095
   6   24400.1    409.8   0.184840629   2.49391  -1.53330   0.04862  -0.37488
   7   25355.7    394.4   0.002516781   0.03268   0.06415  -0.06297   0.15683
   8   25885.1    386.3   0.126040302   1.60301   1.03143  -0.70480   0.20595
   9   25899.5    386.1   0.025309512   0.32171   0.15512   0.48389   0.25199
  10   27310.2    366.2   0.026126541   0.31494  -0.36311   0.20273   0.37682
  11   27449.8    364.3   0.533976923   6.40411  -2.48914  -0.15696   0.42852
  12   27647.6    361.7   0.106314938   1.26594   1.10756   0.04636  -0.19264
  13   28627.4    349.3   0.171691690   1.97444   1.27676  -0.28897  -0.51069
  14   29150.1    343.1   0.010947498   0.12364  -0.16970   0.29758   0.07929
  15   29342.3    340.8   0.002265564   0.02542   0.15732  -0.00063  -0.02584
  16   29883.6    334.6   0.071528944   0.78800   0.57626   0.53911   0.40655
  17   30891.8    323.7   0.003632026   0.03871   0.09711  -0.11545   0.12628
  18   30977.6    322.8   0.009829315   0.10446   0.26825  -0.15512   0.09187
  19   31040.8    322.2   0.088005710   0.93337   0.44761   0.60149  -0.60928
  20   31844.7    314.0   0.091662113   0.94761   0.95289   0.16366   0.11325
  21   32517.9    307.5   0.249957453   2.53058  -1.13208  -1.06446  -0.34042
  22   32694.0    305.9   0.824104492   8.29830   2.43530  -1.52736   0.18653
  23   33086.4    302.2   0.224152212   2.23033  -1.36438   0.46774  -0.38733
  24   33500.1    298.5   0.038402185   0.37739   0.54066   0.15781   0.24530
  25   33606.6    297.6   0.002523275   0.02472   0.02047  -0.12184   0.09724
  26   34279.5    291.7   0.006350076   0.06098   0.23819  -0.03518  -0.05488
  27   34368.5    291.0   0.026496969   0.25381  -0.36144  -0.28797   0.20062
  28   34515.8    289.7   0.115460039   1.10126   0.93364   0.32095   0.35577
  29   35065.1    285.2   0.022348933   0.20983   0.20740  -0.40826  -0.01156
  30   35162.9    284.4   0.027249031   0.25512   0.49261  -0.11151   0.00401
  31   35182.0    284.2   0.502356485   4.70075  -1.36299   1.65668  -0.31375
  32   35490.6    281.8   0.125988664   1.16867   0.06387  -0.81713  -0.70490
  33   35864.5    278.8   0.001103126   0.01013  -0.03291   0.09378   0.01576
  34   36032.6    277.5   0.001049868   0.00959   0.08726   0.01618  -0.04142
  35   36382.8    274.9   0.034628540   0.31334   0.39473   0.34116  -0.20283
  36   36417.2    274.6   0.049422119   0.44678  -0.30066  -0.59696  -0.00493
  37   36916.0    270.9   0.000549095   0.00490  -0.00814  -0.04253   0.05497
  38   37733.8    265.0   0.199719957   1.74247   0.54018   0.31080  -1.16365
  39   37760.8    264.8   0.078028103   0.68028   0.43331   0.52228   0.46876
  40   38290.4    261.2   0.011233755   0.09659   0.24834   0.02788   0.18476
  41   38347.7    260.8   0.076603816   0.65764   0.48314   0.53652   0.36927
  42   38631.0    258.9   0.001117623   0.00952  -0.07313  -0.05528  -0.03349
  43   38751.3    258.1   0.000949235   0.00806   0.04923   0.06667  -0.03458
  44   38878.5    257.2   0.088566559   0.74996  -0.02454   0.73395   0.45899
  45   39032.7    256.2   0.005005435   0.04222   0.04061  -0.14966  -0.13480
  46   39638.9    252.3   0.001792146   0.01488   0.07539  -0.06073  -0.07425
  47   40189.2    248.8   0.081086673   0.66423   0.51907   0.41324  -0.47332
  48   40319.9    248.0   0.006329503   0.05168  -0.17713  -0.01367   0.14183

FINAL SINGLE POINT ENERGY     -6764.976020377583

DIPOLE MOMENT
-------------
                                X             Y             Z
Electronic contribution:     79.00684    -127.23494       0.10191
Nuclear contribution   :    -76.87682     137.70032       1.70071
                        -----------------------------------------
Total Dipole Moment    :      2.13003      10.46539       1.80262
                        -----------------------------------------
Magnitude (a.u.)       :     10.83101
Magnitude (Debye)      :     27.53024

Rotational constants in cm-1:     0.001515     0.000206     0.000193
Rotational constants in MHz :    45.431697     6.179199     5.788375

                             ****ORCA TERMINATED NORMALLY****
TOTAL RUN TIME: 0 days 0 hours 10 minutes 3 seconds 344 msec
