                         Program Version 4.2.0 -  RELEASE  -
|  1> # ORCA input file
|  2> # SCF done       -188.980076457089          0.000540441069
|  3> ! CAM-B3LYP def2-SVP def2/J RIJCOSX Grid4 TightSCF
|  4> %maxcore 5000
|  5> %tddft
|  6>     Mode sTDDFT
|  7>     Ethresh 5.0
|  8>     maxcore 5000
|  9> end
| 10>
| 11> %pal
| 12>   nprocs 6
| 13>   end
| 14> * xyz 0 1
| 15>    C       21.51372        -7.36865        -0.42631
| 16>    C       22.14122        -8.57821        -0.31531
| 17>    F       23.28914        -8.79171        -0.98091
| 18>    C       21.63300        -9.61986         0.47406
| 19>    C       20.46777        -9.42163         1.16015
| 20>    C       19.77974        -8.19256         1.08384
| 21>    C       20.31123        -7.14616         0.27303
| 22>    C       19.63557        -5.90808         0.17450
| 23>    C       18.46953        -5.72173         0.86822
| 24>    C       17.95311        -6.76537         1.69184
| 25>    C       18.58149        -7.97406         1.79742
| 26>    C       16.72695        -6.30210         2.36335
| 27>    O       15.98460        -6.92417         3.08289
| 28>    C       16.62750        -4.84556         2.01905
| 29>    C       17.55735        -4.58517         0.92913
| 30>    C       17.45211        -3.59122         0.00180
| 31>    C       16.38103        -2.67083        -0.04281
| 32>    N       15.49696        -1.95450        -0.19031
| 33>    C       18.34685        -3.43231        -1.07799
| 34>    N       19.05775        -3.25859        -1.96146
| 35>    C       15.90044        -4.02837         2.80249
| 36>    C       15.93971        -2.57935         2.87911
| 37>    N       16.97899        -1.93009         2.35188
| 38>    C       16.99134        -0.61563         2.49074
| 39>    C       15.98312         0.07803         3.13577
| 40>    C       14.93698        -0.68656         3.67327
| 41>    N       14.94284        -2.01487         3.54428
| 42>    C       13.81534        -0.15854         4.41118
| 43>    C       13.61406         1.12922         4.73520
| 44>    N       12.53661         1.53105         5.47222
| 45>    C       12.27680         2.78858         5.90260
| 46>    S       13.30609         4.11298         5.47506
| 47>    C       12.30770         5.17407         6.42243
| 48>    N       12.67335         6.52303         6.46106
| 49>    O       11.98804         7.28004         7.12148
| 50>    O       13.66509         6.83406         5.82152
| 51>    C       11.25734         4.54251         7.02598
| 52>    C       11.20926         3.16091         6.74046
| 53>    C       10.22334         2.24664         7.22465
| 54>    C        9.30065         2.52054         8.18523
| 55>    C        8.35136         1.58004         8.62431
| 56>    C        7.45505         1.79341         9.63980
| 57>    C        6.48851         0.87603        10.12365
| 58>    C        5.74895         1.34253        11.16595
| 59>    C        6.08935         2.65574        11.56688
| 60>    S        7.37176         3.28555        10.56521
| 61>    C        5.53937         3.38576        12.60578
| 62>    C        4.52307         2.97812        13.49841
| 63>    C        4.20732         3.91068        14.44069
| 64>    C        4.95738         5.10762        14.33985
| 65>    S        6.07338         5.00379        12.99942
| 66>    C        4.90792         6.24297        15.12750
| 67>    C        4.06022         6.37100        16.22522
| 68>    C        3.99079         7.47748        17.04716
| 69>    C        3.14172         7.62978        18.20160
| 70>    C        2.24176         6.71497        18.70059
| 71>    C        1.44890         6.92774        19.84541
| 72>    N        0.77625         7.03421        20.77053
| 73>    C        1.97768         5.44333        18.15658
| 74>    N        1.70457         4.39329        17.77537
| 75>    C        3.40349         8.94811        18.77556
| 76>    C        4.38992         9.59580        17.99290
| 77>    C        4.79519         8.70544        16.88437
| 78>    O        5.62153         8.95462        16.02932
| 79>    C        4.85398        10.85571        18.27817
| 80>    C        4.31926        11.51122        19.39295
| 81>    C        3.33438        10.85724        20.16892
| 82>    C        2.86416         9.58165        19.87864
| 83>    S        2.81018        11.84409        21.50008
| 84>    C        3.90760        13.10427        21.00202
| 85>    C        4.62943        12.80432        19.89661
| 86>   Br        3.99639        14.69704        21.98917
| 87>    H       21.93232        -6.59133        -1.04618
| 88>    H       22.17222       -10.55255         0.52261
| 89>    H       20.05658       -10.20824         1.77466
| 90>    H       20.06229        -5.13026        -0.43893
| 91>    H       18.16932        -8.75299         2.42129
| 92>    H       15.24590        -4.49714         3.52809
| 93>    H       17.84492        -0.10750         2.06072
| 94>    H       16.01197         1.15075         3.21832
| 95>    H       13.10762        -0.91246         4.72808
| 96>    H       14.28888         1.92106         4.44614
| 97>    H       11.89196         0.80510         5.76210
| 98>    H       10.54922         5.07040         7.63732
| 99>    H       10.21666         1.25262         6.79481
|100>    H        9.28660         3.48947         8.66346
|101>    H        8.32586         0.61270         8.13901
|102>    H        6.37513        -0.09954         9.68501
|103>    H        4.97451         0.78186        11.65688
|104>    H        4.05444         2.01316        13.42835
|105>    H        3.45885         3.76252        15.19817
|106>    H        5.56506         7.06498        14.88424
|107>    H        3.41361         5.53735        16.45492
|108>    H        5.60656        11.32172        17.66162
|109>    H        2.11219         9.12794        20.50208
|110>    H        5.35135        13.46548        19.45311
|111> *
|112>
|113>                          ****END OF INPUT****

CARTESIAN COORDINATES (ANGSTROEM)
---------------------------------
  C     21.513720   -7.368650   -0.426310
  C     22.141220   -8.578210   -0.315310
  F     23.289140   -8.791710   -0.980910
  C     21.633000   -9.619860    0.474060
  C     20.467770   -9.421630    1.160150
  C     19.779740   -8.192560    1.083840
  C     20.311230   -7.146160    0.273030
  C     19.635570   -5.908080    0.174500
  C     18.469530   -5.721730    0.868220
  C     17.953110   -6.765370    1.691840
  C     18.581490   -7.974060    1.797420
  C     16.726950   -6.302100    2.363350
  O     15.984600   -6.924170    3.082890
  C     16.627500   -4.845560    2.019050
  C     17.557350   -4.585170    0.929130
  C     17.452110   -3.591220    0.001800
  C     16.381030   -2.670830   -0.042810
  N     15.496960   -1.954500   -0.190310
  C     18.346850   -3.432310   -1.077990
  N     19.057750   -3.258590   -1.961460
  C     15.900440   -4.028370    2.802490
  C     15.939710   -2.579350    2.879110
  N     16.978990   -1.930090    2.351880
  C     16.991340   -0.615630    2.490740
  C     15.983120    0.078030    3.135770
  C     14.936980   -0.686560    3.673270
  N     14.942840   -2.014870    3.544280
  C     13.815340   -0.158540    4.411180
  C     13.614060    1.129220    4.735200
  N     12.536610    1.531050    5.472220
  C     12.276800    2.788580    5.902600
  S     13.306090    4.112980    5.475060
  C     12.307700    5.174070    6.422430
  N     12.673350    6.523030    6.461060
  O     11.988040    7.280040    7.121480
  O     13.665090    6.834060    5.821520
  C     11.257340    4.542510    7.025980
  C     11.209260    3.160910    6.740460
  C     10.223340    2.246640    7.224650
  C      9.300650    2.520540    8.185230
  C      8.351360    1.580040    8.624310
  C      7.455050    1.793410    9.639800
  C      6.488510    0.876030   10.123650
  C      5.748950    1.342530   11.165950
  C      6.089350    2.655740   11.566880
  S      7.371760    3.285550   10.565210
  C      5.539370    3.385760   12.605780
  C      4.523070    2.978120   13.498410
  C      4.207320    3.910680   14.440690
  C      4.957380    5.107620   14.339850
  S      6.073380    5.003790   12.999420
  C      4.907920    6.242970   15.127500
  C      4.060220    6.371000   16.225220
  C      3.990790    7.477480   17.047160
  C      3.141720    7.629780   18.201600
  C      2.241760    6.714970   18.700590
  C      1.448900    6.927740   19.845410
  N      0.776250    7.034210   20.770530
  C      1.977680    5.443330   18.156580
  N      1.704570    4.393290   17.775370
  C      3.403490    8.948110   18.775560
  C      4.389920    9.595800   17.992900
  C      4.795190    8.705440   16.884370
  O      5.621530    8.954620   16.029320
  C      4.853980   10.855710   18.278170
  C      4.319260   11.511220   19.392950
  C      3.334380   10.857240   20.168920
  C      2.864160    9.581650   19.878640
  S      2.810180   11.844090   21.500080
  C      3.907600   13.104270   21.002020
  C      4.629430   12.804320   19.896610
  Br     3.996390   14.697040   21.989170
  H     21.932320   -6.591330   -1.046180
  H     22.172220  -10.552550    0.522610
  H     20.056580  -10.208240    1.774660
  H     20.062290   -5.130260   -0.438930
  H     18.169320   -8.752990    2.421290
  H     15.245900   -4.497140    3.528090
  H     17.844920   -0.107500    2.060720
  H     16.011970    1.150750    3.218320
  H     13.107620   -0.912460    4.728080
  H     14.288880    1.921060    4.446140
  H     11.891960    0.805100    5.762100
  H     10.549220    5.070400    7.637320
  H     10.216660    1.252620    6.794810
  H      9.286600    3.489470    8.663460
  H      8.325860    0.612700    8.139010
  H      6.375130   -0.099540    9.685010
  H      4.974510    0.781860   11.656880
  H      4.054440    2.013160   13.428350
  H      3.458850    3.762520   15.198170
  H      5.565060    7.064980   14.884240
  H      3.413610    5.537350   16.454920
  H      5.606560   11.321720   17.661620
  H      2.112190    9.127940   20.502080
  H      5.351350   13.465480   19.453110

 Total Charge           Charge          ....    0
 Multiplicity           Mult            ....    1
 Number of Electrons    NEL             ....  544
 Basis Dimension        Dim             .... 1162

ORBITAL ENERGIES
----------------

  NO   OCC          E(Eh)            E(eV)
   0   2.0000    -482.878251    -13139.7852
   1   2.0000     -88.999279     -2421.7935
   2   2.0000     -88.968839     -2420.9652
   3   2.0000     -88.966156     -2420.8922
   4   2.0000     -88.963797     -2420.8280
   5   2.0000     -62.555957     -1702.2341
   6   2.0000     -56.389899     -1534.4472
   7   2.0000     -56.387200     -1534.3737
   8   2.0000     -56.387164     -1534.3727
   9   2.0000     -24.790439      -674.5821
  10   2.0000     -19.244551      -523.6709
  11   2.0000     -19.244350      -523.6654
  12   2.0000     -19.222771      -523.0782
  13   2.0000     -19.202353      -522.5226
  14   2.0000     -14.656537      -398.8246
  15   2.0000     -14.504873      -394.6977
  16   2.0000     -14.423880      -392.4937
  17   2.0000     -14.423835      -392.4925
  18   2.0000     -14.421778      -392.4365
  19   2.0000     -14.416283      -392.2870
  20   2.0000     -14.406686      -392.0258
  21   2.0000     -14.401047      -391.8724
  22   2.0000     -10.387388      -282.6552
  23   2.0000     -10.374531      -282.3053
  24   2.0000     -10.373450      -282.2759
  25   2.0000     -10.359689      -281.9015
  26   2.0000     -10.359549      -281.8977
  27   2.0000     -10.353254      -281.7264
  28   2.0000     -10.352647      -281.7099
  29   2.0000     -10.349945      -281.6363
  30   2.0000     -10.349569      -281.6261
  31   2.0000     -10.348016      -281.5838
  32   2.0000     -10.343563      -281.4627
  33   2.0000     -10.340113      -281.3688
  34   2.0000     -10.334745      -281.2227
  35   2.0000     -10.331614      -281.1375
  36   2.0000     -10.329756      -281.0870
  37   2.0000     -10.327578      -281.0277
  38   2.0000     -10.326672      -281.0030
  39   2.0000     -10.325301      -280.9657
  40   2.0000     -10.323228      -280.9093
  41   2.0000     -10.322201      -280.8814
  42   2.0000     -10.319957      -280.8203
  43   2.0000     -10.316389      -280.7232
  44   2.0000     -10.314875      -280.6820
  45   2.0000     -10.314778      -280.6794
  46   2.0000     -10.313078      -280.6331
  47   2.0000     -10.311764      -280.5974
  48   2.0000     -10.311550      -280.5915
  49   2.0000     -10.311126      -280.5800
  50   2.0000     -10.310713      -280.5688
  51   2.0000     -10.309635      -280.5394
  52   2.0000     -10.308881      -280.5189
  53   2.0000     -10.308836      -280.5177
  54   2.0000     -10.308044      -280.4961
  55   2.0000     -10.306438      -280.4524
  56   2.0000     -10.306009      -280.4408
  57   2.0000     -10.305373      -280.4234
  58   2.0000     -10.304310      -280.3945
  59   2.0000     -10.302968      -280.3580
  60   2.0000     -10.302560      -280.3469
  61   2.0000     -10.302237      -280.3381
  62   2.0000     -10.301181      -280.3094
  63   2.0000     -10.299109      -280.2530
  64   2.0000     -10.297361      -280.2054
  65   2.0000     -10.297026      -280.1963
  66   2.0000     -10.296101      -280.1712
  67   2.0000     -10.296095      -280.1710
  68   2.0000     -10.295143      -280.1451
  69   2.0000     -10.294045      -280.1152
  70   2.0000     -10.293489      -280.1001
  71   2.0000     -10.289639      -279.9953
  72   2.0000     -10.288048      -279.9520
  73   2.0000     -10.279772      -279.7268
  74   2.0000     -10.279500      -279.7194
  75   2.0000     -10.278827      -279.7011
  76   2.0000      -8.785374      -239.0622
  77   2.0000      -8.094704      -220.2681
  78   2.0000      -8.065234      -219.4662
  79   2.0000      -8.062234      -219.3845
  80   2.0000      -8.060187      -219.3288
  81   2.0000      -6.621641      -180.1840
  82   2.0000      -6.607124      -179.7890
  83   2.0000      -6.606934      -179.7838
  84   2.0000      -6.064455      -165.0222
  85   2.0000      -6.060015      -164.9014
  86   2.0000      -6.056032      -164.7930
  87   2.0000      -6.034912      -164.2183
  88   2.0000      -6.031921      -164.1369
  89   2.0000      -6.030946      -164.1104
  90   2.0000      -6.029813      -164.0796
  91   2.0000      -6.027658      -164.0209
  92   2.0000      -6.026135      -163.9795
  93   2.0000      -6.025711      -163.9679
  94   2.0000      -6.023430      -163.9059
  95   2.0000      -6.021352      -163.8493
  96   2.0000      -2.737507       -74.4914
  97   2.0000      -2.733417       -74.3800
  98   2.0000      -2.733340       -74.3780
  99   2.0000      -2.721775       -74.0633
 100   2.0000      -2.721753       -74.0627
 101   2.0000      -1.325808       -36.0771
 102   2.0000      -1.305782       -35.5321
 103   2.0000      -1.145193       -31.1623
 104   2.0000      -1.138452       -30.9788
 105   2.0000      -1.116236       -30.3743
 106   2.0000      -1.111688       -30.2506
 107   2.0000      -1.099192       -29.9105
 108   2.0000      -1.023060       -27.8389
 109   2.0000      -1.018644       -27.7187
 110   2.0000      -1.016829       -27.6693
 111   2.0000      -1.011682       -27.5293
 112   2.0000      -1.005438       -27.3594
 113   2.0000      -1.002792       -27.2874
 114   2.0000      -1.000374       -27.2216
 115   2.0000      -0.993933       -27.0463
 116   2.0000      -0.993429       -27.0326
 117   2.0000      -0.983136       -26.7525
 118   2.0000      -0.980984       -26.6939
 119   2.0000      -0.977026       -26.5862
 120   2.0000      -0.944083       -25.6898
 121   2.0000      -0.937095       -25.4997
 122   2.0000      -0.932959       -25.3871
 123   2.0000      -0.927771       -25.2459
 124   2.0000      -0.916777       -24.9468
 125   2.0000      -0.908632       -24.7251
 126   2.0000      -0.901011       -24.5178
 127   2.0000      -0.897417       -24.4200
 128   2.0000      -0.892648       -24.2902
 129   2.0000      -0.889971       -24.2173
 130   2.0000      -0.877728       -23.8842
 131   2.0000      -0.875420       -23.8214
 132   2.0000      -0.874309       -23.7912
 133   2.0000      -0.865506       -23.5516
 134   2.0000      -0.858805       -23.3693
 135   2.0000      -0.854192       -23.2438
 136   2.0000      -0.845921       -23.0187
 137   2.0000      -0.839423       -22.8419
 138   2.0000      -0.828173       -22.5357
 139   2.0000      -0.818712       -22.2783
 140   2.0000      -0.809560       -22.0292
 141   2.0000      -0.807202       -21.9651
 142   2.0000      -0.795307       -21.6414
 143   2.0000      -0.772569       -21.0227
 144   2.0000      -0.768727       -20.9181
 145   2.0000      -0.756935       -20.5972
 146   2.0000      -0.750158       -20.4128
 147   2.0000      -0.745797       -20.2942
 148   2.0000      -0.742295       -20.1989
 149   2.0000      -0.734035       -19.9741
 150   2.0000      -0.726072       -19.7574
 151   2.0000      -0.714453       -19.4412
 152   2.0000      -0.713191       -19.4069
 153   2.0000      -0.703563       -19.1449
 154   2.0000      -0.692121       -18.8336
 155   2.0000      -0.686719       -18.6866
 156   2.0000      -0.684024       -18.6132
 157   2.0000      -0.678936       -18.4748
 158   2.0000      -0.675725       -18.3874
 159   2.0000      -0.668182       -18.1822
 160   2.0000      -0.661174       -17.9915
 161   2.0000      -0.651823       -17.7370
 162   2.0000      -0.647266       -17.6130
 163   2.0000      -0.644919       -17.5491
 164   2.0000      -0.644729       -17.5440
 165   2.0000      -0.638982       -17.3876
 166   2.0000      -0.638027       -17.3616
 167   2.0000      -0.636336       -17.3156
 168   2.0000      -0.635678       -17.2977
 169   2.0000      -0.632511       -17.2115
 170   2.0000      -0.621985       -16.9251
 171   2.0000      -0.614364       -16.7177
 172   2.0000      -0.613707       -16.6998
 173   2.0000      -0.611162       -16.6306
 174   2.0000      -0.605309       -16.4713
 175   2.0000      -0.598270       -16.2798
 176   2.0000      -0.596728       -16.2378
 177   2.0000      -0.596146       -16.2219
 178   2.0000      -0.583548       -15.8792
 179   2.0000      -0.580460       -15.7951
 180   2.0000      -0.576939       -15.6993
 181   2.0000      -0.571253       -15.5446
 182   2.0000      -0.570577       -15.5262
 183   2.0000      -0.564652       -15.3650
 184   2.0000      -0.563084       -15.3223
 185   2.0000      -0.560277       -15.2459
 186   2.0000      -0.555836       -15.1251
 187   2.0000      -0.554651       -15.0928
 188   2.0000      -0.552864       -15.0442
 189   2.0000      -0.544464       -14.8156
 190   2.0000      -0.543013       -14.7761
 191   2.0000      -0.540207       -14.6998
 192   2.0000      -0.536815       -14.6075
 193   2.0000      -0.535969       -14.5844
 194   2.0000      -0.533124       -14.5070
 195   2.0000      -0.528363       -14.3775
 196   2.0000      -0.527728       -14.3602
 197   2.0000      -0.526553       -14.3282
 198   2.0000      -0.524389       -14.2693
 199   2.0000      -0.520201       -14.1554
 200   2.0000      -0.517793       -14.0899
 201   2.0000      -0.516203       -14.0466
 202   2.0000      -0.515010       -14.0141
 203   2.0000      -0.512840       -13.9551
 204   2.0000      -0.510306       -13.8861
 205   2.0000      -0.502205       -13.6657
 206   2.0000      -0.498816       -13.5735
 207   2.0000      -0.498563       -13.5666
 208   2.0000      -0.497948       -13.5499
 209   2.0000      -0.495905       -13.4942
 210   2.0000      -0.492701       -13.4071
 211   2.0000      -0.489000       -13.3064
 212   2.0000      -0.487185       -13.2570
 213   2.0000      -0.486645       -13.2423
 214   2.0000      -0.485622       -13.2145
 215   2.0000      -0.482638       -13.1333
 216   2.0000      -0.481912       -13.1135
 217   2.0000      -0.480981       -13.0882
 218   2.0000      -0.479973       -13.0607
 219   2.0000      -0.471882       -12.8406
 220   2.0000      -0.469468       -12.7749
 221   2.0000      -0.462701       -12.5907
 222   2.0000      -0.462190       -12.5768
 223   2.0000      -0.461039       -12.5455
 224   2.0000      -0.454717       -12.3735
 225   2.0000      -0.451221       -12.2784
 226   2.0000      -0.446765       -12.1571
 227   2.0000      -0.446753       -12.1568
 228   2.0000      -0.444245       -12.0885
 229   2.0000      -0.443503       -12.0683
 230   2.0000      -0.442011       -12.0277
 231   2.0000      -0.440196       -11.9783
 232   2.0000      -0.438904       -11.9432
 233   2.0000      -0.436516       -11.8782
 234   2.0000      -0.432996       -11.7824
 235   2.0000      -0.432386       -11.7658
 236   2.0000      -0.430492       -11.7143
 237   2.0000      -0.428981       -11.6732
 238   2.0000      -0.422999       -11.5104
 239   2.0000      -0.420592       -11.4449
 240   2.0000      -0.416948       -11.3457
 241   2.0000      -0.415158       -11.2970
 242   2.0000      -0.412686       -11.2298
 243   2.0000      -0.411769       -11.2048
 244   2.0000      -0.404094       -10.9960
 245   2.0000      -0.398805       -10.8520
 246   2.0000      -0.396499       -10.7893
 247   2.0000      -0.393878       -10.7180
 248   2.0000      -0.392239       -10.6734
 249   2.0000      -0.388501       -10.5717
 250   2.0000      -0.385434       -10.4882
 251   2.0000      -0.381856       -10.3908
 252   2.0000      -0.379930       -10.3384
 253   2.0000      -0.373826       -10.1723
 254   2.0000      -0.373358       -10.1596
 255   2.0000      -0.367813       -10.0087
 256   2.0000      -0.359218        -9.7748
 257   2.0000      -0.357446        -9.7266
 258   2.0000      -0.353850        -9.6287
 259   2.0000      -0.345009        -9.3882
 260   2.0000      -0.342618        -9.3231
 261   2.0000      -0.340828        -9.2744
 262   2.0000      -0.334663        -9.1067
 263   2.0000      -0.328814        -8.9475
 264   2.0000      -0.322628        -8.7792
 265   2.0000      -0.315427        -8.5832
 266   2.0000      -0.305325        -8.3083
 267   2.0000      -0.303786        -8.2664
 268   2.0000      -0.301009        -8.1909
 269   2.0000      -0.284583        -7.7439
 270   2.0000      -0.276227        -7.5165
 271   2.0000      -0.229396        -6.2422
 272   0.0000      -0.112759        -3.0683
 273   0.0000      -0.097654        -2.6573
 274   0.0000      -0.070410        -1.9160
 275   0.0000      -0.064257        -1.7485
 276   0.0000      -0.059331        -1.6145

MULLIKEN ATOMIC CHARGES
-----------------------
   0 C :   -0.098087
   1 C :    0.304096
   2 F :   -0.187795
   3 C :   -0.029399
   4 C :   -0.008271
   5 C :    0.100683
   6 C :    0.104191
   7 C :   -0.086796
   8 C :    0.048317
   9 C :    0.000163
  10 C :   -0.076773
  11 C :    0.139188
  12 O :   -0.131499
  13 C :   -0.085136
  14 C :    0.278422
  15 C :   -0.290140
  16 C :   -0.179809
  17 N :    0.158323
  18 C :   -0.192654
  19 N :    0.159164
  20 C :    0.082652
  21 C :   -0.069817
  22 N :   -0.102670
  23 C :    0.103840
  24 C :   -0.043605
  25 C :    0.044047
  26 N :   -0.056331
  27 C :    0.008697
  28 C :    0.090781
  29 N :   -0.024959
  30 C :   -0.104369
  31 S :    0.152968
  32 C :   -0.000670
  33 N :    0.277752
  34 O :   -0.245858
  35 O :   -0.265521
  36 C :    0.013439
  37 C :    0.129379
  38 C :   -0.039729
  39 C :    0.005344
  40 C :   -0.001605
  41 C :   -0.026801
  42 C :    0.049824
  43 C :    0.024360
  44 C :   -0.029102
  45 S :    0.094056
  46 C :   -0.064984
  47 C :    0.037352
  48 C :    0.015922
  49 C :   -0.028596
  50 S :    0.131487
  51 C :    0.023023
  52 C :   -0.029189
  53 C :   -0.087866
  54 C :    0.326814
  55 C :   -0.364123
  56 C :   -0.189747
  57 N :    0.137559
  58 C :   -0.190087
  59 N :    0.131688
  60 C :    0.014244
  61 C :   -0.007779
  62 C :    0.138398
  63 O :   -0.162322
  64 C :   -0.077944
  65 C :    0.120152
  66 C :   -0.089852
  67 C :   -0.027744
  68 S :    0.180446
  69 C :   -0.121958
  70 C :    0.034462
  71 Br:    0.016237
  72 H :   -0.001513
  73 H :    0.005218
  74 H :   -0.007573
  75 H :   -0.002731
  76 H :   -0.009648
  77 H :    0.021830
  78 H :    0.012645
  79 H :   -0.004616
  80 H :   -0.011451
  81 H :    0.034606
  82 H :    0.140188
  83 H :    0.015679
  84 H :   -0.031562
  85 H :    0.005704
  86 H :   -0.011058
  87 H :   -0.004094
  88 H :   -0.001758
  89 H :   -0.004291
  90 H :    0.019229
  91 H :    0.013174
  92 H :   -0.006620
  93 H :   -0.014130
  94 H :   -0.009356
  95 H :   -0.005755
Sum of atomic charges:   -0.0000000

LOEWDIN ATOMIC CHARGES
----------------------
   0 C :   -0.042251
   1 C :    0.094454
   2 F :   -0.062488
   3 C :   -0.035840
   4 C :    0.005706
   5 C :   -0.018643
   6 C :    0.005204
   7 C :    0.011176
   8 C :   -0.014875
   9 C :   -0.062444
  10 C :    0.037215
  11 C :    0.085675
  12 O :   -0.132286
  13 C :   -0.053505
  14 C :    0.070465
  15 C :   -0.110023
  16 C :   -0.016270
  17 N :   -0.053944
  18 C :   -0.017231
  19 N :   -0.045949
  20 C :    0.056421
  21 C :    0.019249
  22 N :   -0.079522
  23 C :    0.061475
  24 C :   -0.052665
  25 C :    0.042610
  26 N :   -0.080433
  27 C :   -0.079445
  28 C :    0.047759
  29 N :    0.046567
  30 C :   -0.094167
  31 S :    0.458234
  32 C :   -0.207114
  33 N :    0.273384
  34 O :   -0.212196
  35 O :   -0.232044
  36 C :    0.009959
  37 C :   -0.109825
  38 C :   -0.015488
  39 C :   -0.031583
  40 C :   -0.034937
  41 C :   -0.150876
  42 C :   -0.015602
  43 C :   -0.032638
  44 C :   -0.151052
  45 S :    0.386362
  46 C :   -0.192599
  47 C :   -0.005866
  48 C :   -0.039936
  49 C :   -0.104281
  50 S :    0.408872
  51 C :   -0.068450
  52 C :    0.057070
  53 C :   -0.108479
  54 C :    0.075818
  55 C :   -0.158012
  56 C :   -0.019515
  57 N :   -0.066801
  58 C :   -0.015782
  59 N :   -0.074511
  60 C :   -0.019107
  61 C :   -0.048435
  62 C :    0.081693
  63 O :   -0.155031
  64 C :    0.018092
  65 C :   -0.034856
  66 C :   -0.145643
  67 C :   -0.012692
  68 S :    0.428105
  69 C :   -0.273963
  70 C :   -0.070786
  71 Br:    0.131246
  72 H :    0.043529
  73 H :    0.042580
  74 H :    0.036305
  75 H :    0.039658
  76 H :    0.040397
  77 H :    0.050273
  78 H :    0.030249
  79 H :    0.032711
  80 H :    0.034987
  81 H :    0.026406
  82 H :    0.098272
  83 H :    0.046990
  84 H :    0.022478
  85 H :    0.025328
  86 H :    0.035140
  87 H :    0.037535
  88 H :    0.036270
  89 H :    0.036614
  90 H :    0.042733
  91 H :    0.034773
  92 H :    0.036560
  93 H :    0.039381
  94 H :    0.040232
  95 H :    0.037873

  Mayer bond orders larger than 0.100000
B(  0-C ,  1-C ) :   1.4423 B(  0-C ,  6-C ) :   1.2007 B(  0-C , 72-H ) :   1.0067
B(  1-C ,  2-F ) :   1.0912 B(  1-C ,  3-C ) :   1.2528 B(  3-C ,  4-C ) :   1.4631
B(  3-C , 73-H ) :   0.9928 B(  4-C ,  5-C ) :   1.2310 B(  4-C , 74-H ) :   0.9977
B(  5-C ,  6-C ) :   1.2518 B(  5-C , 10-C ) :   1.1993 B(  6-C ,  7-C ) :   1.2078
B(  7-C ,  8-C ) :   1.4563 B(  7-C , 75-H ) :   0.9954 B(  8-C ,  9-C ) :   1.2148
B(  8-C , 14-C ) :   1.0011 B(  9-C , 10-C ) :   1.4649 B(  9-C , 11-C ) :   0.9211
B( 10-C , 76-H ) :   1.0151 B( 11-C , 12-O ) :   2.2862 B( 11-C , 13-C ) :   0.9177
B( 13-C , 14-C ) :   0.9981 B( 13-C , 20-C ) :   1.7204 B( 14-C , 15-C ) :   1.7135
B( 15-C , 16-C ) :   1.1488 B( 15-C , 18-C ) :   1.1378 B( 16-C , 17-N ) :   2.9853
B( 18-C , 19-N ) :   2.9896 B( 20-C , 21-C ) :   0.9974 B( 20-C , 77-H ) :   0.9503
B( 21-C , 22-N ) :   1.4881 B( 21-C , 26-N ) :   1.5351 B( 22-N , 23-C ) :   1.5102
B( 23-C , 24-C ) :   1.4040 B( 23-C , 78-H ) :   0.9773 B( 24-C , 25-C ) :   1.3355
B( 24-C , 79-H ) :   0.9667 B( 25-C , 26-N ) :   1.4887 B( 25-C , 27-C ) :   1.1093
B( 27-C , 28-C ) :   1.6699 B( 27-C , 80-H ) :   0.9656 B( 28-C , 29-N ) :   1.1298
B( 28-C , 81-H ) :   0.9518 B( 29-N , 30-C ) :   1.2343 B( 29-N , 82-H ) :   0.9135
B( 30-C , 31-S ) :   1.1378 B( 30-C , 37-C ) :   1.3391 B( 31-S , 32-C ) :   1.0631
B( 32-C , 33-N ) :   0.9732 B( 32-C , 36-C ) :   1.5109 B( 33-N , 34-O ) :   1.5349
B( 33-N , 35-O ) :   1.5065 B( 34-O , 35-O ) :   0.2580 B( 36-C , 37-C ) :   1.2185
B( 36-C , 83-H ) :   0.9996 B( 37-C , 38-C ) :   1.0681 B( 38-C , 39-C ) :   1.6736
B( 38-C , 84-H ) :   0.9760 B( 39-C , 40-C ) :   1.1498 B( 39-C , 85-H ) :   0.9718
B( 40-C , 41-C ) :   1.5650 B( 40-C , 86-H ) :   0.9833 B( 41-C , 42-C ) :   1.1418
B( 41-C , 45-S ) :   1.0255 B( 42-C , 43-C ) :   1.5873 B( 42-C , 87-H ) :   0.9992
B( 43-C , 44-C ) :   1.1912 B( 43-C , 88-H ) :   0.9948 B( 44-C , 45-S ) :   1.0711
B( 44-C , 46-C ) :   1.4813 B( 46-C , 47-C ) :   1.2026 B( 46-C , 50-S ) :   1.0442
B( 47-C , 48-C ) :   1.5727 B( 47-C , 89-H ) :   0.9934 B( 48-C , 49-C ) :   1.1817
B( 48-C , 90-H ) :   0.9890 B( 49-C , 50-S ) :   1.0936 B( 49-C , 51-C ) :   1.3987
B( 51-C , 52-C ) :   1.2905 B( 51-C , 91-H ) :   0.9649 B( 52-C , 53-C ) :   1.4810
B( 52-C , 92-H ) :   0.9459 B( 53-C , 54-C ) :   1.1112 B( 53-C , 62-C ) :   0.9598
B( 54-C , 55-C ) :   1.5822 B( 54-C , 60-C ) :   0.9908 B( 55-C , 56-C ) :   1.1494
B( 55-C , 58-C ) :   1.1552 B( 56-C , 57-N ) :   2.9624 B( 58-C , 59-N ) :   2.9723
B( 60-C , 61-C ) :   1.2783 B( 60-C , 67-C ) :   1.4168 B( 61-C , 62-C ) :   0.9358
B( 61-C , 64-C ) :   1.4279 B( 62-C , 63-O ) :   2.1910 B( 64-C , 65-C ) :   1.2393
B( 64-C , 93-H ) :   1.0175 B( 65-C , 66-C ) :   1.3140 B( 65-C , 70-C ) :   1.1591
B( 66-C , 67-C ) :   1.3213 B( 66-C , 68-S ) :   1.0835 B( 67-C , 94-H ) :   0.9804
B( 68-S , 69-C ) :   1.0855 B( 69-C , 70-C ) :   1.6193 B( 69-C , 71-Br) :   1.0143
B( 70-C , 95-H ) :   1.0013

-----------------------------------------------------------------------------
         ABSORPTION SPECTRUM VIA TRANSITION ELECTRIC DIPOLE MOMENTS
-----------------------------------------------------------------------------
State   Energy  Wavelength   fosc         T2         TX        TY        TZ
        (cm-1)    (nm)                  (au**2)     (au)      (au)      (au)
-----------------------------------------------------------------------------
   0   12370.4    808.4   2.131372601  56.72205  -3.77307   3.11126   5.72766
   1   20924.5    477.9   0.066527287   1.04669  -0.55420   0.75917   0.40401
   2   21720.6    460.4   0.001915244   0.02903   0.09595  -0.12796  -0.05872
   3   22397.8    446.5   0.131517135   1.93309   0.84746   1.10180   0.03071
   4   22764.9    439.3   0.182933607   2.64548  -0.95257   1.12528   0.68690
   5   24492.0    408.3   0.078300063   1.05248   0.84182  -0.11914  -0.57413
   6   25525.5    391.8   0.300128423   3.87087   1.26640   1.50182   0.10792
   7   26313.9    380.0   0.037301090   0.46667   0.33127  -0.42298   0.42193
   8   26775.3    373.5   0.000000149   0.00000  -0.00060   0.00041  -0.00114
   9   27532.0    363.2   0.032010411   0.38276   0.03445  -0.61728  -0.02315
  10   27633.6    361.9   0.022812984   0.27178   0.03046  -0.35841  -0.37735
  11   28188.9    354.7   0.015904761   0.18575  -0.14180  -0.39378  -0.10284
  12   28530.6    350.5   0.029304316   0.33814   0.12648  -0.33068  -0.46129
  13   28832.5    346.8   0.125725794   1.43555   0.37637   1.12643   0.15823
  14   29586.5    338.0   0.947606192  10.54410   1.10284  -2.81837  -1.17671
  15   30190.1    331.2   0.025923344   0.28268  -0.39717   0.27017  -0.22793
  16   30380.2    329.2   0.019716296   0.21365   0.06384   0.44944  -0.08705
  17   30912.3    323.5   0.043529701   0.46359   0.56414   0.32882  -0.19289
  18   31598.6    316.5   0.121744451   1.26840   0.60860   0.94495   0.07117
  19   31752.6    314.9   0.000153114   0.00159   0.01117   0.02616   0.02790
  20   32247.0    310.1   0.603666920   6.16289  -0.32340  -2.19404  -1.11557
  21   32410.5    308.5   0.152409817   1.54812   0.34875   0.99566  -0.65966
  22   33242.4    300.8   0.046241122   0.45794   0.59826   0.30718  -0.07524
  23   33696.9    296.8   0.145304901   1.41960  -1.11909   0.35737   0.19882
  24   34378.9    290.9   0.613694234   5.87672  -1.21984   2.09492   0.00470
  25   34689.0    288.3   0.101482342   0.96311   0.70253  -0.01461  -0.68508
  26   34854.9    286.9   0.016297140   0.15393   0.10648   0.27104  -0.26293
  27   34894.1    286.6   0.001611462   0.01520   0.10416  -0.04405  -0.04914
  28   35118.4    284.8   0.405731434   3.80346  -1.23056   1.50942   0.10404
  29   35615.2    280.8   0.154170606   1.42509   0.46418  -1.05907  -0.29663
  30   35850.0    278.9   0.013006934   0.11944  -0.30543  -0.09904   0.12786
  31   36327.5    275.3   0.094378154   0.85529  -0.67280  -0.47917   0.41597
  32   36715.5    272.4   0.061630210   0.55261   0.01535  -0.68217  -0.29499
  33   36911.7    270.9   0.025932478   0.23129  -0.19346  -0.41873   0.13613
  34   36988.9    270.4   0.020911241   0.18612  -0.33280   0.24392  -0.12595
  35   37224.6    268.6   0.024366689   0.21550  -0.03107   0.45006  -0.10944
  36   37418.5    267.2   0.081619578   0.71810  -0.00118   0.83396   0.15038
  37   37664.4    265.5   0.016749763   0.14640   0.05950  -0.37790  -0.00741
  38   37886.4    263.9   0.037282215   0.32396   0.24190  -0.29348  -0.42345
  39   38155.0    262.1   0.017564085   0.15155  -0.26026  -0.11850   0.26414
  40   38410.4    260.3   0.095485691   0.81840   0.22684   0.64740  -0.58976
  41   38814.3    257.6   0.412962303   3.50263   1.35716   0.91920  -0.90322
  42   39266.3    254.7   0.037878996   0.31758   0.31012  -0.40213  -0.24433
  43   39630.2    252.3   0.026284999   0.21835  -0.15065   0.37272   0.23820
  44   39921.2    250.5   0.021998354   0.18141   0.27799  -0.30434  -0.10727
  45   39925.9    250.5   0.117654689   0.97013  -0.67284   0.68477   0.22024
  46   40061.5    249.6   0.060237023   0.49501   0.41087   0.37185  -0.43350

FINAL SINGLE POINT ENERGY     -7073.335356871323

DIPOLE MOMENT
-------------
                                X             Y             Z
Electronic contribution:    -65.71262     142.10807     138.16352
Nuclear contribution   :     67.89367    -145.37532    -139.79188
                        -----------------------------------------
Total Dipole Moment    :      2.18106      -3.26725      -1.62836
                        -----------------------------------------
Magnitude (a.u.)       :      4.25247
Magnitude (Debye)      :     10.80892

Rotational constants in cm-1:     0.001816     0.000110     0.000107
Rotational constants in MHz :    54.432821     3.304404     3.212086

                             ****ORCA TERMINATED NORMALLY****
TOTAL RUN TIME: 0 days 0 hours 9 minutes 10 seconds 985 msec
