                         Program Version 4.2.0 -  RELEASE  -
|  1> # ORCA input file
|  2> # SCF done       -169.908822620107          0.000965737864
|  3> ! CAM-B3LYP def2-SVP def2/J RIJCOSX Grid4 TightSCF
|  4> %maxcore 5000
|  5> %tddft
|  6>     Mode sTDDFT
|  7>     Ethresh 5.0
|  8>     maxcore 5000
|  9> end
| 10>
| 11> %pal
| 12>   nprocs 6
| 13>   end
| 14> * xyz 0 1
| 15>    C        9.68513        -7.42782         1.83740
| 16>    C        9.45645        -8.77034         1.95532
| 17>    F       10.08764        -9.46792         2.92113
| 18>    C        8.58423        -9.46155         1.10526
| 19>    C        7.93537        -8.76907         0.12024
| 20>    C        8.13228        -7.38358        -0.04538
| 21>    C        9.02307        -6.69910         0.83064
| 22>    C        9.22816        -5.30567         0.69221
| 23>    C        8.56475        -4.62550        -0.29108
| 24>    C        7.68504        -5.31690        -1.17269
| 25>    C        7.46440        -6.65777        -1.05913
| 26>    C        7.12458        -4.35645        -2.14798
| 27>    O        6.31291        -4.57763        -3.02196
| 28>    C        7.80976        -3.07538        -1.86980
| 29>    C        8.53778        -3.20587        -0.63800
| 30>    C        8.89869        -2.18263         0.21076
| 31>    C        8.53738        -0.83991        -0.00612
| 32>    N        8.21400         0.25639        -0.12632
| 33>    C        9.58270        -2.36891         1.42410
| 34>    N       10.17971        -2.46155         2.40218
| 35>    C        7.72744        -2.04845        -2.78230
| 36>    C        8.61051        -0.98782        -2.99128
| 37>    S       10.24552        -0.98538        -2.39130
| 38>    C       10.62435         0.53950        -3.11755
| 39>    C        9.51078         1.03576        -3.82721
| 40>    C        8.38378         0.16642        -3.77317
| 41>    C        7.19212         0.52090        -4.42388
| 42>    C        7.14308         1.70165        -5.11380
| 43>    F        6.01670         2.05677        -5.75099
| 44>    C        8.25891         2.56129        -5.17033
| 45>    F        8.16402         3.71178        -5.85856
| 46>    C        9.42977         2.24367        -4.53941
| 47>    C       11.87988         1.14986        -2.94188
| 48>    C       12.91185         0.59166        -2.25222
| 49>    C       14.14035         1.26099        -2.01452
| 50>    C       15.23367         0.76006        -1.39802
| 51>    C       15.37282        -0.62696        -0.86533
| 52>    C       16.39524         1.66704        -1.09004
| 53>    N       16.33089         2.01544         0.31907
| 54>    C       16.95814         1.28473         1.26727
| 55>    C       16.53886         1.17579         2.55969
| 56>    C       17.26471         0.50902         3.55713
| 57>    C       16.81194         0.29914         4.83794
| 58>    C       17.49471        -0.34012         5.89629
| 59>    C       16.77830        -0.42661         7.05507
| 60>    C       15.48549         0.12709         6.96969
| 61>    S       15.21121         0.79081         5.37856
| 62>    C       14.50152         0.15979         7.94699
| 63>    C       14.57560        -0.29853         9.27503
| 64>    C       13.41479        -0.13506         9.97690
| 65>    C       12.36565         0.45100         9.23678
| 66>    S       12.90908         0.80699         7.61292
| 67>    C       11.09100         0.70507         9.70466
| 68>    C       10.01832         1.24184         9.00227
| 69>    C        8.72040         1.49155         9.50679
| 70>    C        7.84063         2.03498         8.52072
| 71>    N        6.55838         2.35397         8.77114
| 72>    C        6.11873         2.14595         9.98161
| 73>    C        6.89526         1.61397        11.02831
| 74>    C        8.20711         1.28312        10.79342
| 75>    C        8.44707         2.20054         7.26640
| 76>    S       10.09837         1.69275         7.31883
| 77>    C        7.81528         2.70345         6.09322
| 78>    C        8.40304         2.82611         4.89978
| 79>    H       10.36097        -6.92689         2.51288
| 80>    H        8.44274       -10.52147         1.24563
| 81>    H        7.25799        -9.27989        -0.54761
| 82>    H        9.91094        -4.81212         1.36572
| 83>    H        6.78545        -7.16171        -1.73060
| 84>    H        6.91085        -2.13803        -3.49151
| 85>    H        6.32153        -0.11284        -4.38819
| 86>    H       10.26474         2.92221        -4.59645
| 87>    H       12.00570         2.13188        -3.37706
| 88>    H       12.77336        -0.40117        -1.84805
| 89>    H       14.18803         2.28374        -2.37138
| 90>    H       14.45353        -1.19589        -0.94744
| 91>    H       15.67093        -0.59940         0.18521
| 92>    H       16.15540        -1.15514        -1.41188
| 93>    H       16.34595         2.58676        -1.67902
| 94>    H       17.35206         1.17458        -1.27678
| 95>    H       15.44791         2.42449         0.60024
| 96>    H       17.87877         0.81209         0.94978
| 97>    H       15.59243         1.61798         2.84328
| 98>    H       18.24396         0.12169         3.30751
| 99>    H       18.49500        -0.71630         5.77138
|100>    H       17.14235        -0.88238         7.95825
|101>    H       15.47167        -0.73096         9.68257
|102>    H       13.28189        -0.42582        11.00427
|103>    H       10.90614         0.44471        10.73899
|104>    H        5.08398         2.41187        10.15572
|105>    H        6.45324         1.47207        12.00204
|106>    H        8.82765         0.87348        11.57759
|107>    H        6.78151         2.98540         6.24207
|108>    H        9.43100         2.53926         4.74763
|109>    H        7.87272         3.20664         4.04571
|110> *
|111>
|112>                          ****END OF INPUT****

CARTESIAN COORDINATES (ANGSTROEM)
---------------------------------
  C      9.685130   -7.427820    1.837400
  C      9.456450   -8.770340    1.955320
  F     10.087640   -9.467920    2.921130
  C      8.584230   -9.461550    1.105260
  C      7.935370   -8.769070    0.120240
  C      8.132280   -7.383580   -0.045380
  C      9.023070   -6.699100    0.830640
  C      9.228160   -5.305670    0.692210
  C      8.564750   -4.625500   -0.291080
  C      7.685040   -5.316900   -1.172690
  C      7.464400   -6.657770   -1.059130
  C      7.124580   -4.356450   -2.147980
  O      6.312910   -4.577630   -3.021960
  C      7.809760   -3.075380   -1.869800
  C      8.537780   -3.205870   -0.638000
  C      8.898690   -2.182630    0.210760
  C      8.537380   -0.839910   -0.006120
  N      8.214000    0.256390   -0.126320
  C      9.582700   -2.368910    1.424100
  N     10.179710   -2.461550    2.402180
  C      7.727440   -2.048450   -2.782300
  C      8.610510   -0.987820   -2.991280
  S     10.245520   -0.985380   -2.391300
  C     10.624350    0.539500   -3.117550
  C      9.510780    1.035760   -3.827210
  C      8.383780    0.166420   -3.773170
  C      7.192120    0.520900   -4.423880
  C      7.143080    1.701650   -5.113800
  F      6.016700    2.056770   -5.750990
  C      8.258910    2.561290   -5.170330
  F      8.164020    3.711780   -5.858560
  C      9.429770    2.243670   -4.539410
  C     11.879880    1.149860   -2.941880
  C     12.911850    0.591660   -2.252220
  C     14.140350    1.260990   -2.014520
  C     15.233670    0.760060   -1.398020
  C     15.372820   -0.626960   -0.865330
  C     16.395240    1.667040   -1.090040
  N     16.330890    2.015440    0.319070
  C     16.958140    1.284730    1.267270
  C     16.538860    1.175790    2.559690
  C     17.264710    0.509020    3.557130
  C     16.811940    0.299140    4.837940
  C     17.494710   -0.340120    5.896290
  C     16.778300   -0.426610    7.055070
  C     15.485490    0.127090    6.969690
  S     15.211210    0.790810    5.378560
  C     14.501520    0.159790    7.946990
  C     14.575600   -0.298530    9.275030
  C     13.414790   -0.135060    9.976900
  C     12.365650    0.451000    9.236780
  S     12.909080    0.806990    7.612920
  C     11.091000    0.705070    9.704660
  C     10.018320    1.241840    9.002270
  C      8.720400    1.491550    9.506790
  C      7.840630    2.034980    8.520720
  N      6.558380    2.353970    8.771140
  C      6.118730    2.145950    9.981610
  C      6.895260    1.613970   11.028310
  C      8.207110    1.283120   10.793420
  C      8.447070    2.200540    7.266400
  S     10.098370    1.692750    7.318830
  C      7.815280    2.703450    6.093220
  C      8.403040    2.826110    4.899780
  H     10.360970   -6.926890    2.512880
  H      8.442740  -10.521470    1.245630
  H      7.257990   -9.279890   -0.547610
  H      9.910940   -4.812120    1.365720
  H      6.785450   -7.161710   -1.730600
  H      6.910850   -2.138030   -3.491510
  H      6.321530   -0.112840   -4.388190
  H     10.264740    2.922210   -4.596450
  H     12.005700    2.131880   -3.377060
  H     12.773360   -0.401170   -1.848050
  H     14.188030    2.283740   -2.371380
  H     14.453530   -1.195890   -0.947440
  H     15.670930   -0.599400    0.185210
  H     16.155400   -1.155140   -1.411880
  H     16.345950    2.586760   -1.679020
  H     17.352060    1.174580   -1.276780
  H     15.447910    2.424490    0.600240
  H     17.878770    0.812090    0.949780
  H     15.592430    1.617980    2.843280
  H     18.243960    0.121690    3.307510
  H     18.495000   -0.716300    5.771380
  H     17.142350   -0.882380    7.958250
  H     15.471670   -0.730960    9.682570
  H     13.281890   -0.425820   11.004270
  H     10.906140    0.444710   10.738990
  H      5.083980    2.411870   10.155720
  H      6.453240    1.472070   12.002040
  H      8.827650    0.873480   11.577590
  H      6.781510    2.985400    6.242070
  H      9.431000    2.539260    4.747630
  H      7.872720    3.206640    4.045710

 Total Charge           Charge          ....    0
 Multiplicity           Mult            ....    1
 Number of Electrons    NEL             ....  470
 Basis Dimension        Dim             .... 1067

ORBITAL ENERGIES
----------------

  NO   OCC          E(Eh)            E(eV)
   0   2.0000     -88.982653     -2421.3411
   1   2.0000     -88.944289     -2420.2972
   2   2.0000     -88.930785     -2419.9297
   3   2.0000     -88.930710     -2419.9277
   4   2.0000     -24.796870      -674.7571
   5   2.0000     -24.794277      -674.6866
   6   2.0000     -24.779325      -674.2797
   7   2.0000     -19.202660      -522.5309
   8   2.0000     -14.446262      -393.1028
   9   2.0000     -14.405513      -391.9939
  10   2.0000     -14.404778      -391.9739
  11   2.0000     -14.382203      -391.3596
  12   2.0000     -10.382344      -282.5179
  13   2.0000     -10.377672      -282.3908
  14   2.0000     -10.362716      -281.9838
  15   2.0000     -10.355037      -281.7749
  16   2.0000     -10.337715      -281.3035
  17   2.0000     -10.331767      -281.1417
  18   2.0000     -10.330267      -281.1009
  19   2.0000     -10.327089      -281.0144
  20   2.0000     -10.321989      -280.8756
  21   2.0000     -10.318152      -280.7712
  22   2.0000     -10.316256      -280.7196
  23   2.0000     -10.312218      -280.6097
  24   2.0000     -10.308719      -280.5145
  25   2.0000     -10.307688      -280.4864
  26   2.0000     -10.307389      -280.4783
  27   2.0000     -10.306226      -280.4467
  28   2.0000     -10.305601      -280.4297
  29   2.0000     -10.304180      -280.3910
  30   2.0000     -10.302989      -280.3586
  31   2.0000     -10.299641      -280.2675
  32   2.0000     -10.298553      -280.2379
  33   2.0000     -10.298398      -280.2336
  34   2.0000     -10.297343      -280.2050
  35   2.0000     -10.293584      -280.1027
  36   2.0000     -10.291586      -280.0483
  37   2.0000     -10.291199      -280.0378
  38   2.0000     -10.290706      -280.0243
  39   2.0000     -10.290472      -280.0180
  40   2.0000     -10.289695      -279.9968
  41   2.0000     -10.289597      -279.9942
  42   2.0000     -10.289153      -279.9821
  43   2.0000     -10.289103      -279.9807
  44   2.0000     -10.288030      -279.9515
  45   2.0000     -10.286625      -279.9133
  46   2.0000     -10.285623      -279.8860
  47   2.0000     -10.282780      -279.8087
  48   2.0000     -10.282514      -279.8014
  49   2.0000     -10.281334      -279.7693
  50   2.0000     -10.281288      -279.7681
  51   2.0000     -10.277356      -279.6611
  52   2.0000     -10.275256      -279.6039
  53   2.0000     -10.274541      -279.5845
  54   2.0000     -10.272160      -279.5197
  55   2.0000     -10.271551      -279.5031
  56   2.0000     -10.269968      -279.4600
  57   2.0000     -10.267695      -279.3982
  58   2.0000     -10.266407      -279.3631
  59   2.0000     -10.263875      -279.2942
  60   2.0000     -10.262877      -279.2671
  61   2.0000     -10.259263      -279.1687
  62   2.0000     -10.250982      -278.9434
  63   2.0000     -10.237925      -278.5881
  64   2.0000      -8.077025      -219.7870
  65   2.0000      -8.038901      -218.7496
  66   2.0000      -8.027092      -218.4283
  67   2.0000      -8.026746      -218.4189
  68   2.0000      -6.046056      -164.5216
  69   2.0000      -6.042012      -164.4115
  70   2.0000      -6.039686      -164.3482
  71   2.0000      -6.007835      -163.4815
  72   2.0000      -6.003820      -163.3722
  73   2.0000      -6.001736      -163.3155
  74   2.0000      -5.996780      -163.1807
  75   2.0000      -5.996457      -163.1719
  76   2.0000      -5.992843      -163.0736
  77   2.0000      -5.992322      -163.0594
  78   2.0000      -5.988016      -162.9422
  79   2.0000      -5.987825      -162.9370
  80   2.0000      -1.317615       -35.8541
  81   2.0000      -1.302341       -35.4385
  82   2.0000      -1.293278       -35.1919
  83   2.0000      -1.117005       -30.3952
  84   2.0000      -1.049878       -28.5686
  85   2.0000      -1.021376       -27.7931
  86   2.0000      -1.020594       -27.7718
  87   2.0000      -1.007843       -27.4248
  88   2.0000      -0.991711       -26.9858
  89   2.0000      -0.983478       -26.7618
  90   2.0000      -0.980850       -26.6903
  91   2.0000      -0.968820       -26.3629
  92   2.0000      -0.962232       -26.1837
  93   2.0000      -0.958508       -26.0823
  94   2.0000      -0.948698       -25.8154
  95   2.0000      -0.940712       -25.5981
  96   2.0000      -0.923827       -25.1386
  97   2.0000      -0.912887       -24.8409
  98   2.0000      -0.895900       -24.3787
  99   2.0000      -0.889571       -24.2065
 100   2.0000      -0.887141       -24.1403
 101   2.0000      -0.879529       -23.9332
 102   2.0000      -0.876540       -23.8519
 103   2.0000      -0.864839       -23.5335
 104   2.0000      -0.861897       -23.4534
 105   2.0000      -0.847689       -23.0668
 106   2.0000      -0.844609       -22.9830
 107   2.0000      -0.832379       -22.6502
 108   2.0000      -0.830512       -22.5994
 109   2.0000      -0.827315       -22.5124
 110   2.0000      -0.821855       -22.3638
 111   2.0000      -0.813618       -22.1397
 112   2.0000      -0.806757       -21.9530
 113   2.0000      -0.802193       -21.8288
 114   2.0000      -0.798667       -21.7328
 115   2.0000      -0.777351       -21.1528
 116   2.0000      -0.767382       -20.8815
 117   2.0000      -0.752460       -20.4755
 118   2.0000      -0.748589       -20.3701
 119   2.0000      -0.746026       -20.3004
 120   2.0000      -0.729616       -19.8539
 121   2.0000      -0.719667       -19.5831
 122   2.0000      -0.711963       -19.3735
 123   2.0000      -0.705171       -19.1887
 124   2.0000      -0.703497       -19.1431
 125   2.0000      -0.701175       -19.0799
 126   2.0000      -0.693853       -18.8807
 127   2.0000      -0.674645       -18.3580
 128   2.0000      -0.674398       -18.3513
 129   2.0000      -0.673245       -18.3199
 130   2.0000      -0.668471       -18.1900
 131   2.0000      -0.663057       -18.0427
 132   2.0000      -0.648103       -17.6358
 133   2.0000      -0.647686       -17.6244
 134   2.0000      -0.639692       -17.4069
 135   2.0000      -0.626819       -17.0566
 136   2.0000      -0.623440       -16.9647
 137   2.0000      -0.620929       -16.8963
 138   2.0000      -0.619948       -16.8696
 139   2.0000      -0.617820       -16.8117
 140   2.0000      -0.616931       -16.7876
 141   2.0000      -0.609796       -16.5934
 142   2.0000      -0.605870       -16.4866
 143   2.0000      -0.602219       -16.3872
 144   2.0000      -0.595802       -16.2126
 145   2.0000      -0.592029       -16.1099
 146   2.0000      -0.584248       -15.8982
 147   2.0000      -0.583083       -15.8665
 148   2.0000      -0.582806       -15.8590
 149   2.0000      -0.574251       -15.6262
 150   2.0000      -0.572485       -15.5781
 151   2.0000      -0.559921       -15.2362
 152   2.0000      -0.558682       -15.2025
 153   2.0000      -0.557231       -15.1630
 154   2.0000      -0.552242       -15.0273
 155   2.0000      -0.551685       -15.0121
 156   2.0000      -0.551264       -15.0007
 157   2.0000      -0.547794       -14.9062
 158   2.0000      -0.547487       -14.8979
 159   2.0000      -0.544213       -14.8088
 160   2.0000      -0.542831       -14.7712
 161   2.0000      -0.537582       -14.6284
 162   2.0000      -0.531070       -14.4511
 163   2.0000      -0.527012       -14.3407
 164   2.0000      -0.524158       -14.2631
 165   2.0000      -0.520232       -14.1562
 166   2.0000      -0.516574       -14.0567
 167   2.0000      -0.516426       -14.0527
 168   2.0000      -0.512819       -13.9545
 169   2.0000      -0.511326       -13.9139
 170   2.0000      -0.507734       -13.8162
 171   2.0000      -0.504285       -13.7223
 172   2.0000      -0.500742       -13.6259
 173   2.0000      -0.493311       -13.4237
 174   2.0000      -0.493068       -13.4171
 175   2.0000      -0.489096       -13.3090
 176   2.0000      -0.488071       -13.2811
 177   2.0000      -0.486577       -13.2404
 178   2.0000      -0.485086       -13.1999
 179   2.0000      -0.483144       -13.1470
 180   2.0000      -0.482017       -13.1163
 181   2.0000      -0.481381       -13.0991
 182   2.0000      -0.478180       -13.0119
 183   2.0000      -0.474356       -12.9079
 184   2.0000      -0.472247       -12.8505
 185   2.0000      -0.469898       -12.7866
 186   2.0000      -0.468764       -12.7557
 187   2.0000      -0.467253       -12.7146
 188   2.0000      -0.464209       -12.6318
 189   2.0000      -0.459050       -12.4914
 190   2.0000      -0.457675       -12.4540
 191   2.0000      -0.454497       -12.3675
 192   2.0000      -0.453471       -12.3396
 193   2.0000      -0.449585       -12.2338
 194   2.0000      -0.448049       -12.1920
 195   2.0000      -0.447106       -12.1664
 196   2.0000      -0.443803       -12.0765
 197   2.0000      -0.440979       -11.9997
 198   2.0000      -0.435463       -11.8495
 199   2.0000      -0.433025       -11.7832
 200   2.0000      -0.431236       -11.7345
 201   2.0000      -0.429989       -11.7006
 202   2.0000      -0.429110       -11.6767
 203   2.0000      -0.425908       -11.5895
 204   2.0000      -0.425175       -11.5696
 205   2.0000      -0.419178       -11.4064
 206   2.0000      -0.417595       -11.3634
 207   2.0000      -0.416359       -11.3297
 208   2.0000      -0.415487       -11.3060
 209   2.0000      -0.409482       -11.1426
 210   2.0000      -0.408093       -11.1048
 211   2.0000      -0.397804       -10.8248
 212   2.0000      -0.395686       -10.7672
 213   2.0000      -0.393429       -10.7058
 214   2.0000      -0.393154       -10.6983
 215   2.0000      -0.377931       -10.2840
 216   2.0000      -0.371763       -10.1162
 217   2.0000      -0.370626       -10.0852
 218   2.0000      -0.369169       -10.0456
 219   2.0000      -0.341101        -9.2818
 220   2.0000      -0.338465        -9.2101
 221   2.0000      -0.328800        -8.9471
 222   2.0000      -0.326733        -8.8909
 223   2.0000      -0.324426        -8.8281
 224   2.0000      -0.321083        -8.7371
 225   2.0000      -0.318287        -8.6610
 226   2.0000      -0.310545        -8.4504
 227   2.0000      -0.309838        -8.4311
 228   2.0000      -0.304526        -8.2866
 229   2.0000      -0.297270        -8.0891
 230   2.0000      -0.291048        -7.9198
 231   2.0000      -0.282514        -7.6876
 232   2.0000      -0.250163        -6.8073
 233   2.0000      -0.235670        -6.4129
 234   2.0000      -0.181512        -4.9392
 235   0.0000      -0.107581        -2.9274
 236   0.0000      -0.067932        -1.8485
 237   0.0000      -0.055558        -1.5118
 238   0.0000      -0.039742        -1.0814
 239   0.0000      -0.018175        -0.4946

MULLIKEN ATOMIC CHARGES
-----------------------
   0 C :   -0.099865
   1 C :    0.302556
   2 F :   -0.194975
   3 C :   -0.030588
   4 C :   -0.012336
   5 C :    0.101940
   6 C :    0.101310
   7 C :   -0.089774
   8 C :    0.039999
   9 C :    0.010501
  10 C :   -0.084678
  11 C :    0.140265
  12 O :   -0.155519
  13 C :   -0.148345
  14 C :    0.262035
  15 C :   -0.342214
  16 C :   -0.214873
  17 N :    0.162407
  18 C :   -0.168728
  19 N :    0.143233
  20 C :    0.016456
  21 C :   -0.125667
  22 S :    0.165541
  23 C :   -0.051502
  24 C :    0.124515
  25 C :    0.178480
  26 C :   -0.111643
  27 C :    0.240764
  28 F :   -0.170563
  29 C :    0.225771
  30 F :   -0.177011
  31 C :   -0.111192
  32 C :   -0.018864
  33 C :    0.025912
  34 C :    0.007788
  35 C :   -0.193808
  36 C :    0.094883
  37 C :    0.205009
  38 N :   -0.138569
  39 C :    0.027393
  40 C :   -0.012150
  41 C :   -0.009239
  42 C :   -0.038610
  43 C :    0.040670
  44 C :    0.011778
  45 C :   -0.039821
  46 S :    0.065634
  47 C :   -0.041027
  48 C :    0.025733
  49 C :    0.020372
  50 C :   -0.034669
  51 S :    0.063813
  52 C :   -0.029849
  53 C :   -0.094380
  54 C :    0.104553
  55 C :    0.012815
  56 N :   -0.044355
  57 C :    0.021302
  58 C :   -0.006205
  59 C :    0.014536
  60 C :   -0.123028
  61 S :    0.124158
  62 C :    0.003871
  63 C :   -0.027708
  64 H :   -0.003356
  65 H :    0.001723
  66 H :   -0.010535
  67 H :   -0.006812
  68 H :   -0.014317
  69 H :    0.021415
  70 H :    0.002459
  71 H :   -0.007272
  72 H :   -0.010153
  73 H :    0.007222
  74 H :   -0.023619
  75 H :    0.016308
  76 H :    0.048404
  77 H :    0.029535
  78 H :    0.015506
  79 H :    0.017391
  80 H :    0.121481
  81 H :    0.000563
  82 H :   -0.007290
  83 H :   -0.024352
  84 H :   -0.021312
  85 H :   -0.020190
  86 H :   -0.022377
  87 H :   -0.021688
  88 H :   -0.027373
  89 H :   -0.004882
  90 H :   -0.014694
  91 H :   -0.019885
  92 H :   -0.000030
  93 H :    0.012936
  94 H :    0.020956
Sum of atomic charges:   -0.0000000

LOEWDIN ATOMIC CHARGES
----------------------
   0 C :   -0.042887
   1 C :    0.092278
   2 F :   -0.069245
   3 C :   -0.039783
   4 C :    0.003337
   5 C :   -0.019912
   6 C :    0.002275
   7 C :    0.006860
   8 C :   -0.015626
   9 C :   -0.057175
  10 C :    0.030485
  11 C :    0.079573
  12 O :   -0.157800
  13 C :   -0.114685
  14 C :    0.058362
  15 C :   -0.158389
  16 C :   -0.037027
  17 N :   -0.058606
  18 C :   -0.021446
  19 N :   -0.059248
  20 C :    0.046454
  21 C :   -0.192202
  22 S :    0.516458
  23 C :   -0.123738
  24 C :   -0.049537
  25 C :   -0.007783
  26 C :   -0.036466
  27 C :    0.078525
  28 F :   -0.048435
  29 C :    0.060704
  30 F :   -0.055809
  31 C :   -0.029041
  32 C :   -0.051955
  33 C :    0.008428
  34 C :   -0.059211
  35 C :   -0.016196
  36 C :   -0.048963
  37 C :    0.049829
  38 N :    0.000668
  39 C :    0.032923
  40 C :   -0.113873
  41 C :   -0.040035
  42 C :   -0.171018
  43 C :   -0.030545
  44 C :   -0.047872
  45 C :   -0.169176
  46 S :    0.364782
  47 C :   -0.194992
  48 C :   -0.040105
  49 C :   -0.045442
  50 C :   -0.155433
  51 S :    0.372168
  52 C :   -0.084862
  53 C :   -0.173079
  54 C :   -0.067879
  55 C :   -0.031221
  56 N :   -0.071665
  57 C :    0.019642
  58 C :   -0.064319
  59 C :    0.015701
  60 C :   -0.196290
  61 S :    0.474731
  62 C :   -0.032648
  63 C :   -0.061181
  64 H :    0.042657
  65 H :    0.040981
  66 H :    0.034940
  67 H :    0.038376
  68 H :    0.038548
  69 H :    0.047568
  70 H :    0.045606
  71 H :    0.041420
  72 H :    0.034318
  73 H :    0.023165
  74 H :    0.027371
  75 H :    0.031693
  76 H :    0.043602
  77 H :    0.041455
  78 H :    0.027267
  79 H :    0.030934
  80 H :    0.080668
  81 H :    0.025138
  82 H :    0.020549
  83 H :    0.029335
  84 H :    0.030107
  85 H :    0.029146
  86 H :    0.028588
  87 H :    0.029482
  88 H :    0.034414
  89 H :    0.018622
  90 H :    0.028294
  91 H :    0.028299
  92 H :    0.038073
  93 H :    0.013988
  94 H :    0.024007

  Mayer bond orders larger than 0.100000
B(  0-C ,  1-C ) :   1.4392 B(  0-C ,  6-C ) :   1.2039 B(  0-C , 64-H ) :   1.0073
B(  1-C ,  2-F ) :   1.0839 B(  1-C ,  3-C ) :   1.2581 B(  3-C ,  4-C ) :   1.4569
B(  3-C , 65-H ) :   0.9924 B(  4-C ,  5-C ) :   1.2367 B(  4-C , 66-H ) :   0.9973
B(  5-C ,  6-C ) :   1.2616 B(  5-C , 10-C ) :   1.1841 B(  6-C ,  7-C ) :   1.1955
B(  7-C ,  8-C ) :   1.4680 B(  7-C , 67-H ) :   0.9947 B(  8-C ,  9-C ) :   1.2166
B(  8-C , 14-C ) :   0.9991 B(  9-C , 10-C ) :   1.4788 B(  9-C , 11-C ) :   0.9196
B( 10-C , 68-H ) :   1.0156 B( 11-C , 12-O ) :   2.2542 B( 11-C , 13-C ) :   0.9605
B( 13-C , 14-C ) :   1.0796 B( 13-C , 20-C ) :   1.5329 B( 14-C , 15-C ) :   1.6064
B( 15-C , 16-C ) :   1.1613 B( 15-C , 18-C ) :   1.1421 B( 16-C , 17-N ) :   3.0200
B( 18-C , 19-N ) :   2.9735 B( 20-C , 21-C ) :   1.2529 B( 20-C , 69-H ) :   0.9389
B( 21-C , 22-S ) :   1.1040 B( 21-C , 25-C ) :   1.2633 B( 22-S , 23-C ) :   1.1911
B( 23-C , 24-C ) :   1.2821 B( 23-C , 32-C ) :   1.1829 B( 24-C , 25-C ) :   1.2333
B( 24-C , 31-C ) :   1.1741 B( 25-C , 26-C ) :   1.1986 B( 26-C , 27-C ) :   1.4725
B( 26-C , 31-C ) :   0.1116 B( 26-C , 70-H ) :   0.9978 B( 27-C , 28-F ) :   1.1355
B( 27-C , 29-C ) :   1.1707 B( 29-C , 30-F ) :   1.1298 B( 29-C , 31-C ) :   1.4932
B( 31-C , 71-H ) :   0.9971 B( 32-C , 33-C ) :   1.6310 B( 32-C , 72-H ) :   0.9760
B( 33-C , 34-C ) :   1.1365 B( 33-C , 73-H ) :   0.9699 B( 34-C , 35-C ) :   1.7122
B( 34-C , 74-H ) :   0.9762 B( 35-C , 36-C ) :   1.0824 B( 35-C , 37-C ) :   1.0373
B( 36-C , 75-H ) :   0.9503 B( 36-C , 76-H ) :   0.9359 B( 36-C , 77-H ) :   0.9403
B( 37-C , 38-N ) :   1.0103 B( 37-C , 78-H ) :   0.9419 B( 37-C , 79-H ) :   0.9323
B( 38-N , 39-C ) :   1.2169 B( 38-N , 80-H ) :   0.9347 B( 39-C , 40-C ) :   1.5867
B( 39-C , 81-H ) :   0.9675 B( 40-C , 41-C ) :   1.1763 B( 40-C , 82-H ) :   0.9613
B( 41-C , 42-C ) :   1.5694 B( 41-C , 83-H ) :   0.9798 B( 42-C , 43-C ) :   1.1577
B( 42-C , 46-S ) :   1.0184 B( 43-C , 44-C ) :   1.5708 B( 43-C , 84-H ) :   0.9973
B( 44-C , 45-C ) :   1.2083 B( 44-C , 85-H ) :   0.9937 B( 45-C , 46-S ) :   1.0586
B( 45-C , 47-C ) :   1.4741 B( 47-C , 48-C ) :   1.2136 B( 47-C , 51-S ) :   1.0355
B( 48-C , 49-C ) :   1.5568 B( 48-C , 86-H ) :   0.9923 B( 49-C , 50-C ) :   1.1742
B( 49-C , 87-H ) :   0.9988 B( 50-C , 51-S ) :   1.0490 B( 50-C , 52-C ) :   1.5080
B( 52-C , 53-C ) :   1.2647 B( 52-C , 88-H ) :   0.9610 B( 53-C , 54-C ) :   1.2583
B( 53-C , 60-C ) :   0.1005 B( 53-C , 61-S ) :   1.1299 B( 54-C , 55-C ) :   1.2068
B( 54-C , 59-C ) :   1.2695 B( 55-C , 56-N ) :   1.4061 B( 55-C , 60-C ) :   1.3295
B( 56-N , 57-C ) :   1.6947 B( 57-C , 58-C ) :   1.2163 B( 57-C , 89-H ) :   0.9774
B( 58-C , 59-C ) :   1.5481 B( 58-C , 90-H ) :   0.9696 B( 59-C , 91-H ) :   0.9770
B( 60-C , 61-S ) :   1.1303 B( 60-C , 62-C ) :   1.1759 B( 62-C , 63-C ) :   1.8643
B( 62-C , 92-H ) :   0.9581 B( 63-C , 93-H ) :   0.9550 B( 63-C , 94-H ) :   0.9518

-----------------------------------------------------------------------------
         ABSORPTION SPECTRUM VIA TRANSITION ELECTRIC DIPOLE MOMENTS
-----------------------------------------------------------------------------
State   Energy  Wavelength   fosc         T2         TX        TY        TZ
        (cm-1)    (nm)                  (au**2)     (au)      (au)      (au)
-----------------------------------------------------------------------------
   0    5543.9   1803.8   0.065014966   3.86080  -0.37421  -0.70043  -1.79727
   1   11941.7    837.4   0.636347158  17.54302   3.38728  -1.05120  -2.22807
   2   14419.4    693.5   0.727053049  16.59950   3.31517   1.84906  -1.47990
   3   16862.0    593.1   0.093537772   1.82622   0.72517  -0.60801   0.96472
   4   17609.9    567.9   0.039266163   0.73407   0.41819  -0.40404   0.62924
   5   19842.9    504.0   0.021301859   0.35342  -0.37584  -0.04625   0.45828
   6   21818.1    458.3   0.029321245   0.44243   0.29315  -0.36285   0.47416
   7   23353.0    428.2   0.913876782  12.88310  -0.69382   0.97132  -3.38500
   8   23574.6    424.2   0.025123480   0.35084   0.11049  -0.38050  -0.44029
   9   25439.3    393.1   0.087045093   1.12646   0.89773   0.55342   0.11942
  10   26089.9    383.3   0.224873790   2.83754  -1.41906  -0.67962  -0.60160
  11   26373.2    379.2   0.059741515   0.74574   0.45571   0.69936  -0.22126
  12   26797.0    373.2   0.048692759   0.59821   0.00762   0.74119   0.22088
  13   27949.7    357.8   0.073315802   0.86357   0.22386   0.89534   0.10874
  14   28238.1    354.1   0.024660910   0.28751  -0.05940  -0.19711   0.49510
  15   28560.1    350.1   0.111132459   1.28102   0.32109  -0.43085   0.99614
  16   28914.6    345.8   0.017151339   0.19528   0.05680   0.34367  -0.27193
  17   29058.4    344.1   0.029636174   0.33576   0.14382   0.55893  -0.05164
  18   29241.9    342.0   0.201458522   2.26807  -0.85831   0.88291  -0.86709
  19   29744.2    336.2   0.002677170   0.02963   0.12338  -0.04403   0.11166
  20   29768.8    335.9   0.093784288   1.03716  -0.32802   0.67050  -0.69281
  21   30264.9    330.4   0.317383611   3.45240  -1.41365   0.71884  -0.96813
  22   31145.0    321.1   0.075683411   0.80000   0.69394  -0.39759   0.40046
  23   31838.0    314.1   0.122468922   1.26635   0.59624  -0.46759   0.83199
  24   32130.9    311.2   0.081417985   0.83420  -0.00340  -0.90876  -0.09139
  25   32589.5    306.8   0.130379241   1.31706   0.52628  -0.51169   0.88219
  26   33123.9    301.9   0.014350570   0.14263  -0.34046   0.07283   0.14633
  27   33271.1    300.6   0.001245366   0.01232   0.02245   0.10575   0.02521
  28   33370.2    299.7   0.520368372   5.13367   0.43346  -2.08672   0.76901
  29   33725.6    296.5   0.089074868   0.86950  -0.40308   0.41834  -0.72940
  30   33845.0    295.5   0.046527785   0.45258  -0.01783  -0.55980   0.37268
  31   34017.9    294.0   0.026503805   0.25649   0.30483  -0.36048   0.18339
  32   34677.9    288.4   0.127413917   1.20959  -1.07646   0.12656  -0.18658
  33   35207.4    284.0   0.155878917   1.45757   0.99802   0.01439   0.67920
  34   35491.7    281.8   0.000120544   0.00112  -0.00578  -0.03242  -0.00579
  35   35951.6    278.2   0.127908417   1.17127   0.38068  -0.99964   0.16454
  36   36094.9    277.0   0.174889013   1.59512   0.70155  -1.00935   0.29010
  37   36451.6    274.3   0.112418308   1.01530   0.10683   0.33805  -0.94319
  38   36825.8    271.5   0.125280099   1.11997  -0.40706  -0.52681  -0.82264
  39   37272.6    268.3   0.085267161   0.75313   0.19618   0.33462  -0.77632
  40   37775.2    264.7   0.002410943   0.02101   0.07799  -0.10258  -0.06639
  41   38094.8    262.5   0.008051922   0.06958   0.21668   0.14965  -0.01543
  42   38152.7    262.1   0.065971777   0.56926   0.42301  -0.19292  -0.59422
  43   38287.1    261.2   0.243179269   2.09098  -0.69323  -0.98569  -0.79926
  44   38588.6    259.1   0.100076236   0.85378  -0.67191  -0.09339   0.62737
  45   38735.0    258.2   0.098803731   0.83974   0.41420  -0.15009  -0.80353
  46   38941.0    256.8   0.036858934   0.31161  -0.53970   0.12921  -0.06036
  47   39204.3    255.1   0.036339734   0.30516  -0.46906  -0.28658  -0.05485
  48   39972.2    250.2   0.002671480   0.02200  -0.07780   0.12081  -0.03682
  49   40150.3    249.1   0.157870094   1.29446   0.37549  -0.84429   0.66380

FINAL SINGLE POINT ENERGY     -4182.843600649116

DIPOLE MOMENT
-------------
                                X             Y             Z
Electronic contribution:    -42.32898      -8.90616     -28.52813
Nuclear contribution   :     45.99335       7.85495      26.72692
                        -----------------------------------------
Total Dipole Moment    :      3.66437      -1.05122      -1.80121
                        -----------------------------------------
Magnitude (a.u.)       :      4.21628
Magnitude (Debye)      :     10.71693

Rotational constants in cm-1:     0.000896     0.000525     0.000482
Rotational constants in MHz :    26.868202    15.737540    14.464278

                             ****ORCA TERMINATED NORMALLY****
TOTAL RUN TIME: 0 days 0 hours 8 minutes 38 seconds 921 msec
