                         Program Version 4.2.0 -  RELEASE  -
|  1> # ORCA input file
|  2> # SCF done       -212.417311992348          0.000736688814
|  3> ! CAM-B3LYP def2-SVP def2/J RIJCOSX Grid4 TightSCF
|  4> %maxcore 5000
|  5> %tddft
|  6>     Mode sTDDFT
|  7>     Ethresh 5.0
|  8>     maxcore 5000
|  9> end
| 10>
| 11> %pal
| 12>   nprocs 6
| 13>   end
| 14> * xyz 0 1
| 15>    C       10.43505        -2.36113        10.33406
| 16>    C        9.73317        -2.22239        11.49940
| 17>    F       10.36260        -2.39068        12.67535
| 18>    C        8.36708        -1.90912        11.52158
| 19>    C        7.70910        -1.73514        10.33596
| 20>    C        8.38349        -1.86761         9.10481
| 21>    C        9.77262        -2.18913         9.10333
| 22>    C       10.46747        -2.34126         7.88028
| 23>    C        9.79261        -2.17571         6.70178
| 24>    C        8.40848        -1.83500         6.70948
| 25>    C        7.71273        -1.68751         7.87460
| 26>    C        7.93769        -1.68079         5.32168
| 27>    O        6.81711        -1.44543         4.93066
| 28>    C        9.15823        -1.81923         4.47767
| 29>    C       10.22428        -2.31915         5.31377
| 30>    C       11.30383        -3.05463         4.89521
| 31>    C       11.50819        -3.42352         3.55144
| 32>    N       11.67648        -3.77199         2.47009
| 33>    C       12.26251        -3.61087         5.76558
| 34>    N       13.08023        -4.07367         6.42477
| 35>    C        9.09985        -1.41467         3.17612
| 36>    C       10.12180        -1.05107         2.28053
| 37>    S       11.70806        -0.55988         2.77104
| 38>    C       12.19201        -0.13445         1.16968
| 39>    C       11.16768        -0.42614         0.24977
| 40>    C        9.98447        -0.91097         0.88569
| 41>    C        8.85362        -1.24531         0.12003
| 42>    C        8.91398        -1.11485        -1.23837
| 43>    F        7.84863        -1.41844        -1.99003
| 44>    C       10.10091        -0.68918        -1.87477
| 45>    F       10.13559        -0.62451        -3.21458
| 46>    C       11.21271        -0.35494        -1.15576
| 47>    C       13.47605         0.44679         0.99581
| 48>    C       13.88850         1.19781        -0.05209
| 49>    C       15.21053         1.73222        -0.13430
| 50>    C       15.71065         2.49230        -1.12587
| 51>    C       14.98488         2.93423        -2.35225
| 52>    C       17.16035         2.93367        -1.04431
| 53>    N       18.04581         1.79670        -1.09699
| 54>    C       18.76617         1.34166        -0.08021
| 55>    C       19.60157         0.25205        -0.17799
| 56>    C       20.38217        -0.24383         0.86507
| 57>    C       21.55363        -1.00062         0.76246
| 58>    N       22.12145        -1.53923        -0.39322
| 59>    O       21.49369        -1.47063        -1.44409
| 60>    O       23.22355        -2.05512        -0.29630
| 61>    C       22.18115        -1.04623         2.04181
| 62>    C       21.43225        -0.33619         2.94381
| 63>    C       20.25925         0.12517         2.30247
| 64>    C       19.11487         0.63508         2.90263
| 65>    C       17.76842         0.29590         2.54064
| 66>    C       16.92797         0.74452         3.51581
| 67>    C       17.69512         1.45369         4.49002
| 68>    N       17.11185         2.12245         5.57914
| 69>    O       17.83436         2.74849         6.33624
| 70>    O       15.90083         2.03484         5.70243
| 71>    C       19.04631         1.41236         4.13574
| 72>    C       20.12835         2.13410         4.69833
| 73>    C       21.21862         2.48024         3.95674
| 74>    C       22.37530         3.10463         4.46461
| 75>    C       23.49055         3.31863         3.69787
| 76>    C       24.75150         3.89852         4.12420
| 77>    C       25.02632         4.47063         5.33927
| 78>    C       26.27316         5.03490         5.68346
| 79>    N       27.26059         5.51208         6.02243
| 80>    C       24.11815         4.59852         6.41186
| 81>    N       23.44325         4.74488         7.32877
| 82>    C       25.69088         3.78811         3.01318
| 83>    C       25.02586         3.19686         1.91094
| 84>    C       23.62756         2.91471         2.27334
| 85>    O       22.77863         2.45485         1.53350
| 86>    C       25.64908         2.94820         0.71154
| 87>    C       26.99574         3.30363         0.59117
| 88>    C       27.65283         3.89866         1.69576
| 89>    C       27.02240         4.14647         2.90907
| 90>    S       29.31126         4.26248         1.33111
| 91>    C       29.10363         3.61965        -0.27698
| 92>    C       27.85671         3.15507        -0.52990
| 93>   Br       30.55026         3.62707        -1.46903
| 94>    H       11.48554        -2.60552        10.35523
| 95>    H        7.86599        -1.81227        12.47163
| 96>    H        6.65703        -1.49298        10.32729
| 97>    H       11.51985        -2.57644         7.90641
| 98>    H        6.66219        -1.43886         7.85860
| 99>    H        8.08841        -1.27010         2.80613
|100>    H        7.95167        -1.61289         0.58066
|101>    H       12.11312        -0.08568        -1.68012
|102>    H       14.16022         0.29871         1.82203
|103>    H       13.19696         1.43721        -0.84245
|104>    H       15.86177         1.48684         0.69664
|105>    H       13.94756         2.61977        -2.35675
|106>    H       15.47051         2.53331        -3.24275
|107>    H       15.01397         4.02153        -2.42600
|108>    H       17.34450         3.46785        -0.10866
|109>    H       17.39280         3.60245        -1.87815
|110>    H       18.03038         1.24841        -1.94808
|111>    H       18.71636         1.92005         0.83258
|112>    H       19.76062        -0.19639        -1.15055
|113>    H       23.09942        -1.56961         2.23378
|114>    H       21.63518        -0.23462         3.99227
|115>    H       17.50923        -0.33357         1.71011
|116>    H       15.86568         0.60860         3.58834
|117>    H       20.03386         2.45839         5.72707
|118>    H       21.22274         2.25134         2.90154
|119>    H       22.38211         3.37634         5.51205
|120>    H       25.11430         2.49036        -0.10578
|121>    H       27.56989         4.59712         3.71967
|122>    H       27.55502         2.72364        -1.46681
|123> *
|124>
|125>                          ****END OF INPUT****

CARTESIAN COORDINATES (ANGSTROEM)
---------------------------------
  C     10.435050   -2.361130   10.334060
  C      9.733170   -2.222390   11.499400
  F     10.362600   -2.390680   12.675350
  C      8.367080   -1.909120   11.521580
  C      7.709100   -1.735140   10.335960
  C      8.383490   -1.867610    9.104810
  C      9.772620   -2.189130    9.103330
  C     10.467470   -2.341260    7.880280
  C      9.792610   -2.175710    6.701780
  C      8.408480   -1.835000    6.709480
  C      7.712730   -1.687510    7.874600
  C      7.937690   -1.680790    5.321680
  O      6.817110   -1.445430    4.930660
  C      9.158230   -1.819230    4.477670
  C     10.224280   -2.319150    5.313770
  C     11.303830   -3.054630    4.895210
  C     11.508190   -3.423520    3.551440
  N     11.676480   -3.771990    2.470090
  C     12.262510   -3.610870    5.765580
  N     13.080230   -4.073670    6.424770
  C      9.099850   -1.414670    3.176120
  C     10.121800   -1.051070    2.280530
  S     11.708060   -0.559880    2.771040
  C     12.192010   -0.134450    1.169680
  C     11.167680   -0.426140    0.249770
  C      9.984470   -0.910970    0.885690
  C      8.853620   -1.245310    0.120030
  C      8.913980   -1.114850   -1.238370
  F      7.848630   -1.418440   -1.990030
  C     10.100910   -0.689180   -1.874770
  F     10.135590   -0.624510   -3.214580
  C     11.212710   -0.354940   -1.155760
  C     13.476050    0.446790    0.995810
  C     13.888500    1.197810   -0.052090
  C     15.210530    1.732220   -0.134300
  C     15.710650    2.492300   -1.125870
  C     14.984880    2.934230   -2.352250
  C     17.160350    2.933670   -1.044310
  N     18.045810    1.796700   -1.096990
  C     18.766170    1.341660   -0.080210
  C     19.601570    0.252050   -0.177990
  C     20.382170   -0.243830    0.865070
  C     21.553630   -1.000620    0.762460
  N     22.121450   -1.539230   -0.393220
  O     21.493690   -1.470630   -1.444090
  O     23.223550   -2.055120   -0.296300
  C     22.181150   -1.046230    2.041810
  C     21.432250   -0.336190    2.943810
  C     20.259250    0.125170    2.302470
  C     19.114870    0.635080    2.902630
  C     17.768420    0.295900    2.540640
  C     16.927970    0.744520    3.515810
  C     17.695120    1.453690    4.490020
  N     17.111850    2.122450    5.579140
  O     17.834360    2.748490    6.336240
  O     15.900830    2.034840    5.702430
  C     19.046310    1.412360    4.135740
  C     20.128350    2.134100    4.698330
  C     21.218620    2.480240    3.956740
  C     22.375300    3.104630    4.464610
  C     23.490550    3.318630    3.697870
  C     24.751500    3.898520    4.124200
  C     25.026320    4.470630    5.339270
  C     26.273160    5.034900    5.683460
  N     27.260590    5.512080    6.022430
  C     24.118150    4.598520    6.411860
  N     23.443250    4.744880    7.328770
  C     25.690880    3.788110    3.013180
  C     25.025860    3.196860    1.910940
  C     23.627560    2.914710    2.273340
  O     22.778630    2.454850    1.533500
  C     25.649080    2.948200    0.711540
  C     26.995740    3.303630    0.591170
  C     27.652830    3.898660    1.695760
  C     27.022400    4.146470    2.909070
  S     29.311260    4.262480    1.331110
  C     29.103630    3.619650   -0.276980
  C     27.856710    3.155070   -0.529900
  Br    30.550260    3.627070   -1.469030
  H     11.485540   -2.605520   10.355230
  H      7.865990   -1.812270   12.471630
  H      6.657030   -1.492980   10.327290
  H     11.519850   -2.576440    7.906410
  H      6.662190   -1.438860    7.858600
  H      8.088410   -1.270100    2.806130
  H      7.951670   -1.612890    0.580660
  H     12.113120   -0.085680   -1.680120
  H     14.160220    0.298710    1.822030
  H     13.196960    1.437210   -0.842450
  H     15.861770    1.486840    0.696640
  H     13.947560    2.619770   -2.356750
  H     15.470510    2.533310   -3.242750
  H     15.013970    4.021530   -2.426000
  H     17.344500    3.467850   -0.108660
  H     17.392800    3.602450   -1.878150
  H     18.030380    1.248410   -1.948080
  H     18.716360    1.920050    0.832580
  H     19.760620   -0.196390   -1.150550
  H     23.099420   -1.569610    2.233780
  H     21.635180   -0.234620    3.992270
  H     17.509230   -0.333570    1.710110
  H     15.865680    0.608600    3.588340
  H     20.033860    2.458390    5.727070
  H     21.222740    2.251340    2.901540
  H     22.382110    3.376340    5.512050
  H     25.114300    2.490360   -0.105780
  H     27.569890    4.597120    3.719670
  H     27.555020    2.723640   -1.466810

 Total Charge           Charge          ....    0
 Multiplicity           Mult            ....    1
 Number of Electrons    NEL             ....  580
 Basis Dimension        Dim             .... 1277

ORBITAL ENERGIES
----------------

  NO   OCC          E(Eh)            E(eV)
   0   2.0000    -482.887576    -13140.0390
   1   2.0000     -88.992473     -2421.6083
   2   2.0000     -88.978132     -2421.2181
   3   2.0000     -62.565282     -1702.4879
   4   2.0000     -56.399233     -1534.7012
   5   2.0000     -56.396512     -1534.6271
   6   2.0000     -56.396483     -1534.6263
   7   2.0000     -24.802528      -674.9111
   8   2.0000     -24.801815      -674.8917
   9   2.0000     -24.784515      -674.4210
  10   2.0000     -19.237471      -523.4782
  11   2.0000     -19.237078      -523.4675
  12   2.0000     -19.223639      -523.1018
  13   2.0000     -19.218990      -522.9753
  14   2.0000     -19.218245      -522.9550
  15   2.0000     -19.213134      -522.8159
  16   2.0000     -14.645931      -398.5360
  17   2.0000     -14.629742      -398.0955
  18   2.0000     -14.501224      -394.5984
  19   2.0000     -14.417948      -392.3323
  20   2.0000     -14.417469      -392.3193
  21   2.0000     -14.416123      -392.2827
  22   2.0000     -14.415100      -392.2548
  23   2.0000     -10.387032      -282.6455
  24   2.0000     -10.384344      -282.5724
  25   2.0000     -10.374295      -282.2989
  26   2.0000     -10.374190      -282.2961
  27   2.0000     -10.368294      -282.1356
  28   2.0000     -10.364664      -282.0368
  29   2.0000     -10.361402      -281.9481
  30   2.0000     -10.354476      -281.7596
  31   2.0000     -10.345644      -281.5193
  32   2.0000     -10.344256      -281.4815
  33   2.0000     -10.343012      -281.4477
  34   2.0000     -10.342125      -281.4235
  35   2.0000     -10.340639      -281.3831
  36   2.0000     -10.334938      -281.2280
  37   2.0000     -10.329449      -281.0786
  38   2.0000     -10.328834      -281.0618
  39   2.0000     -10.328432      -281.0509
  40   2.0000     -10.326612      -281.0014
  41   2.0000     -10.324161      -280.9347
  42   2.0000     -10.320222      -280.8275
  43   2.0000     -10.320163      -280.8259
  44   2.0000     -10.318008      -280.7673
  45   2.0000     -10.317749      -280.7602
  46   2.0000     -10.317641      -280.7573
  47   2.0000     -10.317018      -280.7403
  48   2.0000     -10.316905      -280.7373
  49   2.0000     -10.315833      -280.7081
  50   2.0000     -10.314542      -280.6729
  51   2.0000     -10.313879      -280.6549
  52   2.0000     -10.311750      -280.5970
  53   2.0000     -10.310811      -280.5714
  54   2.0000     -10.310596      -280.5656
  55   2.0000     -10.309876      -280.5460
  56   2.0000     -10.308619      -280.5118
  57   2.0000     -10.308518      -280.5090
  58   2.0000     -10.307143      -280.4716
  59   2.0000     -10.305628      -280.4304
  60   2.0000     -10.305610      -280.4299
  61   2.0000     -10.305419      -280.4247
  62   2.0000     -10.305164      -280.4178
  63   2.0000     -10.304740      -280.4062
  64   2.0000     -10.304459      -280.3986
  65   2.0000     -10.303839      -280.3817
  66   2.0000     -10.302727      -280.3515
  67   2.0000     -10.301302      -280.3127
  68   2.0000     -10.300482      -280.2904
  69   2.0000     -10.300111      -280.2803
  70   2.0000     -10.299184      -280.2550
  71   2.0000     -10.298916      -280.2478
  72   2.0000     -10.297474      -280.2085
  73   2.0000     -10.297245      -280.2023
  74   2.0000     -10.296579      -280.1841
  75   2.0000     -10.295677      -280.1596
  76   2.0000     -10.293202      -280.0923
  77   2.0000     -10.293145      -280.0907
  78   2.0000     -10.292413      -280.0708
  79   2.0000     -10.289237      -279.9844
  80   2.0000     -10.287676      -279.9419
  81   2.0000     -10.287317      -279.9321
  82   2.0000     -10.276573      -279.6398
  83   2.0000      -8.794719      -239.3165
  84   2.0000      -8.087057      -220.0600
  85   2.0000      -8.074131      -219.7083
  86   2.0000      -6.631010      -180.4390
  87   2.0000      -6.616466      -180.0432
  88   2.0000      -6.616241      -180.0371
  89   2.0000      -6.055970      -164.7913
  90   2.0000      -6.051811      -164.6781
  91   2.0000      -6.050075      -164.6309
  92   2.0000      -6.043809      -164.4604
  93   2.0000      -6.039539      -164.3442
  94   2.0000      -6.035361      -164.2305
  95   2.0000      -2.746923       -74.7476
  96   2.0000      -2.742782       -74.6349
  97   2.0000      -2.742634       -74.6309
  98   2.0000      -2.731064       -74.3160
  99   2.0000      -2.731046       -74.3155
 100   2.0000      -1.325070       -36.0570
 101   2.0000      -1.315973       -35.8094
 102   2.0000      -1.310006       -35.6471
 103   2.0000      -1.299738       -35.3677
 104   2.0000      -1.297271       -35.3005
 105   2.0000      -1.137068       -30.9412
 106   2.0000      -1.133434       -30.8423
 107   2.0000      -1.128661       -30.7124
 108   2.0000      -1.114197       -30.3188
 109   2.0000      -1.097511       -29.8648
 110   2.0000      -1.028417       -27.9847
 111   2.0000      -1.025756       -27.9122
 112   2.0000      -1.017269       -27.6813
 113   2.0000      -1.016349       -27.6563
 114   2.0000      -1.015811       -27.6416
 115   2.0000      -1.000063       -27.2131
 116   2.0000      -0.996351       -27.1121
 117   2.0000      -0.994535       -27.0627
 118   2.0000      -0.994000       -27.0481
 119   2.0000      -0.992543       -27.0085
 120   2.0000      -0.976021       -26.5589
 121   2.0000      -0.964049       -26.2331
 122   2.0000      -0.955378       -25.9972
 123   2.0000      -0.947397       -25.7800
 124   2.0000      -0.934168       -25.4200
 125   2.0000      -0.925638       -25.1879
 126   2.0000      -0.923392       -25.1268
 127   2.0000      -0.911274       -24.7970
 128   2.0000      -0.910037       -24.7634
 129   2.0000      -0.905236       -24.6327
 130   2.0000      -0.896829       -24.4040
 131   2.0000      -0.889134       -24.1946
 132   2.0000      -0.888458       -24.1762
 133   2.0000      -0.886328       -24.1182
 134   2.0000      -0.882671       -24.0187
 135   2.0000      -0.875212       -23.8157
 136   2.0000      -0.868504       -23.6332
 137   2.0000      -0.857474       -23.3331
 138   2.0000      -0.856315       -23.3015
 139   2.0000      -0.841457       -22.8972
 140   2.0000      -0.834453       -22.7066
 141   2.0000      -0.832201       -22.6454
 142   2.0000      -0.830056       -22.5870
 143   2.0000      -0.816348       -22.2140
 144   2.0000      -0.810765       -22.0620
 145   2.0000      -0.798574       -21.7303
 146   2.0000      -0.785351       -21.3705
 147   2.0000      -0.775223       -21.0949
 148   2.0000      -0.767030       -20.8719
 149   2.0000      -0.759783       -20.6747
 150   2.0000      -0.758520       -20.6404
 151   2.0000      -0.754700       -20.5364
 152   2.0000      -0.740662       -20.1544
 153   2.0000      -0.736270       -20.0349
 154   2.0000      -0.729514       -19.8511
 155   2.0000      -0.724910       -19.7258
 156   2.0000      -0.716672       -19.5016
 157   2.0000      -0.710384       -19.3305
 158   2.0000      -0.708170       -19.2703
 159   2.0000      -0.695668       -18.9301
 160   2.0000      -0.688245       -18.7281
 161   2.0000      -0.684373       -18.6227
 162   2.0000      -0.679701       -18.4956
 163   2.0000      -0.676258       -18.4019
 164   2.0000      -0.674059       -18.3421
 165   2.0000      -0.670129       -18.2351
 166   2.0000      -0.662104       -18.0168
 167   2.0000      -0.660544       -17.9743
 168   2.0000      -0.654016       -17.7967
 169   2.0000      -0.651148       -17.7186
 170   2.0000      -0.641606       -17.4590
 171   2.0000      -0.637144       -17.3376
 172   2.0000      -0.633486       -17.2380
 173   2.0000      -0.632222       -17.2036
 174   2.0000      -0.629713       -17.1354
 175   2.0000      -0.627934       -17.0870
 176   2.0000      -0.627261       -17.0686
 177   2.0000      -0.625951       -17.0330
 178   2.0000      -0.624205       -16.9855
 179   2.0000      -0.615155       -16.7392
 180   2.0000      -0.612065       -16.6551
 181   2.0000      -0.610387       -16.6095
 182   2.0000      -0.607618       -16.5341
 183   2.0000      -0.604996       -16.4628
 184   2.0000      -0.600128       -16.3303
 185   2.0000      -0.595852       -16.2139
 186   2.0000      -0.593250       -16.1431
 187   2.0000      -0.589957       -16.0536
 188   2.0000      -0.589626       -16.0445
 189   2.0000      -0.579326       -15.7643
 190   2.0000      -0.577685       -15.7196
 191   2.0000      -0.574988       -15.6462
 192   2.0000      -0.573951       -15.6180
 193   2.0000      -0.566583       -15.4175
 194   2.0000      -0.563644       -15.3375
 195   2.0000      -0.560055       -15.2399
 196   2.0000      -0.557148       -15.1608
 197   2.0000      -0.556323       -15.1383
 198   2.0000      -0.554634       -15.0924
 199   2.0000      -0.551263       -15.0006
 200   2.0000      -0.550121       -14.9695
 201   2.0000      -0.547484       -14.8978
 202   2.0000      -0.545145       -14.8342
 203   2.0000      -0.544335       -14.8121
 204   2.0000      -0.543616       -14.7925
 205   2.0000      -0.541298       -14.7295
 206   2.0000      -0.536281       -14.5929
 207   2.0000      -0.534033       -14.5318
 208   2.0000      -0.531719       -14.4688
 209   2.0000      -0.530487       -14.4353
 210   2.0000      -0.528913       -14.3925
 211   2.0000      -0.526296       -14.3213
 212   2.0000      -0.525330       -14.2950
 213   2.0000      -0.522491       -14.2177
 214   2.0000      -0.521713       -14.1965
 215   2.0000      -0.517402       -14.0792
 216   2.0000      -0.516836       -14.0638
 217   2.0000      -0.514472       -13.9995
 218   2.0000      -0.511505       -13.9188
 219   2.0000      -0.507636       -13.8135
 220   2.0000      -0.504811       -13.7366
 221   2.0000      -0.499073       -13.5805
 222   2.0000      -0.498040       -13.5524
 223   2.0000      -0.497534       -13.5386
 224   2.0000      -0.497038       -13.5251
 225   2.0000      -0.495996       -13.4967
 226   2.0000      -0.493392       -13.4259
 227   2.0000      -0.492943       -13.4137
 228   2.0000      -0.491464       -13.3734
 229   2.0000      -0.486026       -13.2254
 230   2.0000      -0.484392       -13.1810
 231   2.0000      -0.481554       -13.1037
 232   2.0000      -0.480750       -13.0819
 233   2.0000      -0.479553       -13.0493
 234   2.0000      -0.476836       -12.9754
 235   2.0000      -0.472125       -12.8472
 236   2.0000      -0.470296       -12.7974
 237   2.0000      -0.467191       -12.7129
 238   2.0000      -0.461193       -12.5497
 239   2.0000      -0.460121       -12.5205
 240   2.0000      -0.456859       -12.4318
 241   2.0000      -0.456456       -12.4208
 242   2.0000      -0.451268       -12.2796
 243   2.0000      -0.450760       -12.2658
 244   2.0000      -0.450233       -12.2515
 245   2.0000      -0.449712       -12.2373
 246   2.0000      -0.446629       -12.1534
 247   2.0000      -0.445651       -12.1268
 248   2.0000      -0.445559       -12.1243
 249   2.0000      -0.442552       -12.0424
 250   2.0000      -0.441601       -12.0166
 251   2.0000      -0.438969       -11.9450
 252   2.0000      -0.437735       -11.9114
 253   2.0000      -0.435712       -11.8563
 254   2.0000      -0.431393       -11.7388
 255   2.0000      -0.427484       -11.6324
 256   2.0000      -0.427152       -11.6234
 257   2.0000      -0.426254       -11.5990
 258   2.0000      -0.425998       -11.5920
 259   2.0000      -0.417716       -11.3666
 260   2.0000      -0.410270       -11.1640
 261   2.0000      -0.407603       -11.0914
 262   2.0000      -0.405051       -11.0220
 263   2.0000      -0.401971       -10.9382
 264   2.0000      -0.389970       -10.6116
 265   2.0000      -0.384507       -10.4630
 266   2.0000      -0.384074       -10.4512
 267   2.0000      -0.377530       -10.2731
 268   2.0000      -0.377500       -10.2723
 269   2.0000      -0.376763       -10.2522
 270   2.0000      -0.370478       -10.0812
 271   2.0000      -0.368059       -10.0154
 272   2.0000      -0.365649        -9.9498
 273   2.0000      -0.363703        -9.8969
 274   2.0000      -0.354223        -9.6389
 275   2.0000      -0.349026        -9.4975
 276   2.0000      -0.348840        -9.4924
 277   2.0000      -0.341585        -9.2950
 278   2.0000      -0.336517        -9.1571
 279   2.0000      -0.335877        -9.1397
 280   2.0000      -0.332601        -9.0505
 281   2.0000      -0.329811        -8.9746
 282   2.0000      -0.327921        -8.9232
 283   2.0000      -0.318608        -8.6698
 284   2.0000      -0.312777        -8.5111
 285   2.0000      -0.297827        -8.1043
 286   2.0000      -0.297189        -8.0869
 287   2.0000      -0.286015        -7.7829
 288   2.0000      -0.262510        -7.1433
 289   2.0000      -0.257431        -7.0051
 290   0.0000      -0.130695        -3.5564
 291   0.0000      -0.109481        -2.9791
 292   0.0000      -0.092894        -2.5278
 293   0.0000      -0.066605        -1.8124
 294   0.0000      -0.063851        -1.7375

MULLIKEN ATOMIC CHARGES
-----------------------
   0 C :   -0.095236
   1 C :    0.303226
   2 F :   -0.189048
   3 C :   -0.031810
   4 C :   -0.007989
   5 C :    0.097513
   6 C :    0.100031
   7 C :   -0.079254
   8 C :    0.038750
   9 C :    0.008070
  10 C :   -0.077660
  11 C :    0.136575
  12 O :   -0.148097
  13 C :   -0.133535
  14 C :    0.257239
  15 C :   -0.325945
  16 C :   -0.214855
  17 N :    0.167266
  18 C :   -0.173065
  19 N :    0.152774
  20 C :    0.010469
  21 C :   -0.133226
  22 S :    0.214436
  23 C :   -0.100895
  24 C :    0.122782
  25 C :    0.160826
  26 C :   -0.106480
  27 C :    0.237475
  28 F :   -0.168312
  29 C :    0.227486
  30 F :   -0.176159
  31 C :   -0.116484
  32 C :    0.036423
  33 C :    0.006305
  34 C :    0.023478
  35 C :   -0.217146
  36 C :    0.105130
  37 C :    0.208190
  38 N :   -0.099823
  39 C :    0.080730
  40 C :   -0.069902
  41 C :    0.056641
  42 C :    0.056887
  43 N :    0.283680
  44 O :   -0.289036
  45 O :   -0.273906
  46 C :    0.048532
  47 C :   -0.002971
  48 C :    0.032632
  49 C :   -0.049499
  50 C :   -0.011238
  51 C :   -0.010248
  52 C :    0.089023
  53 N :    0.274316
  54 O :   -0.250639
  55 O :   -0.252317
  56 C :    0.036246
  57 C :    0.003550
  58 C :   -0.024685
  59 C :   -0.025376
  60 C :   -0.080906
  61 C :    0.325351
  62 C :   -0.353310
  63 C :   -0.184815
  64 N :    0.153611
  65 C :   -0.192083
  66 N :    0.157337
  67 C :    0.015932
  68 C :   -0.004660
  69 C :    0.150754
  70 O :   -0.167551
  71 C :   -0.071155
  72 C :    0.117266
  73 C :   -0.091214
  74 C :   -0.021757
  75 S :    0.189370
  76 C :   -0.124046
  77 C :    0.041213
  78 Br:    0.027339
  79 H :   -0.000932
  80 H :    0.003842
  81 H :   -0.008652
  82 H :   -0.002461
  83 H :   -0.011701
  84 H :    0.024397
  85 H :    0.003735
  86 H :   -0.013574
  87 H :   -0.014318
  88 H :   -0.005111
  89 H :   -0.031731
  90 H :    0.018532
  91 H :    0.027947
  92 H :    0.039029
  93 H :    0.048061
  94 H :    0.023799
  95 H :    0.141588
  96 H :    0.062070
  97 H :    0.019913
  98 H :    0.006811
  99 H :   -0.010754
 100 H :   -0.001082
 101 H :   -0.009550
 102 H :    0.032337
 103 H :    0.047029
 104 H :    0.017161
 105 H :   -0.008412
 106 H :   -0.005966
 107 H :   -0.000528
Sum of atomic charges:   -0.0000000

LOEWDIN ATOMIC CHARGES
----------------------
   0 C :   -0.041416
   1 C :    0.093361
   2 F :   -0.063537
   3 C :   -0.036678
   4 C :    0.004524
   5 C :   -0.018808
   6 C :    0.003850
   7 C :    0.011726
   8 C :   -0.016780
   9 C :   -0.059754
  10 C :    0.034602
  11 C :    0.081834
  12 O :   -0.149233
  13 C :   -0.102579
  14 C :    0.062555
  15 C :   -0.146641
  16 C :   -0.035637
  17 N :   -0.053265
  18 C :   -0.020989
  19 N :   -0.051272
  20 C :    0.043800
  21 C :   -0.193997
  22 S :    0.538945
  23 C :   -0.144118
  24 C :   -0.045880
  25 C :   -0.014042
  26 C :   -0.035040
  27 C :    0.073151
  28 F :   -0.046172
  29 C :    0.062836
  30 F :   -0.053947
  31 C :   -0.037366
  32 C :   -0.039350
  33 C :   -0.010517
  34 C :   -0.036094
  35 C :   -0.042430
  36 C :   -0.046408
  37 C :    0.051857
  38 N :    0.069711
  39 C :    0.100961
  40 C :   -0.078971
  41 C :    0.050232
  42 C :   -0.112366
  43 N :    0.288806
  44 O :   -0.250444
  45 O :   -0.237415
  46 C :    0.070982
  47 C :   -0.071401
  48 C :    0.072101
  49 C :   -0.015592
  50 C :   -0.041818
  51 C :   -0.031895
  52 C :   -0.039689
  53 N :    0.285638
  54 O :   -0.213041
  55 O :   -0.217127
  56 C :   -0.022079
  57 C :    0.034206
  58 C :   -0.027328
  59 C :    0.066912
  60 C :   -0.088353
  61 C :    0.072297
  62 C :   -0.136316
  63 C :   -0.017918
  64 N :   -0.051148
  65 C :   -0.022363
  66 N :   -0.045472
  67 C :   -0.020034
  68 C :   -0.052132
  69 C :    0.088988
  70 O :   -0.153886
  71 C :    0.024148
  72 C :   -0.031997
  73 C :   -0.142756
  74 C :   -0.009743
  75 S :    0.434923
  76 C :   -0.270529
  77 C :   -0.069518
  78 Br:    0.139723
  79 H :    0.043650
  80 H :    0.041985
  81 H :    0.035741
  82 H :    0.039730
  83 H :    0.039700
  84 H :    0.048838
  85 H :    0.046022
  86 H :    0.038952
  87 H :    0.032500
  88 H :    0.026462
  89 H :    0.028037
  90 H :    0.031922
  91 H :    0.037030
  92 H :    0.041746
  93 H :    0.045601
  94 H :    0.033043
  95 H :    0.095856
  96 H :    0.042120
  97 H :    0.038463
  98 H :    0.040540
  99 H :    0.029354
 100 H :    0.026427
 101 H :    0.027995
 102 H :    0.042870
 103 H :    0.029004
 104 H :    0.044088
 105 H :    0.041706
 106 H :    0.041270
 107 H :    0.039958

  Mayer bond orders larger than 0.100000
B(  0-C ,  1-C ) :   1.4407 B(  0-C ,  6-C ) :   1.2056 B(  0-C , 79-H ) :   1.0055
B(  1-C ,  2-F ) :   1.0902 B(  1-C ,  3-C ) :   1.2536 B(  3-C ,  4-C ) :   1.4601
B(  3-C , 80-H ) :   0.9939 B(  4-C ,  5-C ) :   1.2359 B(  4-C , 81-H ) :   0.9964
B(  5-C ,  6-C ) :   1.2530 B(  5-C , 10-C ) :   1.1924 B(  6-C ,  7-C ) :   1.2037
B(  7-C ,  8-C ) :   1.4662 B(  7-C , 82-H ) :   0.9937 B(  8-C ,  9-C ) :   1.2139
B(  8-C , 14-C ) :   0.9971 B(  9-C , 10-C ) :   1.4752 B(  9-C , 11-C ) :   0.9253
B( 10-C , 83-H ) :   1.0143 B( 11-C , 12-O ) :   2.2538 B( 11-C , 13-C ) :   0.9455
B( 13-C , 14-C ) :   1.0487 B( 13-C , 20-C ) :   1.6135 B( 14-C , 15-C ) :   1.6397
B( 15-C , 16-C ) :   1.1623 B( 15-C , 18-C ) :   1.1316 B( 16-C , 17-N ) :   3.0184
B( 18-C , 19-N ) :   2.9887 B( 20-C , 21-C ) :   1.1911 B( 20-C , 84-H ) :   0.9307
B( 21-C , 22-S ) :   1.1322 B( 21-C , 25-C ) :   1.2816 B( 22-S , 23-C ) :   1.2086
B( 23-C , 24-C ) :   1.3186 B( 23-C , 32-C ) :   1.1240 B( 24-C , 25-C ) :   1.2351
B( 24-C , 31-C ) :   1.1623 B( 25-C , 26-C ) :   1.1893 B( 26-C , 27-C ) :   1.4835
B( 26-C , 31-C ) :   0.1105 B( 26-C , 85-H ) :   0.9965 B( 27-C , 28-F ) :   1.1375
B( 27-C , 29-C ) :   1.1639 B( 29-C , 30-F ) :   1.1297 B( 29-C , 31-C ) :   1.4980
B( 31-C , 86-H ) :   0.9922 B( 32-C , 33-C ) :   1.6883 B( 32-C , 87-H ) :   0.9586
B( 33-C , 34-C ) :   1.1267 B( 33-C , 88-H ) :   0.9674 B( 34-C , 35-C ) :   1.7521
B( 34-C , 89-H ) :   0.9682 B( 35-C , 36-C ) :   1.0878 B( 35-C , 37-C ) :   1.0158
B( 36-C , 90-H ) :   0.9555 B( 36-C , 91-H ) :   0.9453 B( 36-C , 92-H ) :   0.9430
B( 37-C , 38-N ) :   0.9907 B( 37-C , 93-H ) :   0.9331 B( 37-C , 94-H ) :   0.9401
B( 38-N , 39-C ) :   1.3805 B( 38-N , 95-H ) :   0.9287 B( 39-C , 40-C ) :   1.3386
B( 39-C , 96-H ) :   0.9510 B( 40-C , 41-C ) :   1.4011 B( 40-C , 97-H ) :   0.9372
B( 41-C , 42-C ) :   1.3718 B( 41-C , 48-C ) :   0.9726 B( 42-C , 43-N ) :   0.9943
B( 42-C , 46-C ) :   1.1851 B( 43-N , 44-O ) :   1.4676 B( 43-N , 45-O ) :   1.5188
B( 44-O , 45-O ) :   0.2331 B( 46-C , 47-C ) :   1.4432 B( 46-C , 98-H ) :   1.0073
B( 47-C , 48-C ) :   1.2794 B( 47-C , 99-H ) :   1.0033 B( 48-C , 49-C ) :   1.3522
B( 49-C , 50-C ) :   1.1808 B( 49-C , 56-C ) :   1.0923 B( 50-C , 51-C ) :   1.4856
B( 50-C ,100-H ) :   0.9947 B( 51-C , 52-C ) :   1.2157 B( 51-C ,101-H ) :   1.0010
B( 52-C , 53-N ) :   0.9443 B( 52-C , 56-C ) :   1.4379 B( 53-N , 54-O ) :   1.5011
B( 53-N , 55-O ) :   1.5224 B( 54-O , 55-O ) :   0.2637 B( 56-C , 57-C ) :   1.1442
B( 57-C , 58-C ) :   1.5289 B( 57-C ,102-H ) :   0.9706 B( 58-C , 59-C ) :   1.1768
B( 58-C ,103-H ) :   0.9581 B( 59-C , 60-C ) :   1.5435 B( 59-C ,104-H ) :   0.9671
B( 60-C , 61-C ) :   1.0533 B( 60-C , 69-C ) :   0.9481 B( 61-C , 62-C ) :   1.6359
B( 61-C , 67-C ) :   1.0030 B( 62-C , 63-C ) :   1.1435 B( 62-C , 65-C ) :   1.1451
B( 63-C , 64-N ) :   2.9689 B( 65-C , 66-N ) :   2.9673 B( 67-C , 68-C ) :   1.2733
B( 67-C , 74-C ) :   1.4107 B( 68-C , 69-C ) :   0.9564 B( 68-C , 71-C ) :   1.4174
B( 69-C , 70-O ) :   2.1518 B( 71-C , 72-C ) :   1.2483 B( 71-C ,105-H ) :   1.0166
B( 72-C , 73-C ) :   1.3022 B( 72-C , 77-C ) :   1.1636 B( 73-C , 74-C ) :   1.3314
B( 73-C , 75-S ) :   1.0890 B( 74-C ,106-H ) :   0.9786 B( 75-S , 76-C ) :   1.0861
B( 76-C , 77-C ) :   1.6171 B( 76-C , 78-Br) :   1.0222 B( 77-C ,107-H ) :   0.9997

-----------------------------------------------------------------------------
         ABSORPTION SPECTRUM VIA TRANSITION ELECTRIC DIPOLE MOMENTS
-----------------------------------------------------------------------------
State   Energy  Wavelength   fosc         T2         TX        TY        TZ
        (cm-1)    (nm)                  (au**2)     (au)      (au)      (au)
-----------------------------------------------------------------------------
   0    8410.5   1189.0   0.087632403   3.43017  -1.13135  -0.79387  -1.23288
   1   15028.7    665.4   0.024946483   0.54647   0.65359   0.34011  -0.06013
   2   15968.5    626.2   0.236112838   4.86777  -1.54599  -0.84829   1.32593
   3   17069.7    585.8   0.621542744  11.98729   1.36431   1.56208  -2.77233
   4   19075.1    524.2   0.231803768   4.00063  -1.39335  -1.41573   0.23434
   5   20808.6    480.6   0.023839439   0.37716  -0.51392   0.07716  -0.32725
   6   22829.1    438.0   0.034164911   0.49268  -0.20902   0.23391   0.62792
   7   23962.5    417.3   0.260659183   3.58111  -1.66676  -0.79470  -0.41411
   8   24250.7    412.4   0.142127746   1.92944   1.34380   0.32610  -0.13148
   9   24885.5    401.8   0.016554428   0.21900  -0.23487  -0.21061  -0.34566
  10   25351.3    394.5   0.007420248   0.09636   0.23105  -0.12692   0.16391
  11   26113.7    382.9   0.052541494   0.66238   0.79083   0.03491  -0.18910
  12   26175.8    382.0   0.026002073   0.32703   0.36550   0.41717  -0.13929
  13   26606.0    375.9   0.124724184   1.54328   1.20648   0.04823  -0.29218
  14   26640.5    375.4   0.122784065   1.51731   1.01721   0.39541  -0.57118
  15   26939.7    371.2   0.070253875   0.85852   0.78219   0.21452  -0.44797
  16   26949.4    371.1   0.037462576   0.45764  -0.65121   0.18321  -0.00179
  17   27273.9    366.7   0.034823872   0.42034  -0.64377  -0.04809   0.05998
  18   27469.7    364.0   0.330124253   3.95639   1.72660  -0.01636  -0.98740
  19   27533.3    363.2   0.015970670   0.19096  -0.43170   0.02001   0.06476
  20   28148.3    355.3   0.002385085   0.02790   0.10320   0.13100   0.00921
  21   28723.9    348.1   0.035200903   0.40345  -0.36647   0.09189  -0.51059
  22   28761.4    347.7   0.148591391   1.70082  -0.88237   0.14917   0.94868
  23   29269.9    341.6   0.164126829   1.84601  -0.46990   0.06071   1.27339
  24   29308.0    341.2   0.013722959   0.15415  -0.38141   0.07598   0.05389
  25   29714.2    336.5   0.165496350   1.83358  -1.20394   0.33198   0.52336
  26   30222.2    330.9   0.216762237   2.36120  -1.01209   0.42222  -1.07639
  27   30436.6    328.6   0.191245692   2.06858  -1.21402  -0.15672  -0.75510
  28   30805.7    324.6   0.688051695   7.35302  -1.95911   0.79192   1.69935
  29   30849.6    324.2   0.036819796   0.39292   0.53738   0.02247  -0.32193
  30   30931.5    323.3   0.068404204   0.72804  -0.67140   0.16425   0.50028
  31   31203.9    320.5   0.033731402   0.35588  -0.32790  -0.22109   0.44663
  32   31312.3    319.4   0.000978125   0.01028  -0.10076   0.00771  -0.00844
  33   31437.6    318.1   0.061598540   0.64505  -0.67044   0.15525   0.41409
  34   31890.6    313.6   0.003536634   0.03651   0.16624  -0.01730  -0.09261
  35   32221.6    310.4   0.130959880   1.33803   0.88542  -0.53573  -0.51677
  36   32552.2    307.2   0.010269806   0.10386   0.13028  -0.08776   0.28140
  37   32672.8    306.1   0.116143149   1.17026   0.77055  -0.40848  -0.64004
  38   32735.0    305.5   0.040284653   0.40514   0.42986  -0.25823  -0.39201
  39   32754.7    305.3   0.179799065   1.80713   0.89718  -0.35059  -0.93770
  40   32933.8    303.6   0.205828380   2.05750   0.54251  -0.20453   1.31200
  41   33666.7    297.0   0.483945145   4.73229  -0.57083   0.49949   2.03886
  42   33850.5    295.4   0.033097352   0.32189   0.36168   0.15268   0.40959
  43   34150.8    292.8   0.181525527   1.74990   0.46343  -0.02999   1.23864
  44   34193.7    292.5   0.002843415   0.02738   0.02856  -0.02002  -0.16174
  45   34305.6    291.5   0.292291173   2.80496   0.18363   0.28876   1.63947
  46   34823.2    287.2   0.399420252   3.77604  -1.78034  -0.36115   0.68992
  47   35567.5    281.2   0.314282750   2.90900  -0.86019   1.34884   0.59135
  48   35667.1    280.4   0.034129594   0.31502  -0.54519  -0.11345   0.07016
  49   35750.1    279.7   0.053177847   0.48970   0.47028  -0.26278  -0.44664
  50   36210.5    276.2   0.025812974   0.23468   0.10835   0.33271  -0.33503
  51   36423.4    274.5   0.013228736   0.11957   0.26840  -0.20232  -0.08122
  52   36689.5    272.6   0.023921059   0.21464  -0.33298  -0.07369  -0.31358
  53   36721.3    272.3   0.134618220   1.20687   0.79525  -0.39628  -0.64608
  54   36807.7    271.7   0.068789503   0.61526  -0.68079   0.22404   0.31874
  55   36994.6    270.3   0.029378709   0.26144   0.17294  -0.24452  -0.41442
  56   37035.2    270.0   0.063253489   0.56227   0.64829  -0.32233  -0.19516
  57   37359.4    267.7   0.032336088   0.28495   0.47969   0.06888  -0.22383
  58   37423.4    267.2   0.008850004   0.07785  -0.22303  -0.16723   0.01203
  59   37839.2    264.3   0.021060298   0.18323   0.24213  -0.08788  -0.34188
  60   38104.2    262.4   0.000713415   0.00616  -0.06774   0.03694  -0.01452
  61   38179.4    261.9   0.007560855   0.06520  -0.11251  -0.11284   0.19951
  62   38413.0    260.3   0.072698775   0.62305   0.52355  -0.42663   0.40857
  63   38516.2    259.6   0.012900727   0.11027  -0.25051   0.18564   0.11424
  64   38702.0    258.4   0.261336274   2.22302  -1.39722   0.33584   0.39748
  65   38733.0    258.2   0.101707419   0.86446  -0.58217  -0.42379  -0.58817
  66   38919.0    256.9   0.028804995   0.24366   0.40230   0.03706   0.28361
  67   39007.9    256.4   0.033480634   0.28256   0.40644   0.30585   0.15435
  68   39120.3    255.6   0.059949680   0.50450  -0.70209   0.10639   0.01573
  69   39404.1    253.8   0.045255872   0.37810   0.33872   0.51138  -0.04314
  70   39627.4    252.4   0.016296054   0.13538  -0.34029  -0.12721  -0.05833
  71   39917.5    250.5   0.022097926   0.18225  -0.33036  -0.19763  -0.18453
  72   40256.7    248.4   0.061717752   0.50472  -0.07500  -0.32525  -0.62714

FINAL SINGLE POINT ENERGY     -6803.443676253612

DIPOLE MOMENT
-------------
                                X             Y             Z
Electronic contribution:    133.09023      18.30252     -31.07079
Nuclear contribution   :   -134.81673     -16.41067      27.71810
                        -----------------------------------------
Total Dipole Moment    :     -1.72650       1.89185      -3.35269
                        -----------------------------------------
Magnitude (a.u.)       :      4.21906
Magnitude (Debye)      :     10.72400

Rotational constants in cm-1:     0.001095     0.000233     0.000203
Rotational constants in MHz :    32.831919     6.989131     6.096567

                             ****ORCA TERMINATED NORMALLY****
TOTAL RUN TIME: 0 days 0 hours 12 minutes 46 seconds 429 msec
