                         Program Version 4.2.0 -  RELEASE  -
|  1> # ORCA input file
|  2> # SCF done       -172.627383337505          0.000485268775
|  3> ! CAM-B3LYP def2-SVP def2/J RIJCOSX Grid4 TightSCF
|  4> %maxcore 5000
|  5> %tddft
|  6>     Mode sTDDFT
|  7>     Ethresh 5.0
|  8>     maxcore 5000
|  9> end
| 10>
| 11> %pal
| 12>   nprocs 6
| 13>   end
| 14> * xyz 0 1
| 15>    C        2.29899        -5.72614        -4.25522
| 16>    C        0.97430        -5.93037        -3.98477
| 17>    F        0.33296        -6.96484        -4.55860
| 18>    C        0.24588        -5.09816        -3.12445
| 19>    C        0.88057        -4.04180        -2.53191
| 20>    C        2.24478        -3.78436        -2.77587
| 21>    C        2.96742        -4.64146        -3.65583
| 22>    C        4.33554        -4.39829        -3.92374
| 23>    C        4.95599        -3.33486        -3.32764
| 24>    C        4.23313        -2.49173        -2.43503
| 25>    C        2.91197        -2.69855        -2.16431
| 26>    C        5.14213        -1.45849        -1.90295
| 27>    O        4.87490        -0.54138        -1.15848
| 28>    C        6.48729        -1.80884        -2.43100
| 29>    C        6.32522        -2.83365        -3.43068
| 30>    C        7.20021        -3.13295        -4.44837
| 31>    C        8.41083        -2.45187        -4.66714
| 32>    N        9.38793        -1.89738        -4.90769
| 33>    C        6.94186        -4.08779        -5.45123
| 34>    N        6.79224        -4.86393        -6.28387
| 35>    C        7.58548        -1.17354        -1.91420
| 36>    C        8.93916        -1.54479        -1.94102
| 37>    S       10.14649        -0.30695        -1.77120
| 38>    C       11.45766        -1.41206        -1.94700
| 39>    C       10.97753        -2.72958        -2.06876
| 40>    C        9.55262        -2.80722        -2.05502
| 41>    C        8.92394        -4.06475        -2.07403
| 42>    C        9.69362        -5.18881        -2.18873
| 43>    F        9.10848        -6.39495        -2.20548
| 44>    C       11.09955        -5.10666        -2.27504
| 45>    F       11.81327        -6.23644        -2.39852
| 46>    C       11.74101        -3.90276        -2.19908
| 47>    C       12.81094        -0.99282        -1.95711
| 48>    C       13.21024         0.29951        -1.98385
| 49>    C       14.56900         0.76329        -2.00167
| 50>    C       15.64209         0.20880        -1.41330
| 51>    C       15.60661        -0.96140        -0.48584
| 52>    C       16.99882         0.85971        -1.56340
| 53>    N       17.28923         1.71244        -0.43296
| 54>    C       17.95539         1.30883         0.66635
| 55>    C       17.99540         2.00945         1.83331
| 56>    C       18.74278         1.61130         2.95312
| 57>    C       18.82566         2.32195         4.12296
| 58>    C       19.53582         1.96983         5.29477
| 59>    C       19.44565         2.88149         6.30237
| 60>    C       18.66270         4.01456         5.98324
| 61>    S       18.02950         3.87707         4.36191
| 62>    C       18.40128         5.11478         6.77720
| 63>    C       18.82762         5.35409         8.10078
| 64>    C       18.40911         6.54594         8.60840
| 65>    C       17.63036         7.32189         7.71218
| 66>    S       17.44209         6.46714         6.19561
| 67>    C       17.10337         8.55922         7.98131
| 68>    C       16.34661         9.37216         7.12322
| 69>    S       15.93269         8.94386         5.48463
| 70>    C       15.09160        10.42079         5.25245
| 71>    C       15.11745        11.21220         6.36790
| 72>    C       15.82416        10.62958         7.43494
| 73>    S       16.06634        11.32722         9.02550
| 74>    C       15.26117        12.89413         9.10280
| 75>    O       15.32218        13.47872        10.15223
| 76>    C       14.52567        13.53536         7.94576
| 77>    O       14.03957        14.62369         8.09441
| 78>    S       14.32369        12.78538         6.35938
| 79>    H        2.82792        -6.38580        -4.92523
| 80>    H       -0.79712        -5.30857        -2.94854
| 81>    H        0.34061        -3.38697        -1.86460
| 82>    H        4.86045        -5.06766        -4.58677
| 83>    H        2.38059        -2.04297        -1.49082
| 84>    H        7.35623        -0.26051        -1.37115
| 85>    H        7.85624        -4.16198        -1.97007
| 86>    H       12.81731        -3.87339        -2.23675
| 87>    H       13.54733        -1.78061        -1.99925
| 88>    H       12.45034         1.06755        -2.06492
| 89>    H       14.71606         1.68717        -2.54987
| 90>    H       14.60739        -1.12269        -0.09012
| 91>    H       16.28919        -0.79224         0.34705
| 92>    H       15.93070        -1.86799        -0.99801
| 93>    H       17.03238         1.46780        -2.47183
| 94>    H       17.77762         0.09566        -1.62387
| 95>    H       16.68895         2.51840        -0.32633
| 96>    H       18.52886         0.39762         0.55645
| 97>    H       17.43030         2.92861         1.91435
| 98>    H       19.29170         0.67999         2.89856
| 99>    H       20.09217         1.05077         5.35553
|100>    H       19.92290         2.77482         7.25969
|101>    H       19.42686         4.64450         8.64252
|102>    H       18.63482         6.90092         9.59814
|103>    H       17.29154         8.96812         8.96558
|104>    H       14.62201        10.63910         4.31591
|105> *
|106>
|107>                          ****END OF INPUT****

CARTESIAN COORDINATES (ANGSTROEM)
---------------------------------
  C      2.298990   -5.726140   -4.255220
  C      0.974300   -5.930370   -3.984770
  F      0.332960   -6.964840   -4.558600
  C      0.245880   -5.098160   -3.124450
  C      0.880570   -4.041800   -2.531910
  C      2.244780   -3.784360   -2.775870
  C      2.967420   -4.641460   -3.655830
  C      4.335540   -4.398290   -3.923740
  C      4.955990   -3.334860   -3.327640
  C      4.233130   -2.491730   -2.435030
  C      2.911970   -2.698550   -2.164310
  C      5.142130   -1.458490   -1.902950
  O      4.874900   -0.541380   -1.158480
  C      6.487290   -1.808840   -2.431000
  C      6.325220   -2.833650   -3.430680
  C      7.200210   -3.132950   -4.448370
  C      8.410830   -2.451870   -4.667140
  N      9.387930   -1.897380   -4.907690
  C      6.941860   -4.087790   -5.451230
  N      6.792240   -4.863930   -6.283870
  C      7.585480   -1.173540   -1.914200
  C      8.939160   -1.544790   -1.941020
  S     10.146490   -0.306950   -1.771200
  C     11.457660   -1.412060   -1.947000
  C     10.977530   -2.729580   -2.068760
  C      9.552620   -2.807220   -2.055020
  C      8.923940   -4.064750   -2.074030
  C      9.693620   -5.188810   -2.188730
  F      9.108480   -6.394950   -2.205480
  C     11.099550   -5.106660   -2.275040
  F     11.813270   -6.236440   -2.398520
  C     11.741010   -3.902760   -2.199080
  C     12.810940   -0.992820   -1.957110
  C     13.210240    0.299510   -1.983850
  C     14.569000    0.763290   -2.001670
  C     15.642090    0.208800   -1.413300
  C     15.606610   -0.961400   -0.485840
  C     16.998820    0.859710   -1.563400
  N     17.289230    1.712440   -0.432960
  C     17.955390    1.308830    0.666350
  C     17.995400    2.009450    1.833310
  C     18.742780    1.611300    2.953120
  C     18.825660    2.321950    4.122960
  C     19.535820    1.969830    5.294770
  C     19.445650    2.881490    6.302370
  C     18.662700    4.014560    5.983240
  S     18.029500    3.877070    4.361910
  C     18.401280    5.114780    6.777200
  C     18.827620    5.354090    8.100780
  C     18.409110    6.545940    8.608400
  C     17.630360    7.321890    7.712180
  S     17.442090    6.467140    6.195610
  C     17.103370    8.559220    7.981310
  C     16.346610    9.372160    7.123220
  S     15.932690    8.943860    5.484630
  C     15.091600   10.420790    5.252450
  C     15.117450   11.212200    6.367900
  C     15.824160   10.629580    7.434940
  S     16.066340   11.327220    9.025500
  C     15.261170   12.894130    9.102800
  O     15.322180   13.478720   10.152230
  C     14.525670   13.535360    7.945760
  O     14.039570   14.623690    8.094410
  S     14.323690   12.785380    6.359380
  H      2.827920   -6.385800   -4.925230
  H     -0.797120   -5.308570   -2.948540
  H      0.340610   -3.386970   -1.864600
  H      4.860450   -5.067660   -4.586770
  H      2.380590   -2.042970   -1.490820
  H      7.356230   -0.260510   -1.371150
  H      7.856240   -4.161980   -1.970070
  H     12.817310   -3.873390   -2.236750
  H     13.547330   -1.780610   -1.999250
  H     12.450340    1.067550   -2.064920
  H     14.716060    1.687170   -2.549870
  H     14.607390   -1.122690   -0.090120
  H     16.289190   -0.792240    0.347050
  H     15.930700   -1.867990   -0.998010
  H     17.032380    1.467800   -2.471830
  H     17.777620    0.095660   -1.623870
  H     16.688950    2.518400   -0.326330
  H     18.528860    0.397620    0.556450
  H     17.430300    2.928610    1.914350
  H     19.291700    0.679990    2.898560
  H     20.092170    1.050770    5.355530
  H     19.922900    2.774820    7.259690
  H     19.426860    4.644500    8.642520
  H     18.634820    6.900920    9.598140
  H     17.291540    8.968120    8.965580
  H     14.622010   10.639100    4.315910

 Total Charge           Charge          ....    0
 Multiplicity           Mult            ....    1
 Number of Electrons    NEL             ....  488
 Basis Dimension        Dim             .... 1050

ORBITAL ENERGIES
----------------

  NO   OCC          E(Eh)            E(eV)
   0   2.0000     -88.989026     -2421.5145
   1   2.0000     -88.960355     -2420.7343
   2   2.0000     -88.954009     -2420.5616
   3   2.0000     -88.953488     -2420.5475
   4   2.0000     -88.940220     -2420.1864
   5   2.0000     -88.940132     -2420.1840
   6   2.0000     -24.802005      -674.8969
   7   2.0000     -24.799032      -674.8160
   8   2.0000     -24.784633      -674.4242
   9   2.0000     -19.224604      -523.1281
  10   2.0000     -19.223828      -523.1069
  11   2.0000     -19.212246      -522.7918
  12   2.0000     -14.456618      -393.3846
  13   2.0000     -14.414080      -392.2271
  14   2.0000     -14.413203      -392.2032
  15   2.0000     -10.390458      -282.7387
  16   2.0000     -10.390179      -282.7311
  17   2.0000     -10.387162      -282.6490
  18   2.0000     -10.382510      -282.5224
  19   2.0000     -10.368293      -282.1356
  20   2.0000     -10.363640      -282.0090
  21   2.0000     -10.340464      -281.3783
  22   2.0000     -10.339641      -281.3559
  23   2.0000     -10.338840      -281.3342
  24   2.0000     -10.334322      -281.2112
  25   2.0000     -10.334067      -281.2043
  26   2.0000     -10.325270      -280.9649
  27   2.0000     -10.322908      -280.9006
  28   2.0000     -10.316684      -280.7312
  29   2.0000     -10.316385      -280.7231
  30   2.0000     -10.314693      -280.6771
  31   2.0000     -10.312314      -280.6123
  32   2.0000     -10.311611      -280.5932
  33   2.0000     -10.310332      -280.5584
  34   2.0000     -10.308808      -280.5169
  35   2.0000     -10.308779      -280.5161
  36   2.0000     -10.308400      -280.5058
  37   2.0000     -10.307687      -280.4864
  38   2.0000     -10.307483      -280.4809
  39   2.0000     -10.306270      -280.4479
  40   2.0000     -10.304778      -280.4073
  41   2.0000     -10.304695      -280.4050
  42   2.0000     -10.304264      -280.3933
  43   2.0000     -10.302720      -280.3513
  44   2.0000     -10.299710      -280.2694
  45   2.0000     -10.298727      -280.2426
  46   2.0000     -10.297230      -280.2019
  47   2.0000     -10.296681      -280.1869
  48   2.0000     -10.296634      -280.1857
  49   2.0000     -10.296606      -280.1849
  50   2.0000     -10.296170      -280.1730
  51   2.0000     -10.295488      -280.1545
  52   2.0000     -10.294726      -280.1337
  53   2.0000     -10.293279      -280.0944
  54   2.0000     -10.289124      -279.9813
  55   2.0000     -10.288976      -279.9773
  56   2.0000     -10.288222      -279.9568
  57   2.0000     -10.287882      -279.9475
  58   2.0000     -10.284968      -279.8682
  59   2.0000     -10.281222      -279.7663
  60   2.0000     -10.279455      -279.7182
  61   2.0000     -10.273969      -279.5689
  62   2.0000     -10.273354      -279.5522
  63   2.0000     -10.269704      -279.4528
  64   2.0000      -8.084118      -219.9800
  65   2.0000      -8.055564      -219.2031
  66   2.0000      -8.050527      -219.0660
  67   2.0000      -8.050373      -219.0618
  68   2.0000      -8.036560      -218.6859
  69   2.0000      -8.036210      -218.6764
  70   2.0000      -6.053036      -164.7115
  71   2.0000      -6.049016      -164.6021
  72   2.0000      -6.046936      -164.5455
  73   2.0000      -6.024932      -163.9467
  74   2.0000      -6.020679      -163.8310
  75   2.0000      -6.020302      -163.8207
  76   2.0000      -6.020227      -163.8187
  77   2.0000      -6.017632      -163.7481
  78   2.0000      -6.015816      -163.6987
  79   2.0000      -6.015762      -163.6972
  80   2.0000      -6.011496      -163.5811
  81   2.0000      -6.011110      -163.5706
  82   2.0000      -6.006287      -163.4394
  83   2.0000      -6.005980      -163.4310
  84   2.0000      -6.002331      -163.3317
  85   2.0000      -6.001894      -163.3198
  86   2.0000      -5.997428      -163.1983
  87   2.0000      -5.997128      -163.1902
  88   2.0000      -1.323022       -36.0012
  89   2.0000      -1.307837       -35.5881
  90   2.0000      -1.299480       -35.3606
  91   2.0000      -1.162500       -31.6332
  92   2.0000      -1.129545       -30.7365
  93   2.0000      -1.127155       -30.6715
  94   2.0000      -1.058104       -28.7925
  95   2.0000      -1.027228       -27.9523
  96   2.0000      -1.015161       -27.6239
  97   2.0000      -1.000493       -27.2248
  98   2.0000      -0.999208       -27.1898
  99   2.0000      -0.992026       -26.9944
 100   2.0000      -0.988344       -26.8942
 101   2.0000      -0.975212       -26.5369
 102   2.0000      -0.966938       -26.3117
 103   2.0000      -0.963389       -26.2151
 104   2.0000      -0.946135       -25.7457
 105   2.0000      -0.929925       -25.3045
 106   2.0000      -0.918308       -24.9884
 107   2.0000      -0.916707       -24.9449
 108   2.0000      -0.903917       -24.5968
 109   2.0000      -0.897949       -24.4344
 110   2.0000      -0.894666       -24.3451
 111   2.0000      -0.885164       -24.0865
 112   2.0000      -0.881298       -23.9813
 113   2.0000      -0.868961       -23.6456
 114   2.0000      -0.866929       -23.5904
 115   2.0000      -0.853049       -23.2126
 116   2.0000      -0.846269       -23.0281
 117   2.0000      -0.838626       -22.8202
 118   2.0000      -0.833928       -22.6923
 119   2.0000      -0.828842       -22.5539
 120   2.0000      -0.820636       -22.3306
 121   2.0000      -0.812792       -22.1172
 122   2.0000      -0.811562       -22.0837
 123   2.0000      -0.807300       -21.9677
 124   2.0000      -0.789598       -21.4861
 125   2.0000      -0.775138       -21.0926
 126   2.0000      -0.760669       -20.6989
 127   2.0000      -0.756989       -20.5987
 128   2.0000      -0.752882       -20.4869
 129   2.0000      -0.735818       -20.0226
 130   2.0000      -0.734578       -19.9889
 131   2.0000      -0.727758       -19.8033
 132   2.0000      -0.721621       -19.6363
 133   2.0000      -0.709968       -19.3192
 134   2.0000      -0.707749       -19.2588
 135   2.0000      -0.701231       -19.0815
 136   2.0000      -0.680503       -18.5174
 137   2.0000      -0.678903       -18.4739
 138   2.0000      -0.676454       -18.4073
 139   2.0000      -0.672328       -18.2950
 140   2.0000      -0.666025       -18.1234
 141   2.0000      -0.651415       -17.7259
 142   2.0000      -0.646804       -17.6004
 143   2.0000      -0.639303       -17.3963
 144   2.0000      -0.635091       -17.2817
 145   2.0000      -0.631425       -17.1820
 146   2.0000      -0.628150       -17.0928
 147   2.0000      -0.625937       -17.0326
 148   2.0000      -0.625268       -17.0144
 149   2.0000      -0.623557       -16.9678
 150   2.0000      -0.619697       -16.8628
 151   2.0000      -0.608371       -16.5546
 152   2.0000      -0.607052       -16.5187
 153   2.0000      -0.599390       -16.3102
 154   2.0000      -0.594589       -16.1796
 155   2.0000      -0.590185       -16.0598
 156   2.0000      -0.588144       -16.0042
 157   2.0000      -0.586519       -15.9600
 158   2.0000      -0.580630       -15.7997
 159   2.0000      -0.577557       -15.7161
 160   2.0000      -0.567644       -15.4464
 161   2.0000      -0.562205       -15.2984
 162   2.0000      -0.558706       -15.2032
 163   2.0000      -0.556952       -15.1554
 164   2.0000      -0.556679       -15.1480
 165   2.0000      -0.555806       -15.1242
 166   2.0000      -0.552153       -15.0248
 167   2.0000      -0.549357       -14.9488
 168   2.0000      -0.548438       -14.9237
 169   2.0000      -0.544315       -14.8116
 170   2.0000      -0.540006       -14.6943
 171   2.0000      -0.535609       -14.5747
 172   2.0000      -0.531912       -14.4741
 173   2.0000      -0.530514       -14.4360
 174   2.0000      -0.530336       -14.4312
 175   2.0000      -0.526111       -14.3162
 176   2.0000      -0.524130       -14.2623
 177   2.0000      -0.522641       -14.2218
 178   2.0000      -0.522418       -14.2157
 179   2.0000      -0.514437       -13.9985
 180   2.0000      -0.512426       -13.9438
 181   2.0000      -0.509821       -13.8729
 182   2.0000      -0.506607       -13.7855
 183   2.0000      -0.502138       -13.6639
 184   2.0000      -0.499531       -13.5929
 185   2.0000      -0.497806       -13.5460
 186   2.0000      -0.493454       -13.4276
 187   2.0000      -0.491957       -13.3868
 188   2.0000      -0.489611       -13.3230
 189   2.0000      -0.488322       -13.2879
 190   2.0000      -0.488051       -13.2805
 191   2.0000      -0.482181       -13.1208
 192   2.0000      -0.481219       -13.0946
 193   2.0000      -0.479397       -13.0450
 194   2.0000      -0.477776       -13.0009
 195   2.0000      -0.474934       -12.9236
 196   2.0000      -0.472858       -12.8671
 197   2.0000      -0.470482       -12.8025
 198   2.0000      -0.466684       -12.6991
 199   2.0000      -0.465382       -12.6637
 200   2.0000      -0.464942       -12.6517
 201   2.0000      -0.460936       -12.5427
 202   2.0000      -0.459472       -12.5029
 203   2.0000      -0.456094       -12.4109
 204   2.0000      -0.450982       -12.2718
 205   2.0000      -0.450150       -12.2492
 206   2.0000      -0.444343       -12.0912
 207   2.0000      -0.444106       -12.0848
 208   2.0000      -0.441821       -12.0226
 209   2.0000      -0.439336       -11.9549
 210   2.0000      -0.437280       -11.8990
 211   2.0000      -0.432804       -11.7772
 212   2.0000      -0.431804       -11.7500
 213   2.0000      -0.431094       -11.7307
 214   2.0000      -0.429086       -11.6760
 215   2.0000      -0.426714       -11.6115
 216   2.0000      -0.422403       -11.4942
 217   2.0000      -0.417102       -11.3499
 218   2.0000      -0.416250       -11.3267
 219   2.0000      -0.407983       -11.1018
 220   2.0000      -0.405152       -11.0248
 221   2.0000      -0.401175       -10.9165
 222   2.0000      -0.393841       -10.7170
 223   2.0000      -0.387299       -10.5389
 224   2.0000      -0.382321       -10.4035
 225   2.0000      -0.379395       -10.3239
 226   2.0000      -0.377289       -10.2666
 227   2.0000      -0.375503       -10.2180
 228   2.0000      -0.373264       -10.1570
 229   2.0000      -0.346338        -9.4243
 230   2.0000      -0.344156        -9.3650
 231   2.0000      -0.336056        -9.1445
 232   2.0000      -0.332733        -9.0541
 233   2.0000      -0.329861        -8.9760
 234   2.0000      -0.328183        -8.9303
 235   2.0000      -0.326232        -8.8772
 236   2.0000      -0.319258        -8.6874
 237   2.0000      -0.310894        -8.4598
 238   2.0000      -0.303261        -8.2522
 239   2.0000      -0.296913        -8.0794
 240   2.0000      -0.286212        -7.7882
 241   2.0000      -0.263867        -7.1802
 242   2.0000      -0.258584        -7.0364
 243   2.0000      -0.200605        -5.4587
 244   0.0000      -0.107529        -2.9260
 245   0.0000      -0.068933        -1.8758
 246   0.0000      -0.063111        -1.7173
 247   0.0000      -0.046470        -1.2645
 248   0.0000      -0.041488        -1.1290

MULLIKEN ATOMIC CHARGES
-----------------------
   0 C :   -0.101071
   1 C :    0.304388
   2 F :   -0.191227
   3 C :   -0.029268
   4 C :   -0.012099
   5 C :    0.102090
   6 C :    0.103119
   7 C :   -0.090814
   8 C :    0.042713
   9 C :    0.018281
  10 C :   -0.086977
  11 C :    0.135043
  12 O :   -0.148468
  13 C :   -0.151453
  14 C :    0.242900
  15 C :   -0.336383
  16 C :   -0.189219
  17 N :    0.158466
  18 C :   -0.184871
  19 N :    0.154198
  20 C :    0.064479
  21 C :   -0.158658
  22 S :    0.190948
  23 C :   -0.070740
  24 C :    0.133098
  25 C :    0.125510
  26 C :   -0.088574
  27 C :    0.223215
  28 F :   -0.167318
  29 C :    0.236921
  30 F :   -0.174809
  31 C :   -0.114709
  32 C :   -0.001988
  33 C :    0.015690
  34 C :   -0.003095
  35 C :   -0.180629
  36 C :    0.076487
  37 C :    0.193071
  38 N :   -0.136628
  39 C :    0.054336
  40 C :   -0.032142
  41 C :    0.000228
  42 C :   -0.043444
  43 C :    0.048373
  44 C :    0.009845
  45 C :   -0.033776
  46 S :    0.060402
  47 C :   -0.053151
  48 C :    0.032788
  49 C :    0.020422
  50 C :   -0.022764
  51 S :    0.053080
  52 C :   -0.048331
  53 C :   -0.116658
  54 S :    0.132225
  55 C :   -0.101096
  56 C :   -0.037858
  57 C :   -0.017201
  58 S :    0.072757
  59 C :    0.075572
  60 O :   -0.143773
  61 C :    0.065209
  62 O :   -0.140364
  63 S :    0.090995
  64 H :   -0.001551
  65 H :    0.003449
  66 H :   -0.008816
  67 H :   -0.004217
  68 H :   -0.012362
  69 H :    0.023937
  70 H :    0.005854
  71 H :   -0.008811
  72 H :   -0.004996
  73 H :    0.010295
  74 H :   -0.008084
  75 H :    0.034077
  76 H :    0.022439
  77 H :    0.035882
  78 H :    0.020727
  79 H :    0.019245
  80 H :    0.121546
  81 H :    0.006376
  82 H :   -0.011398
  83 H :   -0.021528
  84 H :   -0.017188
  85 H :   -0.018895
  86 H :   -0.015779
  87 H :   -0.015937
  88 H :   -0.004092
  89 H :    0.022534
Sum of atomic charges:   -0.0000000

LOEWDIN ATOMIC CHARGES
----------------------
   0 C :   -0.042304
   1 C :    0.093145
   2 F :   -0.065500
   3 C :   -0.037799
   4 C :    0.004224
   5 C :   -0.019721
   6 C :    0.003201
   7 C :    0.008639
   8 C :   -0.018241
   9 C :   -0.060008
  10 C :    0.033651
  11 C :    0.081384
  12 O :   -0.149636
  13 C :   -0.106285
  14 C :    0.055280
  15 C :   -0.143071
  16 C :   -0.014053
  17 N :   -0.058479
  18 C :   -0.020237
  19 N :   -0.055312
  20 C :    0.038392
  21 C :   -0.190497
  22 S :    0.512033
  23 C :   -0.135611
  24 C :   -0.042205
  25 C :   -0.023916
  26 C :   -0.039929
  27 C :    0.079270
  28 F :   -0.046184
  29 C :    0.061062
  30 F :   -0.053389
  31 C :   -0.027717
  32 C :   -0.042720
  33 C :   -0.003932
  34 C :   -0.056206
  35 C :   -0.021743
  36 C :   -0.052989
  37 C :    0.047868
  38 N :    0.009169
  39 C :    0.046049
  40 C :   -0.124101
  41 C :   -0.026641
  42 C :   -0.178869
  43 C :   -0.021007
  44 C :   -0.053394
  45 C :   -0.159028
  46 S :    0.359753
  47 C :   -0.202771
  48 C :   -0.027241
  49 C :   -0.049186
  50 C :   -0.138249
  51 S :    0.357472
  52 C :   -0.109217
  53 C :   -0.181192
  54 S :    0.451961
  55 C :   -0.221696
  56 C :   -0.220559
  57 C :   -0.240068
  58 S :    0.385699
  59 C :   -0.115506
  60 O :   -0.114921
  61 C :   -0.114780
  62 O :   -0.112466
  63 S :    0.376180
  64 H :    0.043273
  65 H :    0.041790
  66 H :    0.035621
  67 H :    0.039200
  68 H :    0.039413
  69 H :    0.045567
  70 H :    0.045139
  71 H :    0.041175
  72 H :    0.034705
  73 H :    0.027241
  74 H :    0.029504
  75 H :    0.035837
  76 H :    0.034199
  77 H :    0.038883
  78 H :    0.030212
  79 H :    0.032261
  80 H :    0.081924
  81 H :    0.027458
  82 H :    0.019087
  83 H :    0.030978
  84 H :    0.031992
  85 H :    0.029614
  86 H :    0.031194
  87 H :    0.031942
  88 H :    0.031372
  89 H :    0.024564

  Mayer bond orders larger than 0.100000
B(  0-C ,  1-C ) :   1.4377 B(  0-C ,  6-C ) :   1.2044 B(  0-C , 64-H ) :   1.0074
B(  1-C ,  2-F ) :   1.0877 B(  1-C ,  3-C ) :   1.2567 B(  3-C ,  4-C ) :   1.4580
B(  3-C , 65-H ) :   0.9925 B(  4-C ,  5-C ) :   1.2356 B(  4-C , 66-H ) :   0.9976
B(  5-C ,  6-C ) :   1.2584 B(  5-C , 10-C ) :   1.1851 B(  6-C ,  7-C ) :   1.1959
B(  7-C ,  8-C ) :   1.4656 B(  7-C , 67-H ) :   0.9956 B(  8-C ,  9-C ) :   1.2184
B(  8-C , 14-C ) :   0.9910 B(  9-C , 10-C ) :   1.4700 B(  9-C , 11-C ) :   0.9196
B( 10-C , 68-H ) :   1.0171 B( 11-C , 12-O ) :   2.2654 B( 11-C , 13-C ) :   0.9476
B( 13-C , 14-C ) :   1.0774 B( 13-C , 20-C ) :   1.5858 B( 14-C , 15-C ) :   1.6210
B( 15-C , 16-C ) :   1.1669 B( 15-C , 18-C ) :   1.1419 B( 16-C , 17-N ) :   3.0044
B( 18-C , 19-N ) :   2.9833 B( 20-C , 21-C ) :   1.1980 B( 20-C , 69-H ) :   0.9268
B( 21-C , 22-S ) :   1.1210 B( 21-C , 25-C ) :   1.3070 B( 22-S , 23-C ) :   1.1933
B( 23-C , 24-C ) :   1.3052 B( 23-C , 32-C ) :   1.1779 B( 24-C , 25-C ) :   1.2334
B( 24-C , 31-C ) :   1.1728 B( 25-C , 26-C ) :   1.1963 B( 26-C , 27-C ) :   1.4744
B( 26-C , 31-C ) :   0.1080 B( 26-C , 70-H ) :   0.9883 B( 27-C , 28-F ) :   1.1455
B( 27-C , 29-C ) :   1.1676 B( 29-C , 30-F ) :   1.1328 B( 29-C , 31-C ) :   1.4902
B( 31-C , 71-H ) :   0.9964 B( 32-C , 33-C ) :   1.6954 B( 32-C , 72-H ) :   0.9617
B( 33-C , 34-C ) :   1.0981 B( 33-C , 73-H ) :   0.9567 B( 34-C , 35-C ) :   1.8178
B( 34-C , 74-H ) :   0.9510 B( 35-C , 36-C ) :   1.0767 B( 35-C , 37-C ) :   1.0306
B( 36-C , 75-H ) :   0.9489 B( 36-C , 76-H ) :   0.9444 B( 36-C , 77-H ) :   0.9393
B( 37-C , 38-N ) :   1.0152 B( 37-C , 78-H ) :   0.9430 B( 37-C , 79-H ) :   0.9335
B( 38-N , 39-C ) :   1.2363 B( 38-N , 80-H ) :   0.9363 B( 39-C , 40-C ) :   1.5794
B( 39-C , 81-H ) :   0.9631 B( 40-C , 41-C ) :   1.1837 B( 40-C , 82-H ) :   0.9634
B( 41-C , 42-C ) :   1.5789 B( 41-C , 83-H ) :   0.9775 B( 42-C , 43-C ) :   1.1527
B( 42-C , 46-S ) :   1.0077 B( 43-C , 44-C ) :   1.5833 B( 43-C , 84-H ) :   0.9973
B( 44-C , 45-C ) :   1.1930 B( 44-C , 85-H ) :   0.9931 B( 45-C , 46-S ) :   1.0626
B( 45-C , 47-C ) :   1.5033 B( 47-C , 48-C ) :   1.1974 B( 47-C , 51-S ) :   1.0205
B( 48-C , 49-C ) :   1.5815 B( 48-C , 86-H ) :   0.9921 B( 49-C , 50-C ) :   1.1473
B( 49-C , 87-H ) :   1.0007 B( 50-C , 51-S ) :   1.0492 B( 50-C , 52-C ) :   1.5791
B( 52-C , 53-C ) :   1.1956 B( 52-C , 88-H ) :   0.9547 B( 53-C , 54-S ) :   1.1312
B( 53-C , 57-C ) :   1.5046 B( 54-S , 55-C ) :   1.1505 B( 55-C , 56-C ) :   1.5759
B( 55-C , 89-H ) :   0.9700 B( 56-C , 57-C ) :   1.3062 B( 56-C , 63-S ) :   0.9487
B( 57-C , 58-S ) :   0.9652 B( 58-S , 59-C ) :   1.0651 B( 58-S , 60-O ) :   0.1425
B( 59-C , 60-O ) :   2.1414 B( 59-C , 61-C ) :   0.7764 B( 61-C , 62-O ) :   2.1493
B( 61-C , 63-S ) :   1.0626 B( 62-O , 63-S ) :   0.1423

-----------------------------------------------------------------------------
         ABSORPTION SPECTRUM VIA TRANSITION ELECTRIC DIPOLE MOMENTS
-----------------------------------------------------------------------------
State   Energy  Wavelength   fosc         T2         TX        TY        TZ
        (cm-1)    (nm)                  (au**2)     (au)      (au)      (au)
-----------------------------------------------------------------------------
   0   11452.7    873.2   0.148824226   4.27802   1.02815   1.34020   1.19365
   1   15491.3    645.5   1.384761256  29.42811  -0.06440  -4.46618  -3.07851
   2   17182.0    582.0   0.801207842  15.35138  -3.88376   0.30495  -0.41806
   3   20778.2    481.3   0.033558097   0.53170   0.09151   0.32809   0.64473
   4   22266.1    449.1   0.019641254   0.29040  -0.47290   0.25025   0.06438
   5   24208.2    413.1   0.009582545   0.13031   0.31405  -0.09117   0.15290
   6   24991.5    400.1   0.002572421   0.03389  -0.15526  -0.05343  -0.08322
   7   25471.0    392.6   0.008402421   0.10860   0.18985  -0.26506   0.04797
   8   26437.2    378.3   0.154420201   1.92294  -1.32115  -0.32829   0.26405
   9   26695.4    374.6   0.011554073   0.14249   0.30671   0.01313   0.21964
  10   27218.3    367.4   0.170554097   2.06289  -1.35537   0.12207   0.45932
  11   28705.7    348.4   0.068782510   0.78883  -0.87747  -0.02332   0.13539
  12   29221.5    342.2   0.037947768   0.42752   0.01881   0.64530  -0.10369
  13   29709.2    336.6   0.005520660   0.06118   0.15478  -0.07801   0.17644
  14   29743.0    336.2   0.559341655   6.19111  -1.41635   0.59774  -1.95647
  15   30339.8    329.6   0.018780289   0.20378   0.22746   0.38991   0.00395
  16   30447.6    328.4   0.116729218   1.26213  -0.00962  -0.99795   0.51588
  17   30894.6    323.7   0.201620641   2.14846   0.40714  -1.06949   0.91592
  18   31770.5    314.8   0.009771662   0.10126  -0.04868   0.01745   0.31398
  19   31868.8    313.8   0.099400084   1.02682  -0.23385  -0.34155  -0.92492
  20   32115.9    311.4   0.181300144   1.85846   1.27586   0.16873  -0.44965
  21   32578.1    307.0   0.004449778   0.04497   0.06162  -0.17986  -0.09392
  22   32703.2    305.8   0.043860143   0.44153  -0.08197   0.37809   0.54024
  23   33327.8    300.1   0.046784530   0.46214   0.10327  -0.39057   0.54674
  24   33712.4    296.6   0.064803652   0.63283   0.31099  -0.42948  -0.59301
  25   33908.3    294.9   0.010015586   0.09724  -0.07071  -0.25530  -0.16450
  26   33961.0    294.5   0.508604736   4.93033   1.98374   0.97444   0.21351
  27   34196.6    292.4   0.030333182   0.29202  -0.31494   0.32267   0.29786
  28   34443.1    290.3   0.032010473   0.30596  -0.43433  -0.24632   0.23801
  29   34547.4    289.5   0.001537984   0.01466  -0.06145  -0.09616  -0.04041
  30   35265.1    283.6   0.000879205   0.00821   0.08226   0.03750   0.00593
  31   35646.2    280.5   0.003607471   0.03332   0.16249   0.00317  -0.08308
  32   36141.2    276.7   0.122936664   1.11983  -0.58954   0.50234   0.72106
  33   36561.1    273.5   0.309675156   2.78845   1.43994   0.82080  -0.20324
  34   37206.0    268.8   0.021441687   0.18972   0.31488  -0.29786   0.04304
  35   38156.6    262.1   0.162958787   1.40599   0.84196  -0.09507  -0.82949
  36   38337.3    260.8   0.065890258   0.56582   0.33006  -0.66192  -0.13688
  37   38358.3    260.7   0.000040189   0.00034  -0.01185   0.00147   0.01423
  38   38364.2    260.7   0.003774569   0.03239   0.02365  -0.14089  -0.10946
  39   39590.7    252.6   0.003638446   0.03026   0.15045   0.07369   0.04680
  40   40063.3    249.6   0.001404108   0.01154   0.02099   0.06927   0.07937
  41   40200.3    248.8   0.053627170   0.43917   0.17123   0.37929   0.51574
  42   40295.9    248.2   0.143936724   1.17594   0.70720  -0.71927  -0.39807

FINAL SINGLE POINT ENERGY     -4957.418697733522

DIPOLE MOMENT
-------------
                                X             Y             Z
Electronic contribution:    -40.08195       9.67375       3.12520
Nuclear contribution   :     41.61044     -13.35373      -4.52297
                        -----------------------------------------
Total Dipole Moment    :      1.52849      -3.67998      -1.39777
                        -----------------------------------------
Magnitude (a.u.)       :      4.22283
Magnitude (Debye)      :     10.73358

Rotational constants in cm-1:     0.001276     0.000216     0.000193
Rotational constants in MHz :    38.239387     6.473643     5.774522

                             ****ORCA TERMINATED NORMALLY****
TOTAL RUN TIME: 0 days 0 hours 8 minutes 23 seconds 916 msec
