                         Program Version 4.2.0 -  RELEASE  -
|  1> # ORCA input file
|  2> # SCF done       -186.021739728007          0.000406751666
|  3> ! CAM-B3LYP def2-SVP def2/J RIJCOSX Grid4 TightSCF
|  4> %maxcore 5000
|  5> %tddft
|  6>     Mode sTDDFT
|  7>     Ethresh 5.0
|  8>     maxcore 5000
|  9> end
| 10>
| 11> %pal
| 12>   nprocs 6
| 13>   end
| 14> * xyz 0 1
| 15>    C        7.97290        -0.47848        -8.85136
| 16>    C        8.16437        -0.58957       -10.20034
| 17>    F        7.20249        -0.17036       -11.04257
| 18>    C        9.33543        -1.12707       -10.75196
| 19>    C       10.32561        -1.55526        -9.91241
| 20>    C       10.18232        -1.46217        -8.51269
| 21>    C        8.98166        -0.91659        -7.97124
| 22>    C        8.81048        -0.82212        -6.57041
| 23>    C        9.81118        -1.25329        -5.74210
| 24>    C       11.01742        -1.77860        -6.28933
| 25>    C       11.20434        -1.89118        -7.63690
| 26>    C       11.94377        -2.11741        -5.19229
| 27>    O       13.03321        -2.63645        -5.27067
| 28>    C       11.27940        -1.62127        -3.95218
| 29>    C        9.90433        -1.30374        -4.28562
| 30>    C        8.84138        -1.30695        -3.42256
| 31>    C        8.95771        -1.61718        -2.05123
| 32>    N        8.99706        -1.91750        -0.94456
| 33>    C        7.50880        -1.08517        -3.82456
| 34>    N        6.41378        -0.88786        -4.10639
| 35>    C       12.01902        -1.46232        -2.82640
| 36>    C       11.75588        -0.67798        -1.65219
| 37>    C       10.91807         0.45789        -1.69769
| 38>    C       10.69663         1.25684        -0.60399
| 39>    C       11.32901         0.90628         0.58685
| 40>    C       12.18546        -0.22414         0.63192
| 41>    C       12.42470        -1.01149        -0.46647
| 42>    O       12.69343        -0.30511         1.88677
| 43>    C       12.14683         0.75519         2.54450
| 44>    N       11.33630         1.48588         1.81184
| 45>    C       12.46565         1.05471         3.88023
| 46>    C       11.90518         2.15862         4.47009
| 47>    C       12.14315         2.66072         5.77728
| 48>    C       11.45182         3.79497         6.06563
| 49>    C       10.61738         4.22788         5.00656
| 50>    S       10.76447         3.15908         3.61494
| 51>    C        9.77267         5.31627         4.98928
| 52>    C        9.59862         6.32104         5.97387
| 53>    C        8.68298         7.26430         5.63903
| 54>    C        8.04481         7.05739         4.37907
| 55>    S        8.71229         5.61134         3.63283
| 56>    C        7.08745         7.88607         3.86675
| 57>    C        6.29469         7.77555         2.68172
| 58>    C        6.24478         6.59820         1.89475
| 59>    C        5.43695         6.47248         0.79524
| 60>    C        4.64320         7.56539         0.44844
| 61>    C        4.70141         8.75712         1.21710
| 62>    C        5.49909         8.87837         2.32857
| 63>    O        3.84177         9.63831         0.66011
| 64>    C        3.27566         8.95931        -0.37832
| 65>    N        3.72897         7.74340        -0.53550
| 66>    C        2.33469         9.62469        -1.21094
| 67>    C        1.50449         9.04650        -2.11206
| 68>    C        0.88812         9.86945        -3.19636
| 69>    O        0.82388        11.07540        -3.23875
| 70>    C        0.44543         8.89453        -4.20916
| 71>    C       -0.07730         9.12505        -5.45000
| 72>    C       -0.41506         8.02677        -6.27130
| 73>    C       -0.19420         6.70204        -5.79193
| 74>    C       -0.52850         5.61148        -6.61833
| 75>    C       -1.05942         5.84548        -7.85628
| 76>    C       -1.28511         7.13990        -8.34513
| 77>    C       -0.96439         8.20994        -7.55729
| 78>    F       -1.38214         4.80618        -8.64608
| 79>    C        0.34527         6.49223        -4.50163
| 80>    C        0.65170         7.57182        -3.71774
| 81>    C        1.16338         7.65659        -2.35323
| 82>    C        1.09015         6.66562        -1.41537
| 83>    C        1.30950         6.86446        -0.03517
| 84>    N        1.38066         6.97812         1.10458
| 85>    C        0.66538         5.35076        -1.69985
| 86>    N        0.33136         4.26871        -1.88537
| 87>    H        7.05635        -0.06353        -8.46209
| 88>    H        9.42961        -1.19056       -11.82443
| 89>    H       11.23713        -1.97237       -10.31334
| 90>    H        7.89519        -0.39973        -6.18652
| 91>    H       12.12273        -2.29999        -8.03085
| 92>    H       12.98984        -1.94881        -2.85711
| 93>    H       10.47331         0.73053        -2.64325
| 94>    H       10.06655         2.12941        -0.65105
| 95>    H       13.07934        -1.86674        -0.41776
| 96>    H       13.16039         0.42419         4.40944
| 97>    H       12.82051         2.16618         6.45083
| 98>    H       11.50773         4.31588         7.00504
| 99>    H       10.16328         6.32095         6.88877
|100>    H        8.42322         8.10474         6.25848
|101>    H        6.88720         8.76859         4.46347
|102>    H        6.84265         5.75250         2.19050
|103>    H        5.39372         5.56136         0.22219
|104>    H        5.51269         9.78666         2.90972
|105>    H        2.34540        10.70715        -1.16609
|106>    H       -0.23287        10.13445        -5.80039
|107>    H       -0.37131         4.60161        -6.27311
|108>    H       -1.70632         7.26257        -9.33035
|109>    H       -1.12937         9.21619        -7.91198
|110>    H        0.51122         5.48070        -4.16667
|111> *
|112>
|113>                          ****END OF INPUT****

CARTESIAN COORDINATES (ANGSTROEM)
---------------------------------
  C      7.972900   -0.478480   -8.851360
  C      8.164370   -0.589570  -10.200340
  F      7.202490   -0.170360  -11.042570
  C      9.335430   -1.127070  -10.751960
  C     10.325610   -1.555260   -9.912410
  C     10.182320   -1.462170   -8.512690
  C      8.981660   -0.916590   -7.971240
  C      8.810480   -0.822120   -6.570410
  C      9.811180   -1.253290   -5.742100
  C     11.017420   -1.778600   -6.289330
  C     11.204340   -1.891180   -7.636900
  C     11.943770   -2.117410   -5.192290
  O     13.033210   -2.636450   -5.270670
  C     11.279400   -1.621270   -3.952180
  C      9.904330   -1.303740   -4.285620
  C      8.841380   -1.306950   -3.422560
  C      8.957710   -1.617180   -2.051230
  N      8.997060   -1.917500   -0.944560
  C      7.508800   -1.085170   -3.824560
  N      6.413780   -0.887860   -4.106390
  C     12.019020   -1.462320   -2.826400
  C     11.755880   -0.677980   -1.652190
  C     10.918070    0.457890   -1.697690
  C     10.696630    1.256840   -0.603990
  C     11.329010    0.906280    0.586850
  C     12.185460   -0.224140    0.631920
  C     12.424700   -1.011490   -0.466470
  O     12.693430   -0.305110    1.886770
  C     12.146830    0.755190    2.544500
  N     11.336300    1.485880    1.811840
  C     12.465650    1.054710    3.880230
  C     11.905180    2.158620    4.470090
  C     12.143150    2.660720    5.777280
  C     11.451820    3.794970    6.065630
  C     10.617380    4.227880    5.006560
  S     10.764470    3.159080    3.614940
  C      9.772670    5.316270    4.989280
  C      9.598620    6.321040    5.973870
  C      8.682980    7.264300    5.639030
  C      8.044810    7.057390    4.379070
  S      8.712290    5.611340    3.632830
  C      7.087450    7.886070    3.866750
  C      6.294690    7.775550    2.681720
  C      6.244780    6.598200    1.894750
  C      5.436950    6.472480    0.795240
  C      4.643200    7.565390    0.448440
  C      4.701410    8.757120    1.217100
  C      5.499090    8.878370    2.328570
  O      3.841770    9.638310    0.660110
  C      3.275660    8.959310   -0.378320
  N      3.728970    7.743400   -0.535500
  C      2.334690    9.624690   -1.210940
  C      1.504490    9.046500   -2.112060
  C      0.888120    9.869450   -3.196360
  O      0.823880   11.075400   -3.238750
  C      0.445430    8.894530   -4.209160
  C     -0.077300    9.125050   -5.450000
  C     -0.415060    8.026770   -6.271300
  C     -0.194200    6.702040   -5.791930
  C     -0.528500    5.611480   -6.618330
  C     -1.059420    5.845480   -7.856280
  C     -1.285110    7.139900   -8.345130
  C     -0.964390    8.209940   -7.557290
  F     -1.382140    4.806180   -8.646080
  C      0.345270    6.492230   -4.501630
  C      0.651700    7.571820   -3.717740
  C      1.163380    7.656590   -2.353230
  C      1.090150    6.665620   -1.415370
  C      1.309500    6.864460   -0.035170
  N      1.380660    6.978120    1.104580
  C      0.665380    5.350760   -1.699850
  N      0.331360    4.268710   -1.885370
  H      7.056350   -0.063530   -8.462090
  H      9.429610   -1.190560  -11.824430
  H     11.237130   -1.972370  -10.313340
  H      7.895190   -0.399730   -6.186520
  H     12.122730   -2.299990   -8.030850
  H     12.989840   -1.948810   -2.857110
  H     10.473310    0.730530   -2.643250
  H     10.066550    2.129410   -0.651050
  H     13.079340   -1.866740   -0.417760
  H     13.160390    0.424190    4.409440
  H     12.820510    2.166180    6.450830
  H     11.507730    4.315880    7.005040
  H     10.163280    6.320950    6.888770
  H      8.423220    8.104740    6.258480
  H      6.887200    8.768590    4.463470
  H      6.842650    5.752500    2.190500
  H      5.393720    5.561360    0.222190
  H      5.512690    9.786660    2.909720
  H      2.345400   10.707150   -1.166090
  H     -0.232870   10.134450   -5.800390
  H     -0.371310    4.601610   -6.273110
  H     -1.706320    7.262570   -9.330350
  H     -1.129370    9.216190   -7.911980
  H      0.511220    5.480700   -4.166670

 Total Charge           Charge          ....    0
 Multiplicity           Mult            ....    1
 Number of Electrons    NEL             ....  496
 Basis Dimension        Dim             .... 1136

ORBITAL ENERGIES
----------------

  NO   OCC          E(Eh)            E(eV)
   0   2.0000     -88.954078     -2420.5635
   1   2.0000     -88.944861     -2420.3127
   2   2.0000     -24.786683      -674.4799
   3   2.0000     -24.783655      -674.3975
   4   2.0000     -19.308329      -525.4063
   5   2.0000     -19.293945      -525.0149
   6   2.0000     -19.220960      -523.0289
   7   2.0000     -19.208619      -522.6931
   8   2.0000     -14.423855      -392.4930
   9   2.0000     -14.417607      -392.3230
  10   2.0000     -14.413382      -392.2081
  11   2.0000     -14.411101      -392.1460
  12   2.0000     -14.407015      -392.0348
  13   2.0000     -14.402053      -391.8998
  14   2.0000     -10.382135      -282.5123
  15   2.0000     -10.372180      -282.2414
  16   2.0000     -10.370846      -282.2051
  17   2.0000     -10.368518      -282.1417
  18   2.0000     -10.366963      -282.0994
  19   2.0000     -10.360298      -281.9180
  20   2.0000     -10.347367      -281.5662
  21   2.0000     -10.342993      -281.4472
  22   2.0000     -10.341279      -281.4005
  23   2.0000     -10.338041      -281.3124
  24   2.0000     -10.336218      -281.2628
  25   2.0000     -10.332817      -281.1703
  26   2.0000     -10.323915      -280.9280
  27   2.0000     -10.322311      -280.8844
  28   2.0000     -10.318859      -280.7904
  29   2.0000     -10.318643      -280.7845
  30   2.0000     -10.317685      -280.7585
  31   2.0000     -10.316260      -280.7197
  32   2.0000     -10.313576      -280.6467
  33   2.0000     -10.312406      -280.6148
  34   2.0000     -10.310900      -280.5739
  35   2.0000     -10.309602      -280.5385
  36   2.0000     -10.308508      -280.5088
  37   2.0000     -10.308267      -280.5022
  38   2.0000     -10.307915      -280.4926
  39   2.0000     -10.307800      -280.4895
  40   2.0000     -10.303882      -280.3829
  41   2.0000     -10.303287      -280.3667
  42   2.0000     -10.303158      -280.3632
  43   2.0000     -10.302844      -280.3546
  44   2.0000     -10.302549      -280.3466
  45   2.0000     -10.299277      -280.2576
  46   2.0000     -10.299127      -280.2535
  47   2.0000     -10.298689      -280.2416
  48   2.0000     -10.298234      -280.2292
  49   2.0000     -10.297180      -280.2005
  50   2.0000     -10.296621      -280.1853
  51   2.0000     -10.295660      -280.1592
  52   2.0000     -10.295645      -280.1588
  53   2.0000     -10.295243      -280.1478
  54   2.0000     -10.294992      -280.1410
  55   2.0000     -10.294471      -280.1268
  56   2.0000     -10.293318      -280.0954
  57   2.0000     -10.293258      -280.0938
  58   2.0000     -10.292010      -280.0598
  59   2.0000     -10.290575      -280.0208
  60   2.0000     -10.289759      -279.9986
  61   2.0000     -10.289602      -279.9943
  62   2.0000     -10.289321      -279.9867
  63   2.0000     -10.288274      -279.9582
  64   2.0000     -10.287269      -279.9308
  65   2.0000     -10.286488      -279.9096
  66   2.0000     -10.286235      -279.9027
  67   2.0000     -10.284724      -279.8616
  68   2.0000     -10.281514      -279.7742
  69   2.0000     -10.280613      -279.7497
  70   2.0000     -10.279382      -279.7162
  71   2.0000     -10.275990      -279.6239
  72   2.0000      -8.050103      -219.0544
  73   2.0000      -8.039179      -218.7572
  74   2.0000      -6.019850      -163.8085
  75   2.0000      -6.015746      -163.6968
  76   2.0000      -6.011007      -163.5678
  77   2.0000      -6.009200      -163.5186
  78   2.0000      -6.004519      -163.3913
  79   2.0000      -6.000195      -163.2736
  80   2.0000      -1.301773       -35.4231
  81   2.0000      -1.298485       -35.3336
  82   2.0000      -1.237177       -33.6653
  83   2.0000      -1.223058       -33.2811
  84   2.0000      -1.136086       -30.9145
  85   2.0000      -1.124148       -30.5896
  86   2.0000      -1.035762       -28.1845
  87   2.0000      -1.021647       -27.8004
  88   2.0000      -1.018309       -27.7096
  89   2.0000      -1.013365       -27.5751
  90   2.0000      -1.001981       -27.2653
  91   2.0000      -1.000643       -27.2289
  92   2.0000      -0.995890       -27.0995
  93   2.0000      -0.993191       -27.0261
  94   2.0000      -0.987730       -26.8775
  95   2.0000      -0.979958       -26.6660
  96   2.0000      -0.978755       -26.6333
  97   2.0000      -0.972737       -26.4695
  98   2.0000      -0.964288       -26.2396
  99   2.0000      -0.958389       -26.0791
 100   2.0000      -0.931282       -25.3415
 101   2.0000      -0.923332       -25.1252
 102   2.0000      -0.913482       -24.8571
 103   2.0000      -0.905488       -24.6396
 104   2.0000      -0.896508       -24.3952
 105   2.0000      -0.891123       -24.2487
 106   2.0000      -0.887120       -24.1398
 107   2.0000      -0.883041       -24.0288
 108   2.0000      -0.877993       -23.8914
 109   2.0000      -0.867091       -23.5947
 110   2.0000      -0.856000       -23.2929
 111   2.0000      -0.855593       -23.2819
 112   2.0000      -0.849440       -23.1144
 113   2.0000      -0.840588       -22.8736
 114   2.0000      -0.835682       -22.7401
 115   2.0000      -0.832325       -22.6487
 116   2.0000      -0.827415       -22.5151
 117   2.0000      -0.822751       -22.3882
 118   2.0000      -0.808347       -21.9962
 119   2.0000      -0.793915       -21.6035
 120   2.0000      -0.777740       -21.1634
 121   2.0000      -0.766543       -20.8587
 122   2.0000      -0.757225       -20.6051
 123   2.0000      -0.752235       -20.4693
 124   2.0000      -0.746458       -20.3122
 125   2.0000      -0.730012       -19.8646
 126   2.0000      -0.724478       -19.7140
 127   2.0000      -0.721858       -19.6428
 128   2.0000      -0.713063       -19.4034
 129   2.0000      -0.710487       -19.3333
 130   2.0000      -0.705854       -19.2073
 131   2.0000      -0.702006       -19.1026
 132   2.0000      -0.700172       -19.0526
 133   2.0000      -0.692508       -18.8441
 134   2.0000      -0.688363       -18.7313
 135   2.0000      -0.680818       -18.5260
 136   2.0000      -0.675594       -18.3838
 137   2.0000      -0.674840       -18.3633
 138   2.0000      -0.667679       -18.1685
 139   2.0000      -0.647572       -17.6213
 140   2.0000      -0.645171       -17.5560
 141   2.0000      -0.636469       -17.3192
 142   2.0000      -0.634708       -17.2713
 143   2.0000      -0.631004       -17.1705
 144   2.0000      -0.630041       -17.1443
 145   2.0000      -0.628898       -17.1132
 146   2.0000      -0.627522       -17.0757
 147   2.0000      -0.624999       -17.0071
 148   2.0000      -0.615046       -16.7363
 149   2.0000      -0.612360       -16.6632
 150   2.0000      -0.602925       -16.4064
 151   2.0000      -0.597767       -16.2661
 152   2.0000      -0.594308       -16.1719
 153   2.0000      -0.589260       -16.0346
 154   2.0000      -0.588567       -16.0157
 155   2.0000      -0.587034       -15.9740
 156   2.0000      -0.580702       -15.8017
 157   2.0000      -0.572742       -15.5851
 158   2.0000      -0.568050       -15.4574
 159   2.0000      -0.567606       -15.4454
 160   2.0000      -0.562978       -15.3194
 161   2.0000      -0.559412       -15.2224
 162   2.0000      -0.557340       -15.1660
 163   2.0000      -0.556512       -15.1435
 164   2.0000      -0.556114       -15.1326
 165   2.0000      -0.551307       -15.0018
 166   2.0000      -0.548558       -14.9270
 167   2.0000      -0.546100       -14.8601
 168   2.0000      -0.542429       -14.7602
 169   2.0000      -0.537030       -14.6133
 170   2.0000      -0.535406       -14.5691
 171   2.0000      -0.531926       -14.4744
 172   2.0000      -0.530191       -14.4272
 173   2.0000      -0.529338       -14.4040
 174   2.0000      -0.527778       -14.3616
 175   2.0000      -0.524909       -14.2835
 176   2.0000      -0.520698       -14.1689
 177   2.0000      -0.519768       -14.1436
 178   2.0000      -0.516999       -14.0683
 179   2.0000      -0.514363       -13.9965
 180   2.0000      -0.513124       -13.9628
 181   2.0000      -0.505683       -13.7603
 182   2.0000      -0.503034       -13.6883
 183   2.0000      -0.502675       -13.6785
 184   2.0000      -0.499229       -13.5847
 185   2.0000      -0.498268       -13.5586
 186   2.0000      -0.495169       -13.4742
 187   2.0000      -0.493439       -13.4272
 188   2.0000      -0.491325       -13.3696
 189   2.0000      -0.489771       -13.3274
 190   2.0000      -0.487307       -13.2603
 191   2.0000      -0.484949       -13.1961
 192   2.0000      -0.481459       -13.1012
 193   2.0000      -0.479174       -13.0390
 194   2.0000      -0.476098       -12.9553
 195   2.0000      -0.472758       -12.8644
 196   2.0000      -0.469462       -12.7747
 197   2.0000      -0.467361       -12.7176
 198   2.0000      -0.464743       -12.6463
 199   2.0000      -0.462295       -12.5797
 200   2.0000      -0.459578       -12.5058
 201   2.0000      -0.457960       -12.4617
 202   2.0000      -0.455858       -12.4045
 203   2.0000      -0.453103       -12.3296
 204   2.0000      -0.452741       -12.3197
 205   2.0000      -0.448471       -12.2035
 206   2.0000      -0.445756       -12.1296
 207   2.0000      -0.443327       -12.0635
 208   2.0000      -0.442961       -12.0536
 209   2.0000      -0.439346       -11.9552
 210   2.0000      -0.438617       -11.9354
 211   2.0000      -0.435630       -11.8541
 212   2.0000      -0.434022       -11.8103
 213   2.0000      -0.432505       -11.7690
 214   2.0000      -0.429482       -11.6868
 215   2.0000      -0.428297       -11.6546
 216   2.0000      -0.426011       -11.5923
 217   2.0000      -0.424174       -11.5424
 218   2.0000      -0.423866       -11.5340
 219   2.0000      -0.419759       -11.4222
 220   2.0000      -0.419207       -11.4072
 221   2.0000      -0.414881       -11.2895
 222   2.0000      -0.410039       -11.1577
 223   2.0000      -0.409658       -11.1474
 224   2.0000      -0.406651       -11.0655
 225   2.0000      -0.400925       -10.9097
 226   2.0000      -0.393163       -10.6985
 227   2.0000      -0.384744       -10.4694
 228   2.0000      -0.380900       -10.3648
 229   2.0000      -0.376844       -10.2544
 230   2.0000      -0.375759       -10.2249
 231   2.0000      -0.364911        -9.9297
 232   2.0000      -0.353350        -9.6151
 233   2.0000      -0.344672        -9.3790
 234   2.0000      -0.341189        -9.2842
 235   2.0000      -0.341029        -9.2799
 236   2.0000      -0.334704        -9.1078
 237   2.0000      -0.328513        -8.9393
 238   2.0000      -0.327338        -8.9073
 239   2.0000      -0.323568        -8.8047
 240   2.0000      -0.318018        -8.6537
 241   2.0000      -0.313918        -8.5421
 242   2.0000      -0.309988        -8.4352
 243   2.0000      -0.301982        -8.2173
 244   2.0000      -0.297253        -8.0887
 245   2.0000      -0.292541        -7.9605
 246   2.0000      -0.273023        -7.4293
 247   2.0000      -0.225729        -6.1424
 248   0.0000      -0.105161        -2.8616
 249   0.0000      -0.089476        -2.4348
 250   0.0000      -0.076756        -2.0886
 251   0.0000      -0.057747        -1.5714
 252   0.0000      -0.048735        -1.3261

MULLIKEN ATOMIC CHARGES
-----------------------
   0 C :   -0.097482
   1 C :    0.304695
   2 F :   -0.190965
   3 C :   -0.034426
   4 C :   -0.009428
   5 C :    0.102311
   6 C :    0.102768
   7 C :   -0.085969
   8 C :    0.037012
   9 C :    0.015809
  10 C :   -0.084818
  11 C :    0.135923
  12 O :   -0.144949
  13 C :   -0.117297
  14 C :    0.252683
  15 C :   -0.327965
  16 C :   -0.203560
  17 N :    0.180584
  18 C :   -0.175724
  19 N :    0.152179
  20 C :    0.031865
  21 C :    0.065441
  22 C :    0.019599
  23 C :   -0.048920
  24 C :    0.056015
  25 C :    0.241578
  26 C :   -0.127394
  27 O :   -0.199180
  28 C :    0.192713
  29 N :   -0.126226
  30 C :   -0.081831
  31 C :    0.006753
  32 C :    0.030966
  33 C :    0.041858
  34 C :   -0.050883
  35 S :    0.141803
  36 C :   -0.038152
  37 C :    0.033444
  38 C :    0.041924
  39 C :   -0.011697
  40 S :    0.081996
  41 C :   -0.028992
  42 C :    0.116598
  43 C :   -0.015424
  44 C :   -0.026561
  45 C :    0.022152
  46 C :    0.265332
  47 C :   -0.159045
  48 O :   -0.185232
  49 C :    0.119256
  50 N :   -0.055357
  51 C :    0.020364
  52 C :   -0.095221
  53 C :    0.138254
  54 O :   -0.134600
  55 C :    0.005492
  56 C :   -0.080692
  57 C :    0.103923
  58 C :    0.106315
  59 C :   -0.101890
  60 C :    0.306409
  61 C :   -0.024953
  62 C :   -0.012660
  63 F :   -0.187900
  64 C :   -0.089403
  65 C :    0.045238
  66 C :    0.280467
  67 C :   -0.280891
  68 C :   -0.183764
  69 N :    0.158869
  70 C :   -0.189084
  71 N :    0.162184
  72 H :   -0.003879
  73 H :    0.003828
  74 H :   -0.009518
  75 H :   -0.004974
  76 H :   -0.012173
  77 H :    0.020716
  78 H :   -0.004389
  79 H :   -0.018977
  80 H :   -0.012264
  81 H :   -0.006739
  82 H :   -0.009759
  83 H :   -0.012806
  84 H :   -0.009521
  85 H :   -0.006346
  86 H :   -0.014458
  87 H :   -0.002156
  88 H :   -0.011483
  89 H :   -0.016197
  90 H :    0.033868
  91 H :   -0.010355
  92 H :    0.000496
  93 H :    0.003840
  94 H :   -0.008633
  95 H :   -0.000360
Sum of atomic charges:   -0.0000000

LOEWDIN ATOMIC CHARGES
----------------------
   0 C :   -0.042401
   1 C :    0.092575
   2 F :   -0.065633
   3 C :   -0.038054
   4 C :    0.004463
   5 C :   -0.018864
   6 C :    0.003290
   7 C :    0.009847
   8 C :   -0.016891
   9 C :   -0.059030
  10 C :    0.033639
  11 C :    0.083529
  12 O :   -0.145715
  13 C :   -0.097805
  14 C :    0.065006
  15 C :   -0.135037
  16 C :   -0.019941
  17 N :   -0.039106
  18 C :   -0.019348
  19 N :   -0.052514
  20 C :    0.083050
  21 C :   -0.047425
  22 C :   -0.000542
  23 C :   -0.022000
  24 C :   -0.003989
  25 C :    0.033243
  26 C :   -0.011940
  27 O :   -0.008782
  28 C :    0.075099
  29 N :   -0.140392
  30 C :   -0.112529
  31 C :   -0.104531
  32 C :   -0.042015
  33 C :   -0.015749
  34 C :   -0.197221
  35 S :    0.437376
  36 C :   -0.156567
  37 C :   -0.035665
  38 C :   -0.015942
  39 C :   -0.144927
  40 S :    0.396296
  41 C :   -0.037226
  42 C :   -0.019548
  43 C :   -0.020738
  44 C :   -0.005777
  45 C :   -0.026206
  46 C :    0.040830
  47 C :   -0.032723
  48 O :    0.005338
  49 C :    0.053043
  50 N :   -0.072187
  51 C :    0.036269
  52 C :   -0.046878
  53 C :    0.083825
  54 O :   -0.135286
  55 C :   -0.062443
  56 C :    0.037267
  57 C :   -0.018771
  58 C :    0.005602
  59 C :   -0.041245
  60 C :    0.094783
  61 C :   -0.035779
  62 C :    0.005264
  63 F :   -0.062887
  64 C :    0.011720
  65 C :   -0.014570
  66 C :    0.065503
  67 C :   -0.105936
  68 C :   -0.015964
  69 N :   -0.047064
  70 C :   -0.016809
  71 N :   -0.041540
  72 H :    0.042734
  73 H :    0.041709
  74 H :    0.035537
  75 H :    0.038829
  76 H :    0.039404
  77 H :    0.045655
  78 H :    0.030792
  79 H :    0.037508
  80 H :    0.039338
  81 H :    0.039326
  82 H :    0.034075
  83 H :    0.030964
  84 H :    0.033851
  85 H :    0.035629
  86 H :    0.036086
  87 H :    0.015514
  88 H :    0.040822
  89 H :    0.036522
  90 H :    0.055705
  91 H :    0.040229
  92 H :    0.044352
  93 H :    0.042310
  94 H :    0.035967
  95 H :    0.040415

  Mayer bond orders larger than 0.100000
B(  0-C ,  1-C ) :   1.4417 B(  0-C ,  6-C ) :   1.2025 B(  0-C , 72-H ) :   1.0063
B(  1-C ,  2-F ) :   1.0880 B(  1-C ,  3-C ) :   1.2542 B(  3-C ,  4-C ) :   1.4618
B(  3-C , 73-H ) :   0.9936 B(  4-C ,  5-C ) :   1.2339 B(  4-C , 74-H ) :   0.9966
B(  5-C ,  6-C ) :   1.2532 B(  5-C , 10-C ) :   1.1939 B(  6-C ,  7-C ) :   1.2035
B(  7-C ,  8-C ) :   1.4639 B(  7-C , 75-H ) :   0.9948 B(  8-C ,  9-C ) :   1.2183
B(  8-C , 14-C ) :   0.9956 B(  9-C , 10-C ) :   1.4691 B(  9-C , 11-C ) :   0.9196
B( 10-C , 76-H ) :   1.0151 B( 11-C , 12-O ) :   2.2668 B( 11-C , 13-C ) :   0.9384
B( 13-C , 14-C ) :   1.0236 B( 13-C , 20-C ) :   1.6704 B( 14-C , 15-C ) :   1.6700
B( 15-C , 16-C ) :   1.1554 B( 15-C , 18-C ) :   1.1316 B( 16-C , 17-N ) :   3.0182
B( 18-C , 19-N ) :   2.9875 B( 20-C , 21-C ) :   1.0854 B( 20-C , 77-H ) :   0.9421
B( 21-C , 22-C ) :   1.2924 B( 21-C , 26-C ) :   1.2780 B( 22-C , 23-C ) :   1.4246
B( 22-C , 78-H ) :   0.9817 B( 23-C , 24-C ) :   1.2841 B( 23-C , 79-H ) :   1.0186
B( 24-C , 25-C ) :   1.2510 B( 24-C , 29-N ) :   1.3336 B( 25-C , 26-C ) :   1.3388
B( 25-C , 27-O ) :   1.0958 B( 26-C , 80-H ) :   1.0298 B( 27-O , 28-C ) :   1.1345
B( 28-C , 29-N ) :   1.5780 B( 28-C , 30-C ) :   1.1829 B( 30-C , 31-C ) :   1.5193
B( 30-C , 81-H ) :   0.9765 B( 31-C , 32-C ) :   1.1431 B( 31-C , 35-S ) :   1.1034
B( 32-C , 33-C ) :   1.5956 B( 32-C , 82-H ) :   0.9996 B( 33-C , 34-C ) :   1.1791
B( 33-C , 83-H ) :   0.9946 B( 34-C , 35-S ) :   0.9861 B( 34-C , 36-C ) :   1.5349
B( 36-C , 37-C ) :   1.1665 B( 36-C , 40-S ) :   1.0537 B( 37-C , 38-C ) :   1.6127
B( 37-C , 84-H ) :   0.9927 B( 38-C , 39-C ) :   1.1207 B( 38-C , 85-H ) :   0.9991
B( 39-C , 40-S ) :   1.0256 B( 39-C , 41-C ) :   1.6060 B( 41-C , 42-C ) :   1.1201
B( 41-C , 86-H ) :   0.9699 B( 42-C , 43-C ) :   1.2683 B( 42-C , 47-C ) :   1.2948
B( 43-C , 44-C ) :   1.4539 B( 43-C , 87-H ) :   0.9680 B( 44-C , 45-C ) :   1.2741
B( 44-C , 88-H ) :   1.0150 B( 45-C , 46-C ) :   1.2481 B( 45-C , 50-N ) :   1.3141
B( 46-C , 47-C ) :   1.3154 B( 46-C , 48-O ) :   1.1183 B( 47-C , 89-H ) :   1.0286
B( 48-O , 49-C ) :   1.1342 B( 49-C , 50-N ) :   1.6629 B( 49-C , 51-C ) :   1.0635
B( 51-C , 52-C ) :   1.6997 B( 51-C , 90-H ) :   0.9464 B( 52-C , 53-C ) :   0.9271
B( 52-C , 66-C ) :   1.0167 B( 53-C , 54-O ) :   2.2841 B( 53-C , 55-C ) :   0.9230
B( 55-C , 56-C ) :   1.4619 B( 55-C , 65-C ) :   1.2161 B( 56-C , 57-C ) :   1.1971
B( 56-C , 91-H ) :   1.0164 B( 57-C , 58-C ) :   1.2528 B( 57-C , 62-C ) :   1.2304
B( 58-C , 59-C ) :   1.2004 B( 58-C , 64-C ) :   1.2044 B( 59-C , 60-C ) :   1.4409
B( 59-C , 92-H ) :   1.0082 B( 60-C , 61-C ) :   1.2519 B( 60-C , 63-F ) :   1.0916
B( 61-C , 62-C ) :   1.4640 B( 61-C , 93-H ) :   0.9923 B( 62-C , 94-H ) :   0.9978
B( 64-C , 65-C ) :   1.4577 B( 64-C , 95-H ) :   0.9953 B( 65-C , 66-C ) :   0.9988
B( 66-C , 67-C ) :   1.6997 B( 67-C , 68-C ) :   1.1473 B( 67-C , 70-C ) :   1.1409
B( 68-C , 69-N ) :   2.9857 B( 70-C , 71-N ) :   2.9852

-----------------------------------------------------------------------------
         ABSORPTION SPECTRUM VIA TRANSITION ELECTRIC DIPOLE MOMENTS
-----------------------------------------------------------------------------
State   Energy  Wavelength   fosc         T2         TX        TY        TZ
        (cm-1)    (nm)                  (au**2)     (au)      (au)      (au)
-----------------------------------------------------------------------------
   0   13633.9    733.5   0.894299553  21.59432  -3.35865   3.20827  -0.14407
   1   16968.3    589.3   0.563852835  10.93961  -0.51250  -1.83984  -2.70036
   2   20138.9    496.6   0.422850895   6.91236   1.93853  -1.57615   0.81866
   3   23525.1    425.1   0.616942422   8.63355  -1.78222  -0.59895  -2.25799
   4   25246.4    396.1   0.054232203   0.70719  -0.32613   0.18725  -0.75217
   5   25752.0    388.3   0.090903627   1.16211  -0.60753  -0.02099  -0.89027
   6   26371.8    379.2   0.244743333   3.05525  -0.64114  -0.11145  -1.62227
   7   27188.2    367.8   0.231091219   2.79820  -0.44180   0.29586  -1.58603
   8   27385.6    365.2   0.028025925   0.33691   0.26317   0.38510   0.34547
   9   28010.9    357.0   0.030720296   0.36106  -0.35480  -0.29530   0.38467
  10   28447.4    351.5   0.116421444   1.34731   0.48822  -0.02097   1.05286
  11   28808.4    347.1   0.019385487   0.22153  -0.17016   0.10947  -0.42496
  12   29119.0    343.4   0.160198803   1.81117  -0.10738  -0.34902  -1.29531
  13   29449.1    339.6   0.054134706   0.60517   0.34934   0.21923  -0.65960
  14   30263.6    330.4   0.123950546   1.34835  -0.49086  -0.38200  -0.98055
  15   30491.1    328.0   0.131509469   1.41990   0.46295   0.12367   1.09100
  16   30930.7    323.3   0.098312267   1.04639   0.02028   0.13231  -1.01414
  17   31240.9    320.1   0.238003519   2.50805  -0.68294  -0.09316  -1.42582
  18   31349.1    319.0   0.115980231   1.21796  -0.52686   0.14506  -0.95882
  19   32535.0    307.4   0.056169893   0.56837  -0.13858  -0.00933  -0.74100
  20   33166.9    301.5   0.037551581   0.37273  -0.38074   0.06154  -0.47327
  21   33582.9    297.8   0.280179578   2.74659  -0.85618  -0.04711  -1.41821
  22   33673.7    297.0   0.011074287   0.10827  -0.06685  -0.01596  -0.32178
  23   33742.2    296.4   0.036406852   0.35521  -0.57962   0.07149   0.11894
  24   33867.3    295.3   0.396294015   3.85223   0.11491   0.02589  -1.95917
  25   34379.3    290.9   0.226256149   2.16660  -0.28445   0.15240   1.43613
  26   34873.8    286.7   0.178177857   1.68202  -0.22780  -0.02580  -1.27650
  27   34952.0    286.1   0.179449628   1.69023   0.04373  -0.01271   1.29929
  28   35069.3    285.1   0.195670120   1.83685  -0.13400   0.05563  -1.34752
  29   35376.8    282.7   0.028075497   0.26127  -0.15059  -0.16840   0.45851
  30   35602.7    280.9   0.106660243   0.98627  -0.24829  -0.08003  -0.95824
  31   35729.0    279.9   0.056783816   0.52321   0.21477  -0.68697   0.07182
  32   35997.4    277.8   0.111886899   1.02325  -0.00539   0.31781  -0.96032
  33   36228.0    276.0   0.023028222   0.20926   0.32550  -0.24947   0.20267
  34   36364.1    275.0   0.012063011   0.10921  -0.27441  -0.16518  -0.08139
  35   36521.0    273.8   0.226879852   2.04517  -0.11501  -0.31153  -1.39100
  36   36951.6    270.6   0.027914424   0.24870   0.40399  -0.26881  -0.11502
  37   37489.0    266.7   0.016238255   0.14260   0.31041   0.02082   0.21404
  38   37915.5    263.7   0.065847324   0.57174   0.19581  -0.35201   0.63991
  39   38094.5    262.5   0.084383590   0.72924  -0.04496   0.63526  -0.56892
  40   38883.6    257.2   0.108017449   0.91454  -0.12307   0.73919  -0.59413
  41   39047.9    256.1   0.057431473   0.48420   0.10738   0.26559  -0.63414
  42   39308.0    254.4   0.069598094   0.58290  -0.51418   0.45840   0.32922
  43   39478.0    253.3   0.088249358   0.73592  -0.75863   0.33722   0.21605
  44   39691.2    251.9   0.013145779   0.10904   0.20464   0.17405  -0.19201
  45   40067.0    249.6   0.016359618   0.13442   0.19627  -0.24996   0.18280
  46   40115.9    249.3   0.033508633   0.27499   0.21279  -0.44245   0.18424
  47   40138.2    249.1   0.022134842   0.18155  -0.16202  -0.16596  -0.35743

FINAL SINGLE POINT ENERGY     -3845.961069966230

DIPOLE MOMENT
-------------
                                X             Y             Z
Electronic contribution:    -16.80223      -4.23109     -14.30078
Nuclear contribution   :     18.74696       6.78512      14.08906
                        -----------------------------------------
Total Dipole Moment    :      1.94473       2.55403      -0.21172
                        -----------------------------------------
Magnitude (a.u.)       :      3.21712
Magnitude (Debye)      :      8.17727

Rotational constants in cm-1:     0.000650     0.000499     0.000295
Rotational constants in MHz :    19.485930    14.969828     8.848657

                             ****ORCA TERMINATED NORMALLY****
TOTAL RUN TIME: 0 days 0 hours 14 minutes 46 seconds 29 msec
