                         Program Version 4.2.0 -  RELEASE  -
|  1> # ORCA input file
|  2> # SCF done       -166.571623918105          0.007979194706
|  3> ! CAM-B3LYP def2-SVP def2/J RIJCOSX Grid4 TightSCF
|  4> %maxcore 5000
|  5> %tddft
|  6>     Mode sTDDFT
|  7>     Ethresh 5.0
|  8>     maxcore 5000
|  9> end
| 10>
| 11> %pal
| 12>   nprocs 6
| 13>   end
| 14> * xyz 0 1
| 15>    C        9.31327        -1.93307         4.71586
| 16>    C        8.65098        -2.83768         5.49734
| 17>    F        9.36170        -3.72829         6.22171
| 18>    C        7.25360        -2.88060         5.57979
| 19>    C        6.52382        -1.97191         4.86284
| 20>    C        7.15447        -1.01839         4.03862
| 21>    C        8.57566        -1.00983         3.94941
| 22>    C        9.23062        -0.07975         3.10986
| 23>    C        8.49006         0.82171         2.39655
| 24>    C        7.07252         0.83678         2.52235
| 25>    C        6.41214        -0.05694         3.31284
| 26>    C        6.53255         1.94872         1.70463
| 27>    O        5.37173         2.29108         1.60645
| 28>    C        7.69654         2.52137         1.00562
| 29>    C        8.88795         1.91971         1.51536
| 30>    C       10.17634         2.41279         1.41656
| 31>    C       11.31036         1.72040         1.86441
| 32>    N       12.25963         1.14461         2.17328
| 33>    C       10.46802         3.69942         0.93085
| 34>    N       10.71969         4.77182         0.60151
| 35>    C        7.48804         3.43884        -0.01233
| 36>    C        8.26505         3.72650        -1.12237
| 37>    S        9.57927         2.71171        -1.67497
| 38>    C        9.85843         3.66496        -3.10059
| 39>    C        8.95628         4.76628        -3.13986
| 40>    C        8.05603         4.78691        -2.04363
| 41>    C        7.11099         5.81601        -1.93504
| 42>    C        7.08034         6.79124        -2.89839
| 43>    F        6.17691         7.78195        -2.81267
| 44>    C        7.97995         6.77724        -3.97783
| 45>    F        7.92834         7.76083        -4.88959
| 46>    C        8.91164         5.77733        -4.10482
| 47>    C       10.83571         3.34305        -4.02816
| 48>    C       11.72872         2.29360        -3.88776
| 49>    C       12.72755         2.00175        -4.79476
| 50>    C       13.68286         1.00714        -4.61275
| 51>    C       14.77310         0.71678        -5.44755
| 52>    C       15.59521        -0.27398        -4.97402
| 53>    C       15.17764        -0.81590        -3.75175
| 54>    S       13.69865        -0.04499        -3.21708
| 55>    C       15.79237        -1.80245        -2.98723
| 56>    C       17.04853        -2.39951        -3.19292
| 57>    C       17.38381        -3.30561        -2.22810
| 58>    C       16.41083        -3.47559        -1.21474
| 59>    S       15.03971        -2.43971        -1.54923
| 60>    C       16.54548        -4.39548        -0.19501
| 61>    C       15.72691        -4.78505         0.87009
| 62>    S       16.14797        -6.33289         1.58794
| 63>    C       14.77232        -6.30599         2.63972
| 64>    C       14.05069        -5.12819         2.46363
| 65>    C       14.60616        -4.24507         1.51853
| 66>    S       14.13899        -2.57931         1.24973
| 67>    C       12.79419        -2.33801         2.45635
| 68>    C       11.84326        -3.51217         2.43271
| 69>    S       12.55994        -4.89827         3.36886
| 70>    C       14.44306        -7.32784         3.57377
| 71>    C       15.13984        -8.44081         3.87584
| 72>    C       16.42111        -8.83833         3.22372
| 73>    C       14.64593        -9.36504         4.95765
| 74>    N       14.70570       -10.73891         4.52532
| 75>    C       14.98591       -11.76489         5.39684
| 76>    C       14.73465       -13.04946         5.17213
| 77>    H       10.39282        -1.90876         4.70140
| 78>    H        6.78647        -3.61905         6.21184
| 79>    H        5.44541        -1.97401         4.92095
| 80>    H       10.30711        -0.10006         3.05579
| 81>    H        5.33604        -0.02763         3.39690
| 82>    H        6.51504         3.92028         0.02108
| 83>    H        6.41609         5.86393        -1.11283
| 84>    H        9.59577         5.79334        -4.93723
| 85>    H       10.91354         3.96876        -4.90648
| 86>    H       11.65955         1.68113        -2.99666
| 87>    H       12.80789         2.59773        -5.69438
| 88>    H       14.93701         1.24907        -6.36716
| 89>    H       16.47955        -0.61703        -5.48021
| 90>    H       17.67936        -2.13865        -4.02329
| 91>    H       18.30953        -3.85342        -2.21421
| 92>    H       17.44304        -4.99975        -0.27891
| 93>    H       12.32277        -1.40801         2.13555
| 94>    H       13.22785        -2.19882         3.44716
| 95>    H       10.90165        -3.28806         2.93311
| 96>    H       11.63995        -3.84105         1.41340
| 97>    H       13.52356        -7.13529         4.11469
| 98>    H       16.29518        -8.93961         2.14664
| 99>    H       16.76240        -9.78849         3.62367
|100>    H       17.18761        -8.08248         3.39014
|101>    H       13.63524        -9.06856         5.27619
|102>    H       15.30994        -9.26444         5.82511
|103>    H       14.07897       -10.97266         3.76881
|104>    H       15.50439       -11.44959         6.29454
|105>    H       14.22389       -13.38219         4.28371
|106>    H       15.04379       -13.80487         5.86882
|107> *
|108>
|109>                          ****END OF INPUT****

CARTESIAN COORDINATES (ANGSTROEM)
---------------------------------
  C      9.313270   -1.933070    4.715860
  C      8.650980   -2.837680    5.497340
  F      9.361700   -3.728290    6.221710
  C      7.253600   -2.880600    5.579790
  C      6.523820   -1.971910    4.862840
  C      7.154470   -1.018390    4.038620
  C      8.575660   -1.009830    3.949410
  C      9.230620   -0.079750    3.109860
  C      8.490060    0.821710    2.396550
  C      7.072520    0.836780    2.522350
  C      6.412140   -0.056940    3.312840
  C      6.532550    1.948720    1.704630
  O      5.371730    2.291080    1.606450
  C      7.696540    2.521370    1.005620
  C      8.887950    1.919710    1.515360
  C     10.176340    2.412790    1.416560
  C     11.310360    1.720400    1.864410
  N     12.259630    1.144610    2.173280
  C     10.468020    3.699420    0.930850
  N     10.719690    4.771820    0.601510
  C      7.488040    3.438840   -0.012330
  C      8.265050    3.726500   -1.122370
  S      9.579270    2.711710   -1.674970
  C      9.858430    3.664960   -3.100590
  C      8.956280    4.766280   -3.139860
  C      8.056030    4.786910   -2.043630
  C      7.110990    5.816010   -1.935040
  C      7.080340    6.791240   -2.898390
  F      6.176910    7.781950   -2.812670
  C      7.979950    6.777240   -3.977830
  F      7.928340    7.760830   -4.889590
  C      8.911640    5.777330   -4.104820
  C     10.835710    3.343050   -4.028160
  C     11.728720    2.293600   -3.887760
  C     12.727550    2.001750   -4.794760
  C     13.682860    1.007140   -4.612750
  C     14.773100    0.716780   -5.447550
  C     15.595210   -0.273980   -4.974020
  C     15.177640   -0.815900   -3.751750
  S     13.698650   -0.044990   -3.217080
  C     15.792370   -1.802450   -2.987230
  C     17.048530   -2.399510   -3.192920
  C     17.383810   -3.305610   -2.228100
  C     16.410830   -3.475590   -1.214740
  S     15.039710   -2.439710   -1.549230
  C     16.545480   -4.395480   -0.195010
  C     15.726910   -4.785050    0.870090
  S     16.147970   -6.332890    1.587940
  C     14.772320   -6.305990    2.639720
  C     14.050690   -5.128190    2.463630
  C     14.606160   -4.245070    1.518530
  S     14.138990   -2.579310    1.249730
  C     12.794190   -2.338010    2.456350
  C     11.843260   -3.512170    2.432710
  S     12.559940   -4.898270    3.368860
  C     14.443060   -7.327840    3.573770
  C     15.139840   -8.440810    3.875840
  C     16.421110   -8.838330    3.223720
  C     14.645930   -9.365040    4.957650
  N     14.705700  -10.738910    4.525320
  C     14.985910  -11.764890    5.396840
  C     14.734650  -13.049460    5.172130
  H     10.392820   -1.908760    4.701400
  H      6.786470   -3.619050    6.211840
  H      5.445410   -1.974010    4.920950
  H     10.307110   -0.100060    3.055790
  H      5.336040   -0.027630    3.396900
  H      6.515040    3.920280    0.021080
  H      6.416090    5.863930   -1.112830
  H      9.595770    5.793340   -4.937230
  H     10.913540    3.968760   -4.906480
  H     11.659550    1.681130   -2.996660
  H     12.807890    2.597730   -5.694380
  H     14.937010    1.249070   -6.367160
  H     16.479550   -0.617030   -5.480210
  H     17.679360   -2.138650   -4.023290
  H     18.309530   -3.853420   -2.214210
  H     17.443040   -4.999750   -0.278910
  H     12.322770   -1.408010    2.135550
  H     13.227850   -2.198820    3.447160
  H     10.901650   -3.288060    2.933110
  H     11.639950   -3.841050    1.413400
  H     13.523560   -7.135290    4.114690
  H     16.295180   -8.939610    2.146640
  H     16.762400   -9.788490    3.623670
  H     17.187610   -8.082480    3.390140
  H     13.635240   -9.068560    5.276190
  H     15.309940   -9.264440    5.825110
  H     14.078970  -10.972660    3.768810
  H     15.504390  -11.449590    6.294540
  H     14.223890  -13.382190    4.283710
  H     15.043790  -13.804870    5.868820

 Total Charge           Charge          ....    0
 Multiplicity           Mult            ....    1
 Number of Electrons    NEL             ....  476
 Basis Dimension        Dim             .... 1042

ORBITAL ENERGIES
----------------

  NO   OCC          E(Eh)            E(eV)
   0   2.0000     -88.971711     -2421.0433
   1   2.0000     -88.965215     -2420.8666
   2   2.0000     -88.960638     -2420.7420
   3   2.0000     -88.955359     -2420.5984
   4   2.0000     -88.944571     -2420.3048
   5   2.0000     -88.938522     -2420.1402
   6   2.0000     -24.782363      -674.3624
   7   2.0000     -24.780099      -674.3008
   8   2.0000     -24.776592      -674.2053
   9   2.0000     -19.181973      -521.9680
  10   2.0000     -14.418716      -392.3532
  11   2.0000     -14.392221      -391.6322
  12   2.0000     -14.379953      -391.2984
  13   2.0000     -10.365956      -282.0720
  14   2.0000     -10.360601      -281.9263
  15   2.0000     -10.358032      -281.8564
  16   2.0000     -10.335372      -281.2398
  17   2.0000     -10.333992      -281.2022
  18   2.0000     -10.329693      -281.0852
  19   2.0000     -10.325019      -280.9581
  20   2.0000     -10.324690      -280.9491
  21   2.0000     -10.324298      -280.9384
  22   2.0000     -10.323028      -280.9039
  23   2.0000     -10.321078      -280.8508
  24   2.0000     -10.320708      -280.8407
  25   2.0000     -10.318182      -280.7720
  26   2.0000     -10.317407      -280.7509
  27   2.0000     -10.313612      -280.6476
  28   2.0000     -10.312718      -280.6233
  29   2.0000     -10.308940      -280.5205
  30   2.0000     -10.308542      -280.5097
  31   2.0000     -10.307789      -280.4892
  32   2.0000     -10.302852      -280.3548
  33   2.0000     -10.302681      -280.3502
  34   2.0000     -10.299778      -280.2712
  35   2.0000     -10.298603      -280.2392
  36   2.0000     -10.297206      -280.2012
  37   2.0000     -10.297017      -280.1961
  38   2.0000     -10.295633      -280.1584
  39   2.0000     -10.294855      -280.1372
  40   2.0000     -10.294564      -280.1293
  41   2.0000     -10.290304      -280.0134
  42   2.0000     -10.289653      -279.9957
  43   2.0000     -10.289363      -279.9878
  44   2.0000     -10.289256      -279.9849
  45   2.0000     -10.288617      -279.9675
  46   2.0000     -10.285609      -279.8857
  47   2.0000     -10.285163      -279.8735
  48   2.0000     -10.285026      -279.8698
  49   2.0000     -10.284114      -279.8450
  50   2.0000     -10.283903      -279.8392
  51   2.0000     -10.283126      -279.8181
  52   2.0000     -10.281688      -279.7790
  53   2.0000     -10.281597      -279.7765
  54   2.0000     -10.280323      -279.7418
  55   2.0000     -10.278784      -279.6999
  56   2.0000     -10.278734      -279.6986
  57   2.0000     -10.276936      -279.6497
  58   2.0000     -10.271913      -279.5130
  59   2.0000     -10.267312      -279.3878
  60   2.0000     -10.257054      -279.1086
  61   2.0000     -10.234503      -278.4950
  62   2.0000      -8.066735      -219.5070
  63   2.0000      -8.061098      -219.3536
  64   2.0000      -8.056728      -219.2347
  65   2.0000      -8.050148      -219.0557
  66   2.0000      -8.040170      -218.7841
  67   2.0000      -8.034025      -218.6169
  68   2.0000      -6.036134      -164.2515
  69   2.0000      -6.032095      -164.1416
  70   2.0000      -6.030738      -164.1047
  71   2.0000      -6.028534      -164.0448
  72   2.0000      -6.026487      -163.9891
  73   2.0000      -6.026251      -163.9826
  74   2.0000      -6.022249      -163.8737
  75   2.0000      -6.022238      -163.8734
  76   2.0000      -6.019442      -163.7973
  77   2.0000      -6.018062      -163.7598
  78   2.0000      -6.015404      -163.6875
  79   2.0000      -6.012155      -163.5991
  80   2.0000      -6.010461      -163.5530
  81   2.0000      -6.006148      -163.4356
  82   2.0000      -6.004465      -163.3898
  83   2.0000      -6.000455      -163.2807
  84   2.0000      -6.000093      -163.2708
  85   2.0000      -5.993534      -163.0924
  86   2.0000      -1.303240       -35.4630
  87   2.0000      -1.289976       -35.1020
  88   2.0000      -1.288313       -35.0568
  89   2.0000      -1.096410       -29.8348
  90   2.0000      -1.022568       -27.8255
  91   2.0000      -1.016069       -27.6487
  92   2.0000      -1.009522       -27.4705
  93   2.0000      -1.000675       -27.2298
  94   2.0000      -0.990948       -26.9651
  95   2.0000      -0.988739       -26.9049
  96   2.0000      -0.979105       -26.6428
  97   2.0000      -0.965348       -26.2685
  98   2.0000      -0.953678       -25.9509
  99   2.0000      -0.944590       -25.7036
 100   2.0000      -0.940498       -25.5923
 101   2.0000      -0.930803       -25.3284
 102   2.0000      -0.919244       -25.0139
 103   2.0000      -0.906891       -24.6778
 104   2.0000      -0.901622       -24.5344
 105   2.0000      -0.891029       -24.2461
 106   2.0000      -0.881117       -23.9764
 107   2.0000      -0.874470       -23.7955
 108   2.0000      -0.864506       -23.5244
 109   2.0000      -0.862079       -23.4584
 110   2.0000      -0.858075       -23.3494
 111   2.0000      -0.851356       -23.1666
 112   2.0000      -0.845055       -22.9951
 113   2.0000      -0.842876       -22.9358
 114   2.0000      -0.834523       -22.7085
 115   2.0000      -0.828539       -22.5457
 116   2.0000      -0.820834       -22.3360
 117   2.0000      -0.817342       -22.2410
 118   2.0000      -0.810535       -22.0558
 119   2.0000      -0.796192       -21.6655
 120   2.0000      -0.782386       -21.2898
 121   2.0000      -0.768307       -20.9067
 122   2.0000      -0.753610       -20.5068
 123   2.0000      -0.748611       -20.3707
 124   2.0000      -0.740657       -20.1543
 125   2.0000      -0.734700       -19.9922
 126   2.0000      -0.731890       -19.9157
 127   2.0000      -0.719077       -19.5671
 128   2.0000      -0.707100       -19.2412
 129   2.0000      -0.696415       -18.9504
 130   2.0000      -0.692892       -18.8545
 131   2.0000      -0.689443       -18.7607
 132   2.0000      -0.682212       -18.5639
 133   2.0000      -0.680604       -18.5202
 134   2.0000      -0.674127       -18.3439
 135   2.0000      -0.659243       -17.9389
 136   2.0000      -0.656494       -17.8641
 137   2.0000      -0.651835       -17.7373
 138   2.0000      -0.646756       -17.5991
 139   2.0000      -0.638280       -17.3685
 140   2.0000      -0.632349       -17.2071
 141   2.0000      -0.630690       -17.1619
 142   2.0000      -0.619178       -16.8487
 143   2.0000      -0.616049       -16.7635
 144   2.0000      -0.613137       -16.6843
 145   2.0000      -0.608389       -16.5551
 146   2.0000      -0.604894       -16.4600
 147   2.0000      -0.603517       -16.4225
 148   2.0000      -0.601828       -16.3766
 149   2.0000      -0.589219       -16.0335
 150   2.0000      -0.585190       -15.9238
 151   2.0000      -0.576174       -15.6785
 152   2.0000      -0.571596       -15.5539
 153   2.0000      -0.568411       -15.4672
 154   2.0000      -0.567564       -15.4442
 155   2.0000      -0.564256       -15.3542
 156   2.0000      -0.561706       -15.2848
 157   2.0000      -0.555145       -15.1063
 158   2.0000      -0.552936       -15.0462
 159   2.0000      -0.548499       -14.9254
 160   2.0000      -0.545166       -14.8347
 161   2.0000      -0.544141       -14.8068
 162   2.0000      -0.540209       -14.6998
 163   2.0000      -0.536164       -14.5898
 164   2.0000      -0.532754       -14.4970
 165   2.0000      -0.531113       -14.4523
 166   2.0000      -0.530516       -14.4361
 167   2.0000      -0.530020       -14.4226
 168   2.0000      -0.526998       -14.3403
 169   2.0000      -0.519867       -14.1463
 170   2.0000      -0.518782       -14.1168
 171   2.0000      -0.513146       -13.9634
 172   2.0000      -0.510968       -13.9041
 173   2.0000      -0.509909       -13.8753
 174   2.0000      -0.508340       -13.8326
 175   2.0000      -0.507095       -13.7988
 176   2.0000      -0.501681       -13.6514
 177   2.0000      -0.499569       -13.5940
 178   2.0000      -0.498931       -13.5766
 179   2.0000      -0.495618       -13.4865
 180   2.0000      -0.490847       -13.3566
 181   2.0000      -0.489539       -13.3210
 182   2.0000      -0.487242       -13.2585
 183   2.0000      -0.483379       -13.1534
 184   2.0000      -0.482996       -13.1430
 185   2.0000      -0.480078       -13.0636
 186   2.0000      -0.475506       -12.9392
 187   2.0000      -0.475374       -12.9356
 188   2.0000      -0.475229       -12.9316
 189   2.0000      -0.473166       -12.8755
 190   2.0000      -0.469305       -12.7704
 191   2.0000      -0.465520       -12.6675
 192   2.0000      -0.464909       -12.6508
 193   2.0000      -0.461202       -12.5499
 194   2.0000      -0.455971       -12.4076
 195   2.0000      -0.452550       -12.3145
 196   2.0000      -0.450979       -12.2718
 197   2.0000      -0.445776       -12.1302
 198   2.0000      -0.441162       -12.0046
 199   2.0000      -0.439345       -11.9552
 200   2.0000      -0.438954       -11.9445
 201   2.0000      -0.436044       -11.8654
 202   2.0000      -0.434633       -11.8270
 203   2.0000      -0.431538       -11.7427
 204   2.0000      -0.428255       -11.6534
 205   2.0000      -0.424121       -11.5409
 206   2.0000      -0.422378       -11.4935
 207   2.0000      -0.419450       -11.4138
 208   2.0000      -0.417256       -11.3541
 209   2.0000      -0.415333       -11.3018
 210   2.0000      -0.414162       -11.2699
 211   2.0000      -0.409411       -11.1406
 212   2.0000      -0.406595       -11.0640
 213   2.0000      -0.403962       -10.9924
 214   2.0000      -0.400374       -10.8947
 215   2.0000      -0.399279       -10.8649
 216   2.0000      -0.392553       -10.6819
 217   2.0000      -0.391015       -10.6401
 218   2.0000      -0.387876       -10.5547
 219   2.0000      -0.379028       -10.3139
 220   2.0000      -0.377475       -10.2716
 221   2.0000      -0.367536       -10.0012
 222   2.0000      -0.360255        -9.8030
 223   2.0000      -0.356325        -9.6961
 224   2.0000      -0.347427        -9.4540
 225   2.0000      -0.338839        -9.2203
 226   2.0000      -0.336143        -9.1469
 227   2.0000      -0.324243        -8.8231
 228   2.0000      -0.316252        -8.6057
 229   2.0000      -0.307958        -8.3800
 230   2.0000      -0.307105        -8.3568
 231   2.0000      -0.293100        -7.9756
 232   2.0000      -0.285002        -7.7553
 233   2.0000      -0.277116        -7.5407
 234   2.0000      -0.272485        -7.4147
 235   2.0000      -0.266537        -7.2528
 236   2.0000      -0.245160        -6.6712
 237   2.0000      -0.205762        -5.5991
 238   0.0000      -0.114831        -3.1247
 239   0.0000      -0.069996        -1.9047
 240   0.0000      -0.042186        -1.1479
 241   0.0000      -0.028077        -0.7640
 242   0.0000      -0.019750        -0.5374

MULLIKEN ATOMIC CHARGES
-----------------------
   0 C :   -0.110179
   1 C :    0.291714
   2 F :   -0.199165
   3 C :   -0.033634
   4 C :   -0.012525
   5 C :    0.098863
   6 C :    0.107830
   7 C :   -0.104037
   8 C :    0.052147
   9 C :    0.006654
  10 C :   -0.089820
  11 C :    0.133559
  12 O :   -0.166357
  13 C :   -0.159194
  14 C :    0.280272
  15 C :   -0.374177
  16 C :   -0.144145
  17 N :    0.084780
  18 C :   -0.227946
  19 N :    0.148293
  20 C :   -0.007434
  21 C :   -0.101230
  22 S :    0.139374
  23 C :   -0.016468
  24 C :    0.115965
  25 C :    0.168597
  26 C :   -0.110267
  27 C :    0.235040
  28 F :   -0.177187
  29 C :    0.217978
  30 F :   -0.181414
  31 C :   -0.108487
  32 C :   -0.056475
  33 C :    0.038625
  34 C :   -0.024729
  35 C :   -0.005411
  36 C :    0.017456
  37 C :    0.040548
  38 C :   -0.068936
  39 S :    0.108633
  40 C :   -0.020860
  41 C :    0.018753
  42 C :    0.044370
  43 C :   -0.046813
  44 S :    0.134449
  45 C :    0.035627
  46 C :   -0.140498
  47 S :    0.099312
  48 C :   -0.082719
  49 C :   -0.034404
  50 C :   -0.002460
  51 S :    0.032067
  52 C :   -0.048375
  53 C :   -0.069798
  54 S :   -0.003292
  55 C :    0.002014
  56 C :   -0.235924
  57 C :    0.095222
  58 C :    0.228545
  59 N :   -0.210756
  60 C :    0.047977
  61 C :   -0.084569
  62 H :   -0.012642
  63 H :   -0.003610
  64 H :   -0.010996
  65 H :   -0.035386
  66 H :   -0.018420
  67 H :    0.010450
  68 H :    0.000400
  69 H :   -0.010948
  70 H :   -0.016328
  71 H :    0.016135
  72 H :   -0.014811
  73 H :   -0.011478
  74 H :   -0.008280
  75 H :   -0.009401
  76 H :   -0.003008
  77 H :    0.001823
  78 H :    0.092449
  79 H :    0.079854
  80 H :    0.065914
  81 H :    0.074239
  82 H :   -0.003277
  83 H :    0.037636
  84 H :    0.028243
  85 H :    0.035568
  86 H :    0.007748
  87 H :    0.025014
  88 H :    0.110585
  89 H :   -0.000317
  90 H :   -0.004580
  91 H :    0.012442
Sum of atomic charges:   -0.0000000

LOEWDIN ATOMIC CHARGES
----------------------
   0 C :   -0.058062
   1 C :    0.087409
   2 F :   -0.074528
   3 C :   -0.047563
   4 C :    0.004748
   5 C :   -0.022613
   6 C :   -0.000253
   7 C :   -0.011577
   8 C :   -0.006195
   9 C :   -0.050298
  10 C :    0.022244
  11 C :    0.074440
  12 O :   -0.170523
  13 C :   -0.139480
  14 C :    0.055615
  15 C :   -0.191836
  16 C :   -0.006460
  17 N :   -0.106423
  18 C :   -0.041443
  19 N :   -0.078617
  20 C :    0.030764
  21 C :   -0.191116
  22 S :    0.479435
  23 C :   -0.104664
  24 C :   -0.054907
  25 C :   -0.004174
  26 C :   -0.036809
  27 C :    0.076128
  28 F :   -0.053770
  29 C :    0.052167
  30 F :   -0.058791
  31 C :   -0.025695
  32 C :   -0.081075
  33 C :    0.015906
  34 C :   -0.082170
  35 C :   -0.115947
  36 C :   -0.057129
  37 C :   -0.010542
  38 C :   -0.204075
  39 S :    0.406504
  40 C :   -0.141762
  41 C :   -0.053417
  42 C :   -0.003579
  43 C :   -0.179026
  44 S :    0.419327
  45 C :   -0.030868
  46 C :   -0.210061
  47 S :    0.458060
  48 C :   -0.166289
  49 C :   -0.213669
  50 C :   -0.191622
  51 S :    0.344051
  52 C :   -0.139501
  53 C :   -0.140431
  54 S :    0.304625
  55 C :   -0.076513
  56 C :   -0.011920
  57 C :   -0.067525
  58 C :    0.044253
  59 N :   -0.041747
  60 C :    0.019911
  61 C :   -0.153551
  62 H :    0.035321
  63 H :    0.039023
  64 H :    0.034566
  65 H :    0.031037
  66 H :    0.036659
  67 H :    0.043275
  68 H :    0.044433
  69 H :    0.040041
  70 H :    0.031349
  71 H :    0.020876
  72 H :    0.033602
  73 H :    0.033936
  74 H :    0.034343
  75 H :    0.033249
  76 H :    0.036702
  77 H :    0.039520
  78 H :    0.036251
  79 H :    0.029842
  80 H :    0.033825
  81 H :    0.028984
  82 H :    0.026493
  83 H :    0.032558
  84 H :    0.035369
  85 H :    0.032692
  86 H :    0.018573
  87 H :    0.036492
  88 H :    0.073435
  89 H :    0.023159
  90 H :    0.014296
  91 H :    0.022731

  Mayer bond orders larger than 0.100000
B(  0-C ,  1-C ) :   1.4391 B(  0-C ,  6-C ) :   1.2041 B(  0-C , 62-H ) :   0.9902
B(  1-C ,  2-F ) :   1.0837 B(  1-C ,  3-C ) :   1.2649 B(  3-C ,  4-C ) :   1.4486
B(  3-C , 63-H ) :   0.9934 B(  4-C ,  5-C ) :   1.2428 B(  4-C , 64-H ) :   0.9950
B(  5-C ,  6-C ) :   1.2695 B(  5-C , 10-C ) :   1.1733 B(  6-C ,  7-C ) :   1.1922
B(  7-C ,  8-C ) :   1.4802 B(  7-C , 65-H ) :   0.9873 B(  8-C ,  9-C ) :   1.2194
B(  8-C , 14-C ) :   0.9974 B(  9-C , 10-C ) :   1.4932 B(  9-C , 11-C ) :   0.9094
B( 10-C , 66-H ) :   1.0133 B( 11-C , 12-O ) :   2.2406 B( 11-C , 13-C ) :   0.9885
B( 13-C , 14-C ) :   1.1717 B( 13-C , 20-C ) :   1.3703 B( 14-C , 15-C ) :   1.5126
B( 15-C , 16-C ) :   1.1603 B( 15-C , 18-C ) :   1.1689 B( 16-C , 17-N ) :   2.9138
B( 18-C , 19-N ) :   3.0210 B( 20-C , 21-C ) :   1.4164 B( 20-C , 67-H ) :   0.9351
B( 21-C , 22-S ) :   1.0479 B( 21-C , 25-C ) :   1.1835 B( 22-S , 23-C ) :   1.1543
B( 23-C , 24-C ) :   1.1728 B( 23-C , 32-C ) :   1.3588 B( 24-C , 25-C ) :   1.2777
B( 24-C , 31-C ) :   1.2239 B( 25-C , 26-C ) :   1.2341 B( 26-C , 27-C ) :   1.4342
B( 26-C , 31-C ) :   0.1079 B( 26-C , 68-H ) :   0.9981 B( 27-C , 28-F ) :   1.1293
B( 27-C , 29-C ) :   1.2105 B( 29-C , 30-F ) :   1.1248 B( 29-C , 31-C ) :   1.4456
B( 31-C , 69-H ) :   0.9973 B( 32-C , 33-C ) :   1.3872 B( 32-C , 70-H ) :   0.9756
B( 33-C , 34-C ) :   1.3504 B( 33-C , 71-H ) :   0.9685 B( 34-C , 35-C ) :   1.3609
B( 34-C , 72-H ) :   0.9873 B( 35-C , 36-C ) :   1.2436 B( 35-C , 39-S ) :   1.0980
B( 36-C , 37-C ) :   1.4747 B( 36-C , 73-H ) :   1.0008 B( 37-C , 38-C ) :   1.2824
B( 37-C , 74-H ) :   0.9948 B( 38-C , 39-S ) :   1.0504 B( 38-C , 40-C ) :   1.3846
B( 40-C , 41-C ) :   1.2337 B( 40-C , 44-S ) :   1.1041 B( 41-C , 42-C ) :   1.5375
B( 41-C , 75-H ) :   0.9941 B( 42-C , 43-C ) :   1.1824 B( 42-C , 76-H ) :   0.9991
B( 43-C , 44-S ) :   1.0327 B( 43-C , 45-C ) :   1.5420 B( 45-C , 46-C ) :   1.2338
B( 45-C , 77-H ) :   0.9369 B( 46-C , 47-S ) :   1.0745 B( 46-C , 50-C ) :   1.4248
B( 47-S , 48-C ) :   1.1261 B( 48-C , 49-C ) :   1.5130 B( 48-C , 55-C ) :   1.1276
B( 49-C , 50-C ) :   1.3123 B( 49-C , 54-S ) :   1.0097 B( 50-C , 51-S ) :   1.0392
B( 51-S , 52-C ) :   0.9958 B( 52-C , 53-C ) :   1.0081 B( 52-C , 78-H ) :   0.9263
B( 52-C , 79-H ) :   0.9457 B( 53-C , 54-S ) :   1.0136 B( 53-C , 80-H ) :   0.9429
B( 53-C , 81-H ) :   0.9466 B( 55-C , 56-C ) :   1.7588 B( 55-C , 82-H ) :   0.9471
B( 56-C , 57-C ) :   1.0947 B( 56-C , 58-C ) :   1.0480 B( 57-C , 83-H ) :   0.9361
B( 57-C , 84-H ) :   0.9360 B( 57-C , 85-H ) :   0.9343 B( 58-C , 59-N ) :   0.9964
B( 58-C , 86-H ) :   0.9358 B( 58-C , 87-H ) :   0.9204 B( 59-N , 60-C ) :   1.1364
B( 59-N , 88-H ) :   0.9477 B( 60-C , 61-C ) :   1.9154 B( 60-C , 89-H ) :   0.9596
B( 61-C , 90-H ) :   0.9606 B( 61-C , 91-H ) :   0.9520

-----------------------------------------------------------------------------
         ABSORPTION SPECTRUM VIA TRANSITION ELECTRIC DIPOLE MOMENTS
-----------------------------------------------------------------------------
State   Energy  Wavelength   fosc         T2         TX        TY        TZ
        (cm-1)    (nm)                  (au**2)     (au)      (au)      (au)
-----------------------------------------------------------------------------
   0    6364.9   1571.1   0.421281778  21.79004   3.23048  -3.35993  -0.25475
   1   14594.7    685.2   0.154641383   3.48823   0.20868  -1.23251   1.38766
   2   16447.8    608.0   1.411073498  28.24349  -0.21869   2.98011  -4.39484
   3   19572.1    510.9   0.048481681   0.81548   0.24522  -0.84701   0.19473
   4   20395.4    490.3   0.016390823   0.26457  -0.11009   0.15212  -0.47886
   5   21698.3    460.9   0.372833807   5.65672  -2.05266   0.02729   1.20107
   6   22819.3    438.2   0.011637647   0.16790  -0.15550  -0.14269   0.35122
   7   23499.7    425.5   0.029715396   0.41629   0.48689  -0.33095  -0.26401
   8   24479.3    408.5   0.232135963   3.12189  -0.77111   1.45486  -0.64084
   9   24734.5    404.3   0.446764998   5.94637  -2.04158   0.11077   1.32892
  10   25777.0    387.9   0.028925784   0.36943   0.41929   0.28471  -0.33551
  11   26889.0    371.9   0.019952929   0.24429  -0.01277   0.39281  -0.29972
  12   27928.0    358.1   0.007221336   0.08512   0.27070  -0.08216  -0.07136
  13   28114.4    355.7   0.134645568   1.57666   0.64390  -1.01630   0.35944
  14   28925.3    345.7   0.004156993   0.04731  -0.04430   0.05455   0.20585
  15   30068.7    332.6   0.041759358   0.45721  -0.64489   0.19441  -0.05946
  16   30285.8    330.2   0.033032720   0.35907  -0.27169   0.33213   0.41826
  17   30371.7    329.3   0.146687720   1.59001   0.21989  -0.92834   0.82453
  18   30752.5    325.2   0.010004689   0.10710  -0.10212   0.20331  -0.23524
  19   31143.8    321.1   0.099590572   1.05274  -0.44797  -0.71045   0.58934
  20   31418.7    318.3   0.185244983   1.94104  -0.35640   1.12053  -0.74729
  21   31957.5    312.9   0.046604292   0.48010   0.02510   0.67532  -0.15299
  22   32178.0    310.8   0.098860086   1.01143   0.73752  -0.68061  -0.06538
  23   32563.6    307.1   0.001197748   0.01211   0.07240   0.01285  -0.08187
  24   32728.9    305.5   0.041614070   0.41859   0.01648  -0.47295   0.44118
  25   33267.4    300.6   0.035182812   0.34817  -0.37234  -0.32787   0.31942
  26   33454.9    298.9   0.023331016   0.22959  -0.34335   0.21719   0.25402
  27   33675.9    296.9   0.017327342   0.16939   0.11527  -0.32773   0.22067
  28   34042.7    293.7   0.137801029   1.33261  -0.41806  -0.89023   0.60442
  29   34635.7    288.7   0.068492275   0.65102  -0.00727   0.76377  -0.26004
  30   35539.9    281.4   0.180411540   1.67118  -0.12460   1.24732  -0.31601
  31   35933.3    278.3   0.153549249   1.40678   0.20778   1.03154  -0.54730
  32   35965.7    278.0   0.195355464   1.78818   1.05580   0.39197  -0.72100
  33   36131.3    276.8   0.021221075   0.19336  -0.04446  -0.35904   0.24994
  34   36702.0    272.5   0.143084301   1.28345   0.46563   0.88276  -0.53607
  35   36706.4    272.4   0.096552139   0.86596   0.58098   0.57186  -0.44877
  36   37339.5    267.8   0.017484193   0.15415   0.33794  -0.19552  -0.04150
  37   38495.6    259.8   0.014626256   0.12508  -0.04413   0.32513  -0.13200
  38   38555.5    259.4   0.006649220   0.05678  -0.12330  -0.19726   0.05158
  39   38877.2    257.2   0.063215077   0.53530   0.13243   0.64961  -0.30946
  40   39151.1    255.4   0.007542093   0.06342  -0.09655  -0.21860   0.07944
  41   39362.2    254.1   0.057025997   0.47695   0.66746  -0.17426   0.03282
  42   39532.1    253.0   0.109031108   0.90798  -0.79770   0.40968  -0.32220
  43   39908.5    250.6   0.015100310   0.12457  -0.10904  -0.09147   0.32297
  44   40266.6    248.3   0.056736924   0.46387  -0.29337   0.58357  -0.19301

FINAL SINGLE POINT ENERGY     -4809.544729501041

DIPOLE MOMENT
-------------
                                X             Y             Z
Electronic contribution:    -37.08460      82.99598     -28.24697
Nuclear contribution   :     40.20245     -87.28691      26.64189
                        -----------------------------------------
Total Dipole Moment    :      3.11784      -4.29093      -1.60508
                        -----------------------------------------
Magnitude (a.u.)       :      5.54160
Magnitude (Debye)      :     14.08562

Rotational constants in cm-1:     0.001442     0.000544     0.000408
Rotational constants in MHz :    43.235038    16.315939    12.243257

                             ****ORCA TERMINATED NORMALLY****
TOTAL RUN TIME: 0 days 0 hours 9 minutes 36 seconds 685 msec
