                         Program Version 4.2.0 -  RELEASE  -
|  1> # ORCA input file
|  2> # SCF done       -117.307440496067          0.000289015696
|  3> ! CAM-B3LYP def2-SVP def2/J RIJCOSX Grid4 TightSCF
|  4> %maxcore 5000
|  5> %tddft
|  6>     Mode sTDDFT
|  7>     Ethresh 5.0
|  8>     maxcore 5000
|  9> end
| 10>
| 11> %pal
| 12>   nprocs 6
| 13>   end
| 14> * xyz 0 1
| 15>    C        4.54849        -1.43563        -0.43471
| 16>    S        3.91557         0.03749         0.41988
| 17>    C        3.75337         1.19323        -0.89356
| 18>    C        4.26707         0.99294        -2.18256
| 19>    C        3.98676         2.02132        -3.05274
| 20>    C        4.38173         2.15148        -4.41339
| 21>    S        4.34082         3.71245        -5.18511
| 22>    C        5.00055         3.05999        -6.66056
| 23>    C        5.26547         3.87067        -7.79202
| 24>    S        4.93026         5.56956        -7.82535
| 25>    C        5.52520         5.76003        -9.41511
| 26>    C        5.97678         4.56691        -9.92873
| 27>    N        6.51774         4.37101       -11.15462
| 28>    C        6.88999         3.15765       -11.45060
| 29>    C        7.49633         2.93980       -12.79697
| 30>    C        6.73148         2.06273       -10.52990
| 31>    C        7.15640         0.68102       -10.90096
| 32>    N        6.21386         2.22702        -9.34182
| 33>    C        5.82843         3.47449        -9.00531
| 34>    C        5.20986         1.70466        -6.54787
| 35>    C        4.85394         1.19310        -5.29543
| 36>    S        4.96985        -0.53983        -4.94749
| 37>    C        3.19278        -0.92474        -4.81653
| 38>    S        3.07180         3.27444        -2.26224
| 39>    C        3.07314         2.39565        -0.75844
| 40>    C        2.43474         2.94679         0.38471
| 41>    C        2.56490         2.58821         1.70418
| 42>    C        1.78220         3.36085         2.57533
| 43>    S        1.89399         3.18721         4.32814
| 44>    C        1.26216         1.48706         4.46742
| 45>    C        1.03250         4.32714         1.93530
| 46>    C        0.12244         5.27750         2.47709
| 47>    S       -0.07373         6.83427         1.73702
| 48>    C       -1.22390         7.35113         2.88640
| 49>    C       -1.47309         6.37243         3.81853
| 50>    N       -2.32321         6.46371         4.86840
| 51>    C       -2.44370         5.41000         5.62448
| 52>    C       -3.35745         5.51604         6.80029
| 53>    C       -1.74865         4.18156         5.33874
| 54>    C       -1.97488         2.97079         6.18229
| 55>    N       -0.91485         4.07275         4.34142
| 56>    C       -0.71918         5.16969         3.57986
| 57>    S        1.33144         4.28792         0.21721
| 58>    H        4.54903        -2.22471         0.31102
| 59>    H        5.56120        -1.26017        -0.78496
| 60>    H        3.88765        -1.69991        -1.25442
| 61>    H        4.85764         0.14549        -2.47426
| 62>    H        5.51763         6.72087        -9.88713
| 63>    H        6.90965         2.22186       -13.36801
| 64>    H        8.50743         2.54739       -12.69917
| 65>    H        7.52736         3.88516       -13.33087
| 66>    H        8.22208         0.65730       -11.12401
| 67>    H        6.61968         0.34188       -11.78584
| 68>    H        6.94888         0.00685       -10.07478
| 69>    H        5.60515         1.11279        -7.35211
| 70>    H        3.12137        -1.99141        -4.63145
| 71>    H        2.70613        -0.67352        -5.75370
| 72>    H        2.75499        -0.36644        -3.99411
| 73>    H        3.23732         1.82485         2.04764
| 74>    H        1.29764         1.22796         5.52033
| 75>    H        1.88764         0.81164         3.89192
| 76>    H        0.23907         1.47592         4.10418
| 77>    H       -1.64932         8.33194         2.82949
| 78>    H       -2.81553         5.30928         7.72186
| 79>    H       -4.17151         4.79721         6.71844
| 80>    H       -3.76890         6.52049         6.84147
| 81>    H       -3.03002         2.70091         6.19023
| 82>    H       -1.66824         3.16522         7.20914
| 83>    H       -1.39398         2.14189         5.78983
| 84> *
| 85>
| 86>                          ****END OF INPUT****

CARTESIAN COORDINATES (ANGSTROEM)
---------------------------------
  C      4.548490   -1.435630   -0.434710
  S      3.915570    0.037490    0.419880
  C      3.753370    1.193230   -0.893560
  C      4.267070    0.992940   -2.182560
  C      3.986760    2.021320   -3.052740
  C      4.381730    2.151480   -4.413390
  S      4.340820    3.712450   -5.185110
  C      5.000550    3.059990   -6.660560
  C      5.265470    3.870670   -7.792020
  S      4.930260    5.569560   -7.825350
  C      5.525200    5.760030   -9.415110
  C      5.976780    4.566910   -9.928730
  N      6.517740    4.371010  -11.154620
  C      6.889990    3.157650  -11.450600
  C      7.496330    2.939800  -12.796970
  C      6.731480    2.062730  -10.529900
  C      7.156400    0.681020  -10.900960
  N      6.213860    2.227020   -9.341820
  C      5.828430    3.474490   -9.005310
  C      5.209860    1.704660   -6.547870
  C      4.853940    1.193100   -5.295430
  S      4.969850   -0.539830   -4.947490
  C      3.192780   -0.924740   -4.816530
  S      3.071800    3.274440   -2.262240
  C      3.073140    2.395650   -0.758440
  C      2.434740    2.946790    0.384710
  C      2.564900    2.588210    1.704180
  C      1.782200    3.360850    2.575330
  S      1.893990    3.187210    4.328140
  C      1.262160    1.487060    4.467420
  C      1.032500    4.327140    1.935300
  C      0.122440    5.277500    2.477090
  S     -0.073730    6.834270    1.737020
  C     -1.223900    7.351130    2.886400
  C     -1.473090    6.372430    3.818530
  N     -2.323210    6.463710    4.868400
  C     -2.443700    5.410000    5.624480
  C     -3.357450    5.516040    6.800290
  C     -1.748650    4.181560    5.338740
  C     -1.974880    2.970790    6.182290
  N     -0.914850    4.072750    4.341420
  C     -0.719180    5.169690    3.579860
  S      1.331440    4.287920    0.217210
  H      4.549030   -2.224710    0.311020
  H      5.561200   -1.260170   -0.784960
  H      3.887650   -1.699910   -1.254420
  H      4.857640    0.145490   -2.474260
  H      5.517630    6.720870   -9.887130
  H      6.909650    2.221860  -13.368010
  H      8.507430    2.547390  -12.699170
  H      7.527360    3.885160  -13.330870
  H      8.222080    0.657300  -11.124010
  H      6.619680    0.341880  -11.785840
  H      6.948880    0.006850  -10.074780
  H      5.605150    1.112790   -7.352110
  H      3.121370   -1.991410   -4.631450
  H      2.706130   -0.673520   -5.753700
  H      2.754990   -0.366440   -3.994110
  H      3.237320    1.824850    2.047640
  H      1.297640    1.227960    5.520330
  H      1.887640    0.811640    3.891920
  H      0.239070    1.475920    4.104180
  H     -1.649320    8.331940    2.829490
  H     -2.815530    5.309280    7.721860
  H     -4.171510    4.797210    6.718440
  H     -3.768900    6.520490    6.841470
  H     -3.030020    2.700910    6.190230
  H     -1.668240    3.165220    7.209140
  H     -1.393980    2.141890    5.789830

 Total Charge           Charge          ....    0
 Multiplicity           Mult            ....    1
 Number of Electrons    NEL             ....  368
 Basis Dimension        Dim             ....  764

ORBITAL ENERGIES
----------------

  NO   OCC          E(Eh)            E(eV)
   0   2.0000     -88.968954     -2420.9683
   1   2.0000     -88.961164     -2420.7563
   2   2.0000     -88.953931     -2420.5595
   3   2.0000     -88.951222     -2420.4858
   4   2.0000     -88.946099     -2420.3464
   5   2.0000     -88.924983     -2419.7718
   6   2.0000     -88.916456     -2419.5398
   7   2.0000     -88.897940     -2419.0359
   8   2.0000     -14.413461      -392.2102
   9   2.0000     -14.409990      -392.1158
  10   2.0000     -14.402436      -391.9102
  11   2.0000     -14.401531      -391.8856
  12   2.0000     -10.317631      -280.7570
  13   2.0000     -10.316136      -280.7163
  14   2.0000     -10.308289      -280.5028
  15   2.0000     -10.307754      -280.4882
  16   2.0000     -10.306009      -280.4408
  17   2.0000     -10.305480      -280.4264
  18   2.0000     -10.304060      -280.3877
  19   2.0000     -10.302120      -280.3349
  20   2.0000     -10.300526      -280.2916
  21   2.0000     -10.300123      -280.2806
  22   2.0000     -10.299464      -280.2627
  23   2.0000     -10.298243      -280.2294
  24   2.0000     -10.298157      -280.2271
  25   2.0000     -10.297652      -280.2133
  26   2.0000     -10.296150      -280.1725
  27   2.0000     -10.292784      -280.0809
  28   2.0000     -10.292468      -280.0723
  29   2.0000     -10.292271      -280.0669
  30   2.0000     -10.290357      -280.0148
  31   2.0000     -10.289951      -280.0038
  32   2.0000     -10.283864      -279.8382
  33   2.0000     -10.283721      -279.8343
  34   2.0000     -10.281976      -279.7868
  35   2.0000     -10.270687      -279.4796
  36   2.0000     -10.268214      -279.4123
  37   2.0000     -10.266903      -279.3766
  38   2.0000     -10.265285      -279.3326
  39   2.0000     -10.263290      -279.2783
  40   2.0000     -10.262045      -279.2444
  41   2.0000     -10.260897      -279.2132
  42   2.0000     -10.259492      -279.1750
  43   2.0000      -8.064123      -219.4360
  44   2.0000      -8.056423      -219.2264
  45   2.0000      -8.049670      -219.0427
  46   2.0000      -8.046975      -218.9693
  47   2.0000      -8.042008      -218.8342
  48   2.0000      -8.019903      -218.2326
  49   2.0000      -8.011112      -217.9934
  50   2.0000      -7.992927      -217.4986
  51   2.0000      -6.033106      -164.1692
  52   2.0000      -6.028798      -164.0519
  53   2.0000      -6.027152      -164.0071
  54   2.0000      -6.025331      -163.9576
  55   2.0000      -6.021096      -163.8423
  56   2.0000      -6.019502      -163.7990
  57   2.0000      -6.019042      -163.7865
  58   2.0000      -6.016409      -163.7148
  59   2.0000      -6.014938      -163.6748
  60   2.0000      -6.012307      -163.6032
  61   2.0000      -6.011550      -163.5826
  62   2.0000      -6.011389      -163.5782
  63   2.0000      -6.008707      -163.5052
  64   2.0000      -6.007314      -163.4673
  65   2.0000      -6.003792      -163.3715
  66   2.0000      -5.990427      -163.0078
  67   2.0000      -5.986085      -162.8897
  68   2.0000      -5.981761      -162.7720
  69   2.0000      -5.979738      -162.7169
  70   2.0000      -5.977814      -162.6646
  71   2.0000      -5.970397      -162.4628
  72   2.0000      -5.963758      -162.2821
  73   2.0000      -5.959747      -162.1730
  74   2.0000      -5.951834      -161.9576
  75   2.0000      -1.070255       -29.1231
  76   2.0000      -1.061414       -28.8825
  77   2.0000      -0.999473       -27.1970
  78   2.0000      -0.994997       -27.0753
  79   2.0000      -0.988991       -26.9118
  80   2.0000      -0.985045       -26.8044
  81   2.0000      -0.977293       -26.5935
  82   2.0000      -0.966828       -26.3087
  83   2.0000      -0.956836       -26.0368
  84   2.0000      -0.896649       -24.3991
  85   2.0000      -0.890428       -24.2298
  86   2.0000      -0.880229       -23.9522
  87   2.0000      -0.877460       -23.8769
  88   2.0000      -0.872211       -23.7341
  89   2.0000      -0.861217       -23.4349
  90   2.0000      -0.851671       -23.1751
  91   2.0000      -0.832104       -22.6427
  92   2.0000      -0.820998       -22.3405
  93   2.0000      -0.813940       -22.1484
  94   2.0000      -0.812969       -22.1220
  95   2.0000      -0.802679       -21.8420
  96   2.0000      -0.796354       -21.6699
  97   2.0000      -0.791045       -21.5254
  98   2.0000      -0.784070       -21.3356
  99   2.0000      -0.777485       -21.1564
 100   2.0000      -0.758360       -20.6360
 101   2.0000      -0.729788       -19.8585
 102   2.0000      -0.719121       -19.5683
 103   2.0000      -0.711552       -19.3623
 104   2.0000      -0.706602       -19.2276
 105   2.0000      -0.705153       -19.1882
 106   2.0000      -0.700011       -19.0483
 107   2.0000      -0.676460       -18.4074
 108   2.0000      -0.670334       -18.2407
 109   2.0000      -0.665099       -18.0983
 110   2.0000      -0.648133       -17.6366
 111   2.0000      -0.640036       -17.4163
 112   2.0000      -0.635520       -17.2934
 113   2.0000      -0.627147       -17.0655
 114   2.0000      -0.613232       -16.6869
 115   2.0000      -0.598138       -16.2762
 116   2.0000      -0.591978       -16.1085
 117   2.0000      -0.583454       -15.8766
 118   2.0000      -0.572189       -15.5700
 119   2.0000      -0.548828       -14.9344
 120   2.0000      -0.544286       -14.8108
 121   2.0000      -0.544076       -14.8050
 122   2.0000      -0.537865       -14.6361
 123   2.0000      -0.536824       -14.6077
 124   2.0000      -0.536416       -14.5966
 125   2.0000      -0.525462       -14.2985
 126   2.0000      -0.520195       -14.1552
 127   2.0000      -0.514396       -13.9974
 128   2.0000      -0.506814       -13.7911
 129   2.0000      -0.503368       -13.6973
 130   2.0000      -0.500505       -13.6194
 131   2.0000      -0.500106       -13.6086
 132   2.0000      -0.498655       -13.5691
 133   2.0000      -0.495217       -13.4756
 134   2.0000      -0.493519       -13.4293
 135   2.0000      -0.491662       -13.3788
 136   2.0000      -0.489260       -13.3134
 137   2.0000      -0.488395       -13.2899
 138   2.0000      -0.486243       -13.2313
 139   2.0000      -0.484932       -13.1957
 140   2.0000      -0.482964       -13.1421
 141   2.0000      -0.482288       -13.1237
 142   2.0000      -0.476671       -12.9709
 143   2.0000      -0.474582       -12.9140
 144   2.0000      -0.469723       -12.7818
 145   2.0000      -0.469425       -12.7737
 146   2.0000      -0.468385       -12.7454
 147   2.0000      -0.465962       -12.6795
 148   2.0000      -0.462384       -12.5821
 149   2.0000      -0.459515       -12.5040
 150   2.0000      -0.457817       -12.4578
 151   2.0000      -0.451818       -12.2946
 152   2.0000      -0.443699       -12.0737
 153   2.0000      -0.442543       -12.0422
 154   2.0000      -0.437076       -11.8935
 155   2.0000      -0.432706       -11.7745
 156   2.0000      -0.426499       -11.6056
 157   2.0000      -0.422912       -11.5080
 158   2.0000      -0.420312       -11.4373
 159   2.0000      -0.413316       -11.2469
 160   2.0000      -0.410457       -11.1691
 161   2.0000      -0.408095       -11.1048
 162   2.0000      -0.399714       -10.8768
 163   2.0000      -0.396797       -10.7974
 164   2.0000      -0.388111       -10.5610
 165   2.0000      -0.383400       -10.4328
 166   2.0000      -0.376774       -10.2525
 167   2.0000      -0.374699       -10.1961
 168   2.0000      -0.370014       -10.0686
 169   2.0000      -0.367502       -10.0002
 170   2.0000      -0.346801        -9.4369
 171   2.0000      -0.328483        -8.9385
 172   2.0000      -0.322417        -8.7734
 173   2.0000      -0.316799        -8.6206
 174   2.0000      -0.311033        -8.4636
 175   2.0000      -0.309878        -8.4322
 176   2.0000      -0.303756        -8.2656
 177   2.0000      -0.302253        -8.2247
 178   2.0000      -0.296459        -8.0670
 179   2.0000      -0.285585        -7.7712
 180   2.0000      -0.272875        -7.4253
 181   2.0000      -0.261251        -7.1090
 182   2.0000      -0.248974        -6.7749
 183   2.0000      -0.219235        -5.9657
 184   0.0000      -0.059474        -1.6184
 185   0.0000      -0.042669        -1.1611
 186   0.0000      -0.019607        -0.5335
 187   0.0000       0.015036         0.4091
 188   0.0000       0.028433         0.7737

MULLIKEN ATOMIC CHARGES
-----------------------
   0 C :   -0.071120
   1 S :   -0.038941
   2 C :    0.001027
   3 C :   -0.060279
   4 C :   -0.064693
   5 C :   -0.041995
   6 S :    0.126117
   7 C :   -0.073217
   8 C :   -0.112960
   9 S :    0.169995
  10 C :   -0.162615
  11 C :    0.069000
  12 N :    0.015061
  13 C :   -0.190989
  14 C :    0.131835
  15 C :   -0.173103
  16 C :    0.128056
  17 N :    0.003548
  18 C :    0.021570
  19 C :   -0.014445
  20 C :   -0.059780
  21 S :   -0.049073
  22 C :   -0.074963
  23 S :    0.127223
  24 C :   -0.077973
  25 C :   -0.062334
  26 C :   -0.025699
  27 C :   -0.031436
  28 S :   -0.018329
  29 C :   -0.073062
  30 C :   -0.117383
  31 C :   -0.206442
  32 S :    0.169143
  33 C :   -0.155346
  34 C :    0.049245
  35 N :    0.010563
  36 C :   -0.190887
  37 C :    0.135198
  38 C :   -0.171334
  39 C :    0.131092
  40 N :    0.024159
  41 C :    0.076120
  42 S :    0.116516
  43 H :    0.060768
  44 H :    0.074406
  45 H :    0.062220
  46 H :   -0.010232
  47 H :    0.012753
  48 H :    0.023025
  49 H :    0.022385
  50 H :    0.027902
  51 H :    0.024480
  52 H :    0.023753
  53 H :    0.030303
  54 H :   -0.016201
  55 H :    0.052834
  56 H :    0.061444
  57 H :    0.069239
  58 H :   -0.000371
  59 H :    0.045187
  60 H :    0.049022
  61 H :    0.064547
  62 H :    0.011733
  63 H :    0.020393
  64 H :    0.020849
  65 H :    0.024686
  66 H :    0.021035
  67 H :    0.021450
  68 H :    0.015319
Sum of atomic charges:    0.0000000

LOEWDIN ATOMIC CHARGES
----------------------
   0 C :   -0.153467
   1 S :    0.301284
   2 C :   -0.187784
   3 C :   -0.079218
   4 C :   -0.186801
   5 C :   -0.194691
   6 S :    0.419879
   7 C :   -0.184691
   8 C :   -0.204167
   9 S :    0.489476
  10 C :   -0.201902
  11 C :   -0.056743
  12 N :   -0.048689
  13 C :   -0.004997
  14 C :   -0.053067
  15 C :   -0.001589
  16 C :   -0.053173
  17 N :   -0.044189
  18 C :   -0.053658
  19 C :   -0.054606
  20 C :   -0.201298
  21 S :    0.266810
  22 C :   -0.149189
  23 S :    0.420345
  24 C :   -0.211827
  25 C :   -0.184481
  26 C :   -0.071936
  27 C :   -0.190070
  28 S :    0.273998
  29 C :   -0.149700
  30 C :   -0.198604
  31 C :   -0.210641
  32 S :    0.487941
  33 C :   -0.202079
  34 C :   -0.058470
  35 N :   -0.052880
  36 C :   -0.004927
  37 C :   -0.053589
  38 C :   -0.005765
  39 C :   -0.053678
  40 N :   -0.042393
  41 C :   -0.053129
  42 S :    0.410217
  43 H :    0.033769
  44 H :    0.027999
  45 H :    0.027629
  46 H :    0.015713
  47 H :    0.027583
  48 H :    0.036338
  49 H :    0.036468
  50 H :    0.038973
  51 H :    0.037344
  52 H :    0.036897
  53 H :    0.038831
  54 H :    0.029787
  55 H :    0.026608
  56 H :    0.027034
  57 H :    0.022590
  58 H :    0.019224
  59 H :    0.023656
  60 H :    0.019447
  61 H :    0.018922
  62 H :    0.026600
  63 H :    0.035444
  64 H :    0.035537
  65 H :    0.037782
  66 H :    0.035257
  67 H :    0.036632
  68 H :    0.036075

  Mayer bond orders larger than 0.100000
B(  0-C ,  1-S ) :   1.0160 B(  0-C , 43-H ) :   0.9697 B(  0-C , 44-H ) :   0.9653
B(  0-C , 45-H ) :   0.9673 B(  1-S ,  2-C ) :   1.0117 B(  2-C ,  3-C ) :   1.2397
B(  2-C , 24-C ) :   1.5559 B(  3-C ,  4-C ) :   1.5084 B(  3-C , 46-H ) :   0.9786
B(  4-C ,  5-C ) :   1.1120 B(  4-C , 23-S ) :   1.1134 B(  4-C , 24-C ) :   0.1142
B(  5-C ,  6-S ) :   1.1289 B(  5-C ,  7-C ) :   0.1153 B(  5-C , 20-C ) :   1.5260
B(  6-S ,  7-C ) :   1.0963 B(  7-C ,  8-C ) :   1.1474 B(  7-C , 19-C ) :   1.5226
B(  8-C ,  9-S ) :   1.1880 B(  8-C , 10-C ) :   0.1350 B(  8-C , 18-C ) :   1.3839
B(  9-S , 10-C ) :   1.1812 B( 10-C , 11-C ) :   1.4126 B( 10-C , 47-H ) :   0.9794
B( 11-C , 12-N ) :   1.3371 B( 11-C , 18-C ) :   1.2050 B( 12-N , 13-C ) :   1.7848
B( 13-C , 14-C ) :   1.0948 B( 13-C , 15-C ) :   1.0988 B( 14-C , 48-H ) :   0.9408
B( 14-C , 49-H ) :   0.9413 B( 14-C , 50-H ) :   0.9421 B( 15-C , 16-C ) :   1.0967
B( 15-C , 17-N ) :   1.7479 B( 16-C , 51-H ) :   0.9396 B( 16-C , 52-H ) :   0.9403
B( 16-C , 53-H ) :   0.9437 B( 17-N , 18-C ) :   1.3713 B( 19-C , 20-C ) :   1.2214
B( 19-C , 54-H ) :   0.9958 B( 20-C , 21-S ) :   1.0104 B( 21-S , 22-C ) :   0.9997
B( 22-C , 55-H ) :   0.9721 B( 22-C , 56-H ) :   0.9722 B( 22-C , 57-H ) :   0.9678
B( 23-S , 24-C ) :   1.1045 B( 24-C , 25-C ) :   1.1214 B( 25-C , 26-C ) :   1.5295
B( 25-C , 30-C ) :   0.1105 B( 25-C , 42-S ) :   1.0970 B( 26-C , 27-C ) :   1.2178
B( 26-C , 58-H ) :   0.9838 B( 27-C , 28-S ) :   1.0190 B( 27-C , 30-C ) :   1.5941
B( 28-S , 29-C ) :   1.0063 B( 29-C , 59-H ) :   0.9727 B( 29-C , 60-H ) :   0.9718
B( 29-C , 61-H ) :   0.9570 B( 30-C , 31-C ) :   1.0854 B( 30-C , 42-S ) :   1.1187
B( 31-C , 32-S ) :   1.1986 B( 31-C , 33-C ) :   0.1370 B( 31-C , 41-C ) :   1.3851
B( 32-S , 33-C ) :   1.1850 B( 33-C , 34-C ) :   1.4172 B( 33-C , 62-H ) :   0.9783
B( 34-C , 35-N ) :   1.3332 B( 34-C , 41-C ) :   1.1976 B( 35-N , 36-C ) :   1.7872
B( 36-C , 37-C ) :   1.0953 B( 36-C , 38-C ) :   1.0977 B( 37-C , 63-H ) :   0.9417
B( 37-C , 64-H ) :   0.9400 B( 37-C , 65-H ) :   0.9418 B( 38-C , 39-C ) :   1.0936
B( 38-C , 40-N ) :   1.7434 B( 39-C , 66-H ) :   0.9417 B( 39-C , 67-H ) :   0.9388
B( 39-C , 68-H ) :   0.9437 B( 40-N , 41-C ) :   1.3728

-----------------------------------------------------------------------------
         ABSORPTION SPECTRUM VIA TRANSITION ELECTRIC DIPOLE MOMENTS
-----------------------------------------------------------------------------
State   Energy  Wavelength   fosc         T2         TX        TY        TZ
        (cm-1)    (nm)                  (au**2)     (au)      (au)      (au)
-----------------------------------------------------------------------------
   0   19771.4    505.8   1.171578400  19.50781   1.99251  -0.38337  -3.92310
   1   22642.5    441.6   0.183798462   2.67235  -0.52190   1.43299  -0.58864
   2   25284.2    395.5   0.230920833   3.00670   0.96777  -0.97140  -1.06137
   3   26867.3    372.2   0.096319141   1.18022   0.45035  -0.80869  -0.56871
   4   28257.0    353.9   0.225714139   2.62971   0.12949   0.58325  -1.50757
   5   29442.8    339.6   0.002964797   0.03315  -0.16376  -0.07619  -0.02297
   6   30234.9    330.7   0.011657549   0.12693  -0.30353  -0.10820  -0.15198
   7   31031.2    322.3   0.014763342   0.15663   0.04284   0.39045  -0.04838
   8   31568.0    316.8   0.073305288   0.76448   0.42979  -0.17267  -0.74158
   9   32262.3    310.0   0.001944474   0.01984   0.07383  -0.08793  -0.08161
  10   32896.8    304.0   0.193008709   1.93152  -0.49952   1.15516  -0.58958
  11   33633.1    297.3   0.010200076   0.09984  -0.22641   0.13784   0.17200
  12   33929.9    294.7   0.042800130   0.41528   0.21433  -0.59436   0.12678
  13   35942.3    278.2   0.100769066   0.92299   0.38924  -0.87786   0.02918
  14   36538.0    273.7   0.168670144   1.51974  -0.37628   0.11314   1.16848
  15   37036.2    270.0   0.011645993   0.10352  -0.17753   0.25031   0.09670
  16   37403.2    267.4   0.007132255   0.06278   0.12687   0.20823   0.05763
  17   38079.5    262.6   0.010150711   0.08776  -0.22993  -0.06042   0.17674
  18   38297.8    261.1   0.068512446   0.58894  -0.33702  -0.57946   0.37360
  19   38558.1    259.3   0.214885699   1.83471   0.66885   0.06604  -1.17601
  20   39173.9    255.3   0.006694572   0.05626   0.18412  -0.07423   0.12981
  21   39335.4    254.2   0.049506908   0.41434  -0.07737  -0.14395   0.62260
  22   40312.5    248.1   0.106625177   0.87075  -0.23561  -0.66492   0.61084

FINAL SINGLE POINT ENERGY     -4598.706799070575

DIPOLE MOMENT
-------------
                                X             Y             Z
Electronic contribution:      3.50780      32.13834      -4.87275
Nuclear contribution   :     -3.68428     -33.57718       4.07502
                        -----------------------------------------
Total Dipole Moment    :     -0.17648      -1.43884      -0.79773
                        -----------------------------------------
Magnitude (a.u.)       :      1.65462
Magnitude (Debye)      :      4.20571

Rotational constants in cm-1:     0.004422     0.000624     0.000559
Rotational constants in MHz :   132.579486    18.714423    16.751116

                             ****ORCA TERMINATED NORMALLY****
TOTAL RUN TIME: 0 days 0 hours 3 minutes 59 seconds 489 msec
