                         Program Version 4.2.0 -  RELEASE  -
|  1> # ORCA input file
|  2> # SCF done       -212.548570455332          0.000649536907
|  3> ! CAM-B3LYP def2-SVP def2/J RIJCOSX Grid4 TightSCF
|  4> %maxcore 5000
|  5> %tddft
|  6>     Mode sTDDFT
|  7>     Ethresh 5.0
|  8>     maxcore 5000
|  9> end
| 10>
| 11> %pal
| 12>   nprocs 6
| 13>   end
| 14> * xyz 0 1
| 15>    C        0.15382         0.40276        -3.45770
| 16>    C        1.14940        -0.54941        -3.58069
| 17>    F        2.21619        -0.28942        -4.34405
| 18>    C        1.06115        -1.76802        -2.92458
| 19>    F        2.06317        -2.64922        -3.07355
| 20>    C       -0.03103        -2.09188        -2.10511
| 21>    C       -1.03548        -1.11592        -2.00311
| 22>    C       -0.93794         0.10075        -2.66352
| 23>    F       -1.92191         0.99671        -2.53751
| 24>    F       -2.13518        -1.35741        -1.27787
| 25>    C       -0.12181        -3.35724        -1.41195
| 26>    C       -0.86343        -3.65160        -0.28582
| 27>    C       -0.72488        -4.98693         0.09892
| 28>    C        0.12308        -5.71273        -0.75331
| 29>    S        0.76777        -4.75637        -2.00085
| 30>    C        0.18421        -7.05593        -0.29290
| 31>    C       -0.62412        -7.17527         0.84639
| 32>    C       -1.21506        -5.87618         1.13872
| 33>    C       -2.04058        -5.56546         2.17815
| 34>    C       -2.44410        -6.52751         3.12880
| 35>    N       -2.77439        -7.30448         3.90428
| 36>    C       -2.53853        -4.26130         2.38683
| 37>    N       -2.94037        -3.20398         2.57270
| 38>    C       -0.63792        -8.47067         1.36818
| 39>    C        0.15281        -9.33056         0.63279
| 40>    S        0.93119        -8.53082        -0.72179
| 41>    C        0.36611       -10.71823         0.85871
| 42>    C        1.15523       -11.56912         0.13908
| 43>    C        1.13690       -12.90106         0.61497
| 44>    C        1.84548       -14.01162         0.11322
| 45>    C        2.79192       -13.90750        -0.97848
| 46>    C        3.01069       -14.80146        -1.98752
| 47>    C        4.05885       -14.41057        -2.84851
| 48>    C        4.66062       -13.23385        -2.50855
| 49>    S        3.91130       -12.57428        -1.09485
| 50>    C        5.78916       -12.53778        -3.17533
| 51>   Cl        4.52665       -15.35438        -4.20975
| 52>    C        1.60621       -15.23003         0.74026
| 53>    C        0.73748       -15.38220         1.84993
| 54>    C        0.05750       -14.26425         2.37505
| 55>    C        0.26599       -13.05316         1.72296
| 56>    S       -0.45839       -11.53306         2.17103
| 57>    C       -0.79652       -14.34662         3.54217
| 58>    C       -1.97042       -13.68764         3.77213
| 59>    C       -2.50884       -13.95631         5.04917
| 60>    C       -1.75814       -14.80242         5.81267
| 61>    S       -0.35164       -15.29884         4.93489
| 62>    C       -2.01505       -15.29038         7.19059
| 63>   Cl       -3.99114       -13.26299         5.58294
| 64>    C        0.66942       -16.72724         2.28361
| 65>    C        1.46960       -17.57430         1.57170
| 66>    S        2.35093       -16.74395         0.30688
| 67>    C        1.61903       -18.97893         1.73548
| 68>    C        2.44048       -19.82251         1.01502
| 69>    C        2.31809       -21.14979         1.43103
| 70>    C        1.39618       -21.31049         2.47501
| 71>    S        0.68378       -19.83240         2.95052
| 72>    C        1.33141       -22.68948         2.81335
| 73>    C        2.21637       -23.39500         1.98189
| 74>    C        2.87276       -22.45300         1.09097
| 75>    C        3.81167       -22.72158         0.14000
| 76>    C        4.29948       -24.02454        -0.09770
| 77>    N        4.71117       -25.07624        -0.29330
| 78>    C        4.37170       -21.70848        -0.66749
| 79>    N        4.82974       -20.89064        -1.32733
| 80>    C        2.20712       -24.76983         2.22515
| 81>    C        1.33103       -25.11237         3.23564
| 82>    S        0.51263       -23.70404         3.90253
| 83>    C        1.03619       -26.43360         3.74200
| 84>    C        0.46598       -26.63660         5.00853
| 85>    F        0.18963       -25.57978         5.78958
| 86>    C        0.18625       -27.90539         5.49333
| 87>    F       -0.35325       -28.03980         6.70966
| 88>    C        0.45639       -29.03433         4.74150
| 89>    C        1.01036       -28.85858         3.48615
| 90>    C        1.29252       -27.59303         2.99157
| 91>    F        1.79657       -27.49694         1.75447
| 92>    F        1.27086       -29.93046         2.73109
| 93>    H        0.22394         1.34842        -3.96787
| 94>    H       -1.46235        -2.93264         0.24110
| 95>    H       -1.18922        -8.78860         2.23473
| 96>    H        1.72184       -11.24429        -0.71432
| 97>    H        2.42898       -15.69022        -2.14553
| 98>    H        6.07335       -13.08158        -4.07262
| 99>    H        6.65088       -12.47960        -2.51061
|100>    H        5.50773       -11.52157        -3.44860
|101>    H       -2.46366       -13.06094         3.05295
|102>    H       -2.94494       -14.86563         7.55996
|103>    H       -1.20383       -15.00115         7.85803
|104>    H       -2.09044       -16.37727         7.20651
|105>    H        0.04276       -17.06829         3.08725
|106>    H        3.08582       -19.47160         0.23001
|107>    H        2.82093       -25.47625         1.69878
|108>    H        0.23827       -30.01882         5.11911
|109> *
|110>
|111>                          ****END OF INPUT****

CARTESIAN COORDINATES (ANGSTROEM)
---------------------------------
  C      0.153820    0.402760   -3.457700
  C      1.149400   -0.549410   -3.580690
  F      2.216190   -0.289420   -4.344050
  C      1.061150   -1.768020   -2.924580
  F      2.063170   -2.649220   -3.073550
  C     -0.031030   -2.091880   -2.105110
  C     -1.035480   -1.115920   -2.003110
  C     -0.937940    0.100750   -2.663520
  F     -1.921910    0.996710   -2.537510
  F     -2.135180   -1.357410   -1.277870
  C     -0.121810   -3.357240   -1.411950
  C     -0.863430   -3.651600   -0.285820
  C     -0.724880   -4.986930    0.098920
  C      0.123080   -5.712730   -0.753310
  S      0.767770   -4.756370   -2.000850
  C      0.184210   -7.055930   -0.292900
  C     -0.624120   -7.175270    0.846390
  C     -1.215060   -5.876180    1.138720
  C     -2.040580   -5.565460    2.178150
  C     -2.444100   -6.527510    3.128800
  N     -2.774390   -7.304480    3.904280
  C     -2.538530   -4.261300    2.386830
  N     -2.940370   -3.203980    2.572700
  C     -0.637920   -8.470670    1.368180
  C      0.152810   -9.330560    0.632790
  S      0.931190   -8.530820   -0.721790
  C      0.366110  -10.718230    0.858710
  C      1.155230  -11.569120    0.139080
  C      1.136900  -12.901060    0.614970
  C      1.845480  -14.011620    0.113220
  C      2.791920  -13.907500   -0.978480
  C      3.010690  -14.801460   -1.987520
  C      4.058850  -14.410570   -2.848510
  C      4.660620  -13.233850   -2.508550
  S      3.911300  -12.574280   -1.094850
  C      5.789160  -12.537780   -3.175330
  Cl     4.526650  -15.354380   -4.209750
  C      1.606210  -15.230030    0.740260
  C      0.737480  -15.382200    1.849930
  C      0.057500  -14.264250    2.375050
  C      0.265990  -13.053160    1.722960
  S     -0.458390  -11.533060    2.171030
  C     -0.796520  -14.346620    3.542170
  C     -1.970420  -13.687640    3.772130
  C     -2.508840  -13.956310    5.049170
  C     -1.758140  -14.802420    5.812670
  S     -0.351640  -15.298840    4.934890
  C     -2.015050  -15.290380    7.190590
  Cl    -3.991140  -13.262990    5.582940
  C      0.669420  -16.727240    2.283610
  C      1.469600  -17.574300    1.571700
  S      2.350930  -16.743950    0.306880
  C      1.619030  -18.978930    1.735480
  C      2.440480  -19.822510    1.015020
  C      2.318090  -21.149790    1.431030
  C      1.396180  -21.310490    2.475010
  S      0.683780  -19.832400    2.950520
  C      1.331410  -22.689480    2.813350
  C      2.216370  -23.395000    1.981890
  C      2.872760  -22.453000    1.090970
  C      3.811670  -22.721580    0.140000
  C      4.299480  -24.024540   -0.097700
  N      4.711170  -25.076240   -0.293300
  C      4.371700  -21.708480   -0.667490
  N      4.829740  -20.890640   -1.327330
  C      2.207120  -24.769830    2.225150
  C      1.331030  -25.112370    3.235640
  S      0.512630  -23.704040    3.902530
  C      1.036190  -26.433600    3.742000
  C      0.465980  -26.636600    5.008530
  F      0.189630  -25.579780    5.789580
  C      0.186250  -27.905390    5.493330
  F     -0.353250  -28.039800    6.709660
  C      0.456390  -29.034330    4.741500
  C      1.010360  -28.858580    3.486150
  C      1.292520  -27.593030    2.991570
  F      1.796570  -27.496940    1.754470
  F      1.270860  -29.930460    2.731090
  H      0.223940    1.348420   -3.967870
  H     -1.462350   -2.932640    0.241100
  H     -1.189220   -8.788600    2.234730
  H      1.721840  -11.244290   -0.714320
  H      2.428980  -15.690220   -2.145530
  H      6.073350  -13.081580   -4.072620
  H      6.650880  -12.479600   -2.510610
  H      5.507730  -11.521570   -3.448600
  H     -2.463660  -13.060940    3.052950
  H     -2.944940  -14.865630    7.559960
  H     -1.203830  -15.001150    7.858030
  H     -2.090440  -16.377270    7.206510
  H      0.042760  -17.068290    3.087250
  H      3.085820  -19.471600    0.230010
  H      2.820930  -25.476250    1.698780
  H      0.238270  -30.018820    5.119110

 Total Charge           Charge          ....    0
 Multiplicity           Mult            ....    1
 Number of Electrons    NEL             ....  614
 Basis Dimension        Dim             .... 1212

ORBITAL ENERGIES
----------------

  NO   OCC          E(Eh)            E(eV)
   0   2.0000    -101.583875     -2764.2378
   1   2.0000    -101.583790     -2764.2354
   2   2.0000     -88.991368     -2421.5782
   3   2.0000     -88.991237     -2421.5747
   4   2.0000     -88.991134     -2421.5719
   5   2.0000     -88.990979     -2421.5677
   6   2.0000     -88.961426     -2420.7635
   7   2.0000     -88.961285     -2420.7596
   8   2.0000     -88.960267     -2420.7319
   9   2.0000     -88.960149     -2420.7287
  10   2.0000     -24.813456      -675.2085
  11   2.0000     -24.812965      -675.1951
  12   2.0000     -24.807329      -675.0417
  13   2.0000     -24.807072      -675.0347
  14   2.0000     -24.802360      -674.9065
  15   2.0000     -24.802241      -674.9033
  16   2.0000     -24.800691      -674.8611
  17   2.0000     -24.800577      -674.8580
  18   2.0000     -14.429215      -392.6389
  19   2.0000     -14.429204      -392.6386
  20   2.0000     -14.428870      -392.6295
  21   2.0000     -14.428822      -392.6282
  22   2.0000     -10.386535      -282.6320
  23   2.0000     -10.386517      -282.6315
  24   2.0000     -10.385895      -282.6146
  25   2.0000     -10.385840      -282.6131
  26   2.0000     -10.385830      -282.6128
  27   2.0000     -10.385773      -282.6112
  28   2.0000     -10.385002      -282.5903
  29   2.0000     -10.384967      -282.5893
  30   2.0000     -10.364135      -282.0224
  31   2.0000     -10.364110      -282.0218
  32   2.0000     -10.351494      -281.6785
  33   2.0000     -10.351432      -281.6768
  34   2.0000     -10.332831      -281.1706
  35   2.0000     -10.332826      -281.1705
  36   2.0000     -10.332758      -281.1686
  37   2.0000     -10.332436      -281.1599
  38   2.0000     -10.332383      -281.1584
  39   2.0000     -10.332332      -281.1571
  40   2.0000     -10.330808      -281.1156
  41   2.0000     -10.330605      -281.1100
  42   2.0000     -10.329458      -281.0789
  43   2.0000     -10.329447      -281.0785
  44   2.0000     -10.328949      -281.0650
  45   2.0000     -10.328873      -281.0629
  46   2.0000     -10.327976      -281.0385
  47   2.0000     -10.327937      -281.0375
  48   2.0000     -10.320333      -280.8305
  49   2.0000     -10.320331      -280.8305
  50   2.0000     -10.320320      -280.8302
  51   2.0000     -10.320290      -280.8294
  52   2.0000     -10.312620      -280.6206
  53   2.0000     -10.312459      -280.6163
  54   2.0000     -10.310521      -280.5635
  55   2.0000     -10.310475      -280.5623
  56   2.0000     -10.308296      -280.5030
  57   2.0000     -10.308202      -280.5004
  58   2.0000     -10.306518      -280.4546
  59   2.0000     -10.306474      -280.4534
  60   2.0000     -10.304385      -280.3966
  61   2.0000     -10.304262      -280.3932
  62   2.0000     -10.304235      -280.3925
  63   2.0000     -10.304229      -280.3923
  64   2.0000     -10.302891      -280.3559
  65   2.0000     -10.302747      -280.3520
  66   2.0000     -10.301704      -280.3236
  67   2.0000     -10.301572      -280.3200
  68   2.0000     -10.301298      -280.3126
  69   2.0000     -10.301193      -280.3097
  70   2.0000     -10.295847      -280.1642
  71   2.0000     -10.295714      -280.1606
  72   2.0000     -10.284727      -279.8616
  73   2.0000     -10.284608      -279.8584
  74   2.0000     -10.282015      -279.7878
  75   2.0000     -10.281905      -279.7849
  76   2.0000     -10.278695      -279.6975
  77   2.0000     -10.278620      -279.6955
  78   2.0000      -9.538616      -259.5589
  79   2.0000      -9.538569      -259.5577
  80   2.0000      -8.085706      -220.0232
  81   2.0000      -8.085575      -220.0197
  82   2.0000      -8.085569      -220.0195
  83   2.0000      -8.085498      -220.0176
  84   2.0000      -8.057054      -219.2436
  85   2.0000      -8.056957      -219.2409
  86   2.0000      -8.055363      -219.1976
  87   2.0000      -8.055249      -219.1945
  88   2.0000      -7.308897      -198.8852
  89   2.0000      -7.308814      -198.8829
  90   2.0000      -7.298668      -198.6069
  91   2.0000      -7.298637      -198.6060
  92   2.0000      -7.298583      -198.6045
  93   2.0000      -7.298551      -198.6037
  94   2.0000      -6.054999      -164.7649
  95   2.0000      -6.054856      -164.7610
  96   2.0000      -6.054815      -164.7599
  97   2.0000      -6.054795      -164.7593
  98   2.0000      -6.050787      -164.6503
  99   2.0000      -6.050619      -164.6457
 100   2.0000      -6.050482      -164.6420
 101   2.0000      -6.050447      -164.6410
 102   2.0000      -6.048063      -164.5762
 103   2.0000      -6.048028      -164.5752
 104   2.0000      -6.047990      -164.5742
 105   2.0000      -6.047816      -164.5694
 106   2.0000      -6.026365      -163.9857
 107   2.0000      -6.026267      -163.9830
 108   2.0000      -6.025109      -163.9516
 109   2.0000      -6.024998      -163.9485
 110   2.0000      -6.022199      -163.8724
 111   2.0000      -6.022108      -163.8699
 112   2.0000      -6.020882      -163.8365
 113   2.0000      -6.020763      -163.8333
 114   2.0000      -6.019124      -163.7887
 115   2.0000      -6.019004      -163.7854
 116   2.0000      -6.016592      -163.7198
 117   2.0000      -6.016480      -163.7167
 118   2.0000      -1.333044       -36.2740
 119   2.0000      -1.332678       -36.2640
 120   2.0000      -1.328827       -36.1592
 121   2.0000      -1.328562       -36.1520
 122   2.0000      -1.314573       -35.7713
 123   2.0000      -1.314439       -35.7677
 124   2.0000      -1.311798       -35.6958
 125   2.0000      -1.311688       -35.6929
 126   2.0000      -1.045321       -28.4446
 127   2.0000      -1.045264       -28.4431
 128   2.0000      -1.021920       -27.8078
 129   2.0000      -1.021408       -27.7939
 130   2.0000      -1.019328       -27.7373
 131   2.0000      -1.008034       -27.4300
 132   2.0000      -1.006994       -27.4017
 133   2.0000      -1.005953       -27.3734
 134   2.0000      -1.004862       -27.3437
 135   2.0000      -1.004452       -27.3325
 136   2.0000      -0.998223       -27.1630
 137   2.0000      -0.994056       -27.0496
 138   2.0000      -0.988780       -26.9061
 139   2.0000      -0.980937       -26.6927
 140   2.0000      -0.959845       -26.1187
 141   2.0000      -0.956507       -26.0279
 142   2.0000      -0.946589       -25.7580
 143   2.0000      -0.942417       -25.6445
 144   2.0000      -0.926179       -25.2026
 145   2.0000      -0.917744       -24.9731
 146   2.0000      -0.909640       -24.7526
 147   2.0000      -0.904308       -24.6075
 148   2.0000      -0.888791       -24.1852
 149   2.0000      -0.886319       -24.1180
 150   2.0000      -0.870770       -23.6949
 151   2.0000      -0.868301       -23.6277
 152   2.0000      -0.862766       -23.4771
 153   2.0000      -0.859410       -23.3857
 154   2.0000      -0.859303       -23.3828
 155   2.0000      -0.857666       -23.3383
 156   2.0000      -0.857024       -23.3208
 157   2.0000      -0.851790       -23.1784
 158   2.0000      -0.844792       -22.9879
 159   2.0000      -0.841130       -22.8883
 160   2.0000      -0.815008       -22.1775
 161   2.0000      -0.812072       -22.0976
 162   2.0000      -0.810094       -22.0438
 163   2.0000      -0.803260       -21.8578
 164   2.0000      -0.795783       -21.6543
 165   2.0000      -0.788343       -21.4519
 166   2.0000      -0.778069       -21.1723
 167   2.0000      -0.775384       -21.0993
 168   2.0000      -0.768329       -20.9073
 169   2.0000      -0.753739       -20.5103
 170   2.0000      -0.748950       -20.3800
 171   2.0000      -0.737398       -20.0656
 172   2.0000      -0.736620       -20.0445
 173   2.0000      -0.729701       -19.8562
 174   2.0000      -0.707908       -19.2632
 175   2.0000      -0.701965       -19.1014
 176   2.0000      -0.701648       -19.0928
 177   2.0000      -0.700938       -19.0735
 178   2.0000      -0.688923       -18.7465
 179   2.0000      -0.685922       -18.6649
 180   2.0000      -0.683386       -18.5959
 181   2.0000      -0.675492       -18.3811
 182   2.0000      -0.673136       -18.3170
 183   2.0000      -0.667014       -18.1504
 184   2.0000      -0.665081       -18.0978
 185   2.0000      -0.659017       -17.9328
 186   2.0000      -0.658136       -17.9088
 187   2.0000      -0.655514       -17.8374
 188   2.0000      -0.646209       -17.5842
 189   2.0000      -0.642920       -17.4947
 190   2.0000      -0.640552       -17.4303
 191   2.0000      -0.636975       -17.3330
 192   2.0000      -0.628381       -17.0991
 193   2.0000      -0.627642       -17.0790
 194   2.0000      -0.626373       -17.0445
 195   2.0000      -0.620843       -16.8940
 196   2.0000      -0.616945       -16.7879
 197   2.0000      -0.616720       -16.7818
 198   2.0000      -0.614983       -16.7345
 199   2.0000      -0.609587       -16.5877
 200   2.0000      -0.607183       -16.5223
 201   2.0000      -0.603538       -16.4231
 202   2.0000      -0.603215       -16.4143
 203   2.0000      -0.595483       -16.2039
 204   2.0000      -0.587601       -15.9894
 205   2.0000      -0.587038       -15.9741
 206   2.0000      -0.583728       -15.8840
 207   2.0000      -0.582529       -15.8514
 208   2.0000      -0.581774       -15.8309
 209   2.0000      -0.581555       -15.8249
 210   2.0000      -0.571415       -15.5490
 211   2.0000      -0.571153       -15.5419
 212   2.0000      -0.563503       -15.3337
 213   2.0000      -0.563055       -15.3215
 214   2.0000      -0.558808       -15.2059
 215   2.0000      -0.558410       -15.1951
 216   2.0000      -0.550722       -14.9859
 217   2.0000      -0.550394       -14.9770
 218   2.0000      -0.548924       -14.9370
 219   2.0000      -0.547799       -14.9064
 220   2.0000      -0.546756       -14.8780
 221   2.0000      -0.546644       -14.8749
 222   2.0000      -0.536568       -14.6008
 223   2.0000      -0.531207       -14.4549
 224   2.0000      -0.530255       -14.4290
 225   2.0000      -0.527083       -14.3427
 226   2.0000      -0.526418       -14.3246
 227   2.0000      -0.522814       -14.2265
 228   2.0000      -0.520891       -14.1742
 229   2.0000      -0.520456       -14.1623
 230   2.0000      -0.517838       -14.0911
 231   2.0000      -0.514652       -14.0044
 232   2.0000      -0.507157       -13.8004
 233   2.0000      -0.506182       -13.7739
 234   2.0000      -0.505380       -13.7521
 235   2.0000      -0.504171       -13.7192
 236   2.0000      -0.503371       -13.6974
 237   2.0000      -0.501581       -13.6487
 238   2.0000      -0.497192       -13.5293
 239   2.0000      -0.496946       -13.5226
 240   2.0000      -0.495304       -13.4779
 241   2.0000      -0.494872       -13.4662
 242   2.0000      -0.494045       -13.4436
 243   2.0000      -0.488187       -13.2842
 244   2.0000      -0.487397       -13.2628
 245   2.0000      -0.485174       -13.2023
 246   2.0000      -0.481174       -13.0934
 247   2.0000      -0.480934       -13.0869
 248   2.0000      -0.476048       -12.9539
 249   2.0000      -0.475634       -12.9426
 250   2.0000      -0.474320       -12.9069
 251   2.0000      -0.471438       -12.8285
 252   2.0000      -0.470999       -12.8165
 253   2.0000      -0.468755       -12.7555
 254   2.0000      -0.467040       -12.7088
 255   2.0000      -0.465324       -12.6621
 256   2.0000      -0.461902       -12.5690
 257   2.0000      -0.460175       -12.5220
 258   2.0000      -0.459800       -12.5118
 259   2.0000      -0.458603       -12.4792
 260   2.0000      -0.455520       -12.3953
 261   2.0000      -0.455410       -12.3923
 262   2.0000      -0.453587       -12.3427
 263   2.0000      -0.451678       -12.2908
 264   2.0000      -0.451447       -12.2845
 265   2.0000      -0.445056       -12.1106
 266   2.0000      -0.443660       -12.0726
 267   2.0000      -0.440522       -11.9872
 268   2.0000      -0.439213       -11.9516
 269   2.0000      -0.439100       -11.9485
 270   2.0000      -0.438061       -11.9202
 271   2.0000      -0.437761       -11.9121
 272   2.0000      -0.437224       -11.8975
 273   2.0000      -0.436211       -11.8699
 274   2.0000      -0.427288       -11.6271
 275   2.0000      -0.427027       -11.6200
 276   2.0000      -0.424757       -11.5582
 277   2.0000      -0.424063       -11.5393
 278   2.0000      -0.422893       -11.5075
 279   2.0000      -0.421789       -11.4775
 280   2.0000      -0.416761       -11.3406
 281   2.0000      -0.415003       -11.2928
 282   2.0000      -0.412625       -11.2281
 283   2.0000      -0.404951       -11.0193
 284   2.0000      -0.397012       -10.8032
 285   2.0000      -0.388948       -10.5838
 286   2.0000      -0.383095       -10.4245
 287   2.0000      -0.380193       -10.3456
 288   2.0000      -0.378098       -10.2886
 289   2.0000      -0.377759       -10.2794
 290   2.0000      -0.356932        -9.7126
 291   2.0000      -0.349232        -9.5031
 292   2.0000      -0.348372        -9.4797
 293   2.0000      -0.343736        -9.3535
 294   2.0000      -0.330591        -8.9958
 295   2.0000      -0.324538        -8.8311
 296   2.0000      -0.324455        -8.8289
 297   2.0000      -0.322953        -8.7880
 298   2.0000      -0.321042        -8.7360
 299   2.0000      -0.318605        -8.6697
 300   2.0000      -0.317869        -8.6497
 301   2.0000      -0.306851        -8.3498
 302   2.0000      -0.303718        -8.2646
 303   2.0000      -0.296633        -8.0718
 304   2.0000      -0.267441        -7.2774
 305   2.0000      -0.264232        -7.1901
 306   2.0000      -0.241003        -6.5580
 307   0.0000      -0.105519        -2.8713
 308   0.0000      -0.103126        -2.8062
 309   0.0000      -0.062961        -1.7132
 310   0.0000      -0.041759        -1.1363
 311   0.0000      -0.032425        -0.8823

MULLIKEN ATOMIC CHARGES
-----------------------
   0 C :   -0.148988
   1 C :    0.251739
   2 F :   -0.172528
   3 C :    0.148737
   4 F :   -0.174788
   5 C :    0.000049
   6 C :    0.161830
   7 C :    0.251271
   8 F :   -0.171352
   9 F :   -0.163546
  10 C :   -0.103802
  11 C :   -0.023673
  12 C :   -0.002696
  13 C :   -0.097202
  14 S :    0.211590
  15 C :   -0.100716
  16 C :    0.018687
  17 C :    0.302480
  18 C :   -0.297931
  19 C :   -0.190123
  20 N :    0.173912
  21 C :   -0.190225
  22 N :    0.180430
  23 C :   -0.063938
  24 C :   -0.044037
  25 S :    0.188649
  26 C :   -0.008464
  27 C :   -0.098886
  28 C :    0.089839
  29 C :    0.142536
  30 C :   -0.213756
  31 C :    0.033713
  32 C :    0.086165
  33 C :   -0.266069
  34 S :    0.133204
  35 C :    0.123818
  36 Cl:   -0.082531
  37 C :   -0.138379
  38 C :    0.088730
  39 C :    0.140156
  40 C :   -0.135865
  41 S :    0.119807
  42 C :   -0.211877
  43 C :    0.030329
  44 C :    0.088345
  45 C :   -0.267168
  46 S :    0.133203
  47 C :    0.123571
  48 Cl:   -0.082548
  49 C :   -0.096152
  50 C :   -0.009346
  51 S :    0.118510
  52 C :   -0.043733
  53 C :   -0.064399
  54 C :    0.018634
  55 C :   -0.101069
  56 S :    0.189426
  57 C :   -0.097863
  58 C :   -0.000326
  59 C :    0.302076
  60 C :   -0.297252
  61 C :   -0.190820
  62 N :    0.179378
  63 C :   -0.192393
  64 N :    0.177081
  65 C :   -0.025193
  66 C :   -0.106013
  67 S :    0.210572
  68 C :    0.004998
  69 C :    0.148650
  70 F :   -0.174652
  71 C :    0.253446
  72 F :   -0.172231
  73 C :   -0.155781
  74 C :    0.253109
  75 C :    0.162349
  76 F :   -0.163601
  77 F :   -0.170518
  78 H :    0.018681
  79 H :    0.017412
  80 H :    0.016770
  81 H :   -0.009247
  82 H :   -0.004742
  83 H :    0.026609
  84 H :    0.039002
  85 H :    0.030330
  86 H :   -0.003656
  87 H :    0.026222
  88 H :    0.037234
  89 H :    0.032880
  90 H :   -0.010106
  91 H :    0.017439
  92 H :    0.018139
  93 H :    0.018444
Sum of atomic charges:   -0.0000000

LOEWDIN ATOMIC CHARGES
----------------------
   0 C :   -0.061946
   1 C :    0.059801
   2 F :   -0.048126
   3 C :    0.045455
   4 F :   -0.052309
   5 C :   -0.074895
   6 C :    0.057362
   7 C :    0.061369
   8 F :   -0.046362
   9 F :   -0.037965
  10 C :   -0.174469
  11 C :   -0.015617
  12 C :   -0.076395
  13 C :   -0.178976
  14 S :    0.496988
  15 C :   -0.181937
  16 C :   -0.065718
  17 C :    0.081546
  18 C :   -0.100414
  19 C :   -0.017154
  20 N :   -0.030795
  21 C :   -0.018417
  22 N :   -0.028553
  23 C :   -0.033384
  24 C :   -0.174956
  25 S :    0.482100
  26 C :   -0.168607
  27 C :   -0.071329
  28 C :   -0.039875
  29 C :   -0.054295
  30 C :   -0.173790
  31 C :   -0.074422
  32 C :   -0.176348
  33 C :   -0.197615
  34 S :    0.444552
  35 C :   -0.061074
  36 Cl:    0.133364
  37 C :   -0.140849
  38 C :   -0.039982
  39 C :   -0.054288
  40 C :   -0.140791
  41 S :    0.427991
  42 C :   -0.173576
  43 C :   -0.074568
  44 C :   -0.176266
  45 C :   -0.197696
  46 S :    0.444547
  47 C :   -0.061141
  48 Cl:    0.133209
  49 C :   -0.071131
  50 C :   -0.168327
  51 S :    0.428455
  52 C :   -0.175315
  53 C :   -0.033570
  54 C :   -0.065655
  55 C :   -0.181967
  56 S :    0.481974
  57 C :   -0.179055
  58 C :   -0.076415
  59 C :    0.081373
  60 C :   -0.100409
  61 C :   -0.018457
  62 N :   -0.028395
  63 C :   -0.017291
  64 N :   -0.030620
  65 C :   -0.015867
  66 C :   -0.174597
  67 S :    0.496813
  68 C :   -0.074195
  69 C :    0.045167
  70 F :   -0.052344
  71 C :    0.059966
  72 F :   -0.048096
  73 C :   -0.062255
  74 C :    0.061440
  75 C :    0.057398
  76 F :   -0.037559
  77 F :   -0.046296
  78 H :    0.055208
  79 H :    0.040082
  80 H :    0.038028
  81 H :    0.012417
  82 H :    0.027111
  83 H :    0.034911
  84 H :    0.040699
  85 H :    0.037548
  86 H :    0.027183
  87 H :    0.034858
  88 H :    0.040127
  89 H :    0.038332
  90 H :    0.012543
  91 H :    0.037850
  92 H :    0.039842
  93 H :    0.055103

  Mayer bond orders larger than 0.100000
B(  0-C ,  1-C ) :   1.3189 B(  0-C ,  5-C ) :   0.1212 B(  0-C ,  7-C ) :   1.3195
B(  0-C , 78-H ) :   1.0204 B(  1-C ,  2-F ) :   1.1247 B(  1-C ,  3-C ) :   1.3149
B(  3-C ,  4-F ) :   1.1395 B(  3-C ,  5-C ) :   1.2816 B(  5-C ,  6-C ) :   1.2907
B(  5-C , 10-C ) :   1.0636 B(  6-C ,  7-C ) :   1.3115 B(  6-C ,  9-F ) :   1.1498
B(  7-C ,  8-F ) :   1.1229 B( 10-C , 11-C ) :   1.4899 B( 10-C , 14-S ) :   1.1047
B( 11-C , 12-C ) :   1.2863 B( 11-C , 79-H ) :   0.9936 B( 12-C , 13-C ) :   1.4375
B( 12-C , 17-C ) :   0.9981 B( 13-C , 14-S ) :   1.1338 B( 13-C , 15-C ) :   1.1770
B( 15-C , 16-C ) :   1.4592 B( 15-C , 25-S ) :   1.1212 B( 16-C , 17-C ) :   0.9922
B( 16-C , 23-C ) :   1.2846 B( 17-C , 18-C ) :   1.7157 B( 18-C , 19-C ) :   1.1323
B( 18-C , 21-C ) :   1.1324 B( 19-C , 20-N ) :   2.9924 B( 21-C , 22-N ) :   2.9958
B( 23-C , 24-C ) :   1.4669 B( 23-C , 80-H ) :   0.9911 B( 24-C , 25-S ) :   1.1086
B( 24-C , 26-C ) :   1.1520 B( 26-C , 27-C ) :   1.5706 B( 26-C , 41-S ) :   1.0701
B( 27-C , 28-C ) :   1.1862 B( 27-C , 81-H ) :   0.9691 B( 28-C , 29-C ) :   1.2954
B( 28-C , 40-C ) :   1.2716 B( 29-C , 30-C ) :   0.9877 B( 29-C , 37-C ) :   1.4192
B( 30-C , 31-C ) :   1.5513 B( 30-C , 34-S ) :   1.1276 B( 31-C , 32-C ) :   1.2217
B( 31-C , 82-H ) :   0.9945 B( 32-C , 33-C ) :   1.6047 B( 32-C , 36-Cl) :   1.0116
B( 33-C , 34-S ) :   1.1273 B( 33-C , 35-C ) :   1.0828 B( 35-C , 83-H ) :   0.9434
B( 35-C , 84-H ) :   0.9488 B( 35-C , 85-H ) :   0.9479 B( 37-C , 38-C ) :   1.2713
B( 37-C , 51-S ) :   1.0564 B( 38-C , 39-C ) :   1.2951 B( 38-C , 49-C ) :   1.1865
B( 39-C , 40-C ) :   1.4191 B( 39-C , 42-C ) :   0.9888 B( 40-C , 41-S ) :   1.0562
B( 42-C , 43-C ) :   1.5509 B( 42-C , 46-S ) :   1.1268 B( 43-C , 44-C ) :   1.2212
B( 43-C , 86-H ) :   0.9944 B( 44-C , 45-C ) :   1.6038 B( 44-C , 48-Cl) :   1.0112
B( 45-C , 46-S ) :   1.1280 B( 45-C , 47-C ) :   1.0826 B( 47-C , 87-H ) :   0.9435
B( 47-C , 88-H ) :   0.9487 B( 47-C , 89-H ) :   0.9482 B( 49-C , 50-C ) :   1.5711
B( 49-C , 90-H ) :   0.9689 B( 50-C , 51-S ) :   1.0701 B( 50-C , 52-C ) :   1.1528
B( 52-C , 53-C ) :   1.4656 B( 52-C , 56-S ) :   1.1081 B( 53-C , 54-C ) :   1.2855
B( 53-C , 91-H ) :   0.9907 B( 54-C , 55-C ) :   1.4594 B( 54-C , 59-C ) :   0.9931
B( 55-C , 56-S ) :   1.1206 B( 55-C , 57-C ) :   1.1782 B( 57-C , 58-C ) :   1.4377
B( 57-C , 67-S ) :   1.1310 B( 58-C , 59-C ) :   0.9991 B( 58-C , 65-C ) :   1.2862
B( 59-C , 60-C ) :   1.7144 B( 60-C , 61-C ) :   1.1333 B( 60-C , 63-C ) :   1.1336
B( 61-C , 62-N ) :   2.9950 B( 63-C , 64-N ) :   2.9930 B( 65-C , 66-C ) :   1.4890
B( 65-C , 92-H ) :   0.9930 B( 66-C , 67-S ) :   1.1036 B( 66-C , 68-C ) :   1.0691
B( 68-C , 69-C ) :   1.2790 B( 68-C , 73-C ) :   0.1217 B( 68-C , 75-C ) :   1.2908
B( 69-C , 70-F ) :   1.1376 B( 69-C , 71-C ) :   1.3141 B( 71-C , 72-F ) :   1.1251
B( 71-C , 73-C ) :   1.3184 B( 73-C , 74-C ) :   1.3188 B( 73-C , 93-H ) :   1.0225
B( 74-C , 75-C ) :   1.3106 B( 74-C , 77-F ) :   1.1241 B( 75-C , 76-F ) :   1.1471

-----------------------------------------------------------------------------
         ABSORPTION SPECTRUM VIA TRANSITION ELECTRIC DIPOLE MOMENTS
-----------------------------------------------------------------------------
State   Energy  Wavelength   fosc         T2         TX        TY        TZ
        (cm-1)    (nm)                  (au**2)     (au)      (au)      (au)
-----------------------------------------------------------------------------
   0   13415.5    745.4   0.315645032   7.74581  -0.25022   2.72768  -0.49291
   1   13733.6    728.1   0.000675142   0.01618   0.08999  -0.02139   0.08734
   2   19859.1    503.5   0.075992142   1.25975   0.53619  -0.90885  -0.38241
   3   20347.9    491.5   0.000087212   0.00141  -0.00192   0.02858   0.02430
   4   23748.7    421.1   2.232372746  30.94588  -1.05758   5.45230  -0.31595
   5   25009.4    399.9   0.167074193   2.19929  -0.86444   0.90522   0.79537
   6   25114.3    398.2   0.000593330   0.00778  -0.08163   0.02765   0.01871
   7   27822.0    359.4   0.455096512   5.38506   0.48971   1.94704  -1.16373
   8   28289.5    353.5   0.004522288   0.05263  -0.16925  -0.06129  -0.14221
   9   28880.7    346.3   0.044034897   0.50196   0.07477  -0.69366   0.12327
  10   29620.5    337.6   0.008632556   0.09595   0.24263   0.10334   0.16247
  11   30275.9    330.3   1.087569041  11.82592   0.75667   2.85025  -1.76903
  12   30681.4    325.9   0.058569980   0.62846  -0.51524   0.15391   0.58249
  13   31010.4    322.5   0.000007913   0.00008   0.00389   0.00737   0.00383
  14   31538.5    317.1   0.000162031   0.00169   0.03097   0.02363   0.01319
  15   31606.1    316.4   0.002280626   0.02376   0.15057   0.03014   0.01326
  16   31756.5    314.9   0.131715432   1.36546   0.73292  -0.02172  -0.90984
  17   32233.9    310.2   1.375599175  14.04931  -2.34899  -0.23792   2.91118
  18   32389.4    308.7   0.008571823   0.08713  -0.20700  -0.04401  -0.20576
  19   32577.3    307.0   0.142576299   1.44081   0.77233  -0.30751  -0.86589
  20   32596.0    306.8   0.001689079   0.01706  -0.11614   0.00426   0.05961
  21   33526.0    298.3   0.227326168   2.23225   0.51682   1.03591  -0.94447
  22   33898.5    295.0   0.008097214   0.07864  -0.16410  -0.03779   0.22423
  23   34012.8    294.0   0.000045985   0.00045   0.00401   0.01088  -0.01762
  24   34506.5    289.8   0.002728310   0.02603   0.12207   0.02695   0.10199
  25   34912.2    286.4   0.000518365   0.00489  -0.01818  -0.06437  -0.02035
  26   35076.7    285.1   0.489478871   4.59399  -0.44867   2.09542  -0.04337
  27   35243.7    283.7   0.001491298   0.01393   0.07228   0.00803   0.09296
  28   35555.3    281.3   0.034646582   0.32080   0.15136  -0.54511  -0.02733
  29   36017.1    277.6   0.001392905   0.01273   0.09816   0.00684   0.05523
  30   36127.8    276.8   0.031269973   0.28495   0.29604   0.15488  -0.41631
  31   36685.8    272.6   0.061975151   0.55615  -0.22637   0.69841   0.13089
  32   36689.5    272.6   0.167098859   1.49937  -0.42226   1.13648   0.17167
  33   37157.6    269.1   0.178483212   1.58134  -0.40448  -0.91601   0.76071
  34   37375.7    267.6   0.000297690   0.00262   0.03023  -0.02772   0.03066
  35   38186.5    261.9   0.005087686   0.04386   0.17846   0.08662   0.06716
  36   38292.9    261.1   0.231520425   1.99043  -0.47296  -0.99658   0.87953
  37   38596.3    259.1   0.000529385   0.00452   0.03331  -0.05148  -0.02750
  38   39188.1    255.2   0.000104286   0.00088  -0.00139   0.01541  -0.02523
  39   39786.7    251.3   0.094397867   0.78109   0.39326  -0.72704  -0.31280
  40   39846.6    251.0   0.011442204   0.09454  -0.27136   0.02745  -0.14193
  41   40021.8    249.9   0.000135309   0.00111   0.03034  -0.00207   0.01373
  42   40252.1    248.4   0.004026728   0.03293   0.10608  -0.09548  -0.11210

FINAL SINGLE POINT ENERGY     -7262.098755139216

DIPOLE MOMENT
-------------
                                X             Y             Z
Electronic contribution:     -8.73275      -2.26763      -7.49017
Nuclear contribution   :      8.85279       2.27421       7.58847
                        -----------------------------------------
Total Dipole Moment    :      0.12004       0.00659       0.09829
                        -----------------------------------------
Magnitude (a.u.)       :      0.15529
Magnitude (Debye)      :      0.39471

Rotational constants in cm-1:     0.001415     0.000181     0.000162
Rotational constants in MHz :    42.413340     5.424370     4.853706

                             ****ORCA TERMINATED NORMALLY****
TOTAL RUN TIME: 0 days 0 hours 9 minutes 7 seconds 323 msec
