                         Program Version 4.2.0 -  RELEASE  -
|  1> # ORCA input file
|  2> # SCF done       -181.442073709416          0.000594632022
|  3> ! CAM-B3LYP def2-SVP def2/J RIJCOSX Grid4 TightSCF
|  4> %maxcore 5000
|  5> %tddft
|  6>     Mode sTDDFT
|  7>     Ethresh 5.0
|  8>     maxcore 5000
|  9> end
| 10>
| 11> %pal
| 12>   nprocs 6
| 13>   end
| 14> * xyz 0 1
| 15>    C        0.97960         0.80694        -2.14218
| 16>    C        1.98729        -0.13991        -2.17891
| 17>    F        3.18003         0.18993        -2.68473
| 18>    C        1.78129        -1.42420        -1.69703
| 19>    F        2.79698        -2.30021        -1.74598
| 20>    C        0.55288        -1.81922        -1.14700
| 21>    C       -0.45937        -0.84718        -1.12851
| 22>    C       -0.24404         0.43499        -1.61443
| 23>    F       -1.23896         1.32663        -1.57978
| 24>    F       -1.67526        -1.15617        -0.66005
| 25>    C        0.33824        -3.15209        -0.62755
| 26>    C       -0.57102        -3.54284         0.33349
| 27>    C       -0.50446        -4.91448         0.58938
| 28>    C        0.45639        -5.56829        -0.20017
| 29>    S        1.29207        -4.50229        -1.22681
| 30>    C        0.44740        -6.95014         0.12975
| 31>    C       -0.51326        -7.16454         1.12937
| 32>    C       -1.14393        -5.89114         1.45326
| 33>    C       -2.11844        -5.67260         2.38152
| 34>    C       -2.65575        -6.72049         3.15920
| 35>    N       -3.09160        -7.57340         3.78946
| 36>    C       -2.64806        -4.38941         2.63679
| 37>    N       -3.07599        -3.34967         2.85913
| 38>    C       -0.58735        -8.49710         1.53491
| 39>    C        0.30747        -9.29576         0.84645
| 40>    S        1.25416        -8.38687        -0.32082
| 41>    C        0.52203       -10.68880         1.00800
| 42>    C        1.38038       -11.50014         0.28954
| 43>    C        1.34788       -12.82014         0.73956
| 44>    C        0.45961       -13.01076         1.81121
| 45>    S       -0.34252       -11.57178         2.25860
| 46>    C        0.51388       -14.37172         2.20731
| 47>    C        1.43360       -15.04187         1.38341
| 48>    C        1.98360       -14.09134         0.42921
| 49>    C        2.89932       -14.33984        -0.54998
| 50>    C        3.44433       -15.62492        -0.75649
| 51>    N        3.88594       -16.66958        -0.92387
| 52>    C        3.35804       -13.32819        -1.42017
| 53>    N        3.72816       -12.50516        -2.12724
| 54>    C        1.57038       -16.39154         1.70814
| 55>    C        0.76497       -16.75028         2.77308
| 56>    S       -0.18261       -15.39917         3.37934
| 57>    C        0.65570       -18.02519         3.38551
| 58>    C       -0.13302       -18.37456         4.46653
| 59>    C        0.02209       -19.71733         4.81069
| 60>    C        0.93412       -20.39129         3.98479
| 61>    S        1.60229       -19.37675         2.78386
| 62>    C        1.02282       -21.74189         4.41622
| 63>    C        0.16433       -21.91710         5.51459
| 64>    C       -0.48640       -20.65206         5.80667
| 65>    C       -1.37079       -20.38068         6.80820
| 66>    C       -1.77639       -21.35468         7.74577
| 67>    N       -2.10556       -22.13316         8.51983
| 68>    C       -1.92850       -19.09615         6.98281
| 69>    N       -2.38003       -18.05173         7.12376
| 70>    C        0.17418       -23.22513         6.00449
| 71>    C        1.03889       -24.03519         5.29770
| 72>    S        1.85746       -23.16467         4.00727
| 73>    C        1.30064       -25.44195         5.50836
| 74>    C        0.36191       -26.28499         6.12354
| 75>    F       -0.82894       -25.80065         6.49856
| 76>    C        0.62193       -27.63226         6.33215
| 77>    F       -0.30418       -28.39693         6.91847
| 78>    C        1.81892       -28.20253         5.93721
| 79>    C        2.75348       -27.39081         5.32002
| 80>    C        2.50248       -26.04352         5.10634
| 81>    F        3.44901       -25.29979         4.51262
| 82>    F        3.91866       -27.91382         4.92502
| 83>    H        1.14138         1.80349        -2.51694
| 84>    H       -1.23512        -2.86626         0.83824
| 85>    H       -1.25072        -8.88136         2.28884
| 86>    H        1.99154       -11.13360        -0.51566
| 87>    H        2.22032       -17.08747         1.20864
| 88>    H       -0.77922       -17.67549         4.96635
| 89>    H       -0.40697       -23.55907         6.84366
| 90>    H        2.01527       -29.24849         6.10174
| 91> *
| 92>
| 93>                          ****END OF INPUT****

CARTESIAN COORDINATES (ANGSTROEM)
---------------------------------
  C      0.979600    0.806940   -2.142180
  C      1.987290   -0.139910   -2.178910
  F      3.180030    0.189930   -2.684730
  C      1.781290   -1.424200   -1.697030
  F      2.796980   -2.300210   -1.745980
  C      0.552880   -1.819220   -1.147000
  C     -0.459370   -0.847180   -1.128510
  C     -0.244040    0.434990   -1.614430
  F     -1.238960    1.326630   -1.579780
  F     -1.675260   -1.156170   -0.660050
  C      0.338240   -3.152090   -0.627550
  C     -0.571020   -3.542840    0.333490
  C     -0.504460   -4.914480    0.589380
  C      0.456390   -5.568290   -0.200170
  S      1.292070   -4.502290   -1.226810
  C      0.447400   -6.950140    0.129750
  C     -0.513260   -7.164540    1.129370
  C     -1.143930   -5.891140    1.453260
  C     -2.118440   -5.672600    2.381520
  C     -2.655750   -6.720490    3.159200
  N     -3.091600   -7.573400    3.789460
  C     -2.648060   -4.389410    2.636790
  N     -3.075990   -3.349670    2.859130
  C     -0.587350   -8.497100    1.534910
  C      0.307470   -9.295760    0.846450
  S      1.254160   -8.386870   -0.320820
  C      0.522030  -10.688800    1.008000
  C      1.380380  -11.500140    0.289540
  C      1.347880  -12.820140    0.739560
  C      0.459610  -13.010760    1.811210
  S     -0.342520  -11.571780    2.258600
  C      0.513880  -14.371720    2.207310
  C      1.433600  -15.041870    1.383410
  C      1.983600  -14.091340    0.429210
  C      2.899320  -14.339840   -0.549980
  C      3.444330  -15.624920   -0.756490
  N      3.885940  -16.669580   -0.923870
  C      3.358040  -13.328190   -1.420170
  N      3.728160  -12.505160   -2.127240
  C      1.570380  -16.391540    1.708140
  C      0.764970  -16.750280    2.773080
  S     -0.182610  -15.399170    3.379340
  C      0.655700  -18.025190    3.385510
  C     -0.133020  -18.374560    4.466530
  C      0.022090  -19.717330    4.810690
  C      0.934120  -20.391290    3.984790
  S      1.602290  -19.376750    2.783860
  C      1.022820  -21.741890    4.416220
  C      0.164330  -21.917100    5.514590
  C     -0.486400  -20.652060    5.806670
  C     -1.370790  -20.380680    6.808200
  C     -1.776390  -21.354680    7.745770
  N     -2.105560  -22.133160    8.519830
  C     -1.928500  -19.096150    6.982810
  N     -2.380030  -18.051730    7.123760
  C      0.174180  -23.225130    6.004490
  C      1.038890  -24.035190    5.297700
  S      1.857460  -23.164670    4.007270
  C      1.300640  -25.441950    5.508360
  C      0.361910  -26.284990    6.123540
  F     -0.828940  -25.800650    6.498560
  C      0.621930  -27.632260    6.332150
  F     -0.304180  -28.396930    6.918470
  C      1.818920  -28.202530    5.937210
  C      2.753480  -27.390810    5.320020
  C      2.502480  -26.043520    5.106340
  F      3.449010  -25.299790    4.512620
  F      3.918660  -27.913820    4.925020
  H      1.141380    1.803490   -2.516940
  H     -1.235120   -2.866260    0.838240
  H     -1.250720   -8.881360    2.288840
  H      1.991540  -11.133600   -0.515660
  H      2.220320  -17.087470    1.208640
  H     -0.779220  -17.675490    4.966350
  H     -0.406970  -23.559070    6.843660
  H      2.015270  -29.248490    6.101740

 Total Charge           Charge          ....    0
 Multiplicity           Mult            ....    1
 Number of Electrons    NEL             ....  506
 Basis Dimension        Dim             .... 1016

ORBITAL ENERGIES
----------------

  NO   OCC          E(Eh)            E(eV)
   0   2.0000     -88.996934     -2421.7297
   1   2.0000     -88.996854     -2421.7275
   2   2.0000     -88.995989     -2421.7040
   3   2.0000     -88.995864     -2421.7006
   4   2.0000     -88.993630     -2421.6398
   5   2.0000     -88.993286     -2421.6304
   6   2.0000     -24.813671      -675.2143
   7   2.0000     -24.813417      -675.2074
   8   2.0000     -24.808215      -675.0658
   9   2.0000     -24.808103      -675.0628
  10   2.0000     -24.802982      -674.9235
  11   2.0000     -24.802971      -674.9231
  12   2.0000     -24.801712      -674.8889
  13   2.0000     -24.801575      -674.8852
  14   2.0000     -14.436682      -392.8421
  15   2.0000     -14.436590      -392.8396
  16   2.0000     -14.433365      -392.7518
  17   2.0000     -14.433323      -392.7507
  18   2.0000     -14.431756      -392.7080
  19   2.0000     -14.431684      -392.7061
  20   2.0000     -10.387494      -282.6581
  21   2.0000     -10.387455      -282.6570
  22   2.0000     -10.386905      -282.6420
  23   2.0000     -10.386819      -282.6397
  24   2.0000     -10.386759      -282.6381
  25   2.0000     -10.386683      -282.6360
  26   2.0000     -10.386008      -282.6177
  27   2.0000     -10.385979      -282.6168
  28   2.0000     -10.371259      -282.2163
  29   2.0000     -10.367539      -282.1151
  30   2.0000     -10.367508      -282.1142
  31   2.0000     -10.358291      -281.8634
  32   2.0000     -10.354906      -281.7713
  33   2.0000     -10.354878      -281.7706
  34   2.0000     -10.338282      -281.3190
  35   2.0000     -10.338076      -281.3134
  36   2.0000     -10.336960      -281.2830
  37   2.0000     -10.336902      -281.2814
  38   2.0000     -10.335798      -281.2514
  39   2.0000     -10.335766      -281.2505
  40   2.0000     -10.335636      -281.2470
  41   2.0000     -10.335588      -281.2456
  42   2.0000     -10.335528      -281.2440
  43   2.0000     -10.335475      -281.2426
  44   2.0000     -10.335392      -281.2403
  45   2.0000     -10.335304      -281.2379
  46   2.0000     -10.333772      -281.1962
  47   2.0000     -10.333760      -281.1959
  48   2.0000     -10.333222      -281.1813
  49   2.0000     -10.333098      -281.1779
  50   2.0000     -10.332287      -281.1558
  51   2.0000     -10.332282      -281.1557
  52   2.0000     -10.331736      -281.1408
  53   2.0000     -10.331675      -281.1392
  54   2.0000     -10.309523      -280.5364
  55   2.0000     -10.309480      -280.5352
  56   2.0000     -10.309307      -280.5305
  57   2.0000     -10.309283      -280.5298
  58   2.0000     -10.308674      -280.5133
  59   2.0000     -10.308646      -280.5125
  60   2.0000     -10.308337      -280.5041
  61   2.0000     -10.308286      -280.5027
  62   2.0000     -10.306972      -280.4670
  63   2.0000     -10.306903      -280.4651
  64   2.0000     -10.305047      -280.4146
  65   2.0000     -10.304968      -280.4124
  66   2.0000     -10.303810      -280.3809
  67   2.0000     -10.303754      -280.3794
  68   2.0000      -8.091387      -220.1778
  69   2.0000      -8.091326      -220.1762
  70   2.0000      -8.090429      -220.1518
  71   2.0000      -8.090363      -220.1500
  72   2.0000      -8.087932      -220.0838
  73   2.0000      -8.087718      -220.0780
  74   2.0000      -6.060671      -164.9192
  75   2.0000      -6.060647      -164.9186
  76   2.0000      -6.059750      -164.8942
  77   2.0000      -6.059662      -164.8918
  78   2.0000      -6.057172      -164.8240
  79   2.0000      -6.056985      -164.8189
  80   2.0000      -6.056484      -164.8053
  81   2.0000      -6.056452      -164.8044
  82   2.0000      -6.055540      -164.7796
  83   2.0000      -6.055498      -164.7785
  84   2.0000      -6.053616      -164.7273
  85   2.0000      -6.053613      -164.7272
  86   2.0000      -6.052853      -164.7065
  87   2.0000      -6.052694      -164.7022
  88   2.0000      -6.052608      -164.6998
  89   2.0000      -6.052600      -164.6996
  90   2.0000      -6.050422      -164.6404
  91   2.0000      -6.050156      -164.6331
  92   2.0000      -1.333433       -36.2846
  93   2.0000      -1.333245       -36.2794
  94   2.0000      -1.329643       -36.1814
  95   2.0000      -1.329519       -36.1780
  96   2.0000      -1.315326       -35.7918
  97   2.0000      -1.315243       -35.7896
  98   2.0000      -1.312903       -35.7259
  99   2.0000      -1.312815       -35.7235
 100   2.0000      -1.052346       -28.6358
 101   2.0000      -1.048737       -28.5376
 102   2.0000      -1.047351       -28.4999
 103   2.0000      -1.028586       -27.9892
 104   2.0000      -1.025036       -27.8927
 105   2.0000      -1.024624       -27.8814
 106   2.0000      -1.015216       -27.6254
 107   2.0000      -1.013610       -27.5817
 108   2.0000      -1.010435       -27.4953
 109   2.0000      -1.009893       -27.4806
 110   2.0000      -1.007468       -27.4146
 111   2.0000      -1.000580       -27.2272
 112   2.0000      -0.992372       -27.0038
 113   2.0000      -0.987858       -26.8810
 114   2.0000      -0.968299       -26.3488
 115   2.0000      -0.960406       -26.1340
 116   2.0000      -0.957865       -26.0648
 117   2.0000      -0.927424       -25.2365
 118   2.0000      -0.920703       -25.0536
 119   2.0000      -0.911176       -24.7944
 120   2.0000      -0.890896       -24.2425
 121   2.0000      -0.889540       -24.2056
 122   2.0000      -0.876314       -23.8457
 123   2.0000      -0.875495       -23.8234
 124   2.0000      -0.869304       -23.6550
 125   2.0000      -0.865292       -23.5458
 126   2.0000      -0.860566       -23.4172
 127   2.0000      -0.860073       -23.4038
 128   2.0000      -0.857946       -23.3459
 129   2.0000      -0.854621       -23.2554
 130   2.0000      -0.841347       -22.8942
 131   2.0000      -0.817696       -22.2506
 132   2.0000      -0.796380       -21.6706
 133   2.0000      -0.786069       -21.3900
 134   2.0000      -0.784667       -21.3519
 135   2.0000      -0.778377       -21.1807
 136   2.0000      -0.770406       -20.9638
 137   2.0000      -0.753505       -20.5039
 138   2.0000      -0.738665       -20.1001
 139   2.0000      -0.737610       -20.0714
 140   2.0000      -0.731957       -19.9176
 141   2.0000      -0.714988       -19.4558
 142   2.0000      -0.705110       -19.1870
 143   2.0000      -0.704866       -19.1804
 144   2.0000      -0.700145       -19.0519
 145   2.0000      -0.694349       -18.8942
 146   2.0000      -0.688888       -18.7456
 147   2.0000      -0.684858       -18.6359
 148   2.0000      -0.683167       -18.5899
 149   2.0000      -0.676500       -18.4085
 150   2.0000      -0.669491       -18.2178
 151   2.0000      -0.667613       -18.1667
 152   2.0000      -0.663621       -18.0580
 153   2.0000      -0.659900       -17.9568
 154   2.0000      -0.646138       -17.5823
 155   2.0000      -0.644758       -17.5447
 156   2.0000      -0.636729       -17.3263
 157   2.0000      -0.636146       -17.3104
 158   2.0000      -0.631942       -17.1960
 159   2.0000      -0.628345       -17.0981
 160   2.0000      -0.625747       -17.0274
 161   2.0000      -0.625059       -17.0087
 162   2.0000      -0.621845       -16.9213
 163   2.0000      -0.620021       -16.8716
 164   2.0000      -0.615471       -16.7478
 165   2.0000      -0.613931       -16.7059
 166   2.0000      -0.604954       -16.4616
 167   2.0000      -0.603891       -16.4327
 168   2.0000      -0.592859       -16.1325
 169   2.0000      -0.587851       -15.9962
 170   2.0000      -0.583623       -15.8812
 171   2.0000      -0.583173       -15.8689
 172   2.0000      -0.581268       -15.8171
 173   2.0000      -0.571902       -15.5622
 174   2.0000      -0.568181       -15.4610
 175   2.0000      -0.564772       -15.3682
 176   2.0000      -0.561755       -15.2861
 177   2.0000      -0.559736       -15.2312
 178   2.0000      -0.558260       -15.1910
 179   2.0000      -0.555257       -15.1093
 180   2.0000      -0.551455       -15.0059
 181   2.0000      -0.551252       -15.0003
 182   2.0000      -0.550165       -14.9707
 183   2.0000      -0.548519       -14.9260
 184   2.0000      -0.545049       -14.8315
 185   2.0000      -0.542170       -14.7532
 186   2.0000      -0.532204       -14.4820
 187   2.0000      -0.528877       -14.3915
 188   2.0000      -0.522823       -14.2267
 189   2.0000      -0.520544       -14.1647
 190   2.0000      -0.517158       -14.0726
 191   2.0000      -0.514125       -13.9900
 192   2.0000      -0.512482       -13.9454
 193   2.0000      -0.507251       -13.8030
 194   2.0000      -0.505487       -13.7550
 195   2.0000      -0.504749       -13.7349
 196   2.0000      -0.503118       -13.6905
 197   2.0000      -0.502224       -13.6662
 198   2.0000      -0.499164       -13.5829
 199   2.0000      -0.498453       -13.5636
 200   2.0000      -0.497326       -13.5329
 201   2.0000      -0.495362       -13.4795
 202   2.0000      -0.488837       -13.3019
 203   2.0000      -0.487956       -13.2779
 204   2.0000      -0.486955       -13.2507
 205   2.0000      -0.482038       -13.1169
 206   2.0000      -0.475824       -12.9478
 207   2.0000      -0.475218       -12.9313
 208   2.0000      -0.474686       -12.9169
 209   2.0000      -0.470492       -12.8027
 210   2.0000      -0.467640       -12.7251
 211   2.0000      -0.465517       -12.6673
 212   2.0000      -0.463741       -12.6190
 213   2.0000      -0.463629       -12.6160
 214   2.0000      -0.463402       -12.6098
 215   2.0000      -0.460166       -12.5218
 216   2.0000      -0.458956       -12.4888
 217   2.0000      -0.458876       -12.4867
 218   2.0000      -0.453975       -12.3533
 219   2.0000      -0.452590       -12.3156
 220   2.0000      -0.448015       -12.1911
 221   2.0000      -0.446829       -12.1588
 222   2.0000      -0.446689       -12.1550
 223   2.0000      -0.445079       -12.1112
 224   2.0000      -0.443317       -12.0633
 225   2.0000      -0.442759       -12.0481
 226   2.0000      -0.442617       -12.0442
 227   2.0000      -0.440813       -11.9951
 228   2.0000      -0.440467       -11.9857
 229   2.0000      -0.439867       -11.9694
 230   2.0000      -0.439725       -11.9655
 231   2.0000      -0.432069       -11.7572
 232   2.0000      -0.430550       -11.7159
 233   2.0000      -0.427837       -11.6420
 234   2.0000      -0.427602       -11.6356
 235   2.0000      -0.416087       -11.3223
 236   2.0000      -0.411520       -11.1980
 237   2.0000      -0.396746       -10.7960
 238   2.0000      -0.390893       -10.6367
 239   2.0000      -0.377919       -10.2837
 240   2.0000      -0.358807        -9.7636
 241   2.0000      -0.357683        -9.7330
 242   2.0000      -0.352860        -9.6018
 243   2.0000      -0.350070        -9.5259
 244   2.0000      -0.337993        -9.1973
 245   2.0000      -0.327727        -8.9179
 246   2.0000      -0.325915        -8.8686
 247   2.0000      -0.325410        -8.8548
 248   2.0000      -0.325314        -8.8522
 249   2.0000      -0.323583        -8.8051
 250   2.0000      -0.303717        -8.2646
 251   2.0000      -0.272108        -7.4044
 252   2.0000      -0.243826        -6.6348
 253   0.0000      -0.113475        -3.0878
 254   0.0000      -0.106210        -2.8901
 255   0.0000      -0.105899        -2.8816
 256   0.0000      -0.055903        -1.5212
 257   0.0000      -0.043150        -1.1742

MULLIKEN ATOMIC CHARGES
-----------------------
   0 C :   -0.146664
   1 C :    0.250520
   2 F :   -0.171891
   3 C :    0.153472
   4 F :   -0.173928
   5 C :   -0.010484
   6 C :    0.165411
   7 C :    0.249657
   8 F :   -0.170864
   9 F :   -0.163940
  10 C :   -0.102805
  11 C :   -0.019710
  12 C :   -0.002797
  13 C :   -0.098773
  14 S :    0.217938
  15 C :   -0.101866
  16 C :    0.018555
  17 C :    0.300870
  18 C :   -0.295072
  19 C :   -0.189858
  20 N :    0.172106
  21 C :   -0.189887
  22 N :    0.181021
  23 C :   -0.069080
  24 C :   -0.048599
  25 S :    0.196898
  26 C :   -0.050281
  27 C :   -0.066762
  28 C :    0.015567
  29 C :   -0.097640
  30 S :    0.199566
  31 C :   -0.096465
  32 C :    0.014691
  33 C :    0.299031
  34 C :   -0.292883
  35 C :   -0.187203
  36 N :    0.174428
  37 C :   -0.188213
  38 N :    0.172295
  39 C :   -0.066102
  40 C :   -0.051464
  41 S :    0.199788
  42 C :   -0.049116
  43 C :   -0.068751
  44 C :    0.017698
  45 C :   -0.100845
  46 S :    0.196979
  47 C :   -0.098133
  48 C :   -0.003392
  49 C :    0.301702
  50 C :   -0.295109
  51 C :   -0.190082
  52 N :    0.178800
  53 C :   -0.187976
  54 N :    0.172369
  55 C :   -0.019532
  56 C :   -0.103319
  57 S :    0.217234
  58 C :   -0.009521
  59 C :    0.164017
  60 F :   -0.163817
  61 C :    0.252121
  62 F :   -0.170592
  63 C :   -0.151069
  64 C :    0.250838
  65 C :    0.155123
  66 F :   -0.173394
  67 F :   -0.171940
  68 H :    0.019550
  69 H :    0.017831
  70 H :    0.011884
  71 H :    0.010913
  72 H :    0.011716
  73 H :    0.012212
  74 H :    0.016542
  75 H :    0.020477
Sum of atomic charges:   -0.0000000

LOEWDIN ATOMIC CHARGES
----------------------
   0 C :   -0.061095
   1 C :    0.059750
   2 F :   -0.047365
   3 C :    0.046158
   4 F :   -0.051728
   5 C :   -0.076376
   6 C :    0.057559
   7 C :    0.061073
   8 F :   -0.045953
   9 F :   -0.038309
  10 C :   -0.173960
  11 C :   -0.014990
  12 C :   -0.076979
  13 C :   -0.178619
  14 S :    0.500347
  15 C :   -0.182748
  16 C :   -0.063984
  17 C :    0.081853
  18 C :   -0.100494
  19 C :   -0.015827
  20 N :   -0.033429
  21 C :   -0.018658
  22 N :   -0.026802
  23 C :   -0.039861
  24 C :   -0.178682
  25 S :    0.485910
  26 C :   -0.179488
  27 C :   -0.038411
  28 C :   -0.068788
  29 C :   -0.179587
  30 S :    0.488545
  31 C :   -0.179647
  32 C :   -0.068686
  33 C :    0.083053
  34 C :   -0.100384
  35 C :   -0.016272
  36 N :   -0.031512
  37 C :   -0.016200
  38 N :   -0.031500
  39 C :   -0.038523
  40 C :   -0.179499
  41 S :    0.488633
  42 C :   -0.178601
  43 C :   -0.039955
  44 C :   -0.063877
  45 C :   -0.182804
  46 S :    0.486052
  47 C :   -0.178657
  48 C :   -0.077056
  49 C :    0.081855
  50 C :   -0.100383
  51 C :   -0.018711
  52 N :   -0.026727
  53 C :   -0.015740
  54 N :   -0.033471
  55 C :   -0.015030
  56 C :   -0.173838
  57 S :    0.500077
  58 C :   -0.076111
  59 C :    0.057596
  60 F :   -0.038195
  61 C :    0.061123
  62 F :   -0.046020
  63 C :   -0.061391
  64 C :    0.059945
  65 C :    0.045983
  66 F :   -0.051682
  67 F :   -0.047363
  68 H :    0.055414
  69 H :    0.040567
  70 H :    0.035577
  71 H :    0.035735
  72 H :    0.035741
  73 H :    0.035553
  74 H :    0.040327
  75 H :    0.055541

  Mayer bond orders larger than 0.100000
B(  0-C ,  1-C ) :   1.3207 B(  0-C ,  5-C ) :   0.1209 B(  0-C ,  7-C ) :   1.3203
B(  0-C , 68-H ) :   1.0198 B(  1-C ,  2-F ) :   1.1247 B(  1-C ,  3-C ) :   1.3110
B(  3-C ,  4-F ) :   1.1427 B(  3-C ,  5-C ) :   1.2850 B(  5-C ,  6-C ) :   1.2962
B(  5-C , 10-C ) :   1.0546 B(  6-C ,  7-C ) :   1.3074 B(  6-C ,  9-F ) :   1.1507
B(  7-C ,  8-F ) :   1.1238 B( 10-C , 11-C ) :   1.4944 B( 10-C , 14-S ) :   1.1054
B( 11-C , 12-C ) :   1.2872 B( 11-C , 69-H ) :   0.9935 B( 12-C , 13-C ) :   1.4348
B( 12-C , 17-C ) :   1.0016 B( 13-C , 14-S ) :   1.1372 B( 13-C , 15-C ) :   1.1797
B( 15-C , 16-C ) :   1.4587 B( 15-C , 25-S ) :   1.1173 B( 16-C , 17-C ) :   0.9910
B( 16-C , 23-C ) :   1.2987 B( 17-C , 18-C ) :   1.7143 B( 18-C , 19-C ) :   1.1331
B( 18-C , 21-C ) :   1.1327 B( 19-C , 20-N ) :   2.9897 B( 21-C , 22-N ) :   2.9958
B( 23-C , 24-C ) :   1.4576 B( 23-C , 70-H ) :   0.9876 B( 24-C , 25-S ) :   1.1129
B( 24-C , 26-C ) :   1.1655 B( 26-C , 27-C ) :   1.4596 B( 26-C , 30-S ) :   1.1090
B( 27-C , 28-C ) :   1.2986 B( 27-C , 71-H ) :   0.9882 B( 28-C , 29-C ) :   1.4471
B( 28-C , 33-C ) :   0.9938 B( 29-C , 30-S ) :   1.1216 B( 29-C , 31-C ) :   1.1824
B( 31-C , 32-C ) :   1.4473 B( 31-C , 41-S ) :   1.1217 B( 32-C , 33-C ) :   0.9950
B( 32-C , 39-C ) :   1.2991 B( 33-C , 34-C ) :   1.7159 B( 34-C , 35-C ) :   1.1316
B( 34-C , 37-C ) :   1.1317 B( 35-C , 36-N ) :   2.9921 B( 37-C , 38-N ) :   2.9912
B( 39-C , 40-C ) :   1.4594 B( 39-C , 72-H ) :   0.9874 B( 40-C , 41-S ) :   1.1094
B( 40-C , 42-C ) :   1.1680 B( 42-C , 43-C ) :   1.4574 B( 42-C , 46-S ) :   1.1131
B( 43-C , 44-C ) :   1.2991 B( 43-C , 73-H ) :   0.9870 B( 44-C , 45-C ) :   1.4580
B( 44-C , 49-C ) :   0.9914 B( 45-C , 46-S ) :   1.1178 B( 45-C , 47-C ) :   1.1790
B( 47-C , 48-C ) :   1.4345 B( 47-C , 57-S ) :   1.1365 B( 48-C , 49-C ) :   0.9998
B( 48-C , 55-C ) :   1.2860 B( 49-C , 50-C ) :   1.7150 B( 50-C , 51-C ) :   1.1317
B( 50-C , 53-C ) :   1.1328 B( 51-C , 52-N ) :   2.9950 B( 53-C , 54-N ) :   2.9898
B( 55-C , 56-C ) :   1.4938 B( 55-C , 74-H ) :   0.9943 B( 56-C , 57-S ) :   1.1053
B( 56-C , 58-C ) :   1.0555 B( 58-C , 59-C ) :   1.2956 B( 58-C , 63-C ) :   0.1214
B( 58-C , 65-C ) :   1.2839 B( 59-C , 60-F ) :   1.1508 B( 59-C , 61-C ) :   1.3084
B( 61-C , 62-F ) :   1.1241 B( 61-C , 63-C ) :   1.3194 B( 63-C , 64-C ) :   1.3196
B( 63-C , 75-H ) :   1.0208 B( 64-C , 65-C ) :   1.3121 B( 64-C , 67-F ) :   1.1253
B( 65-C , 66-F ) :   1.1432

-----------------------------------------------------------------------------
         ABSORPTION SPECTRUM VIA TRANSITION ELECTRIC DIPOLE MOMENTS
-----------------------------------------------------------------------------
State   Energy  Wavelength   fosc         T2         TX        TY        TZ
        (cm-1)    (nm)                  (au**2)     (au)      (au)      (au)
-----------------------------------------------------------------------------
   0   10987.1    910.2   0.262739103   7.87259  -0.09949   2.69428  -0.77689
   1   12915.1    774.3   0.203842059   5.19604   0.07029  -2.19196   0.62161
   2   13193.6    757.9   0.001318674   0.03290  -0.04191   0.06032   0.16586
   3   20671.6    483.8   0.000891723   0.01420   0.03145  -0.01588  -0.11384
   4   22336.8    447.7   0.543208654   8.00610  -0.10190   2.71778  -0.78062
   5   22890.4    436.9   0.000377248   0.00543  -0.02014   0.06466  -0.02896
   6   25222.3    396.5   2.063352411  26.93174  -0.17750   4.98672  -1.42578
   7   27823.4    359.4   0.217901904   2.57826   0.05890  -1.54246   0.44229
   8   29302.5    341.3   0.106263605   1.19387   0.56548  -0.24884  -0.90121
   9   29773.8    335.9   0.009473984   0.10475  -0.00903   0.30853  -0.09739
  10   29876.2    334.7   0.006248011   0.06885   0.12652  -0.06928  -0.21918
  11   31540.9    317.0   0.007379771   0.07703   0.17896  -0.06396  -0.20226
  12   31917.4    313.3   0.154575871   1.59437   0.14810   1.20010  -0.36359
  13   31991.6    312.6   0.027088393   0.27876  -0.01801  -0.50297  -0.15955
  14   32046.3    312.0   0.012560976   0.12904  -0.10724  -0.27056   0.21057
  15   32254.7    310.0   2.187350603  22.32552   3.26752  -0.87494  -3.29899
  16   32823.2    304.7   0.022529474   0.22597   0.02336  -0.45194   0.14550
  17   33083.0    302.3   0.190934844   1.90001  -0.05993   1.30160  -0.44974
  18   33173.3    301.4   0.011084363   0.11000   0.19114  -0.09131  -0.25520
  19   33738.1    296.4   0.074291923   0.72493   0.51661  -0.15527  -0.65874
  20   34175.1    292.6   0.745912387   7.18543   0.07797  -2.58786   0.69450
  21   34212.5    292.3   0.001302682   0.01254  -0.06440   0.02880   0.08694
  22   34771.5    287.6   0.003077212   0.02913   0.16130  -0.01973  -0.05223
  23   35065.4    285.2   0.045208799   0.42444   0.00444  -0.62819   0.17264
  24   35202.4    284.1   0.002279486   0.02132   0.13612  -0.02941  -0.04387
  25   35734.5    279.8   0.011346230   0.10453  -0.01871   0.30874  -0.09411
  26   36730.0    272.3   0.000283751   0.00254   0.04131   0.01175   0.02643
  27   36816.7    271.6   0.006550279   0.05857  -0.00916   0.23271  -0.06584
  28   37310.5    268.0   0.000578742   0.00511   0.06944  -0.00505  -0.01612
  29   38187.5    261.9   0.334348981   2.88240   0.02842  -1.64291   0.42713
  30   38580.6    259.2   0.000755804   0.00645   0.07506   0.01599  -0.02367
  31   38621.7    258.9   0.011388423   0.09708  -0.28147   0.03375   0.12928
  32   39048.3    256.1   0.000247841   0.00209   0.00196   0.04537  -0.00523
  33   39286.2    254.5   0.037755314   0.31638   0.40586  -0.09167  -0.37850
  34   39858.7    250.9   0.016813448   0.13887   0.00381   0.35894  -0.10010
  35   39887.6    250.7   0.005251067   0.04334   0.02716  -0.20305   0.03706

FINAL SINGLE POINT ENERGY     -5345.832500110995

DIPOLE MOMENT
-------------
                                X             Y             Z
Electronic contribution:      6.63460      -1.00842      -4.21499
Nuclear contribution   :     -5.29422       0.68264       2.93053
                        -----------------------------------------
Total Dipole Moment    :      1.34038      -0.32578      -1.28446
                        -----------------------------------------
Magnitude (a.u.)       :      1.88483
Magnitude (Debye)      :      4.79085

Rotational constants in cm-1:     0.003055     0.000193     0.000182
Rotational constants in MHz :    91.581649     5.774782     5.458364

                             ****ORCA TERMINATED NORMALLY****
TOTAL RUN TIME: 0 days 0 hours 6 minutes 18 seconds 647 msec
