                         Program Version 4.2.0 -  RELEASE  -
|  1> # ORCA input file
|  2> # SCF done       -173.944212648215          0.000848490560
|  3> ! CAM-B3LYP def2-SVP def2/J RIJCOSX Grid4 TightSCF
|  4> %maxcore 5000
|  5> %tddft
|  6>     Mode sTDDFT
|  7>     Ethresh 5.0
|  8>     maxcore 5000
|  9> end
| 10>
| 11> %pal
| 12>   nprocs 6
| 13>   end
| 14> * xyz 0 1
| 15>    C       -1.89094         1.78201         2.57329
| 16>    C       -2.23129         1.29022         1.32591
| 17>    F       -2.64274         2.13881         0.37776
| 18>    C       -2.14293        -0.06473         1.03927
| 19>    F       -2.44902        -0.47903        -0.19864
| 20>    C       -1.70635        -0.99161         1.99578
| 21>    C       -1.37171        -0.47386         3.25533
| 22>    C       -1.46017         0.88262         3.53223
| 23>    F       -1.12941         1.33005         4.74909
| 24>    F       -0.97966        -1.30302         4.23621
| 25>    C       -1.59336        -2.41709         1.70758
| 26>    C       -0.55709        -3.17137         2.18118
| 27>    C       -0.37623        -4.53200         1.91107
| 28>    C       -1.26388        -5.24167         0.97797
| 29>    C       -2.37221        -4.69548         0.43174
| 30>    S       -2.88521        -3.08715         0.71822
| 31>    C       -0.68541        -6.52859         0.81433
| 32>    C        0.47636        -6.62071         1.58375
| 33>    C        1.09568        -7.88433         1.46587
| 34>    C        0.40632        -8.69953         0.62576
| 35>    S       -1.01582        -7.97732        -0.04970
| 36>    C        0.66393        -5.38729         2.29914
| 37>    C        1.71608        -5.15215         3.22701
| 38>    C        1.64528        -4.31748         4.29288
| 39>    C        2.72458        -4.06423         5.18115
| 40>    C        4.07516        -4.31506         5.00255
| 41>    C        4.83655        -3.89498         6.09137
| 42>    C        4.06194        -3.33623         7.12283
| 43>    S        2.39931        -3.30214         6.73250
| 44>    C        4.92982        -2.93602         8.16996
| 45>    C        6.25339        -3.21364         7.78802
| 46>    C        6.23871        -3.83569         6.47576
| 47>    C        7.31150        -4.27372         5.75491
| 48>    C        7.16659        -4.88131         4.49081
| 49>    N        7.05103        -5.37742         3.46335
| 50>    C        8.63444        -4.15052         6.22741
| 51>    N        9.71143        -4.05059         6.60853
| 52>    C        7.18973        -2.82963         8.74884
| 53>    C        6.59335        -2.28616         9.86943
| 54>    S        4.83692        -2.24135         9.72656
| 55>    C        7.23638        -1.78349        11.04129
| 56>    C        6.56701        -1.54864        12.21519
| 57>    C        7.14908        -1.04711        13.38240
| 58>    C        8.54181        -0.57044        13.36951
| 59>    C        9.39009        -0.73394        12.33128
| 60>    S        8.96153        -1.49222        10.85528
| 61>    C        8.75187         0.02647        14.64176
| 62>    C        7.59352        -0.09351        15.40864
| 63>    C        7.74469         0.46839        16.69525
| 64>    C        8.98634         0.99319        16.86559
| 65>    S       10.02017         0.82290        15.48627
| 66>    C        6.59337        -0.79814        14.64797
| 67>    C        5.34443        -1.18118        15.20890
| 68>    C        4.54931        -2.17517        14.74923
| 69>    C        3.30668        -2.63478        15.31189
| 70>    C        2.62406        -3.67865        14.65770
| 71>    F        3.14489        -4.18189        13.52309
| 72>    C        1.43722        -4.20521        15.13498
| 73>    F        0.83353        -5.20087        14.47012
| 74>    C        0.85950        -3.71898        16.29541
| 75>    C        1.50648        -2.68975        16.95548
| 76>    C        2.69577        -2.15584        16.48279
| 77>    F        3.25778        -1.16162        17.19153
| 78>    F        0.96930        -2.19999        18.08245
| 79>    H       -1.95898         2.83437         2.79127
| 80>    H        0.21432        -2.67072         2.74758
| 81>    H       -3.02424        -5.24266        -0.23089
| 82>    H        1.99907        -8.17737         1.96900
| 83>    H        0.64284        -9.70819         0.34843
| 84>    H        2.61104        -5.74275         3.08119
| 85>    H        0.70787        -3.83885         4.53970
| 86>    H        4.47672        -4.75773         4.10996
| 87>    H        8.25401        -2.94746         8.65189
| 88>    H        5.50528        -1.75333        12.21124
| 89>    H       10.41754        -0.40750        12.36527
| 90>    H        6.98296         0.48970        17.45327
| 91>    H        9.37844         1.48376        17.73501
| 92>    H        5.08200        -0.64924        16.11079
| 93>    H        4.87188        -2.73967        13.88776
| 94>    H       -0.06206        -4.12810        16.67210
| 95> *
| 96>
| 97>                          ****END OF INPUT****

CARTESIAN COORDINATES (ANGSTROEM)
---------------------------------
  C     -1.890940    1.782010    2.573290
  C     -2.231290    1.290220    1.325910
  F     -2.642740    2.138810    0.377760
  C     -2.142930   -0.064730    1.039270
  F     -2.449020   -0.479030   -0.198640
  C     -1.706350   -0.991610    1.995780
  C     -1.371710   -0.473860    3.255330
  C     -1.460170    0.882620    3.532230
  F     -1.129410    1.330050    4.749090
  F     -0.979660   -1.303020    4.236210
  C     -1.593360   -2.417090    1.707580
  C     -0.557090   -3.171370    2.181180
  C     -0.376230   -4.532000    1.911070
  C     -1.263880   -5.241670    0.977970
  C     -2.372210   -4.695480    0.431740
  S     -2.885210   -3.087150    0.718220
  C     -0.685410   -6.528590    0.814330
  C      0.476360   -6.620710    1.583750
  C      1.095680   -7.884330    1.465870
  C      0.406320   -8.699530    0.625760
  S     -1.015820   -7.977320   -0.049700
  C      0.663930   -5.387290    2.299140
  C      1.716080   -5.152150    3.227010
  C      1.645280   -4.317480    4.292880
  C      2.724580   -4.064230    5.181150
  C      4.075160   -4.315060    5.002550
  C      4.836550   -3.894980    6.091370
  C      4.061940   -3.336230    7.122830
  S      2.399310   -3.302140    6.732500
  C      4.929820   -2.936020    8.169960
  C      6.253390   -3.213640    7.788020
  C      6.238710   -3.835690    6.475760
  C      7.311500   -4.273720    5.754910
  C      7.166590   -4.881310    4.490810
  N      7.051030   -5.377420    3.463350
  C      8.634440   -4.150520    6.227410
  N      9.711430   -4.050590    6.608530
  C      7.189730   -2.829630    8.748840
  C      6.593350   -2.286160    9.869430
  S      4.836920   -2.241350    9.726560
  C      7.236380   -1.783490   11.041290
  C      6.567010   -1.548640   12.215190
  C      7.149080   -1.047110   13.382400
  C      8.541810   -0.570440   13.369510
  C      9.390090   -0.733940   12.331280
  S      8.961530   -1.492220   10.855280
  C      8.751870    0.026470   14.641760
  C      7.593520   -0.093510   15.408640
  C      7.744690    0.468390   16.695250
  C      8.986340    0.993190   16.865590
  S     10.020170    0.822900   15.486270
  C      6.593370   -0.798140   14.647970
  C      5.344430   -1.181180   15.208900
  C      4.549310   -2.175170   14.749230
  C      3.306680   -2.634780   15.311890
  C      2.624060   -3.678650   14.657700
  F      3.144890   -4.181890   13.523090
  C      1.437220   -4.205210   15.134980
  F      0.833530   -5.200870   14.470120
  C      0.859500   -3.718980   16.295410
  C      1.506480   -2.689750   16.955480
  C      2.695770   -2.155840   16.482790
  F      3.257780   -1.161620   17.191530
  F      0.969300   -2.199990   18.082450
  H     -1.958980    2.834370    2.791270
  H      0.214320   -2.670720    2.747580
  H     -3.024240   -5.242660   -0.230890
  H      1.999070   -8.177370    1.969000
  H      0.642840   -9.708190    0.348430
  H      2.611040   -5.742750    3.081190
  H      0.707870   -3.838850    4.539700
  H      4.476720   -4.757730    4.109960
  H      8.254010   -2.947460    8.651890
  H      5.505280   -1.753330   12.211240
  H     10.417540   -0.407500   12.365270
  H      6.982960    0.489700   17.453270
  H      9.378440    1.483760   17.735010
  H      5.082000   -0.649240   16.110790
  H      4.871880   -2.739670   13.887760
  H     -0.062060   -4.128100   16.672100

 Total Charge           Charge          ....    0
 Multiplicity           Mult            ....    1
 Number of Electrons    NEL             ....  486
 Basis Dimension        Dim             .... 1000

ORBITAL ENERGIES
----------------

  NO   OCC          E(Eh)            E(eV)
   0   2.0000     -88.985088     -2421.4073
   1   2.0000     -88.979816     -2421.2639
   2   2.0000     -88.974457     -2421.1181
   3   2.0000     -88.974286     -2421.1134
   4   2.0000     -88.954219     -2420.5673
   5   2.0000     -88.952855     -2420.5302
   6   2.0000     -24.807988      -675.0597
   7   2.0000     -24.804357      -674.9609
   8   2.0000     -24.801292      -674.8775
   9   2.0000     -24.800754      -674.8628
  10   2.0000     -24.794259      -674.6861
  11   2.0000     -24.792099      -674.6273
  12   2.0000     -24.788630      -674.5329
  13   2.0000     -24.788097      -674.5184
  14   2.0000     -14.425643      -392.5417
  15   2.0000     -14.425488      -392.5375
  16   2.0000     -10.385477      -282.6032
  17   2.0000     -10.384797      -282.5847
  18   2.0000     -10.384679      -282.5815
  19   2.0000     -10.384247      -282.5697
  20   2.0000     -10.370549      -282.1970
  21   2.0000     -10.370469      -282.1948
  22   2.0000     -10.368978      -282.1542
  23   2.0000     -10.367464      -282.1130
  24   2.0000     -10.358586      -281.8715
  25   2.0000     -10.346166      -281.5335
  26   2.0000     -10.328321      -281.0479
  27   2.0000     -10.327337      -281.0211
  28   2.0000     -10.327292      -281.0199
  29   2.0000     -10.327123      -281.0153
  30   2.0000     -10.326872      -281.0085
  31   2.0000     -10.326215      -280.9906
  32   2.0000     -10.326191      -280.9899
  33   2.0000     -10.325442      -280.9696
  34   2.0000     -10.321441      -280.8607
  35   2.0000     -10.321242      -280.8553
  36   2.0000     -10.313796      -280.6526
  37   2.0000     -10.308555      -280.5100
  38   2.0000     -10.308500      -280.5086
  39   2.0000     -10.298032      -280.2237
  40   2.0000     -10.296232      -280.1747
  41   2.0000     -10.296154      -280.1726
  42   2.0000     -10.295633      -280.1584
  43   2.0000     -10.295604      -280.1576
  44   2.0000     -10.295508      -280.1550
  45   2.0000     -10.294618      -280.1308
  46   2.0000     -10.294470      -280.1268
  47   2.0000     -10.293887      -280.1109
  48   2.0000     -10.293006      -280.0869
  49   2.0000     -10.289415      -279.9892
  50   2.0000     -10.284761      -279.8626
  51   2.0000     -10.284481      -279.8550
  52   2.0000     -10.283293      -279.8226
  53   2.0000     -10.283115      -279.8178
  54   2.0000     -10.282201      -279.7929
  55   2.0000     -10.282020      -279.7880
  56   2.0000     -10.279319      -279.7145
  57   2.0000     -10.276357      -279.6339
  58   2.0000     -10.274947      -279.5955
  59   2.0000     -10.272725      -279.5351
  60   2.0000     -10.271113      -279.4912
  61   2.0000     -10.271064      -279.4899
  62   2.0000     -10.270881      -279.4849
  63   2.0000     -10.268869      -279.4301
  64   2.0000      -8.079450      -219.8530
  65   2.0000      -8.074606      -219.7212
  66   2.0000      -8.069860      -219.5920
  67   2.0000      -8.069567      -219.5841
  68   2.0000      -8.049699      -219.0434
  69   2.0000      -8.048185      -219.0022
  70   2.0000      -6.048729      -164.5943
  71   2.0000      -6.044627      -164.4827
  72   2.0000      -6.043761      -164.4591
  73   2.0000      -6.041713      -164.4034
  74   2.0000      -6.039683      -164.3481
  75   2.0000      -6.039443      -164.3416
  76   2.0000      -6.039204      -164.3351
  77   2.0000      -6.037050      -164.2765
  78   2.0000      -6.034793      -164.2151
  79   2.0000      -6.034609      -164.2101
  80   2.0000      -6.031727      -164.1316
  81   2.0000      -6.031349      -164.1214
  82   2.0000      -6.019166      -163.7898
  83   2.0000      -6.017636      -163.7482
  84   2.0000      -6.014917      -163.6742
  85   2.0000      -6.013411      -163.6332
  86   2.0000      -6.011662      -163.5856
  87   2.0000      -6.010199      -163.5458
  88   2.0000      -1.328375       -36.1469
  89   2.0000      -1.326842       -36.1052
  90   2.0000      -1.314428       -35.7674
  91   2.0000      -1.312524       -35.7156
  92   2.0000      -1.311873       -35.6979
  93   2.0000      -1.310830       -35.6695
  94   2.0000      -1.297559       -35.3084
  95   2.0000      -1.296962       -35.2921
  96   2.0000      -1.037607       -28.2347
  97   2.0000      -1.017039       -27.6750
  98   2.0000      -1.006528       -27.3890
  99   2.0000      -1.004243       -27.3269
 100   2.0000      -1.003126       -27.2964
 101   2.0000      -0.995578       -27.0910
 102   2.0000      -0.991780       -26.9877
 103   2.0000      -0.978626       -26.6298
 104   2.0000      -0.968537       -26.3552
 105   2.0000      -0.967810       -26.3355
 106   2.0000      -0.950987       -25.8777
 107   2.0000      -0.928897       -25.2766
 108   2.0000      -0.925941       -25.1961
 109   2.0000      -0.913091       -24.8465
 110   2.0000      -0.905673       -24.6446
 111   2.0000      -0.897923       -24.4337
 112   2.0000      -0.886385       -24.1198
 113   2.0000      -0.875325       -23.8188
 114   2.0000      -0.863071       -23.4854
 115   2.0000      -0.859312       -23.3831
 116   2.0000      -0.857679       -23.3386
 117   2.0000      -0.854047       -23.2398
 118   2.0000      -0.845502       -23.0073
 119   2.0000      -0.843823       -22.9616
 120   2.0000      -0.840968       -22.8839
 121   2.0000      -0.829488       -22.5715
 122   2.0000      -0.813946       -22.1486
 123   2.0000      -0.806406       -21.9434
 124   2.0000      -0.794652       -21.6236
 125   2.0000      -0.784932       -21.3591
 126   2.0000      -0.772208       -21.0128
 127   2.0000      -0.768777       -20.9195
 128   2.0000      -0.755574       -20.5602
 129   2.0000      -0.747044       -20.3281
 130   2.0000      -0.740008       -20.1366
 131   2.0000      -0.730612       -19.8810
 132   2.0000      -0.720990       -19.6191
 133   2.0000      -0.714614       -19.4456
 134   2.0000      -0.710881       -19.3440
 135   2.0000      -0.706695       -19.2301
 136   2.0000      -0.693470       -18.8703
 137   2.0000      -0.683747       -18.6057
 138   2.0000      -0.674537       -18.3551
 139   2.0000      -0.671861       -18.2823
 140   2.0000      -0.669321       -18.2132
 141   2.0000      -0.662359       -18.0237
 142   2.0000      -0.656457       -17.8631
 143   2.0000      -0.655517       -17.8375
 144   2.0000      -0.652192       -17.7470
 145   2.0000      -0.647836       -17.6285
 146   2.0000      -0.642442       -17.4817
 147   2.0000      -0.640539       -17.4299
 148   2.0000      -0.626723       -17.0540
 149   2.0000      -0.625680       -17.0256
 150   2.0000      -0.623674       -16.9710
 151   2.0000      -0.621872       -16.9220
 152   2.0000      -0.616361       -16.7720
 153   2.0000      -0.609362       -16.5816
 154   2.0000      -0.608053       -16.5460
 155   2.0000      -0.604102       -16.4385
 156   2.0000      -0.602159       -16.3856
 157   2.0000      -0.594788       -16.1850
 158   2.0000      -0.590944       -16.0804
 159   2.0000      -0.587647       -15.9907
 160   2.0000      -0.586811       -15.9679
 161   2.0000      -0.585647       -15.9363
 162   2.0000      -0.581540       -15.8245
 163   2.0000      -0.576738       -15.6938
 164   2.0000      -0.566765       -15.4225
 165   2.0000      -0.564535       -15.3618
 166   2.0000      -0.562735       -15.3128
 167   2.0000      -0.559892       -15.2354
 168   2.0000      -0.557700       -15.1758
 169   2.0000      -0.557093       -15.1593
 170   2.0000      -0.551746       -15.0138
 171   2.0000      -0.548433       -14.9236
 172   2.0000      -0.547001       -14.8847
 173   2.0000      -0.542501       -14.7622
 174   2.0000      -0.542157       -14.7528
 175   2.0000      -0.540453       -14.7065
 176   2.0000      -0.538259       -14.6468
 177   2.0000      -0.535793       -14.5797
 178   2.0000      -0.532895       -14.5008
 179   2.0000      -0.526760       -14.3339
 180   2.0000      -0.522692       -14.2232
 181   2.0000      -0.513612       -13.9761
 182   2.0000      -0.512579       -13.9480
 183   2.0000      -0.510501       -13.8914
 184   2.0000      -0.509899       -13.8751
 185   2.0000      -0.507052       -13.7976
 186   2.0000      -0.506518       -13.7831
 187   2.0000      -0.502650       -13.6778
 188   2.0000      -0.498606       -13.5678
 189   2.0000      -0.497787       -13.5455
 190   2.0000      -0.494258       -13.4495
 191   2.0000      -0.487837       -13.2747
 192   2.0000      -0.486341       -13.2340
 193   2.0000      -0.482489       -13.1292
 194   2.0000      -0.478469       -13.0198
 195   2.0000      -0.475065       -12.9272
 196   2.0000      -0.473230       -12.8772
 197   2.0000      -0.469977       -12.7887
 198   2.0000      -0.469085       -12.7644
 199   2.0000      -0.463575       -12.6145
 200   2.0000      -0.460465       -12.5299
 201   2.0000      -0.458344       -12.4722
 202   2.0000      -0.457509       -12.4494
 203   2.0000      -0.457262       -12.4427
 204   2.0000      -0.453899       -12.3512
 205   2.0000      -0.452650       -12.3172
 206   2.0000      -0.449552       -12.2329
 207   2.0000      -0.445981       -12.1358
 208   2.0000      -0.444577       -12.0976
 209   2.0000      -0.441808       -12.0222
 210   2.0000      -0.441297       -12.0083
 211   2.0000      -0.436890       -11.8884
 212   2.0000      -0.435946       -11.8627
 213   2.0000      -0.434686       -11.8284
 214   2.0000      -0.432380       -11.7657
 215   2.0000      -0.429081       -11.6759
 216   2.0000      -0.427274       -11.6267
 217   2.0000      -0.424679       -11.5561
 218   2.0000      -0.421393       -11.4667
 219   2.0000      -0.418404       -11.3854
 220   2.0000      -0.415464       -11.3053
 221   2.0000      -0.412317       -11.2197
 222   2.0000      -0.410262       -11.1638
 223   2.0000      -0.404894       -11.0177
 224   2.0000      -0.404273       -11.0008
 225   2.0000      -0.392288       -10.6747
 226   2.0000      -0.390782       -10.6337
 227   2.0000      -0.378173       -10.2906
 228   2.0000      -0.375740       -10.2244
 229   2.0000      -0.345789        -9.4094
 230   2.0000      -0.342533        -9.3208
 231   2.0000      -0.339375        -9.2349
 232   2.0000      -0.335902        -9.1404
 233   2.0000      -0.324878        -8.8404
 234   2.0000      -0.323441        -8.8013
 235   2.0000      -0.315559        -8.5868
 236   2.0000      -0.310526        -8.4498
 237   2.0000      -0.308255        -8.3880
 238   2.0000      -0.287769        -7.8306
 239   2.0000      -0.277558        -7.5527
 240   2.0000      -0.266286        -7.2460
 241   2.0000      -0.237271        -6.4565
 242   2.0000      -0.220925        -6.0117
 243   0.0000      -0.099223        -2.7000
 244   0.0000      -0.065369        -1.7788
 245   0.0000      -0.056457        -1.5363
 246   0.0000      -0.027559        -0.7499
 247   0.0000      -0.025606        -0.6968

MULLIKEN ATOMIC CHARGES
-----------------------
   0 C :   -0.153563
   1 C :    0.253905
   2 F :   -0.171880
   3 C :    0.172322
   4 F :   -0.165701
   5 C :   -0.054425
   6 C :    0.173518
   7 C :    0.250555
   8 F :   -0.173861
   9 F :   -0.171151
  10 C :   -0.113048
  11 C :   -0.002065
  12 C :    0.017340
  13 C :    0.065638
  14 C :   -0.137028
  15 S :    0.163892
  16 C :   -0.107985
  17 C :    0.053775
  18 C :    0.010435
  19 C :   -0.068875
  20 S :    0.126648
  21 C :    0.071232
  22 C :   -0.030009
  23 C :    0.018021
  24 C :   -0.084370
  25 C :   -0.035016
  26 C :    0.001453
  27 C :   -0.108627
  28 S :    0.190993
  29 C :   -0.095588
  30 C :    0.006341
  31 C :    0.307478
  32 C :   -0.299600
  33 C :   -0.185855
  34 N :    0.168230
  35 C :   -0.187969
  36 N :    0.168505
  37 C :   -0.051597
  38 C :   -0.065642
  39 S :    0.180852
  40 C :   -0.034320
  41 C :   -0.088595
  42 C :    0.050073
  43 C :    0.054580
  44 C :   -0.122118
  45 S :    0.133771
  46 C :   -0.109055
  47 C :    0.050344
  48 C :    0.005072
  49 C :   -0.069278
  50 S :    0.125521
  51 C :    0.067542
  52 C :    0.008087
  53 C :   -0.056515
  54 C :   -0.023510
  55 C :    0.167351
  56 F :   -0.182182
  57 C :    0.249698
  58 F :   -0.180150
  59 C :   -0.158528
  60 C :    0.251772
  61 C :    0.168313
  62 F :   -0.177869
  63 F :   -0.180387
  64 H :    0.020095
  65 H :   -0.003086
  66 H :    0.037615
  67 H :   -0.015717
  68 H :    0.026703
  69 H :   -0.006531
  70 H :   -0.008096
  71 H :    0.004758
  72 H :    0.017893
  73 H :   -0.005800
  74 H :    0.037872
  75 H :   -0.012944
  76 H :    0.025772
  77 H :   -0.008068
  78 H :   -0.008499
  79 H :    0.011140
Sum of atomic charges:   -0.0000000

LOEWDIN ATOMIC CHARGES
----------------------
   0 C :   -0.060098
   1 C :    0.059441
   2 F :   -0.048000
   3 C :    0.048610
   4 F :   -0.048801
   5 C :   -0.078717
   6 C :    0.057140
   7 C :    0.059038
   8 F :   -0.049463
   9 F :   -0.047496
  10 C :   -0.182288
  11 C :   -0.004961
  12 C :   -0.027130
  13 C :   -0.050319
  14 C :   -0.140552
  15 S :    0.465886
  16 C :   -0.203386
  17 C :   -0.040757
  18 C :   -0.062728
  19 C :   -0.164413
  20 S :    0.419408
  21 C :   -0.048852
  22 C :   -0.005134
  23 C :   -0.058484
  24 C :   -0.158275
  25 C :   -0.035262
  26 C :   -0.066495
  27 C :   -0.193569
  28 S :    0.474717
  29 C :   -0.172336
  30 C :   -0.075726
  31 C :    0.085240
  32 C :   -0.105681
  33 C :   -0.015591
  34 N :   -0.037016
  35 C :   -0.016264
  36 N :   -0.035999
  37 C :   -0.039756
  38 C :   -0.184383
  39 S :    0.479019
  40 C :   -0.178873
  41 C :   -0.035914
  42 C :   -0.016602
  43 C :   -0.046818
  44 C :   -0.140219
  45 S :    0.461439
  46 C :   -0.206519
  47 C :   -0.038463
  48 C :   -0.064366
  49 C :   -0.165231
  50 S :    0.418906
  51 C :   -0.056440
  52 C :    0.006518
  53 C :   -0.049491
  54 C :   -0.056796
  55 C :    0.052594
  56 F :   -0.056589
  57 C :    0.056448
  58 F :   -0.055283
  59 C :   -0.069980
  60 C :    0.058217
  61 C :    0.054170
  62 F :   -0.049120
  63 F :   -0.055413
  64 H :    0.055142
  65 H :    0.037611
  66 H :    0.036931
  67 H :    0.031340
  68 H :    0.023447
  69 H :    0.031515
  70 H :    0.028313
  71 H :    0.037995
  72 H :    0.034957
  73 H :    0.028038
  74 H :    0.037412
  75 H :    0.031461
  76 H :    0.022997
  77 H :    0.027235
  78 H :    0.027248
  79 H :    0.051616

  Mayer bond orders larger than 0.100000
B(  0-C ,  1-C ) :   1.3179 B(  0-C ,  5-C ) :   0.1179 B(  0-C ,  7-C ) :   1.3171
B(  0-C , 64-H ) :   1.0203 B(  1-C ,  2-F ) :   1.1263 B(  1-C ,  3-C ) :   1.3034
B(  3-C ,  4-F ) :   1.1643 B(  3-C ,  5-C ) :   1.3005 B(  5-C ,  6-C ) :   1.3219
B(  5-C , 10-C ) :   1.0009 B(  6-C ,  7-C ) :   1.3082 B(  6-C ,  9-F ) :   1.1420
B(  7-C ,  8-F ) :   1.1238 B( 10-C , 11-C ) :   1.5838 B( 10-C , 15-S ) :   1.0604
B( 11-C , 12-C ) :   1.2319 B( 11-C , 65-H ) :   0.9671 B( 12-C , 13-C ) :   1.0517
B( 12-C , 21-C ) :   1.4144 B( 13-C , 14-C ) :   1.5941 B( 13-C , 16-C ) :   1.1857
B( 14-C , 15-S ) :   1.1559 B( 14-C , 66-H ) :   0.9418 B( 16-C , 17-C ) :   1.4366
B( 16-C , 20-S ) :   1.0739 B( 17-C , 18-C ) :   1.2182 B( 17-C , 21-C ) :   1.1099
B( 18-C , 19-C ) :   1.5871 B( 18-C , 67-H ) :   0.9992 B( 19-C , 20-S ) :   1.1535
B( 19-C , 68-H ) :   0.9663 B( 21-C , 22-C ) :   1.1293 B( 22-C , 23-C ) :   1.6783
B( 22-C , 69-H ) :   0.9604 B( 23-C , 24-C ) :   1.1129 B( 23-C , 70-H ) :   0.9616
B( 24-C , 25-C ) :   1.4562 B( 24-C , 28-S ) :   1.1096 B( 25-C , 26-C ) :   1.2991
B( 25-C , 71-H ) :   0.9905 B( 26-C , 27-C ) :   1.4384 B( 26-C , 31-C ) :   0.9970
B( 27-C , 28-S ) :   1.1154 B( 27-C , 29-C ) :   1.1895 B( 29-C , 30-C ) :   1.4447
B( 29-C , 39-S ) :   1.1282 B( 30-C , 31-C ) :   1.0018 B( 30-C , 37-C ) :   1.2934
B( 31-C , 32-C ) :   1.7073 B( 32-C , 33-C ) :   1.1330 B( 32-C , 35-C ) :   1.1321
B( 33-C , 34-N ) :   2.9905 B( 35-C , 36-N ) :   2.9914 B( 37-C , 38-C ) :   1.4680
B( 37-C , 72-H ) :   0.9822 B( 38-C , 39-S ) :   1.1006 B( 38-C , 40-C ) :   1.1416
B( 40-C , 41-C ) :   1.5330 B( 40-C , 45-S ) :   1.0626 B( 41-C , 42-C ) :   1.2314
B( 41-C , 73-H ) :   0.9601 B( 42-C , 43-C ) :   1.0562 B( 42-C , 51-C ) :   1.3999
B( 43-C , 44-C ) :   1.6107 B( 43-C , 46-C ) :   1.1792 B( 44-C , 45-S ) :   1.1363
B( 44-C , 74-H ) :   0.9407 B( 46-C , 47-C ) :   1.4437 B( 46-C , 50-S ) :   1.0723
B( 47-C , 48-C ) :   1.2216 B( 47-C , 51-C ) :   1.1003 B( 48-C , 49-C ) :   1.5840
B( 48-C , 75-H ) :   0.9977 B( 49-C , 50-S ) :   1.1556 B( 49-C , 76-H ) :   0.9660
B( 51-C , 52-C ) :   1.1386 B( 52-C , 53-C ) :   1.6395 B( 52-C , 77-H ) :   0.9599
B( 53-C , 54-C ) :   1.1207 B( 53-C , 78-H ) :   0.9740 B( 54-C , 55-C ) :   1.2786
B( 54-C , 59-C ) :   0.1206 B( 54-C , 61-C ) :   1.2599 B( 55-C , 56-F ) :   1.1265
B( 55-C , 57-C ) :   1.3182 B( 57-C , 58-F ) :   1.1207 B( 57-C , 59-C ) :   1.3090
B( 59-C , 60-C ) :   1.3211 B( 59-C , 79-H ) :   1.0186 B( 60-C , 61-C ) :   1.3223
B( 60-C , 63-F ) :   1.1151 B( 61-C , 62-F ) :   1.1161

-----------------------------------------------------------------------------
         ABSORPTION SPECTRUM VIA TRANSITION ELECTRIC DIPOLE MOMENTS
-----------------------------------------------------------------------------
State   Energy  Wavelength   fosc         T2         TX        TY        TZ
        (cm-1)    (nm)                  (au**2)     (au)      (au)      (au)
-----------------------------------------------------------------------------
   0    9945.0   1005.5   0.150680413   4.98801   1.17141   0.37188   1.86481
   1   16183.9    617.9   0.018283908   0.37193   0.60178  -0.09014  -0.04075
   2   18640.2    536.5   0.855381425  15.10722   0.99005   0.04218   3.75836
   3   20662.0    484.0   0.268255929   4.27418  -1.88215   0.84966  -0.09876
   4   21500.1    465.1   0.171437469   2.62507   1.45830  -0.51288   0.48517
   5   23711.6    421.7   0.237512200   3.29763   0.71711   0.53315   1.58086
   6   24577.5    406.9   0.220208161   2.94966   1.27452  -0.81627  -0.81176
   7   25626.9    390.2   0.097429770   1.25162   1.03069   0.31024  -0.30502
   8   26244.5    381.0   0.003786358   0.04750  -0.21421   0.00356   0.03995
   9   27212.4    367.5   0.331333223   4.00843  -1.54655  -1.14395  -0.55497
  10   27825.1    359.4   0.200424588   2.37131  -1.07105  -1.09854   0.13175
  11   29248.3    341.9   0.115009522   1.29452  -0.15515  -0.47715  -1.02116
  12   30232.0    330.8   0.085119174   0.92691   0.59187   0.46931  -0.59694
  13   30525.3    327.6   0.749989074   8.08855   2.57632   0.91537   0.78310
  14   31195.1    320.6   0.365509263   3.85733  -0.46467   1.12675   1.54008
  15   31703.3    315.4   0.416764819   4.32775  -1.68165   0.35688   1.17152
  16   32430.0    308.4   0.298551184   3.03073   0.36440   0.67600   1.56236
  17   32829.6    304.6   0.208344512   2.08926   0.11273  -0.48720  -1.35617
  18   33702.1    296.7   0.087675324   0.85644  -0.72566  -0.42165  -0.38997
  19   33989.1    294.2   0.044340206   0.42947   0.53583   0.37666  -0.02202
  20   34189.7    292.5   0.045651458   0.43958   0.10738   0.36515   0.54287
  21   34808.3    287.3   0.012574834   0.11893   0.16743  -0.05199  -0.29698
  22   35002.7    285.7   0.121469718   1.14246   0.37604   0.69364   0.72105
  23   35103.2    284.9   0.065374437   0.61311   0.60526  -0.43326   0.24301
  24   37004.0    270.2   0.142120189   1.26439   0.60350   0.02042  -0.94856
  25   37174.6    269.0   0.025563238   0.22638  -0.37228  -0.09299  -0.28133
  26   37408.8    267.3   0.316766007   2.78766   1.33725   0.90451   0.42577
  27   37786.1    264.6   0.140190715   1.22142   0.37227   1.04043  -0.01826
  28   37929.6    263.6   0.597452238   5.18562   0.93028  -2.06549  -0.23225
  29   38431.7    260.2   0.030741050   0.26333  -0.02712   0.38952   0.33297
  30   38550.3    259.4   0.015881703   0.13563   0.25573   0.25589   0.06889
  31   39088.0    255.8   0.012030426   0.10132  -0.01164  -0.31779   0.01410
  32   39151.1    255.4   0.070183697   0.59016  -0.16504   0.56848   0.48964
  33   39263.4    254.7   0.014816316   0.12423   0.01614  -0.05897  -0.34712
  34   39556.5    252.8   0.041085945   0.34194  -0.28868  -0.17132  -0.47880
  35   39807.9    251.2   0.034094330   0.28196  -0.10879   0.28025   0.43770
  36   39978.1    250.1   0.180849977   1.48927   0.64551   0.38357   0.96201

FINAL SINGLE POINT ENERGY     -5131.936631937859

DIPOLE MOMENT
-------------
                                X             Y             Z
Electronic contribution:    -29.90599      15.31425       0.94768
Nuclear contribution   :     28.50259     -14.64047      -0.96769
                        -----------------------------------------
Total Dipole Moment    :     -1.40340       0.67378      -0.02001
                        -----------------------------------------
Magnitude (a.u.)       :      1.55689
Magnitude (Debye)      :      3.95730

Rotational constants in cm-1:     0.001279     0.000357     0.000336
Rotational constants in MHz :    38.351633    10.713153    10.063459

                             ****ORCA TERMINATED NORMALLY****
TOTAL RUN TIME: 0 days 0 hours 10 minutes 44 seconds 781 msec
