                         Program Version 4.2.0 -  RELEASE  -
|  1> # ORCA input file
|  2> # SCF done       -169.589999057204          0.000788498961
|  3> ! CAM-B3LYP def2-SVP def2/J RIJCOSX Grid4 TightSCF
|  4> %maxcore 5000
|  5> %tddft
|  6>     Mode sTDDFT
|  7>     Ethresh 5.0
|  8>     maxcore 5000
|  9> end
| 10>
| 11> %pal
| 12>   nprocs 6
| 13>   end
| 14> * xyz 0 1
| 15>    C        8.86492        -5.84664       -12.01078
| 16>    C        8.90735        -7.21927       -12.27117
| 17>    N        8.95037        -8.34602       -12.47924
| 18>    C        8.07123        -4.90330       -12.63078
| 19>    F        7.20377        -5.19467       -13.59483
| 20>    C        8.27510        -3.60171       -12.14033
| 21>    F        7.61880        -2.53740       -12.59374
| 22>    C        9.22788        -3.53990       -11.14006
| 23>    S        9.87560        -5.11742       -10.80342
| 24>    C        9.66486        -2.41469       -10.46035
| 25>    C       10.05434        -1.42826        -9.87150
| 26>    C       10.50147        -0.29092        -9.21263
| 27>    O       11.43661        -0.39383        -8.22734
| 28>    C       10.17309         1.03802        -9.37342
| 29>    C        9.34236         1.98407       -10.13108
| 30>    O        8.54191         1.81580       -11.00879
| 31>    N        9.69279         3.22318        -9.58962
| 32>    C       10.64699         3.18707        -8.58045
| 33>    O       11.08250         4.15131        -7.99944
| 34>    C       10.95416         1.76374        -8.43844
| 35>    C       11.72182         0.84210        -7.74781
| 36>    C       12.67827         0.99544        -6.70600
| 37>    C       12.99241         2.21073        -6.20562
| 38>    C       13.94654         2.40952        -5.16180
| 39>    C       14.29867         3.60104        -4.64712
| 40>    C       13.76207         4.92251        -5.08805
| 41>    C       15.30100         3.69950        -3.51607
| 42>    N       15.48007         2.48672        -2.76926
| 43>    C       16.51507         1.63873        -2.91590
| 44>    C       16.56726         0.39896        -2.35524
| 45>    C       17.68181        -0.44958        -2.44498
| 46>    C       17.74172        -1.70445        -1.89329
| 47>    C       18.83176        -2.60471        -1.90628
| 48>    C       18.59601        -3.78092        -1.25844
| 49>    C       17.30025        -3.88015        -0.70625
| 50>    S       16.39022        -2.42882        -1.02364
| 51>    C       16.74689        -4.94238        -0.00874
| 52>    C       17.35599        -6.15431         0.36530
| 53>    C       16.52490        -6.99976         1.04616
| 54>    C       15.22122        -6.49829         1.23636
| 55>    S       15.07954        -4.90983         0.52792
| 56>    C       14.16440        -7.14503         1.85695
| 57>    C       12.90716        -6.57928         1.99234
| 58>    C       11.75971        -7.12526         2.53819
| 59>    C       10.67679        -6.21544         2.96017
| 60>    O       10.58548        -5.02663         2.72483
| 61>    C        9.75365        -7.04398         3.76311
| 62>    C        8.63759        -6.66940         4.45046
| 63>    C        7.92163        -7.64189         5.18596
| 64>    C        8.38633        -8.98805         5.19382
| 65>    C        7.67432        -9.95104         5.93443
| 66>    C        6.55583        -9.57512         6.62471
| 67>    C        6.08176        -8.25744         6.62806
| 68>    C        6.76235        -7.30963         5.91463
| 69>    F        5.87288       -10.49641         7.33420
| 70>    C        9.54419        -9.34806         4.46247
| 71>    C       10.21492        -8.39105         3.75260
| 72>    C       11.39932        -8.46643         2.89166
| 73>    C       11.91369        -9.63857         2.37968
| 74>    C       12.83979        -9.71470         1.32327
| 75>    N       13.55282        -9.85091         0.43186
| 76>    C       11.48834       -10.92089         2.77242
| 77>    N       11.20514       -11.99537         3.06726
| 78>    H        9.28051         4.08677        -9.91342
| 79>    H       13.13952         0.08991        -6.33829
| 80>    H       12.49014         3.07651        -6.60952
| 81>    H       14.41052         1.51146        -4.77189
| 82>    H       13.32083         4.88104        -6.07784
| 83>    H       14.55553         5.66809        -5.08719
| 84>    H       12.99369         5.25914        -4.39098
| 85>    H       14.97323         4.49096        -2.83101
| 86>    H       16.27179         4.00118        -3.92471
| 87>    H       14.66584         2.13773        -2.28354
| 88>    H       17.34966         2.01706        -3.49110
| 89>    H       15.71254         0.03838        -1.79794
| 90>    H       18.55601        -0.09544        -2.97563
| 91>    H       19.75906        -2.35394        -2.39108
| 92>    H       19.31212        -4.57768        -1.16970
| 93>    H       18.38245        -6.37455         0.13249
| 94>    H       16.80743        -7.97293         1.40582
| 95>    H       14.36812        -8.12804         2.25406
| 96>    H       12.80574        -5.53461         1.70887
| 97>    H        8.30265        -5.64291         4.43534
| 98>    H        8.00833       -10.97678         5.95215
| 99>    H        5.19327        -8.01927         7.19119
|100>    H        6.41728        -6.28645         5.90122
|101>    H        9.87207       -10.37491         4.49147
|102> *
|103>
|104>                          ****END OF INPUT****

CARTESIAN COORDINATES (ANGSTROEM)
---------------------------------
  C      8.864920   -5.846640  -12.010780
  C      8.907350   -7.219270  -12.271170
  N      8.950370   -8.346020  -12.479240
  C      8.071230   -4.903300  -12.630780
  F      7.203770   -5.194670  -13.594830
  C      8.275100   -3.601710  -12.140330
  F      7.618800   -2.537400  -12.593740
  C      9.227880   -3.539900  -11.140060
  S      9.875600   -5.117420  -10.803420
  C      9.664860   -2.414690  -10.460350
  C     10.054340   -1.428260   -9.871500
  C     10.501470   -0.290920   -9.212630
  O     11.436610   -0.393830   -8.227340
  C     10.173090    1.038020   -9.373420
  C      9.342360    1.984070  -10.131080
  O      8.541910    1.815800  -11.008790
  N      9.692790    3.223180   -9.589620
  C     10.646990    3.187070   -8.580450
  O     11.082500    4.151310   -7.999440
  C     10.954160    1.763740   -8.438440
  C     11.721820    0.842100   -7.747810
  C     12.678270    0.995440   -6.706000
  C     12.992410    2.210730   -6.205620
  C     13.946540    2.409520   -5.161800
  C     14.298670    3.601040   -4.647120
  C     13.762070    4.922510   -5.088050
  C     15.301000    3.699500   -3.516070
  N     15.480070    2.486720   -2.769260
  C     16.515070    1.638730   -2.915900
  C     16.567260    0.398960   -2.355240
  C     17.681810   -0.449580   -2.444980
  C     17.741720   -1.704450   -1.893290
  C     18.831760   -2.604710   -1.906280
  C     18.596010   -3.780920   -1.258440
  C     17.300250   -3.880150   -0.706250
  S     16.390220   -2.428820   -1.023640
  C     16.746890   -4.942380   -0.008740
  C     17.355990   -6.154310    0.365300
  C     16.524900   -6.999760    1.046160
  C     15.221220   -6.498290    1.236360
  S     15.079540   -4.909830    0.527920
  C     14.164400   -7.145030    1.856950
  C     12.907160   -6.579280    1.992340
  C     11.759710   -7.125260    2.538190
  C     10.676790   -6.215440    2.960170
  O     10.585480   -5.026630    2.724830
  C      9.753650   -7.043980    3.763110
  C      8.637590   -6.669400    4.450460
  C      7.921630   -7.641890    5.185960
  C      8.386330   -8.988050    5.193820
  C      7.674320   -9.951040    5.934430
  C      6.555830   -9.575120    6.624710
  C      6.081760   -8.257440    6.628060
  C      6.762350   -7.309630    5.914630
  F      5.872880  -10.496410    7.334200
  C      9.544190   -9.348060    4.462470
  C     10.214920   -8.391050    3.752600
  C     11.399320   -8.466430    2.891660
  C     11.913690   -9.638570    2.379680
  C     12.839790   -9.714700    1.323270
  N     13.552820   -9.850910    0.431860
  C     11.488340  -10.920890    2.772420
  N     11.205140  -11.995370    3.067260
  H      9.280510    4.086770   -9.913420
  H     13.139520    0.089910   -6.338290
  H     12.490140    3.076510   -6.609520
  H     14.410520    1.511460   -4.771890
  H     13.320830    4.881040   -6.077840
  H     14.555530    5.668090   -5.087190
  H     12.993690    5.259140   -4.390980
  H     14.973230    4.490960   -2.831010
  H     16.271790    4.001180   -3.924710
  H     14.665840    2.137730   -2.283540
  H     17.349660    2.017060   -3.491100
  H     15.712540    0.038380   -1.797940
  H     18.556010   -0.095440   -2.975630
  H     19.759060   -2.353940   -2.391080
  H     19.312120   -4.577680   -1.169700
  H     18.382450   -6.374550    0.132490
  H     16.807430   -7.972930    1.405820
  H     14.368120   -8.128040    2.254060
  H     12.805740   -5.534610    1.708870
  H      8.302650   -5.642910    4.435340
  H      8.008330  -10.976780    5.952150
  H      5.193270   -8.019270    7.191190
  H      6.417280   -6.286450    5.901220
  H      9.872070  -10.374910    4.491470

 Total Charge           Charge          ....    0
 Multiplicity           Mult            ....    1
 Number of Electrons    NEL             ....  454
 Basis Dimension        Dim             .... 1014

ORBITAL ENERGIES
----------------

  NO   OCC          E(Eh)            E(eV)
   0   2.0000     -89.004767     -2421.9428
   1   2.0000     -88.959658     -2420.7154
   2   2.0000     -88.950358     -2420.4623
   3   2.0000     -24.821230      -675.4200
   4   2.0000     -24.816942      -675.3033
   5   2.0000     -24.767222      -673.9504
   6   2.0000     -19.327436      -525.9263
   7   2.0000     -19.226895      -523.1904
   8   2.0000     -19.221607      -523.0465
   9   2.0000     -19.181845      -521.9646
  10   2.0000     -14.473915      -393.8552
  11   2.0000     -14.466906      -393.6645
  12   2.0000     -14.423042      -392.4709
  13   2.0000     -14.386045      -391.4642
  14   2.0000     -14.384349      -391.4180
  15   2.0000     -10.414703      -283.3985
  16   2.0000     -10.411747      -283.3180
  17   2.0000     -10.404958      -283.1333
  18   2.0000     -10.399343      -282.9805
  19   2.0000     -10.386522      -282.6316
  20   2.0000     -10.378174      -282.4045
  21   2.0000     -10.358375      -281.8657
  22   2.0000     -10.357760      -281.8490
  23   2.0000     -10.355034      -281.7748
  24   2.0000     -10.349084      -281.6129
  25   2.0000     -10.346117      -281.5321
  26   2.0000     -10.333112      -281.1783
  27   2.0000     -10.332057      -281.1496
  28   2.0000     -10.325844      -280.9805
  29   2.0000     -10.320640      -280.8389
  30   2.0000     -10.316827      -280.7351
  31   2.0000     -10.315455      -280.6978
  32   2.0000     -10.313376      -280.6412
  33   2.0000     -10.312843      -280.6267
  34   2.0000     -10.312381      -280.6141
  35   2.0000     -10.310364      -280.5593
  36   2.0000     -10.310080      -280.5515
  37   2.0000     -10.308608      -280.5115
  38   2.0000     -10.307865      -280.4913
  39   2.0000     -10.303676      -280.3773
  40   2.0000     -10.303669      -280.3771
  41   2.0000     -10.303042      -280.3600
  42   2.0000     -10.301660      -280.3224
  43   2.0000     -10.295195      -280.1465
  44   2.0000     -10.293881      -280.1107
  45   2.0000     -10.292969      -280.0859
  46   2.0000     -10.290662      -280.0232
  47   2.0000     -10.288874      -279.9745
  48   2.0000     -10.288555      -279.9658
  49   2.0000     -10.286475      -279.9092
  50   2.0000     -10.284528      -279.8562
  51   2.0000     -10.283137      -279.8184
  52   2.0000     -10.279685      -279.7244
  53   2.0000     -10.278549      -279.6935
  54   2.0000     -10.278336      -279.6877
  55   2.0000     -10.277784      -279.6727
  56   2.0000     -10.274833      -279.5924
  57   2.0000     -10.274750      -279.5902
  58   2.0000     -10.272179      -279.5202
  59   2.0000     -10.268870      -279.4301
  60   2.0000     -10.264552      -279.3127
  61   2.0000     -10.263528      -279.2848
  62   2.0000     -10.258832      -279.1570
  63   2.0000      -8.099752      -220.4055
  64   2.0000      -8.055866      -219.2113
  65   2.0000      -8.046627      -218.9598
  66   2.0000      -6.069334      -165.1550
  67   2.0000      -6.065231      -165.0433
  68   2.0000      -6.061104      -164.9310
  69   2.0000      -6.025472      -163.9614
  70   2.0000      -6.021510      -163.8536
  71   2.0000      -6.016981      -163.7304
  72   2.0000      -6.016157      -163.7080
  73   2.0000      -6.012208      -163.6005
  74   2.0000      -6.007849      -163.4819
  75   2.0000      -1.341052       -36.4919
  76   2.0000      -1.328627       -36.1538
  77   2.0000      -1.281179       -34.8626
  78   2.0000      -1.243586       -33.8397
  79   2.0000      -1.168744       -31.8032
  80   2.0000      -1.148189       -31.2438
  81   2.0000      -1.095683       -29.8150
  82   2.0000      -1.074553       -29.2401
  83   2.0000      -1.055670       -28.7262
  84   2.0000      -1.036062       -28.1927
  85   2.0000      -1.005014       -27.3478
  86   2.0000      -1.001737       -27.2586
  87   2.0000      -0.989173       -26.9168
  88   2.0000      -0.980786       -26.6885
  89   2.0000      -0.974515       -26.5179
  90   2.0000      -0.964262       -26.2389
  91   2.0000      -0.952453       -25.9176
  92   2.0000      -0.950269       -25.8581
  93   2.0000      -0.938665       -25.5424
  94   2.0000      -0.935607       -25.4592
  95   2.0000      -0.919776       -25.0284
  96   2.0000      -0.911055       -24.7911
  97   2.0000      -0.904282       -24.6068
  98   2.0000      -0.891017       -24.2458
  99   2.0000      -0.884205       -24.0604
 100   2.0000      -0.872178       -23.7332
 101   2.0000      -0.870404       -23.6849
 102   2.0000      -0.864220       -23.5166
 103   2.0000      -0.857535       -23.3347
 104   2.0000      -0.853623       -23.2283
 105   2.0000      -0.843350       -22.9487
 106   2.0000      -0.831844       -22.6356
 107   2.0000      -0.826313       -22.4851
 108   2.0000      -0.811841       -22.0913
 109   2.0000      -0.808670       -22.0050
 110   2.0000      -0.804700       -21.8970
 111   2.0000      -0.785327       -21.3698
 112   2.0000      -0.784185       -21.3388
 113   2.0000      -0.776541       -21.1307
 114   2.0000      -0.768072       -20.9003
 115   2.0000      -0.760434       -20.6925
 116   2.0000      -0.739374       -20.1194
 117   2.0000      -0.733510       -19.9598
 118   2.0000      -0.731595       -19.9077
 119   2.0000      -0.718059       -19.5394
 120   2.0000      -0.714151       -19.4330
 121   2.0000      -0.709387       -19.3034
 122   2.0000      -0.698043       -18.9947
 123   2.0000      -0.691776       -18.8242
 124   2.0000      -0.687740       -18.7144
 125   2.0000      -0.685247       -18.6465
 126   2.0000      -0.668391       -18.1878
 127   2.0000      -0.663308       -18.0495
 128   2.0000      -0.651859       -17.7380
 129   2.0000      -0.649353       -17.6698
 130   2.0000      -0.642433       -17.4815
 131   2.0000      -0.640983       -17.4420
 132   2.0000      -0.639098       -17.3907
 133   2.0000      -0.628237       -17.0952
 134   2.0000      -0.623995       -16.9798
 135   2.0000      -0.618384       -16.8271
 136   2.0000      -0.614262       -16.7149
 137   2.0000      -0.608930       -16.5698
 138   2.0000      -0.608624       -16.5615
 139   2.0000      -0.606875       -16.5139
 140   2.0000      -0.606412       -16.5013
 141   2.0000      -0.605560       -16.4781
 142   2.0000      -0.599655       -16.3174
 143   2.0000      -0.598083       -16.2747
 144   2.0000      -0.593573       -16.1519
 145   2.0000      -0.584235       -15.8978
 146   2.0000      -0.582919       -15.8620
 147   2.0000      -0.574815       -15.6415
 148   2.0000      -0.570155       -15.5147
 149   2.0000      -0.567558       -15.4440
 150   2.0000      -0.565580       -15.3902
 151   2.0000      -0.558660       -15.2019
 152   2.0000      -0.557086       -15.1591
 153   2.0000      -0.551387       -15.0040
 154   2.0000      -0.546734       -14.8774
 155   2.0000      -0.540346       -14.7036
 156   2.0000      -0.539160       -14.6713
 157   2.0000      -0.535832       -14.5807
 158   2.0000      -0.531213       -14.4550
 159   2.0000      -0.528846       -14.3906
 160   2.0000      -0.527264       -14.3476
 161   2.0000      -0.522560       -14.2196
 162   2.0000      -0.515946       -14.0396
 163   2.0000      -0.514731       -14.0065
 164   2.0000      -0.512865       -13.9558
 165   2.0000      -0.507946       -13.8219
 166   2.0000      -0.507030       -13.7970
 167   2.0000      -0.506345       -13.7784
 168   2.0000      -0.505300       -13.7499
 169   2.0000      -0.504896       -13.7389
 170   2.0000      -0.504461       -13.7271
 171   2.0000      -0.501880       -13.6569
 172   2.0000      -0.499391       -13.5891
 173   2.0000      -0.497351       -13.5336
 174   2.0000      -0.495965       -13.4959
 175   2.0000      -0.490684       -13.3522
 176   2.0000      -0.489150       -13.3104
 177   2.0000      -0.484333       -13.1794
 178   2.0000      -0.479539       -13.0489
 179   2.0000      -0.477968       -13.0062
 180   2.0000      -0.474938       -12.9237
 181   2.0000      -0.473099       -12.8737
 182   2.0000      -0.472687       -12.8625
 183   2.0000      -0.469523       -12.7764
 184   2.0000      -0.466455       -12.6929
 185   2.0000      -0.464439       -12.6380
 186   2.0000      -0.459605       -12.5065
 187   2.0000      -0.455771       -12.4022
 188   2.0000      -0.453093       -12.3293
 189   2.0000      -0.449704       -12.2371
 190   2.0000      -0.445749       -12.1295
 191   2.0000      -0.444430       -12.0936
 192   2.0000      -0.441309       -12.0086
 193   2.0000      -0.440306       -11.9813
 194   2.0000      -0.434229       -11.8160
 195   2.0000      -0.428241       -11.6530
 196   2.0000      -0.424505       -11.5514
 197   2.0000      -0.422742       -11.5034
 198   2.0000      -0.418167       -11.3789
 199   2.0000      -0.417493       -11.3606
 200   2.0000      -0.415485       -11.3059
 201   2.0000      -0.411250       -11.1907
 202   2.0000      -0.404758       -11.0140
 203   2.0000      -0.402258       -10.9460
 204   2.0000      -0.397216       -10.8088
 205   2.0000      -0.391998       -10.6668
 206   2.0000      -0.391556       -10.6548
 207   2.0000      -0.390308       -10.6208
 208   2.0000      -0.385131       -10.4800
 209   2.0000      -0.380995       -10.3674
 210   2.0000      -0.375967       -10.2306
 211   2.0000      -0.374275       -10.1845
 212   2.0000      -0.366494        -9.9728
 213   2.0000      -0.360046        -9.7973
 214   2.0000      -0.357900        -9.7390
 215   2.0000      -0.353115        -9.6087
 216   2.0000      -0.347194        -9.4476
 217   2.0000      -0.345611        -9.4045
 218   2.0000      -0.328538        -8.9400
 219   2.0000      -0.323122        -8.7926
 220   2.0000      -0.318996        -8.6803
 221   2.0000      -0.307466        -8.3666
 222   2.0000      -0.290620        -7.9082
 223   2.0000      -0.279802        -7.6138
 224   2.0000      -0.275046        -7.4844
 225   2.0000      -0.269417        -7.3312
 226   2.0000      -0.213832        -5.8187
 227   0.0000      -0.096184        -2.6173
 228   0.0000      -0.082019        -2.2318
 229   0.0000      -0.063292        -1.7223
 230   0.0000      -0.045058        -1.2261
 231   0.0000      -0.026659        -0.7254

MULLIKEN ATOMIC CHARGES
-----------------------
   0 C :   -0.332099
   1 C :   -0.138094
   2 N :    0.150719
   3 C :    0.286306
   4 F :   -0.140611
   5 C :    0.226639
   6 F :   -0.142687
   7 C :   -0.232943
   8 S :    0.268863
   9 C :   -0.004548
  10 C :    0.093334
  11 C :    0.021865
  12 O :   -0.192637
  13 C :   -0.011006
  14 C :    0.160639
  15 O :   -0.121143
  16 N :   -0.162625
  17 C :    0.195198
  18 O :   -0.164178
  19 C :   -0.106764
  20 C :    0.143411
  21 C :   -0.013542
  22 C :    0.011446
  23 C :    0.004279
  24 C :   -0.207528
  25 C :    0.081506
  26 C :    0.203325
  27 N :   -0.141149
  28 C :    0.076742
  29 C :   -0.035961
  30 C :    0.017289
  31 C :   -0.055144
  32 C :    0.060476
  33 C :    0.006441
  34 C :   -0.021177
  35 S :    0.086462
  36 C :   -0.067762
  37 C :    0.041688
  38 C :    0.027672
  39 C :   -0.015311
  40 S :    0.098203
  41 C :   -0.002750
  42 C :    0.015497
  43 C :   -0.136394
  44 C :    0.136619
  45 O :   -0.169496
  46 C :    0.006213
  47 C :   -0.091182
  48 C :    0.102881
  49 C :    0.101927
  50 C :   -0.101001
  51 C :    0.302263
  52 C :   -0.035661
  53 C :   -0.012881
  54 F :   -0.198143
  55 C :   -0.094235
  56 C :    0.041315
  57 C :    0.300093
  58 C :   -0.363937
  59 C :   -0.222222
  60 N :    0.151515
  61 C :   -0.179390
  62 N :    0.128489
  63 H :    0.141656
  64 H :   -0.009271
  65 H :    0.016235
  66 H :   -0.020592
  67 H :    0.046639
  68 H :    0.022745
  69 H :    0.042276
  70 H :    0.029158
  71 H :    0.039784
  72 H :    0.132006
  73 H :    0.013621
  74 H :   -0.003034
  75 H :   -0.009978
  76 H :   -0.008565
  77 H :   -0.008967
  78 H :   -0.009178
  79 H :   -0.002027
  80 H :    0.003898
  81 H :    0.008378
  82 H :   -0.022153
  83 H :   -0.006369
  84 H :   -0.004892
  85 H :   -0.016426
  86 H :   -0.010060
Sum of atomic charges:   -0.0000000

LOEWDIN ATOMIC CHARGES
----------------------
   0 C :   -0.249278
   1 C :   -0.054573
   2 N :   -0.025208
   3 C :    0.055971
   4 F :   -0.024652
   5 C :    0.042169
   6 F :   -0.026594
   7 C :   -0.209974
   8 S :    0.517368
   9 C :   -0.019277
  10 C :   -0.014175
  11 C :    0.039047
  12 O :    0.028599
  13 C :   -0.070271
  14 C :    0.086918
  15 O :   -0.139709
  16 N :   -0.002394
  17 C :    0.089321
  18 O :   -0.169676
  19 C :   -0.111166
  20 C :    0.078765
  21 C :   -0.052268
  22 C :    0.021849
  23 C :   -0.060658
  24 C :   -0.020230
  25 C :   -0.046336
  26 C :    0.042782
  27 N :    0.023143
  28 C :    0.068878
  29 C :   -0.128020
  30 C :   -0.001136
  31 C :   -0.185608
  32 C :   -0.006275
  33 C :   -0.055771
  34 C :   -0.137573
  35 S :    0.385927
  36 C :   -0.210091
  37 C :   -0.005835
  38 C :   -0.049782
  39 C :   -0.096639
  40 S :    0.400198
  41 C :   -0.080150
  42 C :    0.049370
  43 C :   -0.120713
  44 C :    0.075062
  45 O :   -0.171731
  46 C :   -0.054411
  47 C :    0.023361
  48 C :   -0.021730
  49 C :    0.000998
  50 C :   -0.044018
  51 C :    0.088623
  52 C :   -0.044784
  53 C :    0.000486
  54 F :   -0.072277
  55 C :    0.002976
  56 C :   -0.012448
  57 C :    0.067583
  58 C :   -0.163478
  59 C :   -0.023385
  60 N :   -0.072541
  61 C :   -0.019395
  62 N :   -0.076000
  63 H :    0.096625
  64 H :    0.037711
  65 H :    0.032111
  66 H :    0.024976
  67 H :    0.041366
  68 H :    0.035113
  69 H :    0.045428
  70 H :    0.034141
  71 H :    0.041897
  72 H :    0.087116
  73 H :    0.033209
  74 H :    0.021479
  75 H :    0.035833
  76 H :    0.035646
  77 H :    0.033202
  78 H :    0.033941
  79 H :    0.038354
  80 H :    0.036563
  81 H :    0.030750
  82 H :    0.035455
  83 H :    0.041508
  84 H :    0.038337
  85 H :    0.032695
  86 H :    0.037375

  Mayer bond orders larger than 0.100000
B(  0-C ,  1-C ) :   1.1886 B(  0-C ,  3-C ) :   1.4669 B(  0-C ,  7-C ) :   0.1458
B(  0-C ,  8-S ) :   1.1170 B(  1-C ,  2-N ) :   3.0182 B(  3-C ,  4-F ) :   1.2168
B(  3-C ,  5-C ) :   1.2124 B(  5-C ,  6-F ) :   1.2164 B(  5-C ,  7-C ) :   1.4472
B(  7-C ,  8-S ) :   1.1024 B(  7-C ,  9-C ) :   0.9816 B(  9-C , 10-C ) :   2.3161
B( 10-C , 11-C ) :   0.8710 B( 11-C , 12-O ) :   1.1496 B( 11-C , 13-C ) :   1.4965
B( 12-O , 20-C ) :   1.1598 B( 13-C , 14-C ) :   0.8545 B( 13-C , 19-C ) :   1.2686
B( 14-C , 15-O ) :   2.2952 B( 14-C , 16-N ) :   1.0721 B( 16-N , 17-C ) :   1.1075
B( 16-N , 63-H ) :   0.9145 B( 17-C , 18-O ) :   2.1575 B( 17-C , 19-C ) :   0.8919
B( 19-C , 20-C ) :   1.4253 B( 20-C , 21-C ) :   1.1317 B( 21-C , 22-C ) :   1.6527
B( 21-C , 64-H ) :   0.9800 B( 22-C , 23-C ) :   1.1126 B( 22-C , 65-H ) :   0.9570
B( 23-C , 24-C ) :   1.7591 B( 23-C , 66-H ) :   0.9721 B( 24-C , 25-C ) :   1.0847
B( 24-C , 26-C ) :   0.9964 B( 25-C , 67-H ) :   0.9490 B( 25-C , 68-H ) :   0.9511
B( 25-C , 69-H ) :   0.9425 B( 26-C , 27-N ) :   1.0275 B( 26-C , 70-H ) :   0.9421
B( 26-C , 71-H ) :   0.9203 B( 27-N , 28-C ) :   1.2596 B( 27-N , 72-H ) :   0.9371
B( 28-C , 29-C ) :   1.5468 B( 28-C , 73-H ) :   0.9701 B( 29-C , 30-C ) :   1.2077
B( 29-C , 74-H ) :   0.9630 B( 30-C , 31-C ) :   1.5443 B( 30-C , 75-H ) :   0.9804
B( 31-C , 32-C ) :   1.1705 B( 31-C , 35-S ) :   1.0123 B( 32-C , 33-C ) :   1.5568
B( 32-C , 76-H ) :   0.9977 B( 33-C , 34-C ) :   1.2185 B( 33-C , 77-H ) :   0.9946
B( 34-C , 35-S ) :   1.0968 B( 34-C , 36-C ) :   1.4315 B( 36-C , 37-C ) :   1.2490
B( 36-C , 40-S ) :   1.0376 B( 37-C , 38-C ) :   1.5096 B( 37-C , 78-H ) :   0.9940
B( 38-C , 39-C ) :   1.2141 B( 38-C , 79-H ) :   1.0002 B( 39-C , 40-S ) :   1.0991
B( 39-C , 41-C ) :   1.4434 B( 41-C , 42-C ) :   1.2763 B( 41-C , 80-H ) :   0.9637
B( 42-C , 43-C ) :   1.4679 B( 42-C , 81-H ) :   0.9353 B( 43-C , 44-C ) :   0.9798
B( 43-C , 57-C ) :   1.1146 B( 44-C , 45-O ) :   2.2318 B( 44-C , 46-C ) :   0.9169
B( 46-C , 47-C ) :   1.4847 B( 46-C , 56-C ) :   1.2185 B( 47-C , 48-C ) :   1.1762
B( 47-C , 82-H ) :   1.0152 B( 48-C , 49-C ) :   1.2641 B( 48-C , 53-C ) :   1.2399
B( 49-C , 50-C ) :   1.2048 B( 49-C , 55-C ) :   1.1912 B( 50-C , 51-C ) :   1.4375
B( 50-C , 83-H ) :   1.0069 B( 51-C , 52-C ) :   1.2614 B( 51-C , 54-F ) :   1.0801
B( 52-C , 53-C ) :   1.4517 B( 52-C , 84-H ) :   0.9933 B( 53-C , 85-H ) :   0.9966
B( 55-C , 56-C ) :   1.4735 B( 55-C , 86-H ) :   0.9917 B( 56-C , 57-C ) :   0.9836
B( 57-C , 58-C ) :   1.5730 B( 58-C , 59-C ) :   1.1757 B( 58-C , 61-C ) :   1.1415
B( 59-C , 60-N ) :   3.0067 B( 61-C , 62-N ) :   2.9664

-----------------------------------------------------------------------------
         ABSORPTION SPECTRUM VIA TRANSITION ELECTRIC DIPOLE MOMENTS
-----------------------------------------------------------------------------
State   Energy  Wavelength   fosc         T2         TX        TY        TZ
        (cm-1)    (nm)                  (au**2)     (au)      (au)      (au)
-----------------------------------------------------------------------------
   0   11967.6    835.6   1.373369875  37.77941   3.02104   4.38665  -3.06757
   1   19593.7    510.4   0.017187059   0.28878   0.42200   0.20161   0.26466
   2   22072.5    453.1   0.020733309   0.30924   0.21350  -0.16960   0.48466
   3   22968.4    435.4   0.007210349   0.10335  -0.30308   0.04525  -0.09717
   4   23786.8    420.4   0.113422163   1.56978  -0.86689   0.15518  -0.89117
   5   25359.7    394.3   0.152660597   1.98180  -1.11855   0.36516  -0.77286
   6   26322.4    379.9   1.169989740  14.63297  -1.82419  -2.94675  -1.61925
   7   26979.8    370.6   0.282436632   3.44634   0.84467  -1.57933  -0.48846
   8   27298.4    366.3   0.339734856   4.09711  -1.19344   1.57959   0.42157
   9   28584.0    349.8   0.046912638   0.54031   0.69206  -0.22371  -0.10636
  10   28774.4    347.5   0.059673502   0.68273  -0.33149   0.43045   0.62254
  11   29794.6    335.6   0.416561525   4.60274  -1.45011  -0.32922  -1.54646
  12   30878.1    323.9   0.023135118   0.24666  -0.31933   0.31306   0.21605
  13   31806.1    314.4   0.037601028   0.38919  -0.27805   0.45648   0.32173
  14   31971.0    312.8   0.129389074   1.33234  -1.05107   0.36588   0.30614
  15   32288.1    309.7   0.180593743   1.84135  -1.00830   0.60046   0.68127
  16   32993.3    303.1   0.001575787   0.01572  -0.05721   0.10778  -0.02889
  17   33408.5    299.3   0.028285237   0.27873  -0.44349  -0.03147   0.28469
  18   33600.3    297.6   0.016764267   0.16425   0.30496  -0.07723  -0.25552
  19   33955.5    294.5   0.384842997   3.73120   1.56952  -0.01050  -1.12592
  20   34916.5    286.4   0.029160074   0.27494   0.26258  -0.44579  -0.08521
  21   35154.8    284.5   0.177982815   1.66674  -0.74858   1.01468   0.27712
  22   36044.3    277.4   0.014263241   0.13027  -0.04620   0.35434   0.05084
  23   36107.6    277.0   0.008804022   0.08027  -0.13166   0.20150   0.14945
  24   36651.9    272.8   0.015579228   0.13993   0.33729  -0.02800   0.15933
  25   37291.2    268.2   0.134974812   1.19158   0.09753  -1.08641   0.04225
  26   37747.6    264.9   0.144225917   1.25785  -0.77156   0.28782   0.76139
  27   38199.2    261.8   0.140533376   1.21116  -0.60781   0.86015   0.31918
  28   38315.0    261.0   0.094503481   0.81200  -0.47948   0.62597   0.43619
  29   38463.3    260.0   0.001821485   0.01559   0.03806  -0.11837  -0.01142
  30   39094.9    255.8   0.020500167   0.17263   0.16306   0.32521   0.20070
  31   39288.7    254.5   0.000025180   0.00021   0.00829   0.00809   0.00876
  32   39356.8    254.1   0.000159929   0.00134   0.01337  -0.00739  -0.03323
  33   39565.0    252.7   0.034359124   0.28589  -0.03319   0.51228   0.14953
  34   39740.9    251.6   0.008040261   0.06661  -0.19905   0.16141  -0.03050
  35   39878.3    250.8   0.004260600   0.03517   0.00876  -0.16722   0.08447
  36   40175.0    248.9   0.136449253   1.11813   0.47201  -0.94622   0.00211

FINAL SINGLE POINT ENERGY     -3908.430122002802

DIPOLE MOMENT
-------------
                                X             Y             Z
Electronic contribution:    -50.63860     -47.38393     -50.00355
Nuclear contribution   :     54.54764      55.14162      48.86425
                        -----------------------------------------
Total Dipole Moment    :      3.90904       7.75769      -1.13930
                        -----------------------------------------
Magnitude (a.u.)       :      8.76130
Magnitude (Debye)      :     22.26944

Rotational constants in cm-1:     0.000812     0.000349     0.000290
Rotational constants in MHz :    24.332479    10.457777     8.693900

                             ****ORCA TERMINATED NORMALLY****
TOTAL RUN TIME: 0 days 0 hours 6 minutes 51 seconds 840 msec
