                         Program Version 4.2.0 -  RELEASE  -
|  1> # ORCA input file
|  2> # SCF done       -191.574393316650          0.000674929078
|  3> ! CAM-B3LYP def2-SVP def2/J RIJCOSX Grid4 TightSCF
|  4> %maxcore 5000
|  5> %tddft
|  6>     Mode sTDDFT
|  7>     Ethresh 5.0
|  8>     maxcore 5000
|  9> end
| 10>
| 11> %pal
| 12>   nprocs 6
| 13>   end
| 14> * xyz 0 1
| 15>    C      -10.90570        -7.44522        -1.46450
| 16>    C      -11.62289        -7.22439        -0.29747
| 17>    C      -11.58449        -5.99634         0.34715
| 18>    C      -10.83398        -4.94719        -0.16274
| 19>    C      -10.11433        -5.15704        -1.32655
| 20>    C      -10.14157        -6.41026        -1.97979
| 21>    C       -9.27557        -6.35392        -3.15027
| 22>    C       -9.12886        -7.34286        -4.08540
| 23>    C       -9.82730        -8.56984        -4.05918
| 24>    N      -10.36078        -9.58445        -4.10923
| 25>    C       -8.29907        -7.27447        -5.22324
| 26>    N       -7.63926        -7.27474        -6.16356
| 27>    C       -8.60188        -5.05853        -3.10875
| 28>    C       -9.27390        -4.25801        -2.09722
| 29>    C       -9.30974        -2.88676        -2.05003
| 30>    C       -8.71417        -2.06715        -3.02669
| 31>    N       -8.27979        -1.39150        -3.84822
| 32>    C      -10.02710        -2.14565        -1.08895
| 33>    N      -10.57276        -1.48421        -0.32668
| 34>    C       -7.50179        -4.74212        -3.85793
| 35>    N       -6.57689        -3.78037        -3.61756
| 36>    C       -6.22557        -3.20825        -2.42763
| 37>    S       -6.56185        -3.97481        -0.90706
| 38>    C       -5.60007        -2.77209        -0.11086
| 39>    N       -5.51115        -2.85538         1.28710
| 40>    O       -4.82554        -2.03339         1.86049
| 41>    O       -6.13850        -3.75673         1.81429
| 42>    C       -5.06001        -1.84657        -0.95677
| 43>    C       -5.41303        -2.06957        -2.30659
| 44>    C       -5.06085        -1.23504        -3.40998
| 45>    C       -4.15887        -0.21875        -3.34893
| 46>    C       -3.81050         0.58121        -4.45092
| 47>    C       -2.81196         1.52098        -4.42220
| 48>    C       -2.30745         2.27004        -5.51567
| 49>    C       -1.22030         3.03204        -5.21932
| 50>    C       -0.81429         2.94446        -3.86760
| 51>    S       -1.88701         1.88916        -2.97396
| 52>    C        0.29761         3.50438        -3.27594
| 53>    C        1.33176         4.24851        -3.89247
| 54>    C        2.38042         4.52938        -3.07449
| 55>    C        2.22447         4.03928        -1.74972
| 56>    S        0.66386         3.23792        -1.58311
| 57>    C        3.09007         4.04261        -0.69603
| 58>    N        4.36918         4.50889        -0.74138
| 59>    C        5.33340         4.24268         0.17450
| 60>    S        6.59138         5.42570         0.38867
| 61>    C        7.21911         4.50691         1.72268
| 62>    N        8.36195         5.00417         2.36557
| 63>    O        8.80449         4.37186         3.30388
| 64>    O        8.81942         6.04468         1.92569
| 65>    C        6.51114         3.36910         1.97655
| 66>    C        5.43897         3.16264         1.07648
| 67>    C        4.74106         1.91478         1.06675
| 68>    C        4.03809         1.39360         0.02461
| 69>    C        3.39948         0.14338         0.08567
| 70>    C        2.59746        -0.44270        -0.86092
| 71>    C        1.78374        -1.61560        -0.54488
| 72>    C        2.01131        -2.53924         0.43832
| 73>    C        3.11418        -2.54706         1.32021
| 74>    N        3.98949        -2.62913         2.05861
| 75>    C        1.19678        -3.67268         0.65406
| 76>    N        0.58220        -4.61692         0.87147
| 77>    C        0.71585        -1.67235        -1.52902
| 78>    C        0.98167        -0.71575        -2.53253
| 79>    C        0.13275        -0.60522        -3.62255
| 80>    C       -0.98594        -1.42175        -3.68587
| 81>    C       -1.26758        -2.32863        -2.67569
| 82>    C       -0.41629        -2.46898        -1.59102
| 83>    C        2.20645         0.00499        -2.19162
| 84>    C        2.85933         0.83565        -3.06851
| 85>    C        2.35983         1.19257        -4.34055
| 86>    N        2.03028         1.57902        -5.37109
| 87>    C        4.11937         1.45464        -2.94209
| 88>    N        5.12567         2.00984        -2.98019
| 89>    H      -10.94458        -8.40807        -1.94642
| 90>    H      -12.21567        -8.02592         0.11572
| 91>    H      -12.14291        -5.85331         1.25928
| 92>    H      -10.80300        -3.99960         0.34999
| 93>    H       -7.27494        -5.34419        -4.72704
| 94>    H       -6.01012        -3.49656        -4.40792
| 95>    H       -4.45709        -1.03070        -0.60379
| 96>    H       -5.57421        -1.41197        -4.34498
| 97>    H       -3.63242        -0.02161        -2.42485
| 98>    H       -4.32488         0.42289        -5.38927
| 99>    H       -2.75272         2.19878        -6.49209
|100>    H       -0.69122         3.63867        -5.93090
|101>    H        1.28691         4.52148        -4.93047
|102>    H        3.26229         5.05700        -3.39135
|103>    H        2.78292         3.61465         0.24583
|104>    H        4.62327         5.11872        -1.50880
|105>    H        6.78233         2.68178         2.75798
|106>    H        4.87320         1.31019         1.95509
|107>    H        3.95232         1.95819        -0.88358
|108>    H        3.49036        -0.37573         1.03060
|109>    H        0.31861         0.10137        -4.41351
|110>    H       -1.65101        -1.33925        -4.53176
|111>    H       -2.15717        -2.93730        -2.73537
|112>    H       -0.64191        -3.18105        -0.81462
|113> *
|114>
|115>                          ****END OF INPUT****

CARTESIAN COORDINATES (ANGSTROEM)
---------------------------------
  C    -10.905700   -7.445220   -1.464500
  C    -11.622890   -7.224390   -0.297470
  C    -11.584490   -5.996340    0.347150
  C    -10.833980   -4.947190   -0.162740
  C    -10.114330   -5.157040   -1.326550
  C    -10.141570   -6.410260   -1.979790
  C     -9.275570   -6.353920   -3.150270
  C     -9.128860   -7.342860   -4.085400
  C     -9.827300   -8.569840   -4.059180
  N    -10.360780   -9.584450   -4.109230
  C     -8.299070   -7.274470   -5.223240
  N     -7.639260   -7.274740   -6.163560
  C     -8.601880   -5.058530   -3.108750
  C     -9.273900   -4.258010   -2.097220
  C     -9.309740   -2.886760   -2.050030
  C     -8.714170   -2.067150   -3.026690
  N     -8.279790   -1.391500   -3.848220
  C    -10.027100   -2.145650   -1.088950
  N    -10.572760   -1.484210   -0.326680
  C     -7.501790   -4.742120   -3.857930
  N     -6.576890   -3.780370   -3.617560
  C     -6.225570   -3.208250   -2.427630
  S     -6.561850   -3.974810   -0.907060
  C     -5.600070   -2.772090   -0.110860
  N     -5.511150   -2.855380    1.287100
  O     -4.825540   -2.033390    1.860490
  O     -6.138500   -3.756730    1.814290
  C     -5.060010   -1.846570   -0.956770
  C     -5.413030   -2.069570   -2.306590
  C     -5.060850   -1.235040   -3.409980
  C     -4.158870   -0.218750   -3.348930
  C     -3.810500    0.581210   -4.450920
  C     -2.811960    1.520980   -4.422200
  C     -2.307450    2.270040   -5.515670
  C     -1.220300    3.032040   -5.219320
  C     -0.814290    2.944460   -3.867600
  S     -1.887010    1.889160   -2.973960
  C      0.297610    3.504380   -3.275940
  C      1.331760    4.248510   -3.892470
  C      2.380420    4.529380   -3.074490
  C      2.224470    4.039280   -1.749720
  S      0.663860    3.237920   -1.583110
  C      3.090070    4.042610   -0.696030
  N      4.369180    4.508890   -0.741380
  C      5.333400    4.242680    0.174500
  S      6.591380    5.425700    0.388670
  C      7.219110    4.506910    1.722680
  N      8.361950    5.004170    2.365570
  O      8.804490    4.371860    3.303880
  O      8.819420    6.044680    1.925690
  C      6.511140    3.369100    1.976550
  C      5.438970    3.162640    1.076480
  C      4.741060    1.914780    1.066750
  C      4.038090    1.393600    0.024610
  C      3.399480    0.143380    0.085670
  C      2.597460   -0.442700   -0.860920
  C      1.783740   -1.615600   -0.544880
  C      2.011310   -2.539240    0.438320
  C      3.114180   -2.547060    1.320210
  N      3.989490   -2.629130    2.058610
  C      1.196780   -3.672680    0.654060
  N      0.582200   -4.616920    0.871470
  C      0.715850   -1.672350   -1.529020
  C      0.981670   -0.715750   -2.532530
  C      0.132750   -0.605220   -3.622550
  C     -0.985940   -1.421750   -3.685870
  C     -1.267580   -2.328630   -2.675690
  C     -0.416290   -2.468980   -1.591020
  C      2.206450    0.004990   -2.191620
  C      2.859330    0.835650   -3.068510
  C      2.359830    1.192570   -4.340550
  N      2.030280    1.579020   -5.371090
  C      4.119370    1.454640   -2.942090
  N      5.125670    2.009840   -2.980190
  H    -10.944580   -8.408070   -1.946420
  H    -12.215670   -8.025920    0.115720
  H    -12.142910   -5.853310    1.259280
  H    -10.803000   -3.999600    0.349990
  H     -7.274940   -5.344190   -4.727040
  H     -6.010120   -3.496560   -4.407920
  H     -4.457090   -1.030700   -0.603790
  H     -5.574210   -1.411970   -4.344980
  H     -3.632420   -0.021610   -2.424850
  H     -4.324880    0.422890   -5.389270
  H     -2.752720    2.198780   -6.492090
  H     -0.691220    3.638670   -5.930900
  H      1.286910    4.521480   -4.930470
  H      3.262290    5.057000   -3.391350
  H      2.782920    3.614650    0.245830
  H      4.623270    5.118720   -1.508800
  H      6.782330    2.681780    2.757980
  H      4.873200    1.310190    1.955090
  H      3.952320    1.958190   -0.883580
  H      3.490360   -0.375730    1.030600
  H      0.318610    0.101370   -4.413510
  H     -1.651010   -1.339250   -4.531760
  H     -2.157170   -2.937300   -2.735370
  H     -0.641910   -3.181050   -0.814620

 Total Charge           Charge          ....    0
 Multiplicity           Mult            ....    1
 Number of Electrons    NEL             ....  528
 Basis Dimension        Dim             .... 1172

ORBITAL ENERGIES
----------------

  NO   OCC          E(Eh)            E(eV)
   0   2.0000     -89.000892     -2421.8374
   1   2.0000     -88.998346     -2421.7681
   2   2.0000     -88.968086     -2420.9447
   3   2.0000     -88.963768     -2420.8272
   4   2.0000     -19.250239      -523.8256
   5   2.0000     -19.250002      -523.8192
   6   2.0000     -19.247788      -523.7589
   7   2.0000     -19.247197      -523.7429
   8   2.0000     -14.661525      -398.9604
   9   2.0000     -14.659280      -398.8993
  10   2.0000     -14.519479      -395.0951
  11   2.0000     -14.508493      -394.7962
  12   2.0000     -14.434478      -392.7821
  13   2.0000     -14.432315      -392.7233
  14   2.0000     -14.431633      -392.7047
  15   2.0000     -14.430261      -392.6674
  16   2.0000     -14.427587      -392.5946
  17   2.0000     -14.426710      -392.5708
  18   2.0000     -14.426444      -392.5635
  19   2.0000     -14.423448      -392.4820
  20   2.0000     -10.391637      -282.7708
  21   2.0000     -10.381289      -282.4892
  22   2.0000     -10.379580      -282.4427
  23   2.0000     -10.360127      -281.9134
  24   2.0000     -10.358987      -281.8824
  25   2.0000     -10.358522      -281.8697
  26   2.0000     -10.358488      -281.8688
  27   2.0000     -10.358480      -281.8686
  28   2.0000     -10.357365      -281.8382
  29   2.0000     -10.356961      -281.8272
  30   2.0000     -10.356198      -281.8065
  31   2.0000     -10.355135      -281.7775
  32   2.0000     -10.351712      -281.6844
  33   2.0000     -10.351669      -281.6832
  34   2.0000     -10.336549      -281.2718
  35   2.0000     -10.335873      -281.2534
  36   2.0000     -10.334991      -281.2294
  37   2.0000     -10.334338      -281.2116
  38   2.0000     -10.333350      -281.1847
  39   2.0000     -10.332852      -281.1712
  40   2.0000     -10.331011      -281.1211
  41   2.0000     -10.329548      -281.0813
  42   2.0000     -10.329241      -281.0729
  43   2.0000     -10.329091      -281.0689
  44   2.0000     -10.328989      -281.0661
  45   2.0000     -10.328358      -281.0489
  46   2.0000     -10.328064      -281.0409
  47   2.0000     -10.327412      -281.0232
  48   2.0000     -10.325887      -280.9817
  49   2.0000     -10.325138      -280.9613
  50   2.0000     -10.324414      -280.9416
  51   2.0000     -10.321216      -280.8546
  52   2.0000     -10.320524      -280.8357
  53   2.0000     -10.319479      -280.8073
  54   2.0000     -10.319002      -280.7943
  55   2.0000     -10.318852      -280.7902
  56   2.0000     -10.316798      -280.7343
  57   2.0000     -10.316280      -280.7202
  58   2.0000     -10.311281      -280.5842
  59   2.0000     -10.310651      -280.5671
  60   2.0000     -10.306911      -280.4653
  61   2.0000     -10.306547      -280.4554
  62   2.0000     -10.305935      -280.4387
  63   2.0000     -10.305211      -280.4191
  64   2.0000     -10.305098      -280.4160
  65   2.0000     -10.304516      -280.4001
  66   2.0000     -10.304254      -280.3930
  67   2.0000     -10.304240      -280.3926
  68   2.0000     -10.303000      -280.3589
  69   2.0000     -10.302636      -280.3490
  70   2.0000     -10.301909      -280.3292
  71   2.0000     -10.301029      -280.3053
  72   2.0000     -10.300596      -280.2935
  73   2.0000     -10.295814      -280.1633
  74   2.0000      -8.095300      -220.2843
  75   2.0000      -8.094355      -220.2586
  76   2.0000      -8.064013      -219.4329
  77   2.0000      -8.059379      -219.3068
  78   2.0000      -6.064965      -165.0361
  79   2.0000      -6.064063      -165.0115
  80   2.0000      -6.060563      -164.9163
  81   2.0000      -6.059605      -164.8902
  82   2.0000      -6.056885      -164.8162
  83   2.0000      -6.055646      -164.7825
  84   2.0000      -6.033965      -164.1925
  85   2.0000      -6.029949      -164.0833
  86   2.0000      -6.029110      -164.0604
  87   2.0000      -6.025224      -163.9547
  88   2.0000      -6.024529      -163.9358
  89   2.0000      -6.020266      -163.8198
  90   2.0000      -1.331940       -36.2439
  91   2.0000      -1.329173       -36.1686
  92   2.0000      -1.151724       -31.3400
  93   2.0000      -1.148845       -31.2617
  94   2.0000      -1.119786       -30.4709
  95   2.0000      -1.111608       -30.2484
  96   2.0000      -1.043397       -28.3923
  97   2.0000      -1.041691       -28.3458
  98   2.0000      -1.027943       -27.9717
  99   2.0000      -1.027514       -27.9601
 100   2.0000      -1.021865       -27.8064
 101   2.0000      -1.020834       -27.7783
 102   2.0000      -1.017106       -27.6769
 103   2.0000      -1.014249       -27.5991
 104   2.0000      -1.013676       -27.5835
 105   2.0000      -1.009056       -27.4578
 106   2.0000      -1.008235       -27.4355
 107   2.0000      -1.007371       -27.4120
 108   2.0000      -1.003364       -27.3029
 109   2.0000      -0.992480       -27.0067
 110   2.0000      -0.966282       -26.2939
 111   2.0000      -0.965132       -26.2626
 112   2.0000      -0.949864       -25.8471
 113   2.0000      -0.946331       -25.7510
 114   2.0000      -0.943982       -25.6871
 115   2.0000      -0.939193       -25.5567
 116   2.0000      -0.920003       -25.0346
 117   2.0000      -0.912832       -24.8394
 118   2.0000      -0.905121       -24.6296
 119   2.0000      -0.902611       -24.5613
 120   2.0000      -0.897917       -24.4336
 121   2.0000      -0.890354       -24.2278
 122   2.0000      -0.881080       -23.9754
 123   2.0000      -0.875337       -23.8191
 124   2.0000      -0.872705       -23.7475
 125   2.0000      -0.871201       -23.7066
 126   2.0000      -0.868117       -23.6227
 127   2.0000      -0.854108       -23.2415
 128   2.0000      -0.847563       -23.0634
 129   2.0000      -0.838472       -22.8160
 130   2.0000      -0.824567       -22.4376
 131   2.0000      -0.809644       -22.0315
 132   2.0000      -0.802994       -21.8506
 133   2.0000      -0.800494       -21.7825
 134   2.0000      -0.799135       -21.7456
 135   2.0000      -0.780242       -21.2315
 136   2.0000      -0.775464       -21.1015
 137   2.0000      -0.761464       -20.7205
 138   2.0000      -0.743443       -20.2301
 139   2.0000      -0.737308       -20.0632
 140   2.0000      -0.725668       -19.7464
 141   2.0000      -0.724461       -19.7136
 142   2.0000      -0.723555       -19.6889
 143   2.0000      -0.717770       -19.5315
 144   2.0000      -0.707959       -19.2646
 145   2.0000      -0.707457       -19.2509
 146   2.0000      -0.698762       -19.0143
 147   2.0000      -0.693871       -18.8812
 148   2.0000      -0.682275       -18.5656
 149   2.0000      -0.679339       -18.4857
 150   2.0000      -0.674197       -18.3458
 151   2.0000      -0.672805       -18.3080
 152   2.0000      -0.669782       -18.2257
 153   2.0000      -0.667814       -18.1721
 154   2.0000      -0.666415       -18.1341
 155   2.0000      -0.655987       -17.8503
 156   2.0000      -0.650140       -17.6912
 157   2.0000      -0.647046       -17.6070
 158   2.0000      -0.643827       -17.5194
 159   2.0000      -0.642942       -17.4953
 160   2.0000      -0.641824       -17.4649
 161   2.0000      -0.640537       -17.4299
 162   2.0000      -0.634218       -17.2579
 163   2.0000      -0.633109       -17.2278
 164   2.0000      -0.627158       -17.0658
 165   2.0000      -0.621229       -16.9045
 166   2.0000      -0.607422       -16.5288
 167   2.0000      -0.606274       -16.4976
 168   2.0000      -0.600618       -16.3437
 169   2.0000      -0.594255       -16.1705
 170   2.0000      -0.592081       -16.1113
 171   2.0000      -0.591886       -16.1060
 172   2.0000      -0.585024       -15.9193
 173   2.0000      -0.582430       -15.8487
 174   2.0000      -0.581216       -15.8157
 175   2.0000      -0.575696       -15.6655
 176   2.0000      -0.570211       -15.5162
 177   2.0000      -0.569488       -15.4966
 178   2.0000      -0.558464       -15.1966
 179   2.0000      -0.554611       -15.0917
 180   2.0000      -0.552681       -15.0392
 181   2.0000      -0.549832       -14.9617
 182   2.0000      -0.549011       -14.9394
 183   2.0000      -0.548747       -14.9322
 184   2.0000      -0.545556       -14.8453
 185   2.0000      -0.543688       -14.7945
 186   2.0000      -0.540399       -14.7050
 187   2.0000      -0.535285       -14.5658
 188   2.0000      -0.532217       -14.4824
 189   2.0000      -0.527318       -14.3491
 190   2.0000      -0.524931       -14.2841
 191   2.0000      -0.523949       -14.2574
 192   2.0000      -0.520068       -14.1518
 193   2.0000      -0.514644       -14.0042
 194   2.0000      -0.513972       -13.9859
 195   2.0000      -0.510079       -13.8799
 196   2.0000      -0.507630       -13.8133
 197   2.0000      -0.506019       -13.7695
 198   2.0000      -0.502729       -13.6800
 199   2.0000      -0.500195       -13.6110
 200   2.0000      -0.492850       -13.4111
 201   2.0000      -0.490075       -13.3356
 202   2.0000      -0.489071       -13.3083
 203   2.0000      -0.487759       -13.2726
 204   2.0000      -0.486774       -13.2458
 205   2.0000      -0.483208       -13.1488
 206   2.0000      -0.478238       -13.0135
 207   2.0000      -0.472021       -12.8443
 208   2.0000      -0.471523       -12.8308
 209   2.0000      -0.469870       -12.7858
 210   2.0000      -0.466737       -12.7005
 211   2.0000      -0.466468       -12.6933
 212   2.0000      -0.466050       -12.6819
 213   2.0000      -0.465215       -12.6591
 214   2.0000      -0.464090       -12.6285
 215   2.0000      -0.463120       -12.6021
 216   2.0000      -0.461399       -12.5553
 217   2.0000      -0.458146       -12.4668
 218   2.0000      -0.456784       -12.4297
 219   2.0000      -0.456443       -12.4205
 220   2.0000      -0.455864       -12.4047
 221   2.0000      -0.455267       -12.3884
 222   2.0000      -0.451738       -12.2924
 223   2.0000      -0.450217       -12.2510
 224   2.0000      -0.446210       -12.1420
 225   2.0000      -0.443692       -12.0735
 226   2.0000      -0.441988       -12.0271
 227   2.0000      -0.441899       -12.0247
 228   2.0000      -0.440353       -11.9826
 229   2.0000      -0.439885       -11.9699
 230   2.0000      -0.439652       -11.9636
 231   2.0000      -0.435591       -11.8530
 232   2.0000      -0.432368       -11.7653
 233   2.0000      -0.426278       -11.5996
 234   2.0000      -0.424953       -11.5636
 235   2.0000      -0.422029       -11.4840
 236   2.0000      -0.421350       -11.4655
 237   2.0000      -0.419869       -11.4252
 238   2.0000      -0.419774       -11.4226
 239   2.0000      -0.417245       -11.3538
 240   2.0000      -0.413578       -11.2540
 241   2.0000      -0.401040       -10.9129
 242   2.0000      -0.396872       -10.7994
 243   2.0000      -0.395245       -10.7552
 244   2.0000      -0.394712       -10.7407
 245   2.0000      -0.389829       -10.6078
 246   2.0000      -0.388366       -10.5680
 247   2.0000      -0.387688       -10.5495
 248   2.0000      -0.378390       -10.2965
 249   2.0000      -0.376122       -10.2348
 250   2.0000      -0.372972       -10.1491
 251   2.0000      -0.364382        -9.9153
 252   2.0000      -0.360982        -9.8228
 253   2.0000      -0.356217        -9.6931
 254   2.0000      -0.352024        -9.5791
 255   2.0000      -0.343589        -9.3495
 256   2.0000      -0.336998        -9.1702
 257   2.0000      -0.330017        -8.9802
 258   2.0000      -0.324336        -8.8256
 259   2.0000      -0.319727        -8.7002
 260   2.0000      -0.308666        -8.3992
 261   2.0000      -0.293385        -7.9834
 262   2.0000      -0.281090        -7.6488
 263   2.0000      -0.229379        -6.2417
 264   0.0000      -0.112067        -3.0495
 265   0.0000      -0.102829        -2.7981
 266   0.0000      -0.096832        -2.6349
 267   0.0000      -0.094178        -2.5627
 268   0.0000      -0.086550        -2.3552

MULLIKEN ATOMIC CHARGES
-----------------------
   0 C :   -0.034491
   1 C :    0.048614
   2 C :    0.050082
   3 C :   -0.026774
   4 C :    0.009899
   5 C :    0.014786
   6 C :    0.305263
   7 C :   -0.347021
   8 C :   -0.185713
   9 N :    0.162848
  10 C :   -0.181093
  11 N :    0.145146
  12 C :   -0.086579
  13 C :    0.211553
  14 C :   -0.326915
  15 C :   -0.183313
  16 N :    0.158624
  17 C :   -0.176635
  18 N :    0.169530
  19 C :    0.035333
  20 N :    0.017511
  21 C :   -0.172050
  22 S :    0.190109
  23 C :    0.011150
  24 N :    0.276681
  25 O :   -0.238271
  26 O :   -0.255853
  27 C :   -0.009261
  28 C :    0.178977
  29 C :   -0.067926
  30 C :    0.013798
  31 C :   -0.020448
  32 C :   -0.019638
  33 C :    0.031003
  34 C :    0.056105
  35 C :   -0.063988
  36 S :    0.062751
  37 C :   -0.050303
  38 C :    0.039771
  39 C :    0.033626
  40 C :   -0.094066
  41 S :    0.088946
  42 C :    0.043719
  43 N :   -0.010147
  44 C :   -0.095407
  45 S :    0.185604
  46 C :   -0.002074
  47 N :    0.278803
  48 O :   -0.241533
  49 O :   -0.260766
  50 C :    0.007387
  51 C :    0.091830
  52 C :   -0.005671
  53 C :   -0.037772
  54 C :    0.032249
  55 C :   -0.050592
  56 C :    0.275929
  57 C :   -0.335652
  58 C :   -0.195907
  59 N :    0.165220
  60 C :   -0.191840
  61 N :    0.161948
  62 C :    0.009321
  63 C :    0.003908
  64 C :   -0.016992
  65 C :    0.047143
  66 C :    0.039470
  67 C :   -0.033956
  68 C :    0.323588
  69 C :   -0.361202
  70 C :   -0.176294
  71 N :    0.137714
  72 C :   -0.205840
  73 N :    0.165243
  74 H :    0.006867
  75 H :    0.006988
  76 H :    0.008260
  77 H :    0.009985
  78 H :    0.033327
  79 H :    0.161590
  80 H :    0.013437
  81 H :   -0.013667
  82 H :    0.008443
  83 H :   -0.010383
  84 H :   -0.007272
  85 H :   -0.002634
  86 H :    0.001745
  87 H :   -0.012022
  88 H :    0.038347
  89 H :    0.150995
  90 H :    0.021380
  91 H :    0.015378
  92 H :    0.031866
  93 H :    0.009414
  94 H :    0.004289
  95 H :    0.002474
  96 H :   -0.003751
  97 H :    0.005750
Sum of atomic charges:   -0.0000000

LOEWDIN ATOMIC CHARGES
----------------------
   0 C :    0.007249
   1 C :    0.003965
   2 C :    0.008504
   3 C :    0.005673
   4 C :   -0.010615
   5 C :   -0.014574
   6 C :    0.084812
   7 C :   -0.138065
   8 C :   -0.020102
   9 N :   -0.042634
  10 C :   -0.019934
  11 N :   -0.049122
  12 C :   -0.107502
  13 C :    0.051554
  14 C :   -0.140826
  15 C :   -0.016773
  16 N :   -0.057479
  17 C :   -0.021801
  18 N :   -0.039193
  19 C :    0.086097
  20 N :    0.077916
  21 C :   -0.133759
  22 S :    0.491060
  23 C :   -0.195763
  24 N :    0.273702
  25 O :   -0.204490
  26 O :   -0.222432
  27 C :   -0.003356
  28 C :   -0.074062
  29 C :   -0.042778
  30 C :   -0.011297
  31 C :   -0.066629
  32 C :   -0.134002
  33 C :   -0.036545
  34 C :   -0.013806
  35 C :   -0.183208
  36 S :    0.380443
  37 C :   -0.173202
  38 C :   -0.006828
  39 C :   -0.045102
  40 C :   -0.183774
  41 S :    0.371371
  42 C :   -0.006023
  43 N :    0.056734
  44 C :   -0.086789
  45 S :    0.460962
  46 C :   -0.205357
  47 N :    0.273412
  48 O :   -0.207607
  49 O :   -0.225975
  50 C :    0.012328
  51 C :   -0.111704
  52 C :    0.037916
  53 C :   -0.050433
  54 C :    0.064207
  55 C :   -0.062100
  56 C :    0.078256
  57 C :   -0.132100
  58 C :   -0.025119
  59 N :   -0.044731
  60 C :   -0.019089
  61 N :   -0.043744
  62 C :   -0.012734
  63 C :   -0.012139
  64 C :    0.000336
  65 C :    0.001661
  66 C :   -0.002394
  67 C :    0.002883
  68 C :    0.077655
  69 C :   -0.140371
  70 C :   -0.007560
  71 N :   -0.060181
  72 C :   -0.020897
  73 N :   -0.061991
  74 H :    0.042081
  75 H :    0.038944
  76 H :    0.039434
  77 H :    0.042839
  78 H :    0.044460
  79 H :    0.107804
  80 H :    0.045950
  81 H :    0.025180
  82 H :    0.021649
  83 H :    0.035159
  84 H :    0.036474
  85 H :    0.037577
  86 H :    0.039089
  87 H :    0.031150
  88 H :    0.037562
  89 H :    0.097601
  90 H :    0.050350
  91 H :    0.043093
  92 H :    0.029247
  93 H :    0.045970
  94 H :    0.037880
  95 H :    0.035218
  96 H :    0.033832
  97 H :    0.041453

  Mayer bond orders larger than 0.100000
B(  0-C ,  1-C ) :   1.3670 B(  0-C ,  5-C ) :   1.3820 B(  0-C , 74-H ) :   0.9841
B(  1-C ,  2-C ) :   1.3796 B(  1-C , 75-H ) :   0.9865 B(  2-C ,  3-C ) :   1.3600
B(  2-C , 76-H ) :   0.9865 B(  3-C ,  4-C ) :   1.3864 B(  3-C , 77-H ) :   0.9876
B(  4-C ,  5-C ) :   1.3099 B(  4-C , 13-C ) :   1.0114 B(  5-C ,  6-C ) :   0.9996
B(  6-C ,  7-C ) :   1.6386 B(  6-C , 12-C ) :   1.0837 B(  7-C ,  8-C ) :   1.1467
B(  7-C , 10-C ) :   1.1348 B(  8-C ,  9-N ) :   2.9784 B( 10-C , 11-N ) :   2.9566
B( 12-C , 13-C ) :   1.0183 B( 12-C , 19-C ) :   1.5564 B( 13-C , 14-C ) :   1.6289
B( 14-C , 15-C ) :   1.1685 B( 14-C , 17-C ) :   1.1371 B( 15-C , 16-N ) :   2.9777
B( 17-C , 18-N ) :   2.9965 B( 19-C , 20-N ) :   1.2753 B( 19-C , 78-H ) :   0.9147
B( 20-N , 21-C ) :   1.1474 B( 20-N , 79-H ) :   0.8989 B( 21-C , 22-S ) :   1.1287
B( 21-C , 28-C ) :   1.3745 B( 22-S , 23-C ) :   1.1047 B( 23-C , 24-N ) :   0.9567
B( 23-C , 27-C ) :   1.5047 B( 24-N , 25-O ) :   1.5416 B( 24-N , 26-O ) :   1.5186
B( 25-O , 26-O ) :   0.2658 B( 27-C , 28-C ) :   1.2146 B( 27-C , 80-H ) :   0.9992
B( 28-C , 29-C ) :   1.0740 B( 29-C , 30-C ) :   1.6464 B( 29-C , 81-H ) :   0.9771
B( 30-C , 31-C ) :   1.1525 B( 30-C , 82-H ) :   0.9659 B( 31-C , 32-C ) :   1.5490
B( 31-C , 83-H ) :   0.9897 B( 32-C , 33-C ) :   1.1351 B( 32-C , 36-S ) :   1.0410
B( 33-C , 34-C ) :   1.5888 B( 33-C , 84-H ) :   1.0011 B( 34-C , 35-C ) :   1.1883
B( 34-C , 85-H ) :   0.9927 B( 35-C , 36-S ) :   1.0456 B( 35-C , 37-C ) :   1.5144
B( 37-C , 38-C ) :   1.1833 B( 37-C , 41-S ) :   1.0480 B( 38-C , 39-C ) :   1.6334
B( 38-C , 86-H ) :   0.9923 B( 39-C , 40-C ) :   1.1112 B( 39-C , 87-H ) :   0.9896
B( 40-C , 41-S ) :   1.0234 B( 40-C , 42-C ) :   1.6245 B( 42-C , 43-N ) :   1.1690
B( 42-C , 88-H ) :   0.9389 B( 43-N , 44-C ) :   1.2222 B( 43-N , 89-H ) :   0.8981
B( 44-C , 45-S ) :   1.1486 B( 44-C , 51-C ) :   1.3296 B( 45-S , 46-C ) :   1.0711
B( 46-C , 47-N ) :   0.9631 B( 46-C , 50-C ) :   1.5193 B( 47-N , 48-O ) :   1.5424
B( 47-N , 49-O ) :   1.5112 B( 48-O , 49-O ) :   0.2629 B( 50-C , 51-C ) :   1.1941
B( 50-C , 90-H ) :   1.0055 B( 51-C , 52-C ) :   1.1110 B( 52-C , 53-C ) :   1.5978
B( 52-C , 91-H ) :   0.9785 B( 53-C , 54-C ) :   1.2068 B( 53-C , 92-H ) :   0.9436
B( 54-C , 55-C ) :   1.5283 B( 54-C , 93-H ) :   0.9495 B( 55-C , 56-C ) :   1.0436
B( 55-C , 68-C ) :   1.0273 B( 56-C , 57-C ) :   1.6403 B( 56-C , 62-C ) :   0.9985
B( 57-C , 58-C ) :   1.1332 B( 57-C , 60-C ) :   1.1458 B( 58-C , 59-N ) :   2.9968
B( 60-C , 61-N ) :   2.9841 B( 62-C , 63-C ) :   1.3142 B( 62-C , 67-C ) :   1.3792
B( 63-C , 64-C ) :   1.3850 B( 63-C , 68-C ) :   1.0087 B( 64-C , 65-C ) :   1.3617
B( 64-C , 94-H ) :   0.9781 B( 65-C , 66-C ) :   1.3735 B( 65-C , 95-H ) :   0.9825
B( 66-C , 67-C ) :   1.3620 B( 66-C , 96-H ) :   0.9875 B( 67-C , 97-H ) :   0.9850
B( 68-C , 69-C ) :   1.5979 B( 69-C , 70-C ) :   1.1502 B( 69-C , 72-C ) :   1.1610
B( 70-C , 71-N ) :   2.9257 B( 72-C , 73-N ) :   2.9618

-----------------------------------------------------------------------------
         ABSORPTION SPECTRUM VIA TRANSITION ELECTRIC DIPOLE MOMENTS
-----------------------------------------------------------------------------
State   Energy  Wavelength   fosc         T2         TX        TY        TZ
        (cm-1)    (nm)                  (au**2)     (au)      (au)      (au)
-----------------------------------------------------------------------------
   0    9633.2   1038.1   0.151469668   5.17644  -2.18899  -0.29608  -0.54505
   1   12931.4    773.3   0.398930618  10.15612   2.72361   1.44378   0.80843
   2   14345.2    697.1   0.585959903  13.44736   2.80415   2.34444   0.29617
   3   17272.7    578.9   0.256860326   4.89566  -1.79658  -0.94012  -0.88551
   4   17999.5    555.6   0.027313599   0.49957   0.38430  -0.59232   0.03222
   5   21149.8    472.8   0.856295353  13.32883  -2.35416  -2.68462  -0.76130
   6   22473.0    445.0   0.049644925   0.72726  -0.51797   0.53217  -0.41924
   7   23091.7    433.1   0.098189894   1.39986   0.04563  -0.34003  -1.13233
   8   24160.5    413.9   0.208987910   2.84768   0.52176   1.51820  -0.52011
   9   24785.1    403.5   0.061383751   0.81534   0.43597   0.48052   0.62799
  10   25261.1    395.9   0.063261178   0.82444   0.07760   0.62815  -0.65104
  11   25632.7    390.1   0.122818485   1.57741   0.66952  -0.65628   0.83574
  12   26260.6    380.8   0.281399057   3.52772  -0.86804  -0.83073  -1.44364
  13   27183.7    367.9   0.010023243   0.12139   0.08769  -0.22690   0.24943
  14   27454.3    364.2   0.004305670   0.05163   0.02037   0.02455  -0.22497
  15   28228.5    354.3   0.353541206   4.12314  -1.30727  -1.45809  -0.53681
  16   28612.7    349.5   0.056556150   0.65072   0.40016   0.67521   0.18624
  17   29259.7    341.8   0.104087375   1.17113   0.58467   0.65848  -0.62904
  18   29687.8    336.8   0.165412422   1.83428   0.70542  -0.41094   1.08064
  19   29881.1    334.7   0.011888886   0.13098  -0.09615  -0.32877  -0.11684
  20   30614.6    326.6   0.493460564   5.30639   0.23143   2.15886   0.76952
  21   30846.0    324.2   0.114164350   1.21845  -0.41438  -0.99472  -0.23934
  22   31213.8    320.4   0.126938542   1.33882  -0.71544  -0.71828   0.55771
  23   31692.0    315.5   0.017994900   0.18693   0.34108  -0.20639   0.16732
  24   31852.1    314.0   0.363394748   3.75592   0.59040   1.17786  -1.42127
  25   32233.1    310.2   0.031232456   0.31899  -0.34315   0.08603  -0.44027
  26   32327.7    309.3   0.006165778   0.06279  -0.11729  -0.21364  -0.05821
  27   32625.3    306.5   0.094301810   0.95157  -0.92901  -0.28005  -0.10044
  28   32845.5    304.5   0.175518395   1.75923   0.49614   0.21335   1.21143
  29   33184.1    301.3   0.377474549   3.74484   0.38348  -1.26321   1.41495
  30   33385.8    299.5   0.041700458   0.41120   0.58706   0.21572   0.14150
  31   33667.4    297.0   0.027337499   0.26732  -0.47527   0.12035   0.16417
  32   34026.0    293.9   0.053143189   0.51418  -0.14824  -0.69415  -0.10180
  33   34276.7    291.7   0.064288365   0.61746  -0.24088  -0.31608  -0.67789
  34   34560.7    289.3   0.444922839   4.23816   1.77195   0.57474   0.87637
  35   34839.6    287.0   0.199875714   1.88870  -0.38530   0.67313   1.13452
  36   35197.5    284.1   0.038594945   0.36099   0.58944  -0.00806   0.11610
  37   35365.6    282.8   0.009659776   0.08992  -0.27094   0.03352   0.12404
  38   35810.8    279.2   0.016258180   0.14946   0.30823   0.23304  -0.01231
  39   35967.4    278.0   0.022521096   0.20614  -0.18205  -0.33017   0.25294
  40   36369.5    275.0   0.063047286   0.57070  -0.29129  -0.61590   0.32636
  41   36495.9    274.0   0.039424872   0.35563   0.34968   0.33369  -0.34930
  42   36711.1    272.4   0.001867730   0.01675  -0.11244  -0.05867  -0.02577
  43   37037.5    270.0   0.062710320   0.55741  -0.07683  -0.30837   0.67558
  44   37153.9    269.2   0.004158384   0.03685  -0.05142  -0.09626  -0.15791
  45   37354.4    267.7   0.037670306   0.33200   0.57576   0.02152   0.00612
  46   37497.3    266.7   0.011925192   0.10470  -0.12331  -0.17618   0.24177
  47   37761.1    264.8   0.002738661   0.02388  -0.08986  -0.12247  -0.02834
  48   38163.1    262.0   0.021183002   0.18273  -0.02101  -0.13864   0.40382
  49   38327.9    260.9   0.226756580   1.94769  -0.88300  -0.97017   0.47620
  50   38460.1    260.0   0.066168654   0.56639  -0.54872  -0.45784  -0.23597
  51   38838.3    257.5   0.016534873   0.14016  -0.29440  -0.18413   0.13994
  52   39105.1    255.7   0.005837861   0.04915   0.05162  -0.11575   0.18189
  53   39234.7    254.9   0.012606333   0.10578   0.15819   0.12769  -0.25387
  54   39302.3    254.4   0.010133239   0.08488   0.04647   0.03184  -0.28584
  55   39381.4    253.9   0.012927557   0.10807   0.03886  -0.22890  -0.23273
  56   39421.4    253.7   0.002977418   0.02486  -0.01857  -0.14238   0.06517
  57   39565.3    252.7   0.007556779   0.06288   0.14081   0.11305   0.17398
  58   39908.8    250.6   0.043232208   0.35663   0.29058   0.04970   0.51934
  59   40175.6    248.9   0.064101991   0.52527  -0.12369   0.29342   0.65106
  60   40245.6    248.5   0.149755593   1.22501   1.05842   0.32360  -0.00652

FINAL SINGLE POINT ENERGY     -4618.094205150929

DIPOLE MOMENT
-------------
                                X             Y             Z
Electronic contribution:      8.09947      -1.61314      10.71914
Nuclear contribution   :     -9.29269       3.62703     -12.66843
                        -----------------------------------------
Total Dipole Moment    :     -1.19321       2.01388      -1.94930
                        -----------------------------------------
Magnitude (a.u.)       :      3.04618
Magnitude (Debye)      :      7.74279

Rotational constants in cm-1:     0.002003     0.000328     0.000314
Rotational constants in MHz :    60.037592     9.841224     9.409698

                             ****ORCA TERMINATED NORMALLY****
TOTAL RUN TIME: 0 days 0 hours 12 minutes 37 seconds 290 msec
