                         Program Version 4.2.0 -  RELEASE  -
|  1> # ORCA input file
|  2> # SCF done       -183.797985035606          0.000392036068
|  3> ! CAM-B3LYP def2-SVP def2/J RIJCOSX Grid4 TightSCF
|  4> %maxcore 5000
|  5> %tddft
|  6>     Mode sTDDFT
|  7>     Ethresh 5.0
|  8>     maxcore 5000
|  9> end
| 10>
| 11> %pal
| 12>   nprocs 6
| 13>   end
| 14> * xyz 0 1
| 15>    C        9.63861        -6.21384         1.31715
| 16>    F        9.52535        -5.30752         2.29153
| 17>    C       10.89826        -6.63260         0.90103
| 18>    F       11.99639        -6.13822         1.47415
| 19>    C       11.00006        -7.57263        -0.11939
| 20>    F       12.20259        -7.98862        -0.52455
| 21>    C        9.84953        -8.07964        -0.71138
| 22>    F        9.98943        -9.00074        -1.67183
| 23>    C        8.57194        -7.67844        -0.31477
| 24>    C        8.50121        -6.73609         0.71345
| 25>    F        7.30810        -6.28921         1.12442
| 26>    C        7.35934        -8.21720        -0.95010
| 27>    C        6.28586        -8.63885        -0.15908
| 28>    C        5.16059        -9.13555        -0.77263
| 29>    C        5.08486        -9.21257        -2.17297
| 30>    C        6.14641        -8.79286        -2.95898
| 31>    C        7.28035        -8.30083        -2.34085
| 32>    C        3.79705        -9.76861        -2.53270
| 33>    C        3.07903       -10.03472        -1.35578
| 34>    C        3.89063        -9.65288        -0.13943
| 35>    C        3.19093        -8.55682         0.68589
| 36>    C        2.88501        -7.30640        -0.12938
| 37>    C        4.16849       -10.87510         0.75566
| 38>    C        4.86441       -12.00848         0.01160
| 39>    C        1.81701       -10.57501        -1.41660
| 40>    C        1.24384       -10.87431        -2.66153
| 41>    C        1.97101       -10.58992        -3.82556
| 42>    C        3.23620       -10.04227        -3.77084
| 43>    C       -0.08028       -11.45985        -2.69794
| 44>    C       -0.64604       -11.98850        -3.79245
| 45>    N       -1.89960       -12.55235        -3.82638
| 46>    C       -2.48890       -13.05239        -4.94497
| 47>    S       -3.63014       -14.35448        -4.80530
| 48>    C       -3.72182       -14.44317        -6.53908
| 49>    N       -4.59700       -15.37618        -7.08882
| 50>    O       -4.66287       -15.45105        -8.30437
| 51>    O       -5.23873       -16.05947        -6.30320
| 52>    C       -2.92181       -13.52627        -7.17021
| 53>    C       -2.22462       -12.69571        -6.27468
| 54>    C       -1.43335       -11.55348        -6.65600
| 55>    C       -0.69278       -11.45264        -7.78606
| 56>    C        0.05424       -10.29805        -8.10126
| 57>    C        0.95893       -10.19626        -9.12411
| 58>    C        1.73592        -9.05541        -9.44992
| 59>    C        2.60511        -9.24483       -10.47953
| 60>    C        2.57402       -10.54640       -11.02723
| 61>    S        1.37079       -11.52033       -10.20512
| 62>    C        3.37828       -11.05518       -12.02870
| 63>    C        4.39568       -10.37592       -12.73833
| 64>    C        5.07440       -11.15416       -13.62469
| 65>    C        4.63583       -12.49937       -13.67996
| 66>    S        3.28159       -12.71365       -12.56545
| 67>    C        5.07308       -13.56641       -14.42041
| 68>    C        6.20808       -13.66508       -15.25821
| 69>    C        7.29319       -12.81053       -15.44426
| 70>    C        8.19442       -13.40861       -16.36424
| 71>    C        9.40627       -12.98838       -16.85929
| 72>    C       10.07391       -13.83524       -17.76263
| 73>    C       11.28627       -13.70640       -18.41793
| 74>    C       11.50561       -14.86823       -19.23016
| 75>    C       10.42371       -15.71031       -19.07308
| 76>    C        9.49755       -15.10882       -18.16057
| 77>    C        8.29382       -15.53108       -17.67168
| 78>    C        7.62284       -14.68469       -16.75796
| 79>    C        6.43332       -14.82976       -16.07981
| 80>    C       12.65046       -15.13104       -20.06810
| 81>    C       13.70381       -14.33156       -20.21373
| 82>    H        6.35429        -8.58977         0.91678
| 83>    H        6.09373        -8.84699        -4.03539
| 84>    H        8.10838        -7.95822        -2.94197
| 85>    H        3.83215        -8.28984         1.52810
| 86>    H        2.26139        -8.96442         1.08874
| 87>    H        3.80238        -6.86026        -0.50634
| 88>    H        2.37688        -6.57222         0.49116
| 89>    H        2.24505        -7.54556        -0.97599
| 90>    H        3.21919       -11.23514         1.15759
| 91>    H        4.78790       -10.55848         1.59727
| 92>    H        4.25690       -12.34999        -0.82349
| 93>    H        5.03153       -12.84823         0.68196
| 94>    H        5.82647       -11.68156        -0.37666
| 95>    H        1.26116       -10.78283        -0.51325
| 96>    H        1.53591       -10.78991        -4.79234
| 97>    H        3.77750        -9.83114        -4.68088
| 98>    H       -0.62207       -11.47515        -1.76066
| 99>    H       -0.12684       -12.02717        -4.73608
|100>    H       -2.34455       -12.75008        -2.93951
|101>    H       -2.88249       -13.43425        -8.24018
|102>    H       -1.44796       -10.71676        -5.96834
|103>    H       -0.61786       -12.29409        -8.46195
|104>    H       -0.07336        -9.42792        -7.46943
|105>    H        1.62641        -8.13361        -8.90605
|106>    H        3.27187        -8.48839       -10.85305
|107>    H        4.59942        -9.33256       -12.57566
|108>    H        5.85630       -10.78515       -14.26088
|109>    H        4.48223       -14.47102       -14.34153
|110>    H        7.47370       -11.87436       -14.95314
|111>    H        9.84168       -12.04252       -16.56881
|112>    H       11.95884       -12.87247       -18.33442
|113>    H       10.28682       -16.66407       -19.54925
|114>    H        7.85883       -16.47833       -17.95851
|115>    H        5.75918       -15.66571       -16.14109
|116>    H       12.61329       -16.06961       -20.60745
|117>    H       13.78670       -13.38965       -19.69912
|118>    H       14.52480       -14.59384       -20.85829
|119> *
|120>
|121>                          ****END OF INPUT****

CARTESIAN COORDINATES (ANGSTROEM)
---------------------------------
  C      9.638610   -6.213840    1.317150
  F      9.525350   -5.307520    2.291530
  C     10.898260   -6.632600    0.901030
  F     11.996390   -6.138220    1.474150
  C     11.000060   -7.572630   -0.119390
  F     12.202590   -7.988620   -0.524550
  C      9.849530   -8.079640   -0.711380
  F      9.989430   -9.000740   -1.671830
  C      8.571940   -7.678440   -0.314770
  C      8.501210   -6.736090    0.713450
  F      7.308100   -6.289210    1.124420
  C      7.359340   -8.217200   -0.950100
  C      6.285860   -8.638850   -0.159080
  C      5.160590   -9.135550   -0.772630
  C      5.084860   -9.212570   -2.172970
  C      6.146410   -8.792860   -2.958980
  C      7.280350   -8.300830   -2.340850
  C      3.797050   -9.768610   -2.532700
  C      3.079030  -10.034720   -1.355780
  C      3.890630   -9.652880   -0.139430
  C      3.190930   -8.556820    0.685890
  C      2.885010   -7.306400   -0.129380
  C      4.168490  -10.875100    0.755660
  C      4.864410  -12.008480    0.011600
  C      1.817010  -10.575010   -1.416600
  C      1.243840  -10.874310   -2.661530
  C      1.971010  -10.589920   -3.825560
  C      3.236200  -10.042270   -3.770840
  C     -0.080280  -11.459850   -2.697940
  C     -0.646040  -11.988500   -3.792450
  N     -1.899600  -12.552350   -3.826380
  C     -2.488900  -13.052390   -4.944970
  S     -3.630140  -14.354480   -4.805300
  C     -3.721820  -14.443170   -6.539080
  N     -4.597000  -15.376180   -7.088820
  O     -4.662870  -15.451050   -8.304370
  O     -5.238730  -16.059470   -6.303200
  C     -2.921810  -13.526270   -7.170210
  C     -2.224620  -12.695710   -6.274680
  C     -1.433350  -11.553480   -6.656000
  C     -0.692780  -11.452640   -7.786060
  C      0.054240  -10.298050   -8.101260
  C      0.958930  -10.196260   -9.124110
  C      1.735920   -9.055410   -9.449920
  C      2.605110   -9.244830  -10.479530
  C      2.574020  -10.546400  -11.027230
  S      1.370790  -11.520330  -10.205120
  C      3.378280  -11.055180  -12.028700
  C      4.395680  -10.375920  -12.738330
  C      5.074400  -11.154160  -13.624690
  C      4.635830  -12.499370  -13.679960
  S      3.281590  -12.713650  -12.565450
  C      5.073080  -13.566410  -14.420410
  C      6.208080  -13.665080  -15.258210
  C      7.293190  -12.810530  -15.444260
  C      8.194420  -13.408610  -16.364240
  C      9.406270  -12.988380  -16.859290
  C     10.073910  -13.835240  -17.762630
  C     11.286270  -13.706400  -18.417930
  C     11.505610  -14.868230  -19.230160
  C     10.423710  -15.710310  -19.073080
  C      9.497550  -15.108820  -18.160570
  C      8.293820  -15.531080  -17.671680
  C      7.622840  -14.684690  -16.757960
  C      6.433320  -14.829760  -16.079810
  C     12.650460  -15.131040  -20.068100
  C     13.703810  -14.331560  -20.213730
  H      6.354290   -8.589770    0.916780
  H      6.093730   -8.846990   -4.035390
  H      8.108380   -7.958220   -2.941970
  H      3.832150   -8.289840    1.528100
  H      2.261390   -8.964420    1.088740
  H      3.802380   -6.860260   -0.506340
  H      2.376880   -6.572220    0.491160
  H      2.245050   -7.545560   -0.975990
  H      3.219190  -11.235140    1.157590
  H      4.787900  -10.558480    1.597270
  H      4.256900  -12.349990   -0.823490
  H      5.031530  -12.848230    0.681960
  H      5.826470  -11.681560   -0.376660
  H      1.261160  -10.782830   -0.513250
  H      1.535910  -10.789910   -4.792340
  H      3.777500   -9.831140   -4.680880
  H     -0.622070  -11.475150   -1.760660
  H     -0.126840  -12.027170   -4.736080
  H     -2.344550  -12.750080   -2.939510
  H     -2.882490  -13.434250   -8.240180
  H     -1.447960  -10.716760   -5.968340
  H     -0.617860  -12.294090   -8.461950
  H     -0.073360   -9.427920   -7.469430
  H      1.626410   -8.133610   -8.906050
  H      3.271870   -8.488390  -10.853050
  H      4.599420   -9.332560  -12.575660
  H      5.856300  -10.785150  -14.260880
  H      4.482230  -14.471020  -14.341530
  H      7.473700  -11.874360  -14.953140
  H      9.841680  -12.042520  -16.568810
  H     11.958840  -12.872470  -18.334420
  H     10.286820  -16.664070  -19.549250
  H      7.858830  -16.478330  -17.958510
  H      5.759180  -15.665710  -16.141090
  H     12.613290  -16.069610  -20.607450
  H     13.786700  -13.389650  -19.699120
  H     14.524800  -14.593840  -20.858290

 Total Charge           Charge          ....    0
 Multiplicity           Mult            ....    1
 Number of Electrons    NEL             ....  490
 Basis Dimension        Dim             .... 1135

ORBITAL ENERGIES
----------------

  NO   OCC          E(Eh)            E(eV)
   0   2.0000     -88.975430     -2421.1445
   1   2.0000     -88.940677     -2420.1989
   2   2.0000     -88.937705     -2420.1180
   3   2.0000     -24.806300      -675.0137
   4   2.0000     -24.802424      -674.9083
   5   2.0000     -24.802188      -674.9018
   6   2.0000     -24.801975      -674.8960
   7   2.0000     -24.801365      -674.8794
   8   2.0000     -19.225370      -523.1489
   9   2.0000     -19.224742      -523.1318
  10   2.0000     -14.637030      -398.2938
  11   2.0000     -14.475681      -393.9033
  12   2.0000     -10.387434      -282.6564
  13   2.0000     -10.382717      -282.5281
  14   2.0000     -10.382504      -282.5223
  15   2.0000     -10.382150      -282.5127
  16   2.0000     -10.382015      -282.5090
  17   2.0000     -10.361188      -281.9423
  18   2.0000     -10.331909      -281.1455
  19   2.0000     -10.321319      -280.8574
  20   2.0000     -10.312364      -280.6137
  21   2.0000     -10.307979      -280.4944
  22   2.0000     -10.305916      -280.4382
  23   2.0000     -10.304995      -280.4132
  24   2.0000     -10.301083      -280.3067
  25   2.0000     -10.300585      -280.2932
  26   2.0000     -10.296569      -280.1839
  27   2.0000     -10.296250      -280.1752
  28   2.0000     -10.290650      -280.0228
  29   2.0000     -10.289893      -280.0022
  30   2.0000     -10.286340      -279.9055
  31   2.0000     -10.286039      -279.8973
  32   2.0000     -10.282995      -279.8145
  33   2.0000     -10.282312      -279.7959
  34   2.0000     -10.281903      -279.7848
  35   2.0000     -10.281722      -279.7799
  36   2.0000     -10.281339      -279.7695
  37   2.0000     -10.280862      -279.7565
  38   2.0000     -10.279421      -279.7173
  39   2.0000     -10.278040      -279.6797
  40   2.0000     -10.277293      -279.6593
  41   2.0000     -10.275216      -279.6028
  42   2.0000     -10.274971      -279.5962
  43   2.0000     -10.274824      -279.5922
  44   2.0000     -10.273122      -279.5459
  45   2.0000     -10.273097      -279.5452
  46   2.0000     -10.272420      -279.5268
  47   2.0000     -10.271735      -279.5081
  48   2.0000     -10.270923      -279.4860
  49   2.0000     -10.270727      -279.4807
  50   2.0000     -10.269113      -279.4368
  51   2.0000     -10.268456      -279.4189
  52   2.0000     -10.268343      -279.4158
  53   2.0000     -10.268265      -279.4137
  54   2.0000     -10.268030      -279.4073
  55   2.0000     -10.267871      -279.4030
  56   2.0000     -10.267403      -279.3902
  57   2.0000     -10.266924      -279.3772
  58   2.0000     -10.264603      -279.3140
  59   2.0000     -10.264083      -279.2999
  60   2.0000     -10.263892      -279.2947
  61   2.0000     -10.263629      -279.2875
  62   2.0000     -10.263251      -279.2772
  63   2.0000     -10.263163      -279.2749
  64   2.0000     -10.256961      -279.1061
  65   2.0000     -10.246231      -278.8141
  66   2.0000     -10.245920      -278.8057
  67   2.0000      -8.071278      -219.6306
  68   2.0000      -8.037052      -218.6993
  69   2.0000      -8.034235      -218.6226
  70   2.0000      -6.040973      -164.3832
  71   2.0000      -6.036635      -164.2652
  72   2.0000      -6.032600      -164.1554
  73   2.0000      -6.006793      -163.4531
  74   2.0000      -6.004022      -163.3777
  75   2.0000      -6.002876      -163.3466
  76   2.0000      -6.000027      -163.2690
  77   2.0000      -5.997826      -163.2091
  78   2.0000      -5.994974      -163.1315
  79   2.0000      -1.332868       -36.2692
  80   2.0000      -1.325568       -36.0705
  81   2.0000      -1.319617       -35.9086
  82   2.0000      -1.309992       -35.6467
  83   2.0000      -1.306209       -35.5438
  84   2.0000      -1.304777       -35.5048
  85   2.0000      -1.123531       -30.5728
  86   2.0000      -1.080059       -29.3899
  87   2.0000      -0.994640       -27.0655
  88   2.0000      -0.994152       -27.0523
  89   2.0000      -0.991024       -26.9671
  90   2.0000      -0.986355       -26.8401
  91   2.0000      -0.984675       -26.7944
  92   2.0000      -0.969242       -26.3744
  93   2.0000      -0.957962       -26.0675
  94   2.0000      -0.947399       -25.7800
  95   2.0000      -0.922391       -25.0995
  96   2.0000      -0.915428       -24.9101
  97   2.0000      -0.898776       -24.4569
  98   2.0000      -0.894669       -24.3452
  99   2.0000      -0.889034       -24.1918
 100   2.0000      -0.880802       -23.9678
 101   2.0000      -0.869338       -23.6559
 102   2.0000      -0.861398       -23.4398
 103   2.0000      -0.861074       -23.4310
 104   2.0000      -0.859176       -23.3794
 105   2.0000      -0.847775       -23.0691
 106   2.0000      -0.840980       -22.8842
 107   2.0000      -0.840307       -22.8659
 108   2.0000      -0.837151       -22.7800
 109   2.0000      -0.834525       -22.7086
 110   2.0000      -0.830669       -22.6037
 111   2.0000      -0.826164       -22.4811
 112   2.0000      -0.816009       -22.2047
 113   2.0000      -0.801464       -21.8089
 114   2.0000      -0.796496       -21.6738
 115   2.0000      -0.791315       -21.5328
 116   2.0000      -0.771629       -20.9971
 117   2.0000      -0.762325       -20.7439
 118   2.0000      -0.757540       -20.6137
 119   2.0000      -0.753253       -20.4970
 120   2.0000      -0.744254       -20.2522
 121   2.0000      -0.743202       -20.2236
 122   2.0000      -0.729436       -19.8490
 123   2.0000      -0.725115       -19.7314
 124   2.0000      -0.721397       -19.6302
 125   2.0000      -0.699623       -19.0377
 126   2.0000      -0.691790       -18.8246
 127   2.0000      -0.688606       -18.7379
 128   2.0000      -0.684889       -18.6368
 129   2.0000      -0.675207       -18.3733
 130   2.0000      -0.674250       -18.3473
 131   2.0000      -0.670908       -18.2563
 132   2.0000      -0.667488       -18.1633
 133   2.0000      -0.666913       -18.1476
 134   2.0000      -0.660432       -17.9713
 135   2.0000      -0.653053       -17.7705
 136   2.0000      -0.651631       -17.7318
 137   2.0000      -0.647025       -17.6064
 138   2.0000      -0.637945       -17.3594
 139   2.0000      -0.633919       -17.2498
 140   2.0000      -0.630115       -17.1463
 141   2.0000      -0.626278       -17.0419
 142   2.0000      -0.623912       -16.9775
 143   2.0000      -0.623190       -16.9579
 144   2.0000      -0.619054       -16.8453
 145   2.0000      -0.618438       -16.8286
 146   2.0000      -0.618076       -16.8187
 147   2.0000      -0.614457       -16.7202
 148   2.0000      -0.609442       -16.5837
 149   2.0000      -0.600303       -16.3351
 150   2.0000      -0.599250       -16.3064
 151   2.0000      -0.595553       -16.2058
 152   2.0000      -0.593448       -16.1485
 153   2.0000      -0.591390       -16.0925
 154   2.0000      -0.584613       -15.9081
 155   2.0000      -0.578037       -15.7292
 156   2.0000      -0.576824       -15.6962
 157   2.0000      -0.573749       -15.6125
 158   2.0000      -0.568501       -15.4697
 159   2.0000      -0.562764       -15.3136
 160   2.0000      -0.557477       -15.1697
 161   2.0000      -0.554293       -15.0831
 162   2.0000      -0.552336       -15.0298
 163   2.0000      -0.547589       -14.9007
 164   2.0000      -0.546841       -14.8803
 165   2.0000      -0.542842       -14.7715
 166   2.0000      -0.542235       -14.7550
 167   2.0000      -0.541515       -14.7354
 168   2.0000      -0.539507       -14.6807
 169   2.0000      -0.532298       -14.4846
 170   2.0000      -0.529725       -14.4146
 171   2.0000      -0.523914       -14.2564
 172   2.0000      -0.522294       -14.2124
 173   2.0000      -0.518385       -14.1060
 174   2.0000      -0.517719       -14.0878
 175   2.0000      -0.516830       -14.0637
 176   2.0000      -0.515394       -14.0246
 177   2.0000      -0.509988       -13.8775
 178   2.0000      -0.509300       -13.8588
 179   2.0000      -0.508690       -13.8422
 180   2.0000      -0.502524       -13.6744
 181   2.0000      -0.496520       -13.5110
 182   2.0000      -0.495235       -13.4760
 183   2.0000      -0.493475       -13.4281
 184   2.0000      -0.491775       -13.3819
 185   2.0000      -0.490507       -13.3474
 186   2.0000      -0.486974       -13.2512
 187   2.0000      -0.486485       -13.2379
 188   2.0000      -0.484365       -13.1802
 189   2.0000      -0.482729       -13.1357
 190   2.0000      -0.473284       -12.8787
 191   2.0000      -0.472203       -12.8493
 192   2.0000      -0.470532       -12.8038
 193   2.0000      -0.469461       -12.7747
 194   2.0000      -0.468801       -12.7567
 195   2.0000      -0.466042       -12.6816
 196   2.0000      -0.463982       -12.6256
 197   2.0000      -0.462329       -12.5806
 198   2.0000      -0.461368       -12.5545
 199   2.0000      -0.457146       -12.4396
 200   2.0000      -0.455396       -12.3920
 201   2.0000      -0.453112       -12.3298
 202   2.0000      -0.450054       -12.2466
 203   2.0000      -0.447904       -12.1881
 204   2.0000      -0.446505       -12.1500
 205   2.0000      -0.444253       -12.0887
 206   2.0000      -0.441193       -12.0055
 207   2.0000      -0.437018       -11.8919
 208   2.0000      -0.432226       -11.7615
 209   2.0000      -0.429355       -11.6834
 210   2.0000      -0.425344       -11.5742
 211   2.0000      -0.424710       -11.5569
 212   2.0000      -0.421508       -11.4698
 213   2.0000      -0.420288       -11.4366
 214   2.0000      -0.419405       -11.4126
 215   2.0000      -0.416060       -11.3216
 216   2.0000      -0.410350       -11.1662
 217   2.0000      -0.406880       -11.0718
 218   2.0000      -0.402306       -10.9473
 219   2.0000      -0.395608       -10.7650
 220   2.0000      -0.395454       -10.7609
 221   2.0000      -0.389982       -10.6120
 222   2.0000      -0.389351       -10.5948
 223   2.0000      -0.383385       -10.4324
 224   2.0000      -0.379997       -10.3403
 225   2.0000      -0.374131       -10.1806
 226   2.0000      -0.370256       -10.0752
 227   2.0000      -0.365077        -9.9343
 228   2.0000      -0.364704        -9.9241
 229   2.0000      -0.353786        -9.6270
 230   2.0000      -0.348326        -9.4784
 231   2.0000      -0.345055        -9.3894
 232   2.0000      -0.334725        -9.1083
 233   2.0000      -0.327057        -8.8997
 234   2.0000      -0.322412        -8.7733
 235   2.0000      -0.321340        -8.7441
 236   2.0000      -0.321244        -8.7415
 237   2.0000      -0.317088        -8.6284
 238   2.0000      -0.314714        -8.5638
 239   2.0000      -0.295185        -8.0324
 240   2.0000      -0.280183        -7.6242
 241   2.0000      -0.267616        -7.2822
 242   2.0000      -0.252405        -6.8683
 243   2.0000      -0.242249        -6.5919
 244   2.0000      -0.201019        -5.4700
 245   0.0000      -0.096583        -2.6281
 246   0.0000      -0.068653        -1.8682
 247   0.0000      -0.049197        -1.3387
 248   0.0000      -0.025342        -0.6896
 249   0.0000      -0.014756        -0.4015

MULLIKEN ATOMIC CHARGES
-----------------------
   0 C :    0.170434
   1 F :   -0.162406
   2 C :    0.132266
   3 F :   -0.156886
   4 C :    0.168955
   5 F :   -0.160949
   6 C :    0.165746
   7 F :   -0.164672
   8 C :   -0.060665
   9 C :    0.164565
  10 F :   -0.165921
  11 C :    0.053450
  12 C :   -0.063033
  13 C :   -0.007118
  14 C :    0.126508
  15 C :   -0.066209
  16 C :    0.016144
  17 C :    0.102903
  18 C :    0.020002
  19 C :   -0.140045
  20 C :    0.070232
  21 C :    0.024684
  22 C :    0.067982
  23 C :    0.025528
  24 C :   -0.114976
  25 C :    0.125175
  26 C :   -0.029124
  27 C :   -0.042204
  28 C :   -0.030754
  29 C :    0.057690
  30 N :   -0.031909
  31 C :   -0.106183
  32 S :    0.162284
  33 C :   -0.019129
  34 N :    0.279780
  35 O :   -0.258752
  36 O :   -0.275003
  37 C :    0.010110
  38 C :    0.089566
  39 C :   -0.080003
  40 C :    0.015163
  41 C :   -0.036269
  42 C :   -0.010418
  43 C :    0.028718
  44 C :    0.027508
  45 C :   -0.049625
  46 S :    0.072817
  47 C :   -0.044926
  48 C :    0.014429
  49 C :    0.030809
  50 C :   -0.059311
  51 S :    0.083579
  52 C :    0.031197
  53 C :    0.071218
  54 C :   -0.050317
  55 C :    0.058288
  56 C :   -0.004716
  57 C :    0.050307
  58 C :   -0.025044
  59 C :    0.062691
  60 C :   -0.029072
  61 C :    0.060843
  62 C :   -0.002677
  63 C :    0.060789
  64 C :   -0.039398
  65 C :    0.012604
  66 C :   -0.026338
  67 H :   -0.031396
  68 H :   -0.032734
  69 H :   -0.020421
  70 H :   -0.000071
  71 H :   -0.005118
  72 H :    0.022365
  73 H :    0.009063
  74 H :    0.020582
  75 H :   -0.004295
  76 H :   -0.002413
  77 H :    0.022818
  78 H :    0.008781
  79 H :    0.021148
  80 H :   -0.047225
  81 H :   -0.036116
  82 H :   -0.036157
  83 H :   -0.033455
  84 H :    0.050945
  85 H :    0.132041
  86 H :    0.010966
  87 H :    0.014913
  88 H :    0.002801
  89 H :   -0.016817
  90 H :   -0.015704
  91 H :   -0.015220
  92 H :   -0.016336
  93 H :   -0.017537
  94 H :   -0.021803
  95 H :   -0.038644
  96 H :   -0.029281
  97 H :   -0.024576
  98 H :   -0.029888
  99 H :   -0.027511
 100 H :   -0.021980
 101 H :   -0.019848
 102 H :    0.006887
 103 H :    0.020322
Sum of atomic charges:   -0.0000000

LOEWDIN ATOMIC CHARGES
----------------------
   0 C :    0.025606
   1 F :   -0.040471
   2 C :    0.036701
   3 F :   -0.034637
   4 C :    0.025574
   5 F :   -0.039910
   6 C :    0.061868
   7 F :   -0.040260
   8 C :   -0.066040
   9 C :    0.061480
  10 F :   -0.041476
  11 C :   -0.028477
  12 C :   -0.011775
  13 C :    0.001536
  14 C :   -0.008805
  15 C :   -0.021140
  16 C :   -0.009476
  17 C :   -0.027290
  18 C :    0.006338
  19 C :   -0.035324
  20 C :   -0.011306
  21 C :   -0.057616
  22 C :   -0.011588
  23 C :   -0.057598
  24 C :   -0.030330
  25 C :   -0.013750
  26 C :   -0.026474
  27 C :   -0.012620
  28 C :   -0.079729
  29 C :    0.032226
  30 N :    0.030708
  31 C :   -0.104186
  32 S :    0.441974
  33 C :   -0.215064
  34 N :    0.274239
  35 O :   -0.224154
  36 O :   -0.241286
  37 C :    0.006352
  38 C :   -0.107720
  39 C :   -0.037711
  40 C :   -0.029901
  41 C :   -0.071464
  42 C :   -0.141934
  43 C :   -0.041722
  44 C :   -0.029589
  45 C :   -0.184525
  46 S :    0.362310
  47 C :   -0.177127
  48 C :   -0.028773
  49 C :   -0.036480
  50 C :   -0.146508
  51 S :    0.367571
  52 C :   -0.049032
  53 C :   -0.057227
  54 C :   -0.009016
  55 C :   -0.051708
  56 C :    0.062604
  57 C :   -0.059711
  58 C :    0.042931
  59 C :   -0.057033
  60 C :    0.009629
  61 C :   -0.055714
  62 C :    0.065968
  63 C :   -0.063010
  64 C :    0.038294
  65 C :   -0.020446
  66 C :   -0.055410
  67 H :    0.025115
  68 H :    0.027727
  69 H :    0.027705
  70 H :    0.020847
  71 H :    0.018924
  72 H :    0.025876
  73 H :    0.024058
  74 H :    0.025025
  75 H :    0.019266
  76 H :    0.019684
  77 H :    0.026070
  78 H :    0.023947
  79 H :    0.025404
  80 H :    0.021565
  81 H :    0.024430
  82 H :    0.027338
  83 H :    0.022761
  84 H :    0.036025
  85 H :    0.091184
  86 H :    0.045999
  87 H :    0.030867
  88 H :    0.024537
  89 H :    0.031205
  90 H :    0.032009
  91 H :    0.031122
  92 H :    0.030793
  93 H :    0.030728
  94 H :    0.029134
  95 H :    0.018056
  96 H :    0.033036
  97 H :    0.024439
  98 H :    0.023425
  99 H :    0.034108
 100 H :    0.025206
 101 H :    0.029256
 102 H :    0.017455
 103 H :    0.024307

  Mayer bond orders larger than 0.100000
B(  0-C ,  1-F ) :   1.1674 B(  0-C ,  2-C ) :   1.2745 B(  0-C ,  9-C ) :   1.2813
B(  2-C ,  3-F ) :   1.1754 B(  2-C ,  4-C ) :   1.2742 B(  2-C ,  8-C ) :   0.1077
B(  4-C ,  5-F ) :   1.1700 B(  4-C ,  6-C ) :   1.2778 B(  6-C ,  7-F ) :   1.1585
B(  6-C ,  8-C ) :   1.3414 B(  8-C ,  9-C ) :   1.3434 B(  8-C , 11-C ) :   0.9447
B(  9-C , 10-F ) :   1.1537 B( 11-C , 12-C ) :   1.3340 B( 11-C , 16-C ) :   1.3927
B( 12-C , 13-C ) :   1.4063 B( 12-C , 67-H ) :   1.0022 B( 13-C , 14-C ) :   1.3665
B( 13-C , 19-C ) :   0.9144 B( 14-C , 15-C ) :   1.3439 B( 14-C , 17-C ) :   0.9935
B( 15-C , 16-C ) :   1.3822 B( 15-C , 68-H ) :   0.9946 B( 16-C , 69-H ) :   0.9866
B( 17-C , 18-C ) :   1.3760 B( 17-C , 27-C ) :   1.3301 B( 18-C , 19-C ) :   0.9178
B( 18-C , 24-C ) :   1.3748 B( 19-C , 20-C ) :   1.0367 B( 19-C , 22-C ) :   1.0364
B( 20-C , 21-C ) :   1.1020 B( 20-C , 70-H ) :   0.9389 B( 20-C , 71-H ) :   0.9392
B( 21-C , 72-H ) :   0.9639 B( 21-C , 73-H ) :   0.9640 B( 21-C , 74-H ) :   0.9646
B( 22-C , 23-C ) :   1.1023 B( 22-C , 75-H ) :   0.9392 B( 22-C , 76-H ) :   0.9395
B( 23-C , 77-H ) :   0.9643 B( 23-C , 78-H ) :   0.9638 B( 23-C , 79-H ) :   0.9642
B( 24-C , 25-C ) :   1.2988 B( 24-C , 80-H ) :   1.0125 B( 25-C , 26-C ) :   1.3444
B( 25-C , 28-C ) :   1.0810 B( 26-C , 27-C ) :   1.4027 B( 26-C , 81-H ) :   0.9825
B( 27-C , 82-H ) :   0.9909 B( 28-C , 29-C ) :   1.7085 B( 28-C , 83-H ) :   0.9770
B( 29-C , 30-N ) :   1.1076 B( 29-C , 84-H ) :   0.9483 B( 30-N , 31-C ) :   1.2011
B( 30-N , 85-H ) :   0.9161 B( 31-C , 32-S ) :   1.1341 B( 31-C , 38-C ) :   1.3666
B( 32-S , 33-C ) :   1.0749 B( 33-C , 34-N ) :   0.9839 B( 33-C , 37-C ) :   1.4697
B( 34-N , 35-O ) :   1.5270 B( 34-N , 36-O ) :   1.5016 B( 35-O , 36-O ) :   0.2522
B( 37-C , 38-C ) :   1.2569 B( 37-C , 86-H ) :   1.0054 B( 38-C , 39-C ) :   1.0303
B( 39-C , 40-C ) :   1.6897 B( 39-C , 87-H ) :   0.9772 B( 40-C , 41-C ) :   1.1377
B( 40-C , 88-H ) :   0.9733 B( 41-C , 42-C ) :   1.5813 B( 41-C , 89-H ) :   0.9798
B( 42-C , 43-C ) :   1.1375 B( 42-C , 46-S ) :   1.0306 B( 43-C , 44-C ) :   1.5892
B( 43-C , 90-H ) :   0.9995 B( 44-C , 45-C ) :   1.1937 B( 44-C , 91-H ) :   0.9926
B( 45-C , 46-S ) :   1.0367 B( 45-C , 47-C ) :   1.4994 B( 47-C , 48-C ) :   1.1905
B( 47-C , 51-S ) :   1.0573 B( 48-C , 49-C ) :   1.5986 B( 48-C , 92-H ) :   0.9921
B( 49-C , 50-C ) :   1.1511 B( 49-C , 93-H ) :   0.9925 B( 50-C , 51-S ) :   1.0261
B( 50-C , 52-C ) :   1.5751 B( 52-C , 53-C ) :   1.1605 B( 52-C , 94-H ) :   0.9498
B( 53-C , 54-C ) :   1.4555 B( 53-C , 64-C ) :   1.1168 B( 54-C , 55-C ) :   1.1215
B( 54-C , 95-H ) :   1.0091 B( 55-C , 56-C ) :   1.4423 B( 55-C , 63-C ) :   1.1242
B( 56-C , 57-C ) :   1.1310 B( 56-C , 96-H ) :   1.0040 B( 57-C , 58-C ) :   1.4467
B( 57-C , 61-C ) :   1.1225 B( 58-C , 59-C ) :   1.1375 B( 58-C , 97-H ) :   1.0074
B( 59-C , 60-C ) :   1.5167 B( 59-C , 65-C ) :   1.0855 B( 60-C , 61-C ) :   1.0772
B( 60-C , 98-H ) :   1.0169 B( 61-C , 62-C ) :   1.4836 B( 62-C , 63-C ) :   1.1109
B( 62-C , 99-H ) :   1.0055 B( 63-C , 64-C ) :   1.4520 B( 64-C ,100-H ) :   1.0158
B( 65-C , 66-C ) :   1.9327 B( 65-C ,101-H ) :   0.9663 B( 66-C ,102-H ) :   0.9523
B( 66-C ,103-H ) :   0.9495

-----------------------------------------------------------------------------
         ABSORPTION SPECTRUM VIA TRANSITION ELECTRIC DIPOLE MOMENTS
-----------------------------------------------------------------------------
State   Energy  Wavelength   fosc         T2         TX        TY        TZ
        (cm-1)    (nm)                  (au**2)     (au)      (au)      (au)
-----------------------------------------------------------------------------
   0    7157.7   1397.1   0.083890110   3.85847   1.37103  -0.40347  -1.34758
   1   14901.0    671.1   1.891647456  41.79279  -4.25811   1.13605   4.72976
   2   15918.7    628.2   0.121276202   2.50809   0.80226  -0.62355  -1.21477
   3   20436.2    489.3   0.129886487   2.09238   0.93904   0.68815   0.85850
   4   22396.7    446.5   0.169338342   2.48912   1.09256  -0.23466  -1.11372
   5   22843.2    437.8   0.089589185   1.29114   1.04710  -0.43709   0.06056
   6   25027.2    399.6   0.105689643   1.39026   1.04748  -0.53068  -0.10688
   7   25937.8    385.5   0.104240925   1.32307  -0.93417   0.62490  -0.24471
   8   27108.7    368.9   1.048653520  12.73500   2.44373   2.00129   1.66074
   9   27267.5    366.7   0.021914400   0.26458   0.40832  -0.30647   0.06269
  10   28304.0    353.3   0.021650620   0.25182  -0.01540  -0.50034   0.03534
  11   28493.1    351.0   0.017278444   0.19964  -0.39541   0.19885   0.06119
  12   29084.0    343.8   0.003187540   0.03608  -0.00201  -0.01252  -0.18953
  13   30880.1    323.8   0.048128260   0.51309   0.18234  -0.65323  -0.23053
  14   32454.5    308.1   0.085003486   0.86226  -0.88023   0.00872   0.29560
  15   32723.6    305.6   0.008301568   0.08352  -0.24866   0.14515  -0.02486
  16   33245.4    300.8   0.177856672   1.76122  -0.81218  -0.55181  -0.89280
  17   33512.7    298.4   0.025847353   0.25391  -0.28798   0.03210   0.41225
  18   33674.1    297.0   0.095130447   0.93004   0.45451   0.04607  -0.84931
  19   33778.6    296.0   0.468488994   4.56598  -2.08746  -0.45318   0.05569
  20   34442.8    290.3   0.418652047   4.00157  -1.75958  -0.87129   0.38251
  21   34759.4    287.7   0.057675939   0.54626   0.53523   0.50638   0.05800
  22   35626.4    280.7   0.020523630   0.18965   0.18999   0.19559  -0.33956
  23   36231.8    276.0   0.363587257   3.30366  -1.37953  -1.08032   0.48317
  24   36732.7    272.2   0.053584938   0.48025   0.62260   0.26425  -0.15095
  25   37048.2    269.9   0.174165552   1.54764  -1.10048  -0.24701   0.52494
  26   37468.2    266.9   0.010525523   0.09248  -0.24603   0.14236   0.10808
  27   37803.8    264.5   0.035439108   0.30862  -0.22743   0.33325   0.38188
  28   37906.7    263.8   0.009802843   0.08514  -0.14552  -0.19928  -0.15571
  29   38359.0    260.7   0.206631602   1.77339  -1.06132  -0.18866   0.78192
  30   39146.6    255.4   0.040154531   0.33769  -0.52026  -0.19411   0.17127
  31   39246.7    254.8   0.158857809   1.33254   1.07858   0.38329  -0.14935
  32   39551.2    252.8   0.078530791   0.65367   0.71820   0.32424  -0.18091
  33   39883.9    250.7   0.085496622   0.70571   0.28599  -0.03512  -0.78910
  34   40214.2    248.7   0.013859762   0.11346  -0.00422  -0.12545  -0.31258

FINAL SINGLE POINT ENERGY     -4067.711344791092

DIPOLE MOMENT
-------------
                                X             Y             Z
Electronic contribution:     23.97081      24.51803      51.46809
Nuclear contribution   :    -22.66049     -23.13444     -51.37736
                        -----------------------------------------
Total Dipole Moment    :      1.31032       1.38359       0.09073
                        -----------------------------------------
Magnitude (a.u.)       :      1.90774
Magnitude (Debye)      :      4.84910

Rotational constants in cm-1:     0.000641     0.000341     0.000233
Rotational constants in MHz :    19.209378    10.217243     6.978468

                             ****ORCA TERMINATED NORMALLY****
TOTAL RUN TIME: 0 days 0 hours 10 minutes 52 seconds 354 msec
