                         Program Version 4.2.0 -  RELEASE  -
|  1> # ORCA input file
|  2> # SCF done       -183.785523840492          0.000979453335
|  3> ! CAM-B3LYP def2-SVP def2/J RIJCOSX Grid4 TightSCF
|  4> %maxcore 5000
|  5> %tddft
|  6>     Mode sTDDFT
|  7>     Ethresh 5.0
|  8>     maxcore 5000
|  9> end
| 10>
| 11> %pal
| 12>   nprocs 6
| 13>   end
| 14> * xyz 0 1
| 15>    C        6.67783        -6.72848         1.83159
| 16>    F        6.85824        -8.04508         1.91985
| 17>    C        7.77911        -5.88265         1.73702
| 18>    F        9.01508        -6.38291         1.71517
| 19>    C        7.57600        -4.50477         1.68468
| 20>    F        8.61687        -3.67594         1.61541
| 21>    C        6.28610        -4.00306         1.69785
| 22>    F        6.08412        -2.67369         1.65128
| 23>    C        5.15292        -4.83086         1.76556
| 24>    C        5.38957        -6.20966         1.86113
| 25>    F        4.36385        -7.05446         2.02900
| 26>    N        3.91123        -4.25186         1.80957
| 27>    C        2.71595        -4.76738         1.36541
| 28>    S        2.63829        -5.93420         0.08541
| 29>    C        0.91359        -5.79613         0.08479
| 30>    N        0.19398        -6.59789        -0.81082
| 31>    O       -1.01839        -6.50010        -0.80863
| 32>    O        0.84481        -7.33089        -1.53452
| 33>    C        0.43981        -4.89269         0.99687
| 34>    C        1.46459        -4.28966         1.75348
| 35>    C        1.18950        -3.31516         2.78291
| 36>    C        1.99397        -2.99102         3.81014
| 37>    C        1.71554        -2.02396         4.84917
| 38>    C        0.50880        -1.31119         4.92424
| 39>    C        0.31073        -0.40913         5.94020
| 40>    C        1.29427        -0.22233         6.93022
| 41>    C        2.49552        -0.91410         6.86398
| 42>    C        2.69602        -1.79881         5.82491
| 43>    C        0.78568         0.69567         7.92241
| 44>    C       -0.51527         1.07724         7.55133
| 45>    C       -0.89529         0.45837         6.22214
| 46>    C       -2.19079        -0.36105         6.31479
| 47>    C       -2.12068        -1.43557         7.39404
| 48>    C       -1.02286         1.61717         5.20533
| 49>    C       -1.21229         1.20975         3.75018
| 50>    C       -1.24303         1.92860         8.34172
| 51>    C       -0.69282         2.42284         9.53975
| 52>    C        0.61072         2.03200         9.89103
| 53>    C        1.34720         1.17981         9.09748
| 54>    C       -1.48869         3.30483        10.34249
| 55>    C       -1.14403         3.87565        11.52794
| 56>    C       -1.99511         4.73875        12.23957
| 57>    C       -1.68325         5.33513        13.43564
| 58>    C       -2.50174         6.21496        14.18398
| 59>    C       -1.93532         6.66365        15.33893
| 60>    C       -0.63646         6.16429        15.57339
| 61>    S       -0.15411         5.09851        14.27040
| 62>    C        0.18982         6.43581        16.64881
| 63>    C       -0.08446         7.27564        17.75102
| 64>    C        0.92706         7.35699        18.65948
| 65>    C        2.06910         6.58641        18.33725
| 66>    S        1.78334         5.74211        16.81098
| 67>    C        3.26585         6.40399        18.98251
| 68>    C        3.74532         6.97569        20.18226
| 69>    C        5.03669         6.60568        20.71134
| 70>    C        5.27021         7.30442        21.87392
| 71>    C        6.36891         7.30735        22.76529
| 72>    C        6.30213         8.13265        23.85166
| 73>    C        7.21755         8.37537        24.92629
| 74>    C        6.66951         9.31553        25.77477
| 75>    C        5.38590         9.68992        25.25474
| 76>    C        5.14679         8.98276        24.08931
| 77>    C        4.05262         8.98177        23.20521
| 78>    C        4.11360         8.15112        22.11089
| 79>    C        3.19842         7.91894        21.05138
| 80>    C        7.29580         9.81999        26.97261
| 81>    C        6.78419        10.73940        27.78689
| 82>    H        3.90012        -3.25526         2.00448
| 83>    H       -0.60885        -4.69289         1.12378
| 84>    H        0.21321        -2.86034         2.69920
| 85>    H        2.93544        -3.51175         3.93000
| 86>    H       -0.26715        -1.49238         4.19823
| 87>    H        3.25591        -0.77091         7.61679
| 88>    H        3.62753        -2.34470         5.76515
| 89>    H       -2.38629        -0.83623         5.35253
| 90>    H       -3.02030         0.31598         6.52921
| 91>    H       -1.30842        -2.13046         7.19067
| 92>    H       -3.05268        -1.99542         7.42738
| 93>    H       -1.95160        -0.98852         8.37122
| 94>    H       -0.12085         2.23027         5.28216
| 95>    H       -1.86778         2.23630         5.51507
| 96>    H       -0.33990         0.67789         3.37972
| 97>    H       -1.34558         2.10219         3.14221
| 98>    H       -2.09171         0.58352         3.62352
| 99>    H       -2.24466         2.22399         8.06215
|100>    H        1.04690         2.40576        10.80408
|101>    H        2.34677         0.89128         9.38761
|102>    H       -2.47116         3.53365         9.94565
|103>    H       -0.17758         3.68085        11.97250
|104>    H       -2.96899         4.95727        11.82017
|105>    H       -3.48437         6.48891        13.84196
|106>    H       -2.41668         7.33778        16.02462
|107>    H       -1.02003         7.79760        17.84609
|108>    H        0.86933         7.94647        19.55428
|109>    H        3.95341         5.71797        18.50200
|110>    H        5.69627         5.89146        20.25078
|111>    H        7.22426         6.67274        22.57903
|112>    H        8.17355         7.89760        25.04067
|113>    H        4.72052        10.40540        25.70213
|114>    H        3.19657         9.61553        23.39028
|115>    H        2.25415         8.41860        20.96062
|116>    H        8.26554         9.39094        27.19354
|117>    H        5.82720        11.19910        27.60612
|118>    H        7.31040        11.06804        28.66657
|119> *
|120>
|121>                          ****END OF INPUT****

CARTESIAN COORDINATES (ANGSTROEM)
---------------------------------
  C      6.677830   -6.728480    1.831590
  F      6.858240   -8.045080    1.919850
  C      7.779110   -5.882650    1.737020
  F      9.015080   -6.382910    1.715170
  C      7.576000   -4.504770    1.684680
  F      8.616870   -3.675940    1.615410
  C      6.286100   -4.003060    1.697850
  F      6.084120   -2.673690    1.651280
  C      5.152920   -4.830860    1.765560
  C      5.389570   -6.209660    1.861130
  F      4.363850   -7.054460    2.029000
  N      3.911230   -4.251860    1.809570
  C      2.715950   -4.767380    1.365410
  S      2.638290   -5.934200    0.085410
  C      0.913590   -5.796130    0.084790
  N      0.193980   -6.597890   -0.810820
  O     -1.018390   -6.500100   -0.808630
  O      0.844810   -7.330890   -1.534520
  C      0.439810   -4.892690    0.996870
  C      1.464590   -4.289660    1.753480
  C      1.189500   -3.315160    2.782910
  C      1.993970   -2.991020    3.810140
  C      1.715540   -2.023960    4.849170
  C      0.508800   -1.311190    4.924240
  C      0.310730   -0.409130    5.940200
  C      1.294270   -0.222330    6.930220
  C      2.495520   -0.914100    6.863980
  C      2.696020   -1.798810    5.824910
  C      0.785680    0.695670    7.922410
  C     -0.515270    1.077240    7.551330
  C     -0.895290    0.458370    6.222140
  C     -2.190790   -0.361050    6.314790
  C     -2.120680   -1.435570    7.394040
  C     -1.022860    1.617170    5.205330
  C     -1.212290    1.209750    3.750180
  C     -1.243030    1.928600    8.341720
  C     -0.692820    2.422840    9.539750
  C      0.610720    2.032000    9.891030
  C      1.347200    1.179810    9.097480
  C     -1.488690    3.304830   10.342490
  C     -1.144030    3.875650   11.527940
  C     -1.995110    4.738750   12.239570
  C     -1.683250    5.335130   13.435640
  C     -2.501740    6.214960   14.183980
  C     -1.935320    6.663650   15.338930
  C     -0.636460    6.164290   15.573390
  S     -0.154110    5.098510   14.270400
  C      0.189820    6.435810   16.648810
  C     -0.084460    7.275640   17.751020
  C      0.927060    7.356990   18.659480
  C      2.069100    6.586410   18.337250
  S      1.783340    5.742110   16.810980
  C      3.265850    6.403990   18.982510
  C      3.745320    6.975690   20.182260
  C      5.036690    6.605680   20.711340
  C      5.270210    7.304420   21.873920
  C      6.368910    7.307350   22.765290
  C      6.302130    8.132650   23.851660
  C      7.217550    8.375370   24.926290
  C      6.669510    9.315530   25.774770
  C      5.385900    9.689920   25.254740
  C      5.146790    8.982760   24.089310
  C      4.052620    8.981770   23.205210
  C      4.113600    8.151120   22.110890
  C      3.198420    7.918940   21.051380
  C      7.295800    9.819990   26.972610
  C      6.784190   10.739400   27.786890
  H      3.900120   -3.255260    2.004480
  H     -0.608850   -4.692890    1.123780
  H      0.213210   -2.860340    2.699200
  H      2.935440   -3.511750    3.930000
  H     -0.267150   -1.492380    4.198230
  H      3.255910   -0.770910    7.616790
  H      3.627530   -2.344700    5.765150
  H     -2.386290   -0.836230    5.352530
  H     -3.020300    0.315980    6.529210
  H     -1.308420   -2.130460    7.190670
  H     -3.052680   -1.995420    7.427380
  H     -1.951600   -0.988520    8.371220
  H     -0.120850    2.230270    5.282160
  H     -1.867780    2.236300    5.515070
  H     -0.339900    0.677890    3.379720
  H     -1.345580    2.102190    3.142210
  H     -2.091710    0.583520    3.623520
  H     -2.244660    2.223990    8.062150
  H      1.046900    2.405760   10.804080
  H      2.346770    0.891280    9.387610
  H     -2.471160    3.533650    9.945650
  H     -0.177580    3.680850   11.972500
  H     -2.968990    4.957270   11.820170
  H     -3.484370    6.488910   13.841960
  H     -2.416680    7.337780   16.024620
  H     -1.020030    7.797600   17.846090
  H      0.869330    7.946470   19.554280
  H      3.953410    5.717970   18.502000
  H      5.696270    5.891460   20.250780
  H      7.224260    6.672740   22.579030
  H      8.173550    7.897600   25.040670
  H      4.720520   10.405400   25.702130
  H      3.196570    9.615530   23.390280
  H      2.254150    8.418600   20.960620
  H      8.265540    9.390940   27.193540
  H      5.827200   11.199100   27.606120
  H      7.310400   11.068040   28.666570

 Total Charge           Charge          ....    0
 Multiplicity           Mult            ....    1
 Number of Electrons    NEL             ....  490
 Basis Dimension        Dim             .... 1135

ORBITAL ENERGIES
----------------

  NO   OCC          E(Eh)            E(eV)
   0   2.0000     -88.979958     -2421.2678
   1   2.0000     -88.937897     -2420.1232
   2   2.0000     -88.934567     -2420.0326
   3   2.0000     -24.821146      -675.4177
   4   2.0000     -24.815579      -675.2662
   5   2.0000     -24.814339      -675.2325
   6   2.0000     -24.811952      -675.1675
   7   2.0000     -24.811277      -675.1492
   8   2.0000     -19.232565      -523.3447
   9   2.0000     -19.231887      -523.3263
  10   2.0000     -14.644128      -398.4870
  11   2.0000     -14.482886      -394.0994
  12   2.0000     -10.397044      -282.9180
  13   2.0000     -10.395348      -282.8718
  14   2.0000     -10.394273      -282.8425
  15   2.0000     -10.394249      -282.8419
  16   2.0000     -10.392624      -282.7977
  17   2.0000     -10.368496      -282.1411
  18   2.0000     -10.364466      -282.0314
  19   2.0000     -10.337242      -281.2907
  20   2.0000     -10.303889      -280.3831
  21   2.0000     -10.303503      -280.3726
  22   2.0000     -10.303105      -280.3617
  23   2.0000     -10.299910      -280.2748
  24   2.0000     -10.298505      -280.2366
  25   2.0000     -10.296891      -280.1927
  26   2.0000     -10.294646      -280.1316
  27   2.0000     -10.293275      -280.0943
  28   2.0000     -10.287758      -279.9441
  29   2.0000     -10.283701      -279.8337
  30   2.0000     -10.283531      -279.8291
  31   2.0000     -10.282055      -279.7889
  32   2.0000     -10.280387      -279.7436
  33   2.0000     -10.280312      -279.7415
  34   2.0000     -10.279398      -279.7166
  35   2.0000     -10.278671      -279.6968
  36   2.0000     -10.278245      -279.6853
  37   2.0000     -10.278155      -279.6828
  38   2.0000     -10.274877      -279.5936
  39   2.0000     -10.273532      -279.5570
  40   2.0000     -10.272793      -279.5369
  41   2.0000     -10.272188      -279.5205
  42   2.0000     -10.271919      -279.5131
  43   2.0000     -10.271850      -279.5113
  44   2.0000     -10.271622      -279.5050
  45   2.0000     -10.270099      -279.4636
  46   2.0000     -10.270092      -279.4634
  47   2.0000     -10.269324      -279.4425
  48   2.0000     -10.269227      -279.4399
  49   2.0000     -10.268626      -279.4235
  50   2.0000     -10.268494      -279.4199
  51   2.0000     -10.267365      -279.3892
  52   2.0000     -10.266694      -279.3709
  53   2.0000     -10.266086      -279.3544
  54   2.0000     -10.265976      -279.3514
  55   2.0000     -10.265413      -279.3361
  56   2.0000     -10.265104      -279.3277
  57   2.0000     -10.265023      -279.3255
  58   2.0000     -10.264214      -279.3035
  59   2.0000     -10.263373      -279.2806
  60   2.0000     -10.262579      -279.2590
  61   2.0000     -10.261968      -279.2423
  62   2.0000     -10.261901      -279.2405
  63   2.0000     -10.261085      -279.2183
  64   2.0000     -10.255662      -279.0708
  65   2.0000     -10.253406      -279.0094
  66   2.0000     -10.246336      -278.8170
  67   2.0000      -8.075562      -219.7472
  68   2.0000      -8.034081      -218.6185
  69   2.0000      -8.031115      -218.5377
  70   2.0000      -6.045088      -164.4952
  71   2.0000      -6.040711      -164.3761
  72   2.0000      -6.037200      -164.2806
  73   2.0000      -6.003792      -163.3715
  74   2.0000      -6.000900      -163.2928
  75   2.0000      -5.999906      -163.2657
  76   2.0000      -5.996913      -163.1843
  77   2.0000      -5.994942      -163.1307
  78   2.0000      -5.991857      -163.0467
  79   2.0000      -1.343351       -36.5544
  80   2.0000      -1.338783       -36.4301
  81   2.0000      -1.331179       -36.2232
  82   2.0000      -1.323601       -36.0170
  83   2.0000      -1.316532       -35.8247
  84   2.0000      -1.313914       -35.7534
  85   2.0000      -1.132996       -30.8304
  86   2.0000      -1.092039       -29.7159
  87   2.0000      -1.009530       -27.4707
  88   2.0000      -0.988208       -26.8905
  89   2.0000      -0.987881       -26.8816
  90   2.0000      -0.986644       -26.8480
  91   2.0000      -0.982360       -26.7314
  92   2.0000      -0.966086       -26.2885
  93   2.0000      -0.955613       -26.0036
  94   2.0000      -0.946925       -25.7671
  95   2.0000      -0.924205       -25.1489
  96   2.0000      -0.910855       -24.7856
  97   2.0000      -0.899754       -24.4835
  98   2.0000      -0.894022       -24.3276
  99   2.0000      -0.889346       -24.2003
 100   2.0000      -0.876652       -23.8549
 101   2.0000      -0.873678       -23.7740
 102   2.0000      -0.867686       -23.6109
 103   2.0000      -0.862375       -23.4664
 104   2.0000      -0.859181       -23.3795
 105   2.0000      -0.851417       -23.1682
 106   2.0000      -0.843394       -22.9499
 107   2.0000      -0.837967       -22.8022
 108   2.0000      -0.837303       -22.7842
 109   2.0000      -0.834075       -22.6963
 110   2.0000      -0.831098       -22.6153
 111   2.0000      -0.824063       -22.4239
 112   2.0000      -0.813419       -22.1342
 113   2.0000      -0.802813       -21.8457
 114   2.0000      -0.794002       -21.6059
 115   2.0000      -0.788580       -21.4583
 116   2.0000      -0.779396       -21.2085
 117   2.0000      -0.763879       -20.7862
 118   2.0000      -0.762120       -20.7383
 119   2.0000      -0.757108       -20.6019
 120   2.0000      -0.748424       -20.3656
 121   2.0000      -0.740927       -20.1616
 122   2.0000      -0.732389       -19.9293
 123   2.0000      -0.718552       -19.5528
 124   2.0000      -0.714177       -19.4337
 125   2.0000      -0.706337       -19.2204
 126   2.0000      -0.698198       -18.9989
 127   2.0000      -0.691243       -18.8097
 128   2.0000      -0.689099       -18.7513
 129   2.0000      -0.685458       -18.6523
 130   2.0000      -0.677072       -18.4241
 131   2.0000      -0.674610       -18.3571
 132   2.0000      -0.668676       -18.1956
 133   2.0000      -0.665896       -18.1199
 134   2.0000      -0.664949       -18.0942
 135   2.0000      -0.659265       -17.9395
 136   2.0000      -0.646494       -17.5920
 137   2.0000      -0.642495       -17.4832
 138   2.0000      -0.639381       -17.3984
 139   2.0000      -0.636646       -17.3240
 140   2.0000      -0.631375       -17.1806
 141   2.0000      -0.629269       -17.1233
 142   2.0000      -0.626186       -17.0394
 143   2.0000      -0.625572       -17.0227
 144   2.0000      -0.623726       -16.9725
 145   2.0000      -0.622069       -16.9274
 146   2.0000      -0.620881       -16.8950
 147   2.0000      -0.618111       -16.8196
 148   2.0000      -0.613259       -16.6876
 149   2.0000      -0.608976       -16.5711
 150   2.0000      -0.607194       -16.5226
 151   2.0000      -0.601736       -16.3741
 152   2.0000      -0.591954       -16.1079
 153   2.0000      -0.591682       -16.1005
 154   2.0000      -0.590952       -16.0806
 155   2.0000      -0.581047       -15.8111
 156   2.0000      -0.579759       -15.7761
 157   2.0000      -0.576880       -15.6977
 158   2.0000      -0.573506       -15.6059
 159   2.0000      -0.566965       -15.4279
 160   2.0000      -0.561235       -15.2720
 161   2.0000      -0.560031       -15.2392
 162   2.0000      -0.554739       -15.0952
 163   2.0000      -0.551431       -15.0052
 164   2.0000      -0.550816       -14.9885
 165   2.0000      -0.544714       -14.8224
 166   2.0000      -0.542263       -14.7557
 167   2.0000      -0.537482       -14.6256
 168   2.0000      -0.535012       -14.5584
 169   2.0000      -0.530613       -14.4387
 170   2.0000      -0.530115       -14.4252
 171   2.0000      -0.528045       -14.3688
 172   2.0000      -0.525767       -14.3069
 173   2.0000      -0.524475       -14.2717
 174   2.0000      -0.520314       -14.1585
 175   2.0000      -0.517636       -14.0856
 176   2.0000      -0.514637       -14.0040
 177   2.0000      -0.509887       -13.8747
 178   2.0000      -0.507692       -13.8150
 179   2.0000      -0.506183       -13.7739
 180   2.0000      -0.504787       -13.7360
 181   2.0000      -0.499606       -13.5950
 182   2.0000      -0.498804       -13.5731
 183   2.0000      -0.493589       -13.4312
 184   2.0000      -0.492290       -13.3959
 185   2.0000      -0.491350       -13.3703
 186   2.0000      -0.488212       -13.2849
 187   2.0000      -0.485227       -13.2037
 188   2.0000      -0.484616       -13.1871
 189   2.0000      -0.481233       -13.0950
 190   2.0000      -0.478492       -13.0204
 191   2.0000      -0.475385       -12.9359
 192   2.0000      -0.472282       -12.8515
 193   2.0000      -0.469272       -12.7695
 194   2.0000      -0.467543       -12.7225
 195   2.0000      -0.466964       -12.7067
 196   2.0000      -0.462878       -12.5956
 197   2.0000      -0.461521       -12.5586
 198   2.0000      -0.457841       -12.4585
 199   2.0000      -0.455059       -12.3828
 200   2.0000      -0.452915       -12.3244
 201   2.0000      -0.451672       -12.2906
 202   2.0000      -0.448331       -12.1997
 203   2.0000      -0.446689       -12.1550
 204   2.0000      -0.445294       -12.1171
 205   2.0000      -0.442873       -12.0512
 206   2.0000      -0.439469       -11.9586
 207   2.0000      -0.437331       -11.9004
 208   2.0000      -0.432766       -11.7762
 209   2.0000      -0.429161       -11.6781
 210   2.0000      -0.423100       -11.5131
 211   2.0000      -0.421509       -11.4698
 212   2.0000      -0.420266       -11.4360
 213   2.0000      -0.417023       -11.3478
 214   2.0000      -0.416205       -11.3255
 215   2.0000      -0.413379       -11.2486
 216   2.0000      -0.412497       -11.2246
 217   2.0000      -0.409343       -11.1388
 218   2.0000      -0.400692       -10.9034
 219   2.0000      -0.400013       -10.8849
 220   2.0000      -0.392085       -10.6692
 221   2.0000      -0.391620       -10.6565
 222   2.0000      -0.386486       -10.5168
 223   2.0000      -0.384825       -10.4716
 224   2.0000      -0.379929       -10.3384
 225   2.0000      -0.378970       -10.3123
 226   2.0000      -0.373300       -10.1580
 227   2.0000      -0.368330       -10.0228
 228   2.0000      -0.362695        -9.8694
 229   2.0000      -0.361073        -9.8253
 230   2.0000      -0.352031        -9.5792
 231   2.0000      -0.342990        -9.3332
 232   2.0000      -0.336988        -9.1699
 233   2.0000      -0.333253        -9.0683
 234   2.0000      -0.330398        -8.9906
 235   2.0000      -0.321002        -8.7349
 236   2.0000      -0.318449        -8.6654
 237   2.0000      -0.314059        -8.5460
 238   2.0000      -0.312171        -8.4946
 239   2.0000      -0.294245        -8.0068
 240   2.0000      -0.276723        -7.5300
 241   2.0000      -0.265733        -7.2310
 242   2.0000      -0.256479        -6.9792
 243   2.0000      -0.240373        -6.5409
 244   2.0000      -0.195503        -5.3199
 245   0.0000      -0.094975        -2.5844
 246   0.0000      -0.069203        -1.8831
 247   0.0000      -0.052565        -1.4304
 248   0.0000      -0.035499        -0.9660
 249   0.0000      -0.011783        -0.3206

MULLIKEN ATOMIC CHARGES
-----------------------
   0 C :    0.156309
   1 F :   -0.153249
   2 C :    0.148807
   3 F :   -0.155012
   4 C :    0.150114
   5 F :   -0.154274
   6 C :    0.172123
   7 F :   -0.177171
   8 C :   -0.012057
   9 C :    0.141504
  10 F :   -0.159749
  11 N :   -0.060296
  12 C :   -0.095740
  13 S :    0.191649
  14 C :   -0.016101
  15 N :    0.278388
  16 O :   -0.252991
  17 O :   -0.264434
  18 C :    0.004145
  19 C :    0.120476
  20 C :   -0.007935
  21 C :   -0.036153
  22 C :    0.122576
  23 C :   -0.090590
  24 C :    0.021468
  25 C :    0.102819
  26 C :   -0.053091
  27 C :   -0.020563
  28 C :    0.093286
  29 C :    0.026605
  30 C :   -0.135437
  31 C :    0.053372
  32 C :    0.026048
  33 C :    0.078008
  34 C :    0.030920
  35 C :   -0.109965
  36 C :    0.131204
  37 C :   -0.011394
  38 C :   -0.039699
  39 C :   -0.015964
  40 C :    0.023695
  41 C :   -0.020082
  42 C :   -0.017688
  43 C :    0.037383
  44 C :    0.020452
  45 C :   -0.044004
  46 S :    0.065726
  47 C :   -0.045191
  48 C :    0.016686
  49 C :    0.032678
  50 C :   -0.052554
  51 S :    0.078294
  52 C :    0.029923
  53 C :    0.080254
  54 C :   -0.043158
  55 C :    0.063023
  56 C :   -0.004524
  57 C :    0.058903
  58 C :   -0.029893
  59 C :    0.064603
  60 C :   -0.029030
  61 C :    0.053012
  62 C :   -0.007138
  63 C :    0.054570
  64 C :   -0.048478
  65 C :    0.012498
  66 C :   -0.025484
  67 H :    0.148656
  68 H :    0.007613
  69 H :   -0.012852
  70 H :   -0.022201
  71 H :   -0.043058
  72 H :   -0.034237
  73 H :   -0.033925
  74 H :    0.003020
  75 H :   -0.002704
  76 H :    0.020018
  77 H :    0.008566
  78 H :    0.022838
  79 H :    0.006075
  80 H :   -0.003731
  81 H :    0.017781
  82 H :    0.013525
  83 H :    0.002015
  84 H :   -0.043635
  85 H :   -0.031705
  86 H :   -0.037973
  87 H :   -0.030676
  88 H :   -0.001208
  89 H :   -0.021611
  90 H :   -0.016987
  91 H :   -0.015251
  92 H :   -0.018907
  93 H :   -0.026829
  94 H :   -0.027113
  95 H :   -0.023977
  96 H :   -0.027497
  97 H :   -0.030912
  98 H :   -0.025541
  99 H :   -0.029006
 100 H :   -0.045874
 101 H :   -0.021075
 102 H :    0.006841
 103 H :    0.019100
Sum of atomic charges:   -0.0000000

LOEWDIN ATOMIC CHARGES
----------------------
   0 C :    0.037556
   1 F :   -0.031018
   2 C :    0.024378
   3 F :   -0.034332
   4 C :    0.035181
   5 F :   -0.032457
   6 C :    0.036888
   7 F :   -0.051747
   8 C :   -0.032710
   9 C :    0.027129
  10 F :   -0.041077
  11 N :    0.020389
  12 C :   -0.109620
  13 S :    0.474597
  14 C :   -0.212369
  15 N :    0.273662
  16 O :   -0.217792
  17 O :   -0.230346
  18 C :   -0.004029
  19 C :   -0.092126
  20 C :   -0.030017
  21 C :   -0.024525
  22 C :   -0.032135
  23 C :   -0.017516
  24 C :    0.005796
  25 C :   -0.011031
  26 C :   -0.021190
  27 C :   -0.019036
  28 C :   -0.022897
  29 C :    0.004842
  30 C :   -0.034632
  31 C :   -0.015464
  32 C :   -0.056391
  33 C :   -0.009307
  34 C :   -0.059906
  35 C :   -0.022340
  36 C :   -0.022822
  37 C :   -0.014015
  38 C :   -0.016227
  39 C :   -0.020016
  40 C :   -0.028520
  41 C :   -0.057000
  42 C :   -0.145996
  43 C :   -0.037749
  44 C :   -0.033826
  45 C :   -0.180816
  46 S :    0.363791
  47 C :   -0.181689
  48 C :   -0.026475
  49 C :   -0.040474
  50 C :   -0.144320
  51 S :    0.364873
  52 C :   -0.054809
  53 C :   -0.055895
  54 C :    0.039008
  55 C :   -0.063413
  56 C :    0.064752
  57 C :   -0.055795
  58 C :    0.007886
  59 C :   -0.057041
  60 C :    0.040239
  61 C :   -0.058682
  62 C :    0.059188
  63 C :   -0.050257
  64 C :   -0.012579
  65 C :   -0.020396
  66 C :   -0.056189
  67 H :    0.094693
  68 H :    0.044357
  69 H :    0.029215
  70 H :    0.022128
  71 H :    0.021476
  72 H :    0.027214
  73 H :    0.023966
  74 H :    0.018258
  75 H :    0.020238
  76 H :    0.025244
  77 H :    0.023751
  78 H :    0.026041
  79 H :    0.027140
  80 H :    0.020195
  81 H :    0.023311
  82 H :    0.027986
  83 H :    0.019310
  84 H :    0.022269
  85 H :    0.026046
  86 H :    0.026381
  87 H :    0.025124
  88 H :    0.020397
  89 H :    0.030903
  90 H :    0.031871
  91 H :    0.030631
  92 H :    0.030519
  93 H :    0.029488
  94 H :    0.027465
  95 H :    0.024534
  96 H :    0.033839
  97 H :    0.022957
  98 H :    0.024074
  99 H :    0.032771
 100 H :    0.016955
 101 H :    0.028817
 102 H :    0.017402
 103 H :    0.023888

  Mayer bond orders larger than 0.100000
B(  0-C ,  1-F ) :   1.1731 B(  0-C ,  2-C ) :   1.2901 B(  0-C ,  9-C ) :   1.2779
B(  2-C ,  3-F ) :   1.1794 B(  2-C ,  4-C ) :   1.2658 B(  4-C ,  5-F ) :   1.1780
B(  4-C ,  6-C ) :   1.3056 B(  6-C ,  7-F ) :   1.1417 B(  6-C ,  8-C ) :   1.2847
B(  8-C ,  9-C ) :   1.2864 B(  8-C , 11-N ) :   1.1509 B(  9-C , 10-F ) :   1.1645
B( 11-N , 12-C ) :   1.1242 B( 11-N , 67-H ) :   0.8965 B( 12-C , 13-S ) :   1.1430
B( 12-C , 19-C ) :   1.4234 B( 13-S , 14-C ) :   1.1047 B( 14-C , 15-N ) :   0.9666
B( 14-C , 18-C ) :   1.4806 B( 15-N , 16-O ) :   1.5358 B( 15-N , 17-O ) :   1.5144
B( 16-O , 17-O ) :   0.2580 B( 18-C , 19-C ) :   1.2205 B( 18-C , 68-H ) :   1.0064
B( 19-C , 20-C ) :   1.0699 B( 20-C , 21-C ) :   1.7092 B( 20-C , 69-H ) :   0.9603
B( 21-C , 22-C ) :   1.0660 B( 21-C , 70-H ) :   0.9797 B( 22-C , 23-C ) :   1.2972
B( 22-C , 27-C ) :   1.3399 B( 23-C , 24-C ) :   1.4192 B( 23-C , 71-H ) :   0.9902
B( 24-C , 25-C ) :   1.3682 B( 24-C , 30-C ) :   0.9174 B( 25-C , 26-C ) :   1.3444
B( 25-C , 28-C ) :   1.0007 B( 26-C , 27-C ) :   1.3721 B( 26-C , 72-H ) :   0.9903
B( 27-C , 73-H ) :   0.9926 B( 28-C , 29-C ) :   1.3749 B( 28-C , 38-C ) :   1.3215
B( 29-C , 30-C ) :   0.9259 B( 29-C , 35-C ) :   1.3812 B( 30-C , 31-C ) :   1.0335
B( 30-C , 33-C ) :   1.0138 B( 31-C , 32-C ) :   1.1035 B( 31-C , 74-H ) :   0.9379
B( 31-C , 75-H ) :   0.9388 B( 32-C , 76-H ) :   0.9648 B( 32-C , 77-H ) :   0.9648
B( 32-C , 78-H ) :   0.9633 B( 33-C , 34-C ) :   1.1149 B( 33-C , 79-H ) :   0.9391
B( 33-C , 80-H ) :   0.9370 B( 34-C , 81-H ) :   0.9603 B( 34-C , 82-H ) :   0.9593
B( 34-C , 83-H ) :   0.9628 B( 35-C , 36-C ) :   1.2790 B( 35-C , 84-H ) :   1.0102
B( 36-C , 37-C ) :   1.3314 B( 36-C , 39-C ) :   1.0769 B( 37-C , 38-C ) :   1.4113
B( 37-C , 85-H ) :   0.9847 B( 38-C , 86-H ) :   0.9887 B( 39-C , 40-C ) :   1.6378
B( 39-C , 87-H ) :   0.9885 B( 40-C , 41-C ) :   1.1562 B( 40-C , 88-H ) :   0.9634
B( 41-C , 42-C ) :   1.5552 B( 41-C , 89-H ) :   0.9849 B( 42-C , 43-C ) :   1.1450
B( 42-C , 46-S ) :   1.0291 B( 43-C , 44-C ) :   1.5808 B( 43-C , 90-H ) :   0.9993
B( 44-C , 45-C ) :   1.1992 B( 44-C , 91-H ) :   0.9930 B( 45-C , 46-S ) :   1.0420
B( 45-C , 47-C ) :   1.4886 B( 47-C , 48-C ) :   1.1979 B( 47-C , 51-S ) :   1.0554
B( 48-C , 49-C ) :   1.5955 B( 48-C , 92-H ) :   0.9913 B( 49-C , 50-C ) :   1.1524
B( 49-C , 93-H ) :   0.9958 B( 50-C , 51-S ) :   1.0285 B( 50-C , 52-C ) :   1.5664
B( 52-C , 53-C ) :   1.1689 B( 52-C , 94-H ) :   0.9475 B( 53-C , 54-C ) :   1.1128
B( 53-C , 64-C ) :   1.4501 B( 54-C , 55-C ) :   1.4517 B( 54-C , 95-H ) :   1.0159
B( 55-C , 56-C ) :   1.1109 B( 55-C , 63-C ) :   1.1226 B( 56-C , 57-C ) :   1.4854
B( 56-C , 96-H ) :   1.0045 B( 57-C , 58-C ) :   1.0766 B( 57-C , 61-C ) :   1.1225
B( 58-C , 59-C ) :   1.5192 B( 58-C , 97-H ) :   1.0166 B( 59-C , 60-C ) :   1.1334
B( 59-C , 65-C ) :   1.0863 B( 60-C , 61-C ) :   1.4494 B( 60-C , 98-H ) :   1.0081
B( 61-C , 62-C ) :   1.1290 B( 62-C , 63-C ) :   1.4462 B( 62-C , 99-H ) :   1.0025
B( 63-C , 64-C ) :   1.1250 B( 64-C ,100-H ) :   1.0114 B( 65-C , 66-C ) :   1.9317
B( 65-C ,101-H ) :   0.9660 B( 66-C ,102-H ) :   0.9524 B( 66-C ,103-H ) :   0.9496

-----------------------------------------------------------------------------
         ABSORPTION SPECTRUM VIA TRANSITION ELECTRIC DIPOLE MOMENTS
-----------------------------------------------------------------------------
State   Energy  Wavelength   fosc         T2         TX        TY        TZ
        (cm-1)    (nm)                  (au**2)     (au)      (au)      (au)
-----------------------------------------------------------------------------
   0    6809.4   1468.6   0.112351539   5.43181  -0.92262  -0.83891  -1.96896
   1   14050.7    711.7   2.268636381  53.15488  -2.33535  -2.91800  -6.25989
   2   15413.4    648.8   0.037366306   0.79810  -0.50309  -0.18494  -0.71470
   3   22341.8    447.6   0.200359692   2.95235   0.51260   0.71747   1.47473
   4   22646.8    441.6   0.050322754   0.73153   0.78435  -0.22027   0.26039
   5   24144.5    414.2   0.549024432   7.48597   2.29426  -1.36435  -0.60075
   6   25026.2    399.6   0.125028018   1.64470   0.81638  -0.89303  -0.42512
   7   25931.1    385.6   0.014694115   0.18655  -0.37762   0.02618  -0.20801
   8   27635.0    361.9   0.202212056   2.40893  -1.50556   0.23819  -0.29236
   9   28207.8    354.5   0.168266373   1.96383  -1.37480  -0.16937  -0.21232
  10   28739.9    347.9   0.065353830   0.74862   0.01143   0.52658   0.68644
  11   29041.8    344.3   0.515453924   5.84309  -0.28907   1.54089   1.83989
  12   30615.8    326.6   0.292182568   3.14184   0.21541  -1.09379  -1.37807
  13   31112.7    321.4   0.143497175   1.51838  -0.27514  -0.60901  -1.03527
  14   32464.4    308.0   0.090501851   0.91775   0.14937   0.47665   0.81746
  15   32489.2    307.8   0.060361218   0.61164   0.15793   0.38987   0.65931
  16   32916.1    303.8   0.022401893   0.22405   0.28511  -0.32294  -0.19614
  17   33454.5    298.9   0.084170934   0.82829   0.43560   0.44464   0.66396
  18   33879.1    295.2   0.243497247   2.36613   0.08818  -0.91001  -1.23703
  19   34051.1    293.7   0.373813320   3.61409  -0.87986  -0.93247  -1.40372
  20   34372.1    290.9   0.022157651   0.21222   0.00432   0.32856   0.32288
  21   35301.3    283.3   0.128880133   1.20191  -0.62279   0.64775   0.62806
  22   35338.6    283.0   0.154848672   1.44256   0.51532  -0.65284  -0.86649
  23   35878.3    278.7   0.008846749   0.08118   0.20621  -0.19630   0.01083
  24   36152.2    276.6   0.025424179   0.23152   0.27575  -0.31532  -0.23676
  25   37111.1    269.5   0.016040886   0.14230  -0.36638  -0.07278  -0.05259
  26   37328.5    267.9   0.025390618   0.22393  -0.27898  -0.24613  -0.29244
  27   37385.3    267.5   0.035988044   0.31691   0.30954  -0.01738   0.46988
  28   37707.5    265.2   0.070755948   0.61775   0.22109   0.42223   0.62497
  29   38104.2    262.4   0.121964318   1.05374  -0.42131  -0.46583  -0.81194
  30   38135.8    262.2   0.024317292   0.20992  -0.33845  -0.07245  -0.30021
  31   38465.3    260.0   0.018507022   0.15840  -0.12023  -0.13869  -0.35314
  32   39273.5    254.6   0.128405024   1.07636   0.18410  -0.59933  -0.82660
  33   39749.3    251.6   0.001483749   0.01229  -0.08279   0.07366  -0.00300
  34   39842.8    251.0   0.072157812   0.59622  -0.30281   0.41303   0.57787
  35   40189.8    248.8   0.054084792   0.44303  -0.53595  -0.39363   0.02912

FINAL SINGLE POINT ENERGY     -4067.704335971986

DIPOLE MOMENT
-------------
                                X             Y             Z
Electronic contribution:     67.70678    -101.23236    -114.69033
Nuclear contribution   :    -67.77211     103.65198     116.82959
                        -----------------------------------------
Total Dipole Moment    :     -0.06533       2.41962       2.13926
                        -----------------------------------------
Magnitude (a.u.)       :      3.23036
Magnitude (Debye)      :      8.21093

Rotational constants in cm-1:     0.001490     0.000169     0.000154
Rotational constants in MHz :    44.671011     5.058194     4.606675

                             ****ORCA TERMINATED NORMALLY****
TOTAL RUN TIME: 0 days 0 hours 10 minutes 38 seconds 187 msec
