                         Program Version 4.2.0 -  RELEASE  -
|  1> # ORCA input file
|  2> # SCF done       -150.029063259744          0.000841364362
|  3> ! CAM-B3LYP def2-SVP def2/J RIJCOSX Grid4 TightSCF
|  4> %maxcore 5000
|  5> %tddft
|  6>     Mode sTDDFT
|  7>     Ethresh 5.0
|  8>     maxcore 5000
|  9> end
| 10>
| 11> %pal
| 12>   nprocs 6
| 13>   end
| 14> * xyz 0 1
| 15>    C       -7.43432        -0.34367         2.76012
| 16>    C       -6.50657        -1.26743         3.15652
| 17>    C       -6.70505        -2.16640         4.22631
| 18>    N       -6.82405        -2.91781         5.08508
| 19>    C       -5.20660        -1.37841         2.61396
| 20>    N       -4.12001        -1.48566         2.26147
| 21>    C       -8.70874        -0.07092         3.40768
| 22>    C       -9.23676         1.13070         2.87427
| 23>    C      -10.43201         1.66293         3.29452
| 24>    C      -11.14349         0.97195         4.28030
| 25>    C      -10.61062        -0.23233         4.80231
| 26>    C       -9.39886        -0.76673         4.38316
| 27>    S      -11.65698        -0.92638         6.00219
| 28>    C      -12.77982         0.39126         5.79174
| 29>    C      -12.39291         1.30556         4.87023
| 30>   Br      -14.35657         0.43426         6.80504
| 31>    C       -8.32491         1.66527         1.84191
| 32>    O       -8.45346         2.71341         1.25184
| 33>    C       -7.26590         0.62673         1.68797
| 34>    C       -6.41956         0.46058         0.63424
| 35>    C       -6.18731         1.34726        -0.44375
| 36>    O       -6.55123         2.63717        -0.42197
| 37>    C       -6.17067         3.20733        -1.57775
| 38>    C       -5.52995         2.28047        -2.37808
| 39>    C       -5.53169         1.07189        -1.65711
| 40>    C       -4.99894        -0.21046        -2.09222
| 41>    O       -5.14993        -1.25880        -1.51739
| 42>    C       -6.47747         4.58623        -1.78157
| 43>    C       -7.15705         5.39591        -0.91718
| 44>    C       -7.30924         6.71751        -1.40138
| 45>    C       -6.72260         6.88504        -2.68686
| 46>    S       -5.99059         5.40557        -3.24855
| 47>    C       -6.75683         8.08244        -3.36459
| 48>    C       -7.38886         9.16341        -2.74774
| 49>    C       -7.96070         8.99984        -1.45735
| 50>    C       -7.93314         7.80071        -0.78211
| 51>    S       -8.67016        10.48629        -0.88565
| 52>    C       -8.21817        11.30561        -2.36568
| 53>    C       -7.55881        10.47954        -3.23661
| 54>    C       -8.53553        12.67513        -2.61212
| 55>    O       -8.30642        13.13933        -3.85678
| 56>    C       -8.66613        14.44873        -3.89742
| 57>    C       -9.12827        14.83650        -2.66110
| 58>    C       -9.05499        13.70094        -1.82054
| 59>    C       -9.43616        13.67585        -0.41667
| 60>    O       -9.89357        14.61518         0.18109
| 61>    C       -8.54103        15.21297        -5.09748
| 62>    S       -8.80874        16.92173        -4.99743
| 63>    C       -8.48380        17.06723        -6.68881
| 64>    N       -8.55847        18.34099        -7.27920
| 65>    O       -8.32745        18.42273        -8.46955
| 66>    O       -8.85033        19.26837        -6.54807
| 67>    C       -8.18497        15.87346        -7.28920
| 68>    C       -8.21325        14.79161        -6.38911
| 69>    C       -7.97398        13.41091        -6.76536
| 70>    C       -7.39870        13.02730        -7.89986
| 71>    H      -10.80858         2.58192         2.87337
| 72>    H       -9.03504        -1.68907         4.80444
| 73>    H      -12.96485         2.17890         4.61511
| 74>    H       -5.87571        -0.47198         0.54075
| 75>    H       -5.12548         2.45586        -3.35418
| 76>    H       -4.42921        -0.14773        -3.03807
| 77>    H       -7.54089         5.04186         0.02287
| 78>    H       -6.31109         8.19010        -4.34029
| 79>    H       -8.37680         7.69257         0.19427
| 80>    H       -7.19772        10.81056        -4.19370
| 81>    H       -9.48406        15.80456        -2.37371
| 82>    H       -9.26725        12.70310         0.08234
| 83>    H       -7.97604        15.79521        -8.34009
| 84>    H       -8.29949        12.67005        -6.05061
| 85>    H       -7.03558        13.72703        -8.63248
| 86>    H       -7.26118        11.98518        -8.12964
| 87> *
| 88>
| 89>                          ****END OF INPUT****

CARTESIAN COORDINATES (ANGSTROEM)
---------------------------------
  C     -7.434320   -0.343670    2.760120
  C     -6.506570   -1.267430    3.156520
  C     -6.705050   -2.166400    4.226310
  N     -6.824050   -2.917810    5.085080
  C     -5.206600   -1.378410    2.613960
  N     -4.120010   -1.485660    2.261470
  C     -8.708740   -0.070920    3.407680
  C     -9.236760    1.130700    2.874270
  C    -10.432010    1.662930    3.294520
  C    -11.143490    0.971950    4.280300
  C    -10.610620   -0.232330    4.802310
  C     -9.398860   -0.766730    4.383160
  S    -11.656980   -0.926380    6.002190
  C    -12.779820    0.391260    5.791740
  C    -12.392910    1.305560    4.870230
  Br   -14.356570    0.434260    6.805040
  C     -8.324910    1.665270    1.841910
  O     -8.453460    2.713410    1.251840
  C     -7.265900    0.626730    1.687970
  C     -6.419560    0.460580    0.634240
  C     -6.187310    1.347260   -0.443750
  O     -6.551230    2.637170   -0.421970
  C     -6.170670    3.207330   -1.577750
  C     -5.529950    2.280470   -2.378080
  C     -5.531690    1.071890   -1.657110
  C     -4.998940   -0.210460   -2.092220
  O     -5.149930   -1.258800   -1.517390
  C     -6.477470    4.586230   -1.781570
  C     -7.157050    5.395910   -0.917180
  C     -7.309240    6.717510   -1.401380
  C     -6.722600    6.885040   -2.686860
  S     -5.990590    5.405570   -3.248550
  C     -6.756830    8.082440   -3.364590
  C     -7.388860    9.163410   -2.747740
  C     -7.960700    8.999840   -1.457350
  C     -7.933140    7.800710   -0.782110
  S     -8.670160   10.486290   -0.885650
  C     -8.218170   11.305610   -2.365680
  C     -7.558810   10.479540   -3.236610
  C     -8.535530   12.675130   -2.612120
  O     -8.306420   13.139330   -3.856780
  C     -8.666130   14.448730   -3.897420
  C     -9.128270   14.836500   -2.661100
  C     -9.054990   13.700940   -1.820540
  C     -9.436160   13.675850   -0.416670
  O     -9.893570   14.615180    0.181090
  C     -8.541030   15.212970   -5.097480
  S     -8.808740   16.921730   -4.997430
  C     -8.483800   17.067230   -6.688810
  N     -8.558470   18.340990   -7.279200
  O     -8.327450   18.422730   -8.469550
  O     -8.850330   19.268370   -6.548070
  C     -8.184970   15.873460   -7.289200
  C     -8.213250   14.791610   -6.389110
  C     -7.973980   13.410910   -6.765360
  C     -7.398700   13.027300   -7.899860
  H    -10.808580    2.581920    2.873370
  H     -9.035040   -1.689070    4.804440
  H    -12.964850    2.178900    4.615110
  H     -5.875710   -0.471980    0.540750
  H     -5.125480    2.455860   -3.354180
  H     -4.429210   -0.147730   -3.038070
  H     -7.540890    5.041860    0.022870
  H     -6.311090    8.190100   -4.340290
  H     -8.376800    7.692570    0.194270
  H     -7.197720   10.810560   -4.193700
  H     -9.484060   15.804560   -2.373710
  H     -9.267250   12.703100    0.082340
  H     -7.976040   15.795210   -8.340090
  H     -8.299490   12.670050   -6.050610
  H     -7.035580   13.727030   -8.632480
  H     -7.261180   11.985180   -8.129640

 Total Charge           Charge          ....    0
 Multiplicity           Mult            ....    1
 Number of Electrons    NEL             ....  438
 Basis Dimension        Dim             ....  898

ORBITAL ENERGIES
----------------

  NO   OCC          E(Eh)            E(eV)
   0   2.0000    -482.889588    -13140.0937
   1   2.0000     -88.987498     -2421.4729
   2   2.0000     -88.980107     -2421.2718
   3   2.0000     -88.973241     -2421.0850
   4   2.0000     -88.969858     -2420.9929
   5   2.0000     -62.567297     -1702.5427
   6   2.0000     -56.401253     -1534.7561
   7   2.0000     -56.398527     -1534.6819
   8   2.0000     -56.398497     -1534.6811
   9   2.0000     -19.323765      -525.8264
  10   2.0000     -19.319793      -525.7183
  11   2.0000     -19.243182      -523.6336
  12   2.0000     -19.242562      -523.6167
  13   2.0000     -19.231299      -523.3102
  14   2.0000     -19.222616      -523.0740
  15   2.0000     -19.219969      -523.0019
  16   2.0000     -14.654208      -398.7613
  17   2.0000     -14.419462      -392.3735
  18   2.0000     -14.416043      -392.2805
  19   2.0000     -10.377124      -282.3759
  20   2.0000     -10.376106      -282.3482
  21   2.0000     -10.375234      -282.3245
  22   2.0000     -10.369272      -282.1622
  23   2.0000     -10.367287      -282.1082
  24   2.0000     -10.366015      -282.0736
  25   2.0000     -10.363637      -282.0089
  26   2.0000     -10.363336      -282.0007
  27   2.0000     -10.350275      -281.6453
  28   2.0000     -10.348415      -281.5947
  29   2.0000     -10.345210      -281.5075
  30   2.0000     -10.338488      -281.3246
  31   2.0000     -10.333794      -281.1968
  32   2.0000     -10.330776      -281.1147
  33   2.0000     -10.328291      -281.0471
  34   2.0000     -10.324801      -280.9521
  35   2.0000     -10.321663      -280.8667
  36   2.0000     -10.321414      -280.8600
  37   2.0000     -10.321347      -280.8581
  38   2.0000     -10.318035      -280.7680
  39   2.0000     -10.313642      -280.6485
  40   2.0000     -10.312839      -280.6266
  41   2.0000     -10.310964      -280.5756
  42   2.0000     -10.310712      -280.5687
  43   2.0000     -10.309732      -280.5421
  44   2.0000     -10.308738      -280.5150
  45   2.0000     -10.308506      -280.5087
  46   2.0000     -10.306501      -280.4541
  47   2.0000     -10.305400      -280.4242
  48   2.0000     -10.303961      -280.3850
  49   2.0000     -10.302536      -280.3463
  50   2.0000     -10.301561      -280.3197
  51   2.0000     -10.301179      -280.3093
  52   2.0000     -10.301017      -280.3049
  53   2.0000     -10.300480      -280.2903
  54   2.0000     -10.299381      -280.2604
  55   2.0000     -10.298325      -280.2317
  56   2.0000     -10.298112      -280.2259
  57   2.0000     -10.294274      -280.1214
  58   2.0000     -10.289911      -280.0027
  59   2.0000     -10.280744      -279.7533
  60   2.0000      -8.796725      -239.3711
  61   2.0000      -8.082739      -219.9425
  62   2.0000      -8.076098      -219.7618
  63   2.0000      -8.068570      -219.5570
  64   2.0000      -8.065673      -219.4781
  65   2.0000      -6.633056      -180.4946
  66   2.0000      -6.618450      -180.0972
  67   2.0000      -6.618234      -180.0913
  68   2.0000      -6.052322      -164.6921
  69   2.0000      -6.047838      -164.5700
  70   2.0000      -6.045793      -164.5144
  71   2.0000      -6.044482      -164.4787
  72   2.0000      -6.041499      -164.3975
  73   2.0000      -6.038368      -164.3123
  74   2.0000      -6.037322      -164.2839
  75   2.0000      -6.035413      -164.2319
  76   2.0000      -6.034196      -164.1988
  77   2.0000      -6.031344      -164.1212
  78   2.0000      -6.029654      -164.0752
  79   2.0000      -6.026734      -163.9958
  80   2.0000      -2.748924       -74.8020
  81   2.0000      -2.744817       -74.6903
  82   2.0000      -2.744671       -74.6863
  83   2.0000      -2.733070       -74.3706
  84   2.0000      -2.733043       -74.3699
  85   2.0000      -1.324914       -36.0528
  86   2.0000      -1.245867       -33.9018
  87   2.0000      -1.242781       -33.8178
  88   2.0000      -1.144328       -31.1387
  89   2.0000      -1.144047       -31.1311
  90   2.0000      -1.138503       -30.9802
  91   2.0000      -1.133623       -30.8475
  92   2.0000      -1.027805       -27.9680
  93   2.0000      -1.021345       -27.7922
  94   2.0000      -1.019309       -27.7368
  95   2.0000      -1.016762       -27.6675
  96   2.0000      -0.998239       -27.1635
  97   2.0000      -0.996590       -27.1186
  98   2.0000      -0.994009       -27.0484
  99   2.0000      -0.951185       -25.8831
 100   2.0000      -0.943233       -25.6667
 101   2.0000      -0.936688       -25.4886
 102   2.0000      -0.931524       -25.3481
 103   2.0000      -0.926701       -25.2168
 104   2.0000      -0.915985       -24.9252
 105   2.0000      -0.912919       -24.8418
 106   2.0000      -0.902102       -24.5474
 107   2.0000      -0.894193       -24.3322
 108   2.0000      -0.890894       -24.2424
 109   2.0000      -0.885257       -24.0891
 110   2.0000      -0.873719       -23.7751
 111   2.0000      -0.855786       -23.2871
 112   2.0000      -0.847188       -23.0531
 113   2.0000      -0.837387       -22.7865
 114   2.0000      -0.833902       -22.6916
 115   2.0000      -0.818641       -22.2764
 116   2.0000      -0.803430       -21.8625
 117   2.0000      -0.793012       -21.5790
 118   2.0000      -0.782468       -21.2920
 119   2.0000      -0.772372       -21.0173
 120   2.0000      -0.764337       -20.7987
 121   2.0000      -0.756638       -20.5892
 122   2.0000      -0.741626       -20.1807
 123   2.0000      -0.725986       -19.7551
 124   2.0000      -0.714330       -19.4379
 125   2.0000      -0.708524       -19.2799
 126   2.0000      -0.698300       -19.0017
 127   2.0000      -0.697076       -18.9684
 128   2.0000      -0.691526       -18.8174
 129   2.0000      -0.683026       -18.5861
 130   2.0000      -0.673009       -18.3135
 131   2.0000      -0.670703       -18.2508
 132   2.0000      -0.661572       -18.0023
 133   2.0000      -0.656076       -17.8527
 134   2.0000      -0.650186       -17.6925
 135   2.0000      -0.636130       -17.3100
 136   2.0000      -0.635541       -17.2940
 137   2.0000      -0.633214       -17.2306
 138   2.0000      -0.630540       -17.1579
 139   2.0000      -0.629553       -17.1310
 140   2.0000      -0.625802       -17.0289
 141   2.0000      -0.615828       -16.7575
 142   2.0000      -0.604496       -16.4492
 143   2.0000      -0.594857       -16.1869
 144   2.0000      -0.591601       -16.0983
 145   2.0000      -0.590158       -16.0590
 146   2.0000      -0.586008       -15.9461
 147   2.0000      -0.583995       -15.8913
 148   2.0000      -0.582472       -15.8499
 149   2.0000      -0.573036       -15.5931
 150   2.0000      -0.566900       -15.4261
 151   2.0000      -0.558341       -15.1932
 152   2.0000      -0.555636       -15.1196
 153   2.0000      -0.552686       -15.0393
 154   2.0000      -0.546945       -14.8831
 155   2.0000      -0.543857       -14.7991
 156   2.0000      -0.543125       -14.7792
 157   2.0000      -0.541014       -14.7217
 158   2.0000      -0.537330       -14.6215
 159   2.0000      -0.533009       -14.5039
 160   2.0000      -0.530498       -14.4356
 161   2.0000      -0.525553       -14.3010
 162   2.0000      -0.522578       -14.2201
 163   2.0000      -0.519336       -14.1319
 164   2.0000      -0.518921       -14.1206
 165   2.0000      -0.515315       -14.0224
 166   2.0000      -0.512507       -13.9460
 167   2.0000      -0.511867       -13.9286
 168   2.0000      -0.508641       -13.8408
 169   2.0000      -0.503395       -13.6981
 170   2.0000      -0.500200       -13.6111
 171   2.0000      -0.499509       -13.5923
 172   2.0000      -0.497165       -13.5285
 173   2.0000      -0.494366       -13.4524
 174   2.0000      -0.488035       -13.2801
 175   2.0000      -0.486406       -13.2358
 176   2.0000      -0.482927       -13.1411
 177   2.0000      -0.481517       -13.1027
 178   2.0000      -0.478367       -13.0170
 179   2.0000      -0.473122       -12.8743
 180   2.0000      -0.469234       -12.7685
 181   2.0000      -0.462809       -12.5937
 182   2.0000      -0.457488       -12.4489
 183   2.0000      -0.455285       -12.3889
 184   2.0000      -0.452096       -12.3021
 185   2.0000      -0.450974       -12.2716
 186   2.0000      -0.445765       -12.1299
 187   2.0000      -0.443179       -12.0595
 188   2.0000      -0.442552       -12.0425
 189   2.0000      -0.439782       -11.9671
 190   2.0000      -0.433339       -11.7918
 191   2.0000      -0.428166       -11.6510
 192   2.0000      -0.426476       -11.6050
 193   2.0000      -0.425940       -11.5904
 194   2.0000      -0.420171       -11.4334
 195   2.0000      -0.412133       -11.2147
 196   2.0000      -0.400074       -10.8866
 197   2.0000      -0.398346       -10.8395
 198   2.0000      -0.394807       -10.7432
 199   2.0000      -0.390959       -10.6385
 200   2.0000      -0.389904       -10.6098
 201   2.0000      -0.389239       -10.5917
 202   2.0000      -0.385072       -10.4784
 203   2.0000      -0.381709       -10.3868
 204   2.0000      -0.378896       -10.3103
 205   2.0000      -0.370762       -10.0889
 206   2.0000      -0.370173       -10.0729
 207   2.0000      -0.358687        -9.7604
 208   2.0000      -0.350942        -9.5496
 209   2.0000      -0.344926        -9.3859
 210   2.0000      -0.341199        -9.2845
 211   2.0000      -0.340177        -9.2567
 212   2.0000      -0.331740        -9.0271
 213   2.0000      -0.320290        -8.7155
 214   2.0000      -0.318549        -8.6682
 215   2.0000      -0.298791        -8.1305
 216   2.0000      -0.292167        -7.9503
 217   2.0000      -0.285515        -7.7692
 218   2.0000      -0.260086        -7.0773
 219   0.0000      -0.104740        -2.8501
 220   0.0000      -0.078960        -2.1486
 221   0.0000      -0.066802        -1.8178
 222   0.0000      -0.058223        -1.5843
 223   0.0000      -0.025980        -0.7069

MULLIKEN ATOMIC CHARGES
-----------------------
   0 C :    0.274399
   1 C :   -0.319835
   2 C :   -0.186603
   3 N :    0.152256
   4 C :   -0.201102
   5 N :    0.170242
   6 C :    0.022342
   7 C :   -0.018696
   8 C :   -0.069096
   9 C :    0.114110
  10 C :   -0.087421
  11 C :   -0.017006
  12 S :    0.189135
  13 C :   -0.125512
  14 C :    0.042671
  15 Br:    0.026988
  16 C :    0.139338
  17 O :   -0.133632
  18 C :   -0.056980
  19 C :   -0.054692
  20 C :    0.112104
  21 O :   -0.142720
  22 C :    0.210637
  23 C :   -0.074607
  24 C :    0.000791
  25 C :    0.162443
  26 O :   -0.165751
  27 C :   -0.083851
  28 C :   -0.023064
  29 C :    0.115064
  30 C :   -0.039303
  31 S :    0.123691
  32 C :   -0.046734
  33 C :    0.122696
  34 C :   -0.032593
  35 C :   -0.042327
  36 S :    0.113899
  37 C :   -0.103850
  38 C :   -0.033378
  39 C :    0.215999
  40 O :   -0.208363
  41 C :    0.175046
  42 C :   -0.077486
  43 C :   -0.056822
  44 C :    0.136603
  45 O :   -0.173780
  46 C :   -0.113201
  47 S :    0.200681
  48 C :    0.013833
  49 N :    0.273879
  50 O :   -0.242914
  51 O :   -0.254188
  52 C :   -0.014768
  53 C :    0.093943
  54 C :   -0.030302
  55 C :   -0.008264
  56 H :   -0.012849
  57 H :   -0.003807
  58 H :   -0.003886
  59 H :    0.046650
  60 H :    0.000030
  61 H :   -0.005727
  62 H :    0.005234
  63 H :   -0.026882
  64 H :   -0.021941
  65 H :   -0.010173
  66 H :    0.012590
  67 H :   -0.007939
  68 H :    0.010258
  69 H :    0.007570
  70 H :    0.020506
  71 H :    0.026416
Sum of atomic charges:    0.0000000

LOEWDIN ATOMIC CHARGES
----------------------
   0 C :    0.071271
   1 C :   -0.129161
   2 C :   -0.017828
   3 N :   -0.047644
   4 C :   -0.027270
   5 N :   -0.038602
   6 C :   -0.020349
   7 C :   -0.051637
   8 C :    0.021529
   9 C :   -0.031977
  10 C :   -0.142899
  11 C :   -0.008883
  12 S :    0.435170
  13 C :   -0.270528
  14 C :   -0.070559
  15 Br:    0.139734
  16 C :    0.080108
  17 O :   -0.138846
  18 C :   -0.073032
  19 C :    0.045181
  20 C :    0.047967
  21 O :    0.065422
  22 C :    0.040670
  23 C :   -0.048769
  24 C :   -0.089309
  25 C :    0.114146
  26 O :   -0.118201
  27 C :   -0.173210
  28 C :   -0.023690
  29 C :   -0.040558
  30 C :   -0.146664
  31 S :    0.399750
  32 C :   -0.031073
  33 C :   -0.043498
  34 C :   -0.148707
  35 C :   -0.027766
  36 S :    0.413772
  37 C :   -0.175424
  38 C :   -0.031959
  39 C :    0.051684
  40 O :    0.027707
  41 C :    0.013437
  42 C :   -0.022768
  43 C :   -0.116782
  44 C :    0.096846
  45 O :   -0.127397
  46 C :   -0.161877
  47 S :    0.493337
  48 C :   -0.194459
  49 N :    0.272742
  50 O :   -0.209208
  51 O :   -0.219882
  52 C :   -0.003195
  53 C :   -0.055501
  54 C :   -0.027750
  55 C :   -0.031900
  56 H :    0.039867
  57 H :    0.041596
  58 H :    0.038788
  59 H :    0.055152
  60 H :    0.035064
  61 H :    0.003782
  62 H :    0.042166
  63 H :    0.033085
  64 H :    0.035394
  65 H :    0.035227
  66 H :    0.039243
  67 H :   -0.014362
  68 H :    0.044390
  69 H :    0.028074
  70 H :    0.022878
  71 H :    0.027944

  Mayer bond orders larger than 0.100000
B(  0-C ,  1-C ) :   1.6641 B(  0-C ,  6-C ) :   1.0106 B(  0-C , 18-C ) :   1.0440
B(  1-C ,  2-C ) :   1.1351 B(  1-C ,  4-C ) :   1.1317 B(  2-C ,  3-N ) :   2.9806
B(  4-C ,  5-N ) :   3.0096 B(  6-C ,  7-C ) :   1.2749 B(  6-C , 11-C ) :   1.4073
B(  7-C ,  8-C ) :   1.4216 B(  7-C , 16-C ) :   0.9424 B(  8-C ,  9-C ) :   1.2524
B(  8-C , 56-H ) :   1.0161 B(  9-C , 10-C ) :   1.3032 B(  9-C , 14-C ) :   1.1627
B( 10-C , 11-C ) :   1.3316 B( 10-C , 12-S ) :   1.0850 B( 11-C , 57-H ) :   0.9823
B( 12-S , 13-C ) :   1.0881 B( 13-C , 14-C ) :   1.6174 B( 13-C , 15-Br) :   1.0206
B( 14-C , 58-H ) :   1.0005 B( 16-C , 17-O ) :   2.2377 B( 16-C , 18-C ) :   0.9234
B( 18-C , 19-C ) :   1.5805 B( 19-C , 20-C ) :   1.2145 B( 19-C , 59-H ) :   0.9204
B( 20-C , 21-O ) :   1.1770 B( 20-C , 22-C ) :   0.1026 B( 20-C , 24-C ) :   1.3519
B( 21-O , 22-C ) :   1.2064 B( 22-C , 23-C ) :   1.4471 B( 22-C , 27-C ) :   1.0960
B( 23-C , 24-C ) :   1.2345 B( 23-C , 60-H ) :   1.0033 B( 24-C , 25-C ) :   0.9812
B( 25-C , 26-O ) :   2.1389 B( 25-C , 61-H ) :   0.9635 B( 27-C , 28-C ) :   1.5621
B( 27-C , 31-S ) :   1.0749 B( 28-C , 29-C ) :   1.1249 B( 28-C , 62-H ) :   1.0099
B( 29-C , 30-C ) :   1.2782 B( 29-C , 35-C ) :   1.3190 B( 30-C , 31-S ) :   1.0427
B( 30-C , 32-C ) :   1.3941 B( 32-C , 33-C ) :   1.3147 B( 32-C , 35-C ) :   0.1016
B( 32-C , 63-H ) :   1.0003 B( 33-C , 34-C ) :   1.2799 B( 33-C , 38-C ) :   1.1376
B( 34-C , 35-C ) :   1.3855 B( 34-C , 36-S ) :   1.0356 B( 35-C , 64-H ) :   1.0015
B( 36-S , 37-C ) :   1.0803 B( 37-C , 38-C ) :   1.5448 B( 37-C , 39-C ) :   1.1068
B( 38-C , 65-H ) :   1.0121 B( 39-C , 40-O ) :   1.1899 B( 39-C , 41-C ) :   0.1046
B( 39-C , 43-C ) :   1.3937 B( 40-O , 41-C ) :   1.1037 B( 41-C , 42-C ) :   1.4903
B( 41-C , 46-C ) :   1.1102 B( 42-C , 43-C ) :   1.2031 B( 42-C , 66-H ) :   1.0098
B( 43-C , 44-C ) :   0.9684 B( 44-C , 45-O ) :   2.2001 B( 44-C , 67-H ) :   0.9562
B( 46-C , 47-S ) :   1.1486 B( 46-C , 48-C ) :   0.1008 B( 46-C , 53-C ) :   1.4400
B( 47-S , 48-C ) :   1.1106 B( 48-C , 49-N ) :   0.9507 B( 48-C , 52-C ) :   1.5025
B( 49-N , 50-O ) :   1.5422 B( 49-N , 51-O ) :   1.5209 B( 50-O , 51-O ) :   0.2667
B( 52-C , 53-C ) :   1.2094 B( 52-C , 68-H ) :   0.9986 B( 53-C , 54-C ) :   1.0856
B( 54-C , 55-C ) :   1.9523 B( 54-C , 69-H ) :   0.9552 B( 55-C , 70-H ) :   0.9541
B( 55-C , 71-H ) :   0.9498

-----------------------------------------------------------------------------
         ABSORPTION SPECTRUM VIA TRANSITION ELECTRIC DIPOLE MOMENTS
-----------------------------------------------------------------------------
State   Energy  Wavelength   fosc         T2         TX        TY        TZ
        (cm-1)    (nm)                  (au**2)     (au)      (au)      (au)
-----------------------------------------------------------------------------
   0   19517.5    512.4   1.235315688  20.83668   0.21164   3.79157  -2.53297
   1   24347.2    410.7   0.778603136  10.52792  -0.72816   3.05926  -0.79913
   2   25620.6    390.3   0.094112068   1.20929  -0.69074   0.68356  -0.51471
   3   26381.7    379.1   0.320771370   4.00284   1.05050   0.58497  -1.59910
   4   27027.1    370.0   0.036519591   0.44484   0.30440  -0.41040   0.42866
   5   27862.1    358.9   0.029525686   0.34887   0.58915   0.02092  -0.03647
   6   28237.7    354.1   0.092020022   1.07282   0.82304   0.20173  -0.59560
   7   28943.3    345.5   0.264352947   3.00684  -0.77545   1.01767   1.17041
   8   29069.5    344.0   0.090952862   1.03004  -0.39234   0.38651   0.85248
   9   29256.7    341.8   0.074365530   0.83680   0.63944  -0.29892  -0.58187
  10   30831.9    324.3   0.067585617   0.72166   0.18917   0.39091  -0.73011
  11   32160.3    310.9   0.052307057   0.53545  -0.05932   0.59012   0.42859
  12   32600.2    306.7   0.274658170   2.77363   1.42355  -0.67512  -0.53976
  13   32911.5    303.8   0.457912129   4.58046   1.92855  -0.69399  -0.61606
  14   34111.5    293.2   0.047735582   0.46070   0.35131  -0.54099  -0.21119
  15   34987.8    285.8   0.018611031   0.17512  -0.16100  -0.07331   0.37924
  16   35030.0    285.5   0.009292347   0.08733  -0.00901  -0.00376  -0.29535
  17   35366.0    282.8   0.256907764   2.39148   0.91894  -0.95615  -0.79549
  18   35692.8    280.2   0.205162239   1.89231  -0.29947   1.33123  -0.17453
  19   35784.1    279.5   0.051689112   0.47554   0.20683   0.48158  -0.44815
  20   36765.2    272.0   0.043111372   0.38604  -0.26032   0.50447   0.25255
  21   37062.6    269.8   0.039784902   0.35339  -0.38986  -0.03055   0.44774
  22   37739.1    265.0   0.120893859   1.05460   0.07859  -0.24111  -0.99513
  23   37937.8    263.6   0.147835465   1.28287   0.41820  -0.94584  -0.46192
  24   38033.2    262.9   0.064890260   0.56168  -0.24454   0.67512  -0.21469
  25   38542.6    259.5   0.097143920   0.82976  -0.08437  -0.38936   0.81917
  26   38663.8    258.6   0.023700850   0.20181   0.12350  -0.31586  -0.29459
  27   39491.9    253.2   0.117039705   0.97567   0.35162   0.27584  -0.88088
  28   40203.4    248.7   0.022331445   0.18286  -0.07717   0.24697  -0.34046
  29   40321.1    248.0   0.004129087   0.03371   0.13180  -0.12083  -0.04173

FINAL SINGLE POINT ENERGY     -6426.105039722303

DIPOLE MOMENT
-------------
                                X             Y             Z
Electronic contribution:    -64.60438     -72.82032      93.73561
Nuclear contribution   :     63.62957      72.15920     -94.81016
                        -----------------------------------------
Total Dipole Moment    :     -0.97481      -0.66112      -1.07455
                        -----------------------------------------
Magnitude (a.u.)       :      1.59436
Magnitude (Debye)      :      4.05254

Rotational constants in cm-1:     0.001812     0.000317     0.000276
Rotational constants in MHz :    54.309966     9.505640     8.275093

                             ****ORCA TERMINATED NORMALLY****
TOTAL RUN TIME: 0 days 0 hours 5 minutes 10 seconds 788 msec
