                         Program Version 4.2.0 -  RELEASE  -
|  1> # ORCA input file
|  2> # SCF done       -198.930234680571          0.000352039014
|  3> ! CAM-B3LYP def2-SVP def2/J RIJCOSX Grid4 TightSCF
|  4> %maxcore 5000
|  5> %tddft
|  6>     Mode sTDDFT
|  7>     Ethresh 5.0
|  8>     maxcore 5000
|  9> end
| 10>
| 11> %pal
| 12>   nprocs 6
| 13>   end
| 14> * xyz 0 1
| 15>    C       -9.55966         4.76504       -15.31118
| 16>    C      -10.16290         4.07411       -16.32625
| 17>    C      -10.30627         4.56893       -17.64108
| 18>    N      -10.46298         4.91652       -18.72335
| 19>    C      -10.75218         2.79655       -16.20866
| 20>    N      -11.24473         1.76017       -16.19783
| 21>    C       -8.94932         6.08313       -15.42267
| 22>    C       -8.58376         6.53861       -14.12898
| 23>    C       -8.00155         7.76571       -13.91131
| 24>    C       -7.73735         8.56245       -15.02890
| 25>    C       -8.06338         8.08139       -16.32081
| 26>    C       -8.67965         6.85596       -16.53724
| 27>    S       -7.59929         9.20750       -17.55716
| 28>    C       -6.99751        10.30183       -16.33919
| 29>    C       -7.13807         9.84954       -15.07088
| 30>   Br       -6.24263        11.93482       -16.86877
| 31>    C       -8.92368         5.50535       -13.14109
| 32>    O       -8.94960         5.62894       -11.93537
| 33>    C       -9.38619         4.32449       -13.93399
| 34>    C       -9.60320         3.07859       -13.43440
| 35>    C       -9.08941         2.63534       -12.18371
| 36>    O       -8.01402         3.26289       -11.64490
| 37>    C       -9.42444         1.57904       -11.35529
| 38>    C      -10.36832         0.46875       -11.14813
| 39>    O      -11.29418         0.08170       -11.80573
| 40>    N       -9.94992        -0.09197        -9.94024
| 41>    C       -8.85973         0.52893        -9.33828
| 42>    O       -8.36137         0.20410        -8.28978
| 43>    C       -8.52322         1.60968       -10.26451
| 44>    C       -7.65818         2.66895       -10.48865
| 45>    C       -6.56606         3.21913        -9.77115
| 46>    C       -6.13852         2.78293        -8.56604
| 47>    C       -5.10679         3.50495        -7.89063
| 48>    C       -4.68199         3.36090        -6.62619
| 49>    C       -5.16029         2.32286        -5.66689
| 50>    C       -3.68515         4.33837        -6.02526
| 51>    N       -2.95587         5.14253        -6.96924
| 52>    C       -3.55759         6.07327        -7.73708
| 53>    C       -2.96342         6.67835        -8.80148
| 54>    C       -3.59336         7.59769        -9.67466
| 55>    C       -4.99648         7.79309        -9.79553
| 56>    C       -5.53472         8.81678       -10.62966
| 57>    N       -6.87285         8.98151       -10.70778
| 58>    C       -7.66411         8.18393       -10.04192
| 59>    C       -7.12782         7.11775        -9.25857
| 60>    N       -5.83600         6.95761        -9.14421
| 61>    C       -8.02223         6.13337        -8.58670
| 62>    C       -9.13117         8.39053       -10.17927
| 63>    C       -4.72836         9.66766       -11.43134
| 64>    C       -3.34479         9.39069       -11.41382
| 65>    C       -2.79726         8.37597       -10.54919
| 66>    N       -1.46806         8.30713       -10.64089
| 67>    S       -0.95772         9.39919       -11.69701
| 68>    N       -2.38589        10.02962       -12.08731
| 69>    C       -5.32249        10.77465       -12.08327
| 70>    C       -4.85662        11.53217       -13.12210
| 71>    C       -5.36685        12.91287       -13.31982
| 72>    O       -6.33173        13.41611       -12.78668
| 73>    C       -4.42750        13.53792       -14.27365
| 74>    C       -4.38225        14.82606       -14.71835
| 75>    C       -3.37804        15.20172       -15.63969
| 76>    C       -2.43455        14.22913       -16.08028
| 77>    C       -1.43312        14.61394       -16.99232
| 78>    C       -1.39015        15.90576       -17.43729
| 79>    C       -2.31066        16.87542       -17.01972
| 80>    C       -3.28843        16.51884       -16.13264
| 81>    F       -0.43155        16.27509       -18.30927
| 82>    C       -2.51320        12.89672       -15.61104
| 83>    C       -3.49774        12.55686       -14.72556
| 84>    C       -3.85008        11.27883       -14.11768
| 85>    C       -3.48704        10.03958       -14.58749
| 86>    C       -2.53526         9.82739       -15.60052
| 87>    N       -1.75208         9.59383       -16.40786
| 88>    C       -4.10540         8.85242       -14.15818
| 89>    N       -4.62818         7.86859       -13.87397
| 90>    H       -7.73376         8.10084       -12.92150
| 91>    H       -8.91855         6.53725       -17.53809
| 92>    H       -6.83598        10.39271       -14.19447
| 93>    H      -10.13966         2.33112       -14.00225
| 94>    H      -10.41508        -0.88954        -9.53021
| 95>    H       -6.10718         4.08142       -10.23588
| 96>    H       -6.61082         1.92841        -8.10454
| 97>    H       -4.68784         4.30463        -8.48799
| 98>    H       -5.95323         1.71623        -6.09031
| 99>    H       -5.52665         2.79283        -4.75465
|100>    H       -4.33571         1.66686        -5.38706
|101>    H       -2.96647         3.79300        -5.40800
|102>    H       -4.24535         5.00900        -5.36007
|103>    H       -2.08559         4.76362        -7.31561
|104>    H       -4.55703         6.35792        -7.44250
|105>    H       -1.92231         6.47612        -9.01655
|106>    H       -8.70645         6.63864        -7.90700
|107>    H       -7.43194         5.40644        -8.03585
|108>    H       -8.61519         5.62054        -9.34272
|109>    H       -9.32221         9.28080       -10.77194
|110>    H       -9.59969         8.49440        -9.20244
|111>    H       -9.56702         7.52321       -10.67423
|112>    H       -6.25141        11.11665       -11.63629
|113>    H       -5.10501        15.55159       -14.37658
|114>    H       -0.71021        13.89236       -17.33979
|115>    H       -2.22875        17.87899       -17.40604
|116>    H       -4.00978        17.24832       -15.79621
|117>    H       -1.78833        12.17789       -15.95928
|118> *
|119>
|120>                          ****END OF INPUT****

CARTESIAN COORDINATES (ANGSTROEM)
---------------------------------
  C     -9.559660    4.765040  -15.311180
  C    -10.162900    4.074110  -16.326250
  C    -10.306270    4.568930  -17.641080
  N    -10.462980    4.916520  -18.723350
  C    -10.752180    2.796550  -16.208660
  N    -11.244730    1.760170  -16.197830
  C     -8.949320    6.083130  -15.422670
  C     -8.583760    6.538610  -14.128980
  C     -8.001550    7.765710  -13.911310
  C     -7.737350    8.562450  -15.028900
  C     -8.063380    8.081390  -16.320810
  C     -8.679650    6.855960  -16.537240
  S     -7.599290    9.207500  -17.557160
  C     -6.997510   10.301830  -16.339190
  C     -7.138070    9.849540  -15.070880
  Br    -6.242630   11.934820  -16.868770
  C     -8.923680    5.505350  -13.141090
  O     -8.949600    5.628940  -11.935370
  C     -9.386190    4.324490  -13.933990
  C     -9.603200    3.078590  -13.434400
  C     -9.089410    2.635340  -12.183710
  O     -8.014020    3.262890  -11.644900
  C     -9.424440    1.579040  -11.355290
  C    -10.368320    0.468750  -11.148130
  O    -11.294180    0.081700  -11.805730
  N     -9.949920   -0.091970   -9.940240
  C     -8.859730    0.528930   -9.338280
  O     -8.361370    0.204100   -8.289780
  C     -8.523220    1.609680  -10.264510
  C     -7.658180    2.668950  -10.488650
  C     -6.566060    3.219130   -9.771150
  C     -6.138520    2.782930   -8.566040
  C     -5.106790    3.504950   -7.890630
  C     -4.681990    3.360900   -6.626190
  C     -5.160290    2.322860   -5.666890
  C     -3.685150    4.338370   -6.025260
  N     -2.955870    5.142530   -6.969240
  C     -3.557590    6.073270   -7.737080
  C     -2.963420    6.678350   -8.801480
  C     -3.593360    7.597690   -9.674660
  C     -4.996480    7.793090   -9.795530
  C     -5.534720    8.816780  -10.629660
  N     -6.872850    8.981510  -10.707780
  C     -7.664110    8.183930  -10.041920
  C     -7.127820    7.117750   -9.258570
  N     -5.836000    6.957610   -9.144210
  C     -8.022230    6.133370   -8.586700
  C     -9.131170    8.390530  -10.179270
  C     -4.728360    9.667660  -11.431340
  C     -3.344790    9.390690  -11.413820
  C     -2.797260    8.375970  -10.549190
  N     -1.468060    8.307130  -10.640890
  S     -0.957720    9.399190  -11.697010
  N     -2.385890   10.029620  -12.087310
  C     -5.322490   10.774650  -12.083270
  C     -4.856620   11.532170  -13.122100
  C     -5.366850   12.912870  -13.319820
  O     -6.331730   13.416110  -12.786680
  C     -4.427500   13.537920  -14.273650
  C     -4.382250   14.826060  -14.718350
  C     -3.378040   15.201720  -15.639690
  C     -2.434550   14.229130  -16.080280
  C     -1.433120   14.613940  -16.992320
  C     -1.390150   15.905760  -17.437290
  C     -2.310660   16.875420  -17.019720
  C     -3.288430   16.518840  -16.132640
  F     -0.431550   16.275090  -18.309270
  C     -2.513200   12.896720  -15.611040
  C     -3.497740   12.556860  -14.725560
  C     -3.850080   11.278830  -14.117680
  C     -3.487040   10.039580  -14.587490
  C     -2.535260    9.827390  -15.600520
  N     -1.752080    9.593830  -16.407860
  C     -4.105400    8.852420  -14.158180
  N     -4.628180    7.868590  -13.873970
  H     -7.733760    8.100840  -12.921500
  H     -8.918550    6.537250  -17.538090
  H     -6.835980   10.392710  -14.194470
  H    -10.139660    2.331120  -14.002250
  H    -10.415080   -0.889540   -9.530210
  H     -6.107180    4.081420  -10.235880
  H     -6.610820    1.928410   -8.104540
  H     -4.687840    4.304630   -8.487990
  H     -5.953230    1.716230   -6.090310
  H     -5.526650    2.792830   -4.754650
  H     -4.335710    1.666860   -5.387060
  H     -2.966470    3.793000   -5.408000
  H     -4.245350    5.009000   -5.360070
  H     -2.085590    4.763620   -7.315610
  H     -4.557030    6.357920   -7.442500
  H     -1.922310    6.476120   -9.016550
  H     -8.706450    6.638640   -7.907000
  H     -7.431940    5.406440   -8.035850
  H     -8.615190    5.620540   -9.342720
  H     -9.322210    9.280800  -10.771940
  H     -9.599690    8.494400   -9.202440
  H     -9.567020    7.523210  -10.674230
  H     -6.251410   11.116650  -11.636290
  H     -5.105010   15.551590  -14.376580
  H     -0.710210   13.892360  -17.339790
  H     -2.228750   17.878990  -17.406040
  H     -4.009780   17.248320  -15.796210
  H     -1.788330   12.177890  -15.959280

 Total Charge           Charge          ....    0
 Multiplicity           Mult            ....    1
 Number of Electrons    NEL             ....  550
 Basis Dimension        Dim             .... 1216

ORBITAL ENERGIES
----------------

  NO   OCC          E(Eh)            E(eV)
   0   2.0000    -482.877811    -13139.7732
   1   2.0000     -89.027926     -2422.5730
   2   2.0000     -88.966814     -2420.9101
   3   2.0000     -62.555007     -1702.2083
   4   2.0000     -56.388988     -1534.4224
   5   2.0000     -56.386305     -1534.3494
   6   2.0000     -56.386156     -1534.3453
   7   2.0000     -24.776537      -674.2038
   8   2.0000     -19.317133      -525.6459
   9   2.0000     -19.223765      -523.1052
  10   2.0000     -19.222180      -523.0621
  11   2.0000     -19.219883      -522.9996
  12   2.0000     -19.198235      -522.4105
  13   2.0000     -14.468843      -393.7172
  14   2.0000     -14.463035      -393.5592
  15   2.0000     -14.445802      -393.0903
  16   2.0000     -14.432668      -392.7329
  17   2.0000     -14.430329      -392.6692
  18   2.0000     -14.423964      -392.4960
  19   2.0000     -14.416670      -392.2975
  20   2.0000     -14.414984      -392.2517
  21   2.0000     -14.401608      -391.8877
  22   2.0000     -14.399527      -391.8311
  23   2.0000     -10.410073      -283.2725
  24   2.0000     -10.409215      -283.2491
  25   2.0000     -10.374707      -282.3101
  26   2.0000     -10.374392      -282.3015
  27   2.0000     -10.369524      -282.1691
  28   2.0000     -10.359153      -281.8869
  29   2.0000     -10.349513      -281.6246
  30   2.0000     -10.349008      -281.6108
  31   2.0000     -10.344953      -281.5005
  32   2.0000     -10.343519      -281.4615
  33   2.0000     -10.343094      -281.4499
  34   2.0000     -10.340349      -281.3752
  35   2.0000     -10.334008      -281.2026
  36   2.0000     -10.328814      -281.0613
  37   2.0000     -10.328579      -281.0549
  38   2.0000     -10.326424      -280.9963
  39   2.0000     -10.325973      -280.9840
  40   2.0000     -10.325213      -280.9633
  41   2.0000     -10.321908      -280.8734
  42   2.0000     -10.319957      -280.8203
  43   2.0000     -10.319853      -280.8175
  44   2.0000     -10.319077      -280.7964
  45   2.0000     -10.318567      -280.7825
  46   2.0000     -10.318326      -280.7759
  47   2.0000     -10.317342      -280.7492
  48   2.0000     -10.311472      -280.5894
  49   2.0000     -10.308608      -280.5115
  50   2.0000     -10.307582      -280.4836
  51   2.0000     -10.305685      -280.4319
  52   2.0000     -10.304864      -280.4096
  53   2.0000     -10.303241      -280.3654
  54   2.0000     -10.301796      -280.3261
  55   2.0000     -10.300918      -280.3022
  56   2.0000     -10.298959      -280.2489
  57   2.0000     -10.298573      -280.2384
  58   2.0000     -10.296607      -280.1849
  59   2.0000     -10.296107      -280.1713
  60   2.0000     -10.294158      -280.1183
  61   2.0000     -10.293808      -280.1088
  62   2.0000     -10.290220      -280.0111
  63   2.0000     -10.289337      -279.9871
  64   2.0000     -10.289070      -279.9798
  65   2.0000     -10.287489      -279.9368
  66   2.0000     -10.286943      -279.9220
  67   2.0000     -10.286494      -279.9097
  68   2.0000     -10.285159      -279.8734
  69   2.0000     -10.284135      -279.8455
  70   2.0000     -10.283731      -279.8345
  71   2.0000     -10.283324      -279.8235
  72   2.0000     -10.283051      -279.8160
  73   2.0000     -10.278658      -279.6965
  74   2.0000     -10.277105      -279.6542
  75   2.0000     -10.275514      -279.6110
  76   2.0000     -10.274619      -279.5866
  77   2.0000     -10.272204      -279.5209
  78   2.0000     -10.267936      -279.4047
  79   2.0000      -8.784283      -239.0325
  80   2.0000      -8.119431      -220.9410
  81   2.0000      -8.062974      -219.4047
  82   2.0000      -6.620511      -180.1533
  83   2.0000      -6.606025      -179.7591
  84   2.0000      -6.605875      -179.7550
  85   2.0000      -6.090544      -165.7321
  86   2.0000      -6.082864      -165.5232
  87   2.0000      -6.082008      -165.4998
  88   2.0000      -6.032647      -164.1567
  89   2.0000      -6.028384      -164.0407
  90   2.0000      -6.024166      -163.9259
  91   2.0000      -2.736430       -74.4621
  92   2.0000      -2.732312       -74.3500
  93   2.0000      -2.732209       -74.3472
  94   2.0000      -2.720692       -74.0338
  95   2.0000      -2.720677       -74.0334
  96   2.0000      -1.290748       -35.1230
  97   2.0000      -1.240050       -33.7435
  98   2.0000      -1.165131       -31.7048
  99   2.0000      -1.144992       -31.1568
 100   2.0000      -1.138029       -30.9674
 101   2.0000      -1.126466       -30.6527
 102   2.0000      -1.112257       -30.2661
 103   2.0000      -1.087189       -29.5839
 104   2.0000      -1.068148       -29.0658
 105   2.0000      -1.052037       -28.6274
 106   2.0000      -1.020821       -27.7780
 107   2.0000      -1.012401       -27.5488
 108   2.0000      -1.009317       -27.4649
 109   2.0000      -1.003318       -27.3017
 110   2.0000      -0.994204       -27.0537
 111   2.0000      -0.988758       -26.9055
 112   2.0000      -0.987023       -26.8583
 113   2.0000      -0.982060       -26.7232
 114   2.0000      -0.978720       -26.6323
 115   2.0000      -0.965467       -26.2717
 116   2.0000      -0.959516       -26.1098
 117   2.0000      -0.948927       -25.8216
 118   2.0000      -0.940275       -25.5862
 119   2.0000      -0.932280       -25.3686
 120   2.0000      -0.926442       -25.2098
 121   2.0000      -0.913567       -24.8594
 122   2.0000      -0.906445       -24.6656
 123   2.0000      -0.903037       -24.5729
 124   2.0000      -0.895829       -24.3768
 125   2.0000      -0.892232       -24.2789
 126   2.0000      -0.881236       -23.9797
 127   2.0000      -0.879415       -23.9301
 128   2.0000      -0.873938       -23.7811
 129   2.0000      -0.870349       -23.6834
 130   2.0000      -0.860129       -23.4053
 131   2.0000      -0.840933       -22.8830
 132   2.0000      -0.833154       -22.6713
 133   2.0000      -0.826098       -22.4793
 134   2.0000      -0.822750       -22.3882
 135   2.0000      -0.821667       -22.3587
 136   2.0000      -0.813768       -22.1438
 137   2.0000      -0.800126       -21.7725
 138   2.0000      -0.794538       -21.6205
 139   2.0000      -0.780124       -21.2282
 140   2.0000      -0.774722       -21.0813
 141   2.0000      -0.769880       -20.9495
 142   2.0000      -0.763193       -20.7676
 143   2.0000      -0.757533       -20.6135
 144   2.0000      -0.747885       -20.3510
 145   2.0000      -0.743403       -20.2290
 146   2.0000      -0.733914       -19.9708
 147   2.0000      -0.721300       -19.6276
 148   2.0000      -0.717711       -19.5299
 149   2.0000      -0.713083       -19.4040
 150   2.0000      -0.707149       -19.2425
 151   2.0000      -0.705109       -19.1870
 152   2.0000      -0.696052       -18.9405
 153   2.0000      -0.692529       -18.8447
 154   2.0000      -0.689092       -18.7512
 155   2.0000      -0.685644       -18.6573
 156   2.0000      -0.675928       -18.3929
 157   2.0000      -0.665859       -18.1189
 158   2.0000      -0.660415       -17.9708
 159   2.0000      -0.654353       -17.8058
 160   2.0000      -0.643319       -17.5056
 161   2.0000      -0.641318       -17.4512
 162   2.0000      -0.638454       -17.3732
 163   2.0000      -0.628884       -17.1128
 164   2.0000      -0.622849       -16.9486
 165   2.0000      -0.620988       -16.8979
 166   2.0000      -0.617780       -16.8107
 167   2.0000      -0.617427       -16.8010
 168   2.0000      -0.614444       -16.7199
 169   2.0000      -0.605304       -16.4712
 170   2.0000      -0.602881       -16.4052
 171   2.0000      -0.599375       -16.3098
 172   2.0000      -0.597429       -16.2569
 173   2.0000      -0.593715       -16.1558
 174   2.0000      -0.591388       -16.0925
 175   2.0000      -0.583231       -15.8705
 176   2.0000      -0.576197       -15.6791
 177   2.0000      -0.573614       -15.6088
 178   2.0000      -0.572347       -15.5744
 179   2.0000      -0.565574       -15.3900
 180   2.0000      -0.560864       -15.2619
 181   2.0000      -0.556012       -15.1299
 182   2.0000      -0.555464       -15.1149
 183   2.0000      -0.552605       -15.0371
 184   2.0000      -0.549836       -14.9618
 185   2.0000      -0.548635       -14.9291
 186   2.0000      -0.547346       -14.8940
 187   2.0000      -0.546583       -14.8733
 188   2.0000      -0.541381       -14.7317
 189   2.0000      -0.539643       -14.6844
 190   2.0000      -0.536583       -14.6012
 191   2.0000      -0.535012       -14.5584
 192   2.0000      -0.533605       -14.5201
 193   2.0000      -0.528737       -14.3877
 194   2.0000      -0.528138       -14.3714
 195   2.0000      -0.526943       -14.3388
 196   2.0000      -0.522567       -14.2198
 197   2.0000      -0.519803       -14.1446
 198   2.0000      -0.517471       -14.0811
 199   2.0000      -0.513341       -13.9687
 200   2.0000      -0.512008       -13.9324
 201   2.0000      -0.511334       -13.9141
 202   2.0000      -0.507724       -13.8159
 203   2.0000      -0.506412       -13.7802
 204   2.0000      -0.502903       -13.6847
 205   2.0000      -0.500443       -13.6178
 206   2.0000      -0.497700       -13.5431
 207   2.0000      -0.495736       -13.4897
 208   2.0000      -0.493547       -13.4301
 209   2.0000      -0.492097       -13.3907
 210   2.0000      -0.491024       -13.3614
 211   2.0000      -0.490765       -13.3544
 212   2.0000      -0.488937       -13.3046
 213   2.0000      -0.487664       -13.2700
 214   2.0000      -0.485269       -13.2049
 215   2.0000      -0.483107       -13.1460
 216   2.0000      -0.482504       -13.1296
 217   2.0000      -0.480780       -13.0827
 218   2.0000      -0.478493       -13.0205
 219   2.0000      -0.474314       -12.9067
 220   2.0000      -0.471978       -12.8432
 221   2.0000      -0.470172       -12.7940
 222   2.0000      -0.467224       -12.7138
 223   2.0000      -0.464206       -12.6317
 224   2.0000      -0.456645       -12.4259
 225   2.0000      -0.454981       -12.3807
 226   2.0000      -0.452560       -12.3148
 227   2.0000      -0.448327       -12.1996
 228   2.0000      -0.446748       -12.1566
 229   2.0000      -0.445674       -12.1274
 230   2.0000      -0.444298       -12.0900
 231   2.0000      -0.442926       -12.0526
 232   2.0000      -0.442553       -12.0425
 233   2.0000      -0.438487       -11.9318
 234   2.0000      -0.436606       -11.8807
 235   2.0000      -0.434210       -11.8154
 236   2.0000      -0.433315       -11.7911
 237   2.0000      -0.428624       -11.6635
 238   2.0000      -0.426851       -11.6152
 239   2.0000      -0.425699       -11.5839
 240   2.0000      -0.423766       -11.5313
 241   2.0000      -0.418615       -11.3911
 242   2.0000      -0.413943       -11.2640
 243   2.0000      -0.413706       -11.2575
 244   2.0000      -0.413555       -11.2534
 245   2.0000      -0.408776       -11.1234
 246   2.0000      -0.405954       -11.0466
 247   2.0000      -0.404207       -10.9990
 248   2.0000      -0.399291       -10.8652
 249   2.0000      -0.392430       -10.6786
 250   2.0000      -0.390574       -10.6281
 251   2.0000      -0.385674       -10.4947
 252   2.0000      -0.384353       -10.4588
 253   2.0000      -0.382690       -10.4135
 254   2.0000      -0.378535       -10.3005
 255   2.0000      -0.375813       -10.2264
 256   2.0000      -0.371260       -10.1025
 257   2.0000      -0.370335       -10.0773
 258   2.0000      -0.365829        -9.9547
 259   2.0000      -0.359275        -9.7764
 260   2.0000      -0.355873        -9.6838
 261   2.0000      -0.355218        -9.6660
 262   2.0000      -0.343062        -9.3352
 263   2.0000      -0.338180        -9.2024
 264   2.0000      -0.330876        -9.0036
 265   2.0000      -0.327086        -8.9005
 266   2.0000      -0.326436        -8.8828
 267   2.0000      -0.320242        -8.7142
 268   2.0000      -0.312601        -8.5063
 269   2.0000      -0.308934        -8.4065
 270   2.0000      -0.296042        -8.0557
 271   2.0000      -0.288101        -7.8396
 272   2.0000      -0.281776        -7.6675
 273   2.0000      -0.275452        -7.4954
 274   2.0000      -0.245698        -6.6858
 275   0.0000      -0.103074        -2.8048
 276   0.0000      -0.100519        -2.7353
 277   0.0000      -0.063481        -1.7274
 278   0.0000      -0.058410        -1.5894
 279   0.0000      -0.056717        -1.5433

MULLIKEN ATOMIC CHARGES
-----------------------
   0 C :    0.301709
   1 C :   -0.342800
   2 C :   -0.187261
   3 N :    0.158476
   4 C :   -0.191283
   5 N :    0.162875
   6 C :    0.022443
   7 C :    0.013569
   8 C :   -0.036303
   9 C :    0.117976
  10 C :   -0.086810
  11 C :   -0.030513
  12 S :    0.186527
  13 C :   -0.129741
  14 C :    0.075910
  15 Br:    0.032917
  16 C :    0.149502
  17 O :   -0.165229
  18 C :   -0.066213
  19 C :   -0.022319
  20 C :    0.057805
  21 O :   -0.173963
  22 C :   -0.004928
  23 C :    0.166350
  24 O :   -0.119844
  25 N :   -0.164910
  26 C :    0.181908
  27 O :   -0.155730
  28 C :   -0.090891
  29 C :    0.150252
  30 C :   -0.030618
  31 C :    0.002173
  32 C :    0.011386
  33 C :   -0.212352
  34 C :    0.091686
  35 C :    0.194145
  36 N :   -0.133658
  37 C :    0.110364
  38 C :   -0.121844
  39 C :    0.101240
  40 C :   -0.066403
  41 C :    0.012927
  42 N :   -0.033382
  43 C :   -0.136724
  44 C :   -0.174879
  45 N :   -0.039784
  46 C :    0.126984
  47 C :    0.123422
  48 C :    0.053170
  49 C :    0.023978
  50 C :   -0.001321
  51 N :   -0.272695
  52 S :    0.527309
  53 N :   -0.301553
  54 C :   -0.047711
  55 C :   -0.167960
  56 C :    0.135409
  57 O :   -0.150143
  58 C :    0.017423
  59 C :   -0.095273
  60 C :    0.097585
  61 C :    0.102693
  62 C :   -0.100449
  63 C :    0.302400
  64 C :   -0.032581
  65 C :   -0.011776
  66 F :   -0.195173
  67 C :   -0.098004
  68 C :    0.045531
  69 C :    0.341989
  70 C :   -0.334489
  71 C :   -0.201306
  72 N :    0.144640
  73 C :   -0.207302
  74 N :    0.149594
  75 H :   -0.036815
  76 H :   -0.005128
  77 H :   -0.014237
  78 H :    0.042371
  79 H :    0.141495
  80 H :    0.007087
  81 H :    0.017969
  82 H :    0.010121
  83 H :    0.033058
  84 H :    0.026413
  85 H :    0.031734
  86 H :    0.025657
  87 H :    0.039325
  88 H :    0.130600
  89 H :    0.040926
  90 H :   -0.008380
  91 H :    0.020645
  92 H :    0.018073
  93 H :    0.046816
  94 H :    0.030132
  95 H :    0.020699
  96 H :    0.049079
  97 H :    0.021272
  98 H :   -0.016886
  99 H :   -0.005551
 100 H :   -0.001119
 101 H :   -0.012733
 102 H :   -0.010771
Sum of atomic charges:   -0.0000000

LOEWDIN ATOMIC CHARGES
----------------------
   0 C :    0.072815
   1 C :   -0.131959
   2 C :   -0.018240
   3 N :   -0.046293
   4 C :   -0.023581
   5 N :   -0.039647
   6 C :   -0.021595
   7 C :   -0.054329
   8 C :    0.036765
   9 C :   -0.021384
  10 C :   -0.138748
  11 C :   -0.009548
  12 S :    0.432816
  13 C :   -0.269932
  14 C :   -0.061323
  15 Br:    0.153730
  16 C :    0.090313
  17 O :   -0.149731
  18 C :   -0.062510
  19 C :    0.042971
  20 C :    0.047431
  21 O :    0.046644
  22 C :   -0.064678
  23 C :    0.085634
  24 O :   -0.137980
  25 N :   -0.004387
  26 C :    0.087560
  27 O :   -0.166365
  28 C :   -0.109538
  29 C :    0.084755
  30 C :   -0.046191
  31 C :    0.024408
  32 C :   -0.056382
  33 C :   -0.024131
  34 C :   -0.044787
  35 C :    0.039920
  36 N :    0.024540
  37 C :    0.089764
  38 C :   -0.110282
  39 C :    0.033385
  40 C :   -0.037042
  41 C :    0.028830
  42 N :   -0.053262
  43 C :    0.029570
  44 C :    0.000157
  45 N :   -0.045573
  46 C :   -0.057255
  47 C :   -0.056748
  48 C :   -0.088120
  49 C :   -0.032492
  50 C :   -0.055464
  51 N :   -0.273564
  52 S :    0.656064
  53 N :   -0.289054
  54 C :    0.070073
  55 C :   -0.110934
  56 C :    0.078536
  57 O :   -0.153989
  58 C :   -0.060219
  59 C :    0.026234
  60 C :   -0.022878
  61 C :    0.001423
  62 C :   -0.044629
  63 C :    0.090726
  64 C :   -0.042359
  65 C :    0.002245
  66 F :   -0.069410
  67 C :    0.003512
  68 C :   -0.013259
  69 C :    0.074943
  70 C :   -0.148876
  71 C :   -0.020549
  72 N :   -0.069659
  73 C :   -0.012383
  74 N :   -0.077595
  75 H :    0.038792
  76 H :    0.041005
  77 H :    0.039993
  78 H :    0.057339
  79 H :    0.096589
  80 H :    0.042699
  81 H :    0.031577
  82 H :    0.033614
  83 H :    0.039028
  84 H :    0.037341
  85 H :    0.040091
  86 H :    0.035453
  87 H :    0.040400
  88 H :    0.086761
  89 H :    0.032983
  90 H :    0.031903
  91 H :    0.036098
  92 H :    0.033939
  93 H :    0.044377
  94 H :    0.038788
  95 H :    0.037013
  96 H :    0.044323
  97 H :    0.042342
  98 H :    0.037378
  99 H :    0.041791
 100 H :    0.039952
 101 H :    0.034169
 102 H :    0.037358

  Mayer bond orders larger than 0.100000
B(  0-C ,  1-C ) :   1.6472 B(  0-C ,  6-C ) :   1.0163 B(  0-C , 18-C ) :   1.0422
B(  1-C ,  2-C ) :   1.1406 B(  1-C ,  4-C ) :   1.1405 B(  2-C ,  3-N ) :   2.9776
B(  4-C ,  5-N ) :   2.9705 B(  6-C ,  7-C ) :   1.2565 B(  6-C , 11-C ) :   1.4011
B(  7-C ,  8-C ) :   1.3968 B(  7-C , 16-C ) :   0.9486 B(  8-C ,  9-C ) :   1.2750
B(  8-C , 75-H ) :   1.0139 B(  9-C , 10-C ) :   1.2901 B(  9-C , 14-C ) :   1.1770
B( 10-C , 11-C ) :   1.3319 B( 10-C , 12-S ) :   1.0898 B( 11-C , 76-H ) :   0.9823
B( 12-S , 13-C ) :   1.0793 B( 13-C , 14-C ) :   1.6130 B( 13-C , 15-Br) :   1.0271
B( 14-C , 77-H ) :   0.9887 B( 16-C , 17-O ) :   2.1428 B( 16-C , 18-C ) :   0.9402
B( 18-C , 19-C ) :   1.6337 B( 19-C , 20-C ) :   1.1621 B( 19-C , 78-H ) :   0.9339
B( 20-C , 21-O ) :   1.1365 B( 20-C , 22-C ) :   1.4041 B( 21-O , 29-C ) :   1.1835
B( 22-C , 23-C ) :   0.8632 B( 22-C , 28-C ) :   1.2989 B( 23-C , 24-O ) :   2.2854
B( 23-C , 25-N ) :   1.0737 B( 25-N , 26-C ) :   1.0963 B( 25-N , 79-H ) :   0.9139
B( 26-C , 27-O ) :   2.1957 B( 26-C , 28-C ) :   0.8873 B( 28-C , 29-C ) :   1.3904
B( 29-C , 30-C ) :   1.1315 B( 30-C , 31-C ) :   1.6560 B( 30-C , 80-H ) :   0.9644
B( 31-C , 32-C ) :   1.1092 B( 31-C , 81-H ) :   0.9702 B( 32-C , 33-C ) :   1.7664
B( 32-C , 82-H ) :   0.9537 B( 33-C , 34-C ) :   1.0904 B( 33-C , 35-C ) :   0.9897
B( 34-C , 83-H ) :   0.9532 B( 34-C , 84-H ) :   0.9494 B( 34-C , 85-H ) :   0.9454
B( 35-C , 36-N ) :   1.0328 B( 35-C , 86-H ) :   0.9444 B( 35-C , 87-H ) :   0.9236
B( 36-N , 37-C ) :   1.2787 B( 36-N , 88-H ) :   0.9360 B( 37-C , 38-C ) :   1.4686
B( 37-C , 89-H ) :   0.9451 B( 38-C , 39-C ) :   1.3251 B( 38-C , 90-H ) :   0.9499
B( 39-C , 40-C ) :   1.1937 B( 39-C , 48-C ) :   0.1134 B( 39-C , 50-C ) :   1.1526
B( 40-C , 41-C ) :   1.1868 B( 40-C , 45-N ) :   1.3883 B( 41-C , 42-N ) :   1.4226
B( 41-C , 48-C ) :   1.2377 B( 42-N , 43-C ) :   1.6741 B( 43-C , 44-C ) :   1.1343
B( 43-C , 47-C ) :   1.1042 B( 44-C , 45-N ) :   1.6867 B( 44-C , 46-C ) :   1.1042
B( 46-C , 91-H ) :   0.9311 B( 46-C , 92-H ) :   0.9377 B( 46-C , 93-H ) :   0.9307
B( 47-C , 94-H ) :   0.9401 B( 47-C , 95-H ) :   0.9326 B( 47-C , 96-H ) :   0.9233
B( 48-C , 49-C ) :   1.1915 B( 48-C , 54-C ) :   1.2002 B( 49-C , 50-C ) :   1.1239
B( 49-C , 53-N ) :   1.5109 B( 50-C , 51-N ) :   1.5473 B( 51-N , 52-S ) :   1.2910
B( 51-N , 53-N ) :   0.1418 B( 52-S , 53-N ) :   1.2412 B( 54-C , 55-C ) :   1.5198
B( 54-C , 97-H ) :   0.9325 B( 55-C , 56-C ) :   0.9394 B( 55-C , 69-C ) :   1.0749
B( 56-C , 57-O ) :   2.2738 B( 56-C , 58-C ) :   0.9154 B( 58-C , 59-C ) :   1.4760
B( 58-C , 68-C ) :   1.2124 B( 59-C , 60-C ) :   1.1815 B( 59-C , 98-H ) :   1.0160
B( 60-C , 61-C ) :   1.2595 B( 60-C , 65-C ) :   1.2383 B( 61-C , 62-C ) :   1.2025
B( 61-C , 67-C ) :   1.1939 B( 62-C , 63-C ) :   1.4393 B( 62-C , 99-H ) :   1.0065
B( 63-C , 64-C ) :   1.2588 B( 63-C , 66-F ) :   1.0839 B( 64-C , 65-C ) :   1.4557
B( 64-C ,100-H ) :   0.9928 B( 65-C ,101-H ) :   0.9964 B( 67-C , 68-C ) :   1.4667
B( 67-C ,102-H ) :   0.9956 B( 68-C , 69-C ) :   0.9971 B( 69-C , 70-C ) :   1.6081
B( 70-C , 71-C ) :   1.1534 B( 70-C , 73-C ) :   1.1806 B( 71-C , 72-N ) :   2.9822
B( 73-C , 74-N ) :   2.9805

-----------------------------------------------------------------------------
         ABSORPTION SPECTRUM VIA TRANSITION ELECTRIC DIPOLE MOMENTS
-----------------------------------------------------------------------------
State   Energy  Wavelength   fosc         T2         TX        TY        TZ
        (cm-1)    (nm)                  (au**2)     (au)      (au)      (au)
-----------------------------------------------------------------------------
   0   14381.5    695.3   0.429816561   9.83910  -0.15341   2.10548  -2.32003
   1   18632.9    536.7   0.018819758   0.33251  -0.10263   0.31529  -0.47177
   2   21625.0    462.4   0.796623679  12.12754   0.94733  -1.50767   2.99283
   3   22539.2    443.7   0.259512698   3.79049  -0.00483   1.29866  -1.45050
   4   23245.4    430.2   0.012285872   0.17400   0.23623  -0.27797  -0.20230
   5   23493.9    425.6   0.072547964   1.01659  -0.38411   0.12988   0.92314
   6   24230.7    412.7   0.166942823   2.26818   0.73211   1.27662  -0.32005
   7   25654.9    389.8   0.002147084   0.02755   0.05796  -0.02415   0.15365
   8   25685.9    389.3   0.014309704   0.18341  -0.12514   0.40813  -0.03422
   9   25768.3    388.1   0.005196895   0.06639   0.22190   0.05764  -0.11761
  10   26949.9    371.1   0.002901527   0.03544   0.11895   0.05922   0.13337
  11   27078.9    369.3   0.036379655   0.44229  -0.32247   0.55607  -0.17054
  12   27310.7    366.2   0.020792754   0.25064   0.17509   0.46735  -0.03963
  13   27787.2    359.9   0.166632939   1.97420  -0.21524   1.20754  -0.68535
  14   27870.1    358.8   0.034233503   0.40438  -0.14601   0.34632  -0.51295
  15   28514.5    350.7   0.006514105   0.07521  -0.19225  -0.17613   0.08501
  16   28724.7    348.1   0.004550317   0.05215   0.04364  -0.20451   0.09176
  17   28939.5    345.5   0.137671277   1.56613   0.84600   0.86992  -0.30604
  18   29142.9    343.1   0.042807188   0.48357   0.53153  -0.40099  -0.20063
  19   29939.2    334.0   0.126061688   1.38618   1.13966   0.25153   0.15518
  20   30409.6    328.8   0.296376124   3.20854   1.14592   0.05704   1.37556
  21   30703.6    325.7   0.030658820   0.32873  -0.09988  -0.47377   0.30708
  22   31314.2    319.3   1.178359597  12.38829   1.95949   2.90364   0.34293
  23   31318.2    319.3   0.066926545   0.70352  -0.75362  -0.12630   0.34587
  24   31681.0    315.6   0.019771481   0.20545   0.09533   0.02557  -0.44239
  25   32557.5    307.1   0.258492049   2.61379   0.06123   1.50181  -0.59551
  26   32740.3    305.4   0.028976818   0.29137   0.04313   0.51428  -0.15820
  27   33100.3    302.1   0.022867369   0.22744   0.10985  -0.41989  -0.19763
  28   33792.1    295.9   0.050932018   0.49619  -0.33859  -0.57486   0.22603
  29   33841.7    295.5   0.213615226   2.07805  -0.43695  -1.30724   0.42218
  30   33869.9    295.2   0.022583802   0.21951  -0.01721   0.43430   0.17493
  31   33910.9    294.9   0.006932792   0.06730  -0.20859  -0.09632  -0.12048
  32   34095.9    293.3   0.045024703   0.43473  -0.36722  -0.53366   0.12283
  33   34218.3    292.2   0.003001980   0.02888  -0.01773  -0.02441  -0.16725
  34   34452.9    290.3   0.000892024   0.00852   0.01661  -0.06078   0.06748
  35   34644.3    288.6   0.029841358   0.28357  -0.08555  -0.37615   0.36710
  36   34943.8    286.2   0.057602702   0.54269   0.13570   0.48027  -0.54186
  37   35302.0    283.3   0.017656542   0.16466   0.02526   0.08554  -0.39586
  38   35914.3    278.4   0.019595559   0.17962   0.27500  -0.31613   0.06371
  39   35974.7    278.0   0.041598588   0.38068   0.07911  -0.59728   0.13293
  40   36034.7    277.5   0.336791652   3.07692   0.18555  -1.68793   0.43975
  41   36294.4    275.5   0.346048688   3.13887  -0.29329   0.67564  -1.61133
  42   36462.2    274.3   0.004499977   0.04063   0.09295   0.13595   0.11622
  43   36551.2    273.6   0.091330375   0.82260   0.38656   0.49532   0.65409
  44   36889.1    271.1   0.007899567   0.07050  -0.23858  -0.09981   0.06015
  45   37105.8    269.5   0.083922758   0.74458   0.26979   0.81877   0.03768
  46   37172.6    269.0   0.009358941   0.08289   0.26293  -0.00083   0.11727
  47   37379.6    267.5   0.152733861   1.34517  -1.06315   0.43271   0.16624
  48   37715.1    265.1   0.031758586   0.27722  -0.40806  -0.08448   0.32182
  49   37782.4    264.7   0.103836256   0.90476  -0.67898  -0.53197   0.40096
  50   37871.7    264.0   0.038593275   0.33548   0.46062  -0.33782  -0.09584
  51   38570.6    259.3   0.055650295   0.47499  -0.63400  -0.24462   0.11487
  52   38920.9    256.9   0.054482301   0.46084   0.29870   0.36897  -0.48526
  53   39229.6    254.9   0.022733420   0.19078  -0.26784  -0.31768  -0.13461
  54   39363.2    254.0   0.010793750   0.09027   0.00751  -0.29492  -0.05690
  55   39382.7    253.9   0.025243073   0.21101   0.29330   0.28253   0.21252
  56   39467.0    253.4   0.031842976   0.26562  -0.31357  -0.34787  -0.21512
  57   39584.1    252.6   0.033720006   0.28044   0.31175   0.23713  -0.35640
  58   39786.1    251.3   0.006805246   0.05631  -0.20598  -0.11669   0.01630
  59   40053.1    249.7   0.024213951   0.19902  -0.16132  -0.01840  -0.41552

FINAL SINGLE POINT ENERGY     -6540.379158068532

DIPOLE MOMENT
-------------
                                X             Y             Z
Electronic contribution:      3.14788      65.66461    -101.54046
Nuclear contribution   :     -1.29920     -65.62621     107.11207
                        -----------------------------------------
Total Dipole Moment    :      1.84868       0.03840       5.57161
                        -----------------------------------------
Magnitude (a.u.)       :      5.87042
Magnitude (Debye)      :     14.92143

Rotational constants in cm-1:     0.001306     0.000545     0.000420
Rotational constants in MHz :    39.154793    16.331843    12.598561

                             ****ORCA TERMINATED NORMALLY****
TOTAL RUN TIME: 0 days 0 hours 12 minutes 49 seconds 827 msec
