                         Program Version 4.2.0 -  RELEASE  -
|  1> # ORCA input file
|  2> # SCF done       -205.796438235828          0.000719657792
|  3> ! CAM-B3LYP def2-SVP def2/J RIJCOSX Grid4 TightSCF
|  4> %maxcore 5000
|  5> %tddft
|  6>     Mode sTDDFT
|  7>     Ethresh 5.0
|  8>     maxcore 5000
|  9> end
| 10>
| 11> %pal
| 12>   nprocs 6
| 13>   end
| 14> * xyz 0 1
| 15>    C       -9.77296         3.34689         6.28579
| 16>    C       -9.25579         2.62664         7.32848
| 17>    C       -9.95857         2.35927         8.52329
| 18>    N      -10.48606         2.10665         9.51059
| 19>    C       -7.93918         2.11803         7.39399
| 20>    N       -6.87496         1.71720         7.54692
| 21>    C      -11.06100         4.02596         6.27754
| 22>    C      -11.13206         4.84875         5.12711
| 23>    C      -12.21874         5.64319         4.85063
| 24>    C      -13.29007         5.61931         5.74872
| 25>    C      -13.21570         4.78395         6.89035
| 26>    C      -12.11521         3.98480         7.17215
| 27>    S      -14.65071         4.90033         7.86162
| 28>    C      -15.32103         6.05570         6.74048
| 29>    C      -14.51364         6.34011         5.69064
| 30>   Br      -17.02151         6.77675         7.06075
| 31>    C       -9.90076         4.69985         4.32525
| 32>    O       -9.64612         5.28232         3.29774
| 33>    C       -9.09408         3.66456         5.03706
| 34>    C       -8.00825         2.99629         4.55918
| 35>    C       -7.26326         3.23868         3.38060
| 36>    O       -7.38783         4.34586         2.60911
| 37>    C       -6.27552         2.43846         2.82162
| 38>    C       -5.55945         1.15736         2.95650
| 39>    O       -5.66758         0.27630         3.76357
| 40>    N       -4.68286         1.16336         1.87383
| 41>    C       -4.76076         2.28170         1.04766
| 42>    O       -4.09533         2.47272         0.06462
| 43>    C       -5.80703         3.10055         1.67150
| 44>    C       -6.52668         4.28667         1.57194
| 45>    C       -6.50638         5.33486         0.62104
| 46>    C       -5.67765         5.33523        -0.45420
| 47>    C       -5.66394         6.34932        -1.43608
| 48>    S       -6.70037         7.74265        -1.41171
| 49>    C       -6.08317         8.33607        -2.93603
| 50>    C       -5.07189         7.49130        -3.40202
| 51>    C       -4.84852         6.38936        -2.56825
| 52>    O       -3.96574         5.38121        -2.78259
| 53>    C       -3.03753         5.35000        -3.75097
| 54>    O       -2.37682         4.36625        -3.90774
| 55>    C       -2.79137         6.56016        -4.64741
| 56>    O       -1.82247         6.63034        -5.34519
| 57>    S       -3.99151         7.87119        -4.73354
| 58>    C       -6.63763         9.51820        -3.45973
| 59>    C       -6.75714         9.89984        -4.77385
| 60>    C       -7.27485        11.14645        -5.21631
| 61>    C       -7.39395        11.25736        -6.56720
| 62>    C       -6.99895        10.09546        -7.26868
| 63>    S       -6.44766         8.86857        -6.15405
| 64>    C       -7.02796         9.86082        -8.63173
| 65>    C       -7.47022        10.72500        -9.65885
| 66>    C       -7.39451        10.17621       -10.90383
| 67>    C       -6.89288         8.85257       -10.92203
| 68>    S       -6.49958         8.33566        -9.29984
| 69>    C       -6.71405         8.05409       -12.03286
| 70>    C       -6.23453         6.74797       -11.95843
| 71>    C       -5.96784         5.86499       -12.97852
| 72>    C       -5.87535         4.41898       -12.65458
| 73>    O       -5.81648         3.92724       -11.54979
| 74>    C       -5.93009         3.72175       -13.95509
| 75>    C       -5.96975         2.38174       -14.20810
| 76>    C       -6.05584         1.93825       -15.54714
| 77>    C       -6.10650         2.89902       -16.59796
| 78>    C       -6.20156         2.45150       -17.93065
| 79>    C       -6.24098         1.11346       -18.20696
| 80>    C       -6.18849         0.16440       -17.16698
| 81>    C       -6.09776         0.56680       -15.86388
| 82>    F       -6.23000        -1.14121       -17.46721
| 83>    F       -6.33113         0.69042       -19.47522
| 84>    C       -6.05631         4.28188       -16.30382
| 85>    C       -5.96124         4.68822       -15.00037
| 86>    C       -5.85615         6.02212       -14.40401
| 87>    C       -5.51103         7.16096       -15.09251
| 88>    C       -5.13149         8.37805       -14.49256
| 89>    N       -4.77496         9.38385       -14.06827
| 90>    C       -5.39219         7.22322       -16.49544
| 91>    N       -5.30285         7.34249       -17.63401
| 92>    H      -12.24042         6.26356         3.96844
| 93>    H      -12.10692         3.36305         8.05159
| 94>    H      -14.76933         7.02967         4.90708
| 95>    H       -7.64208         2.13607         5.10627
| 96>    H       -4.04011         0.40441         1.69504
| 97>    H       -7.20784         6.14078         0.78820
| 98>    H       -4.98184         4.51984        -0.60993
| 99>    H       -7.09883        10.17273        -2.73072
|100>    H       -7.53069        11.92206        -4.51665
|101>    H       -7.75580        12.13347        -7.07383
|102>    H       -7.83090        11.71675        -9.45428
|103>    H       -7.67632        10.67867       -11.81172
|104>    H       -6.99495         8.47654       -12.98600
|105>    H       -6.12553         6.32193       -10.96422
|106>    H       -5.93592         1.66932       -13.39799
|107>    H       -6.23915         3.16447       -18.73942
|108>    H       -6.05837        -0.17180       -15.07862
|109>    H       -6.10208         4.98401       -17.12070
|110> *
|111>
|112>                          ****END OF INPUT****

CARTESIAN COORDINATES (ANGSTROEM)
---------------------------------
  C     -9.772960    3.346890    6.285790
  C     -9.255790    2.626640    7.328480
  C     -9.958570    2.359270    8.523290
  N    -10.486060    2.106650    9.510590
  C     -7.939180    2.118030    7.393990
  N     -6.874960    1.717200    7.546920
  C    -11.061000    4.025960    6.277540
  C    -11.132060    4.848750    5.127110
  C    -12.218740    5.643190    4.850630
  C    -13.290070    5.619310    5.748720
  C    -13.215700    4.783950    6.890350
  C    -12.115210    3.984800    7.172150
  S    -14.650710    4.900330    7.861620
  C    -15.321030    6.055700    6.740480
  C    -14.513640    6.340110    5.690640
  Br   -17.021510    6.776750    7.060750
  C     -9.900760    4.699850    4.325250
  O     -9.646120    5.282320    3.297740
  C     -9.094080    3.664560    5.037060
  C     -8.008250    2.996290    4.559180
  C     -7.263260    3.238680    3.380600
  O     -7.387830    4.345860    2.609110
  C     -6.275520    2.438460    2.821620
  C     -5.559450    1.157360    2.956500
  O     -5.667580    0.276300    3.763570
  N     -4.682860    1.163360    1.873830
  C     -4.760760    2.281700    1.047660
  O     -4.095330    2.472720    0.064620
  C     -5.807030    3.100550    1.671500
  C     -6.526680    4.286670    1.571940
  C     -6.506380    5.334860    0.621040
  C     -5.677650    5.335230   -0.454200
  C     -5.663940    6.349320   -1.436080
  S     -6.700370    7.742650   -1.411710
  C     -6.083170    8.336070   -2.936030
  C     -5.071890    7.491300   -3.402020
  C     -4.848520    6.389360   -2.568250
  O     -3.965740    5.381210   -2.782590
  C     -3.037530    5.350000   -3.750970
  O     -2.376820    4.366250   -3.907740
  C     -2.791370    6.560160   -4.647410
  O     -1.822470    6.630340   -5.345190
  S     -3.991510    7.871190   -4.733540
  C     -6.637630    9.518200   -3.459730
  C     -6.757140    9.899840   -4.773850
  C     -7.274850   11.146450   -5.216310
  C     -7.393950   11.257360   -6.567200
  C     -6.998950   10.095460   -7.268680
  S     -6.447660    8.868570   -6.154050
  C     -7.027960    9.860820   -8.631730
  C     -7.470220   10.725000   -9.658850
  C     -7.394510   10.176210  -10.903830
  C     -6.892880    8.852570  -10.922030
  S     -6.499580    8.335660   -9.299840
  C     -6.714050    8.054090  -12.032860
  C     -6.234530    6.747970  -11.958430
  C     -5.967840    5.864990  -12.978520
  C     -5.875350    4.418980  -12.654580
  O     -5.816480    3.927240  -11.549790
  C     -5.930090    3.721750  -13.955090
  C     -5.969750    2.381740  -14.208100
  C     -6.055840    1.938250  -15.547140
  C     -6.106500    2.899020  -16.597960
  C     -6.201560    2.451500  -17.930650
  C     -6.240980    1.113460  -18.206960
  C     -6.188490    0.164400  -17.166980
  C     -6.097760    0.566800  -15.863880
  F     -6.230000   -1.141210  -17.467210
  F     -6.331130    0.690420  -19.475220
  C     -6.056310    4.281880  -16.303820
  C     -5.961240    4.688220  -15.000370
  C     -5.856150    6.022120  -14.404010
  C     -5.511030    7.160960  -15.092510
  C     -5.131490    8.378050  -14.492560
  N     -4.774960    9.383850  -14.068270
  C     -5.392190    7.223220  -16.495440
  N     -5.302850    7.342490  -17.634010
  H    -12.240420    6.263560    3.968440
  H    -12.106920    3.363050    8.051590
  H    -14.769330    7.029670    4.907080
  H     -7.642080    2.136070    5.106270
  H     -4.040110    0.404410    1.695040
  H     -7.207840    6.140780    0.788200
  H     -4.981840    4.519840   -0.609930
  H     -7.098830   10.172730   -2.730720
  H     -7.530690   11.922060   -4.516650
  H     -7.755800   12.133470   -7.073830
  H     -7.830900   11.716750   -9.454280
  H     -7.676320   10.678670  -11.811720
  H     -6.994950    8.476540  -12.986000
  H     -6.125530    6.321930  -10.964220
  H     -5.935920    1.669320  -13.397990
  H     -6.239150    3.164470  -18.739420
  H     -6.058370   -0.171800  -15.078620
  H     -6.102080    4.984010  -17.120700

 Total Charge           Charge          ....    0
 Multiplicity           Mult            ....    1
 Number of Electrons    NEL             ....  586
 Basis Dimension        Dim             .... 1206

ORBITAL ENERGIES
----------------

  NO   OCC          E(Eh)            E(eV)
   0   2.0000    -482.890883    -13140.1290
   1   2.0000     -88.989928     -2421.5390
   2   2.0000     -88.983013     -2421.3509
   3   2.0000     -88.981131     -2421.2997
   4   2.0000     -88.977108     -2421.1902
   5   2.0000     -88.973207     -2421.0840
   6   2.0000     -62.568584     -1702.5777
   7   2.0000     -56.402539     -1534.7911
   8   2.0000     -56.399815     -1534.7170
   9   2.0000     -56.399786     -1534.7162
  10   2.0000     -24.794041      -674.6802
  11   2.0000     -24.793385      -674.6623
  12   2.0000     -19.320792      -525.7455
  13   2.0000     -19.319375      -525.7069
  14   2.0000     -19.253370      -523.9108
  15   2.0000     -19.239411      -523.5310
  16   2.0000     -19.224011      -523.1119
  17   2.0000     -19.223427      -523.0960
  18   2.0000     -19.221818      -523.0523
  19   2.0000     -19.208885      -522.7003
  20   2.0000     -14.465005      -393.6128
  21   2.0000     -14.421011      -392.4157
  22   2.0000     -14.419145      -392.3649
  23   2.0000     -14.411624      -392.1602
  24   2.0000     -14.410481      -392.1291
  25   2.0000     -10.441936      -284.1395
  26   2.0000     -10.418510      -283.5021
  27   2.0000     -10.412033      -283.3258
  28   2.0000     -10.411802      -283.3195
  29   2.0000     -10.385452      -282.6025
  30   2.0000     -10.380789      -282.4756
  31   2.0000     -10.376702      -282.3644
  32   2.0000     -10.376210      -282.3510
  33   2.0000     -10.375669      -282.3363
  34   2.0000     -10.373030      -282.2645
  35   2.0000     -10.364750      -282.0392
  36   2.0000     -10.359699      -281.9017
  37   2.0000     -10.350276      -281.6453
  38   2.0000     -10.348891      -281.6076
  39   2.0000     -10.347666      -281.5743
  40   2.0000     -10.346656      -281.5468
  41   2.0000     -10.345712      -281.5211
  42   2.0000     -10.343751      -281.4678
  43   2.0000     -10.340886      -281.3898
  44   2.0000     -10.339816      -281.3607
  45   2.0000     -10.338317      -281.3199
  46   2.0000     -10.337293      -281.2920
  47   2.0000     -10.335943      -281.2553
  48   2.0000     -10.331827      -281.1433
  49   2.0000     -10.331486      -281.1340
  50   2.0000     -10.323270      -280.9105
  51   2.0000     -10.322353      -280.8855
  52   2.0000     -10.320852      -280.8447
  53   2.0000     -10.318138      -280.7708
  54   2.0000     -10.317831      -280.7625
  55   2.0000     -10.317054      -280.7413
  56   2.0000     -10.316441      -280.7246
  57   2.0000     -10.314757      -280.6788
  58   2.0000     -10.314746      -280.6785
  59   2.0000     -10.313926      -280.6562
  60   2.0000     -10.313535      -280.6456
  61   2.0000     -10.313472      -280.6438
  62   2.0000     -10.312431      -280.6155
  63   2.0000     -10.312362      -280.6136
  64   2.0000     -10.311615      -280.5933
  65   2.0000     -10.308471      -280.5078
  66   2.0000     -10.308406      -280.5060
  67   2.0000     -10.307201      -280.4732
  68   2.0000     -10.305577      -280.4290
  69   2.0000     -10.305227      -280.4195
  70   2.0000     -10.302870      -280.3554
  71   2.0000     -10.302748      -280.3520
  72   2.0000     -10.302367      -280.3417
  73   2.0000     -10.298666      -280.2410
  74   2.0000     -10.297249      -280.2024
  75   2.0000     -10.297172      -280.2003
  76   2.0000     -10.296844      -280.1914
  77   2.0000     -10.296764      -280.1892
  78   2.0000     -10.295979      -280.1678
  79   2.0000     -10.291693      -280.0512
  80   2.0000     -10.287912      -279.9483
  81   2.0000      -8.798007      -239.4059
  82   2.0000      -8.085410      -220.0152
  83   2.0000      -8.079345      -219.8502
  84   2.0000      -8.077143      -219.7902
  85   2.0000      -8.073556      -219.6926
  86   2.0000      -8.069497      -219.5822
  87   2.0000      -6.634319      -180.5290
  88   2.0000      -6.619753      -180.1326
  89   2.0000      -6.619518      -180.1262
  90   2.0000      -6.054712      -164.7571
  91   2.0000      -6.050900      -164.6534
  92   2.0000      -6.049105      -164.6045
  93   2.0000      -6.047098      -164.5499
  94   2.0000      -6.046826      -164.5425
  95   2.0000      -6.044695      -164.4845
  96   2.0000      -6.043241      -164.4449
  97   2.0000      -6.042551      -164.4262
  98   2.0000      -6.040155      -164.3610
  99   2.0000      -6.039106      -164.3324
 100   2.0000      -6.039088      -164.3320
 101   2.0000      -6.038363      -164.3122
 102   2.0000      -6.035110      -164.2237
 103   2.0000      -6.034466      -164.2062
 104   2.0000      -6.030579      -164.1004
 105   2.0000      -2.750201       -74.8368
 106   2.0000      -2.746086       -74.7248
 107   2.0000      -2.745943       -74.7209
 108   2.0000      -2.734350       -74.4055
 109   2.0000      -2.734339       -74.4051
 110   2.0000      -1.316484       -35.8234
 111   2.0000      -1.301651       -35.4197
 112   2.0000      -1.248302       -33.9680
 113   2.0000      -1.242965       -33.8228
 114   2.0000      -1.178198       -32.0604
 115   2.0000      -1.168125       -31.7863
 116   2.0000      -1.148268       -31.2460
 117   2.0000      -1.144191       -31.1350
 118   2.0000      -1.138667       -30.9847
 119   2.0000      -1.124041       -30.5867
 120   2.0000      -1.055020       -28.7086
 121   2.0000      -1.031130       -28.0585
 122   2.0000      -1.029085       -28.0028
 123   2.0000      -1.023804       -27.8591
 124   2.0000      -1.018669       -27.7194
 125   2.0000      -1.014884       -27.6164
 126   2.0000      -1.003361       -27.3028
 127   2.0000      -0.999396       -27.1950
 128   2.0000      -0.998628       -27.1740
 129   2.0000      -0.995968       -27.1017
 130   2.0000      -0.989880       -26.9360
 131   2.0000      -0.976328       -26.5672
 132   2.0000      -0.956909       -26.0388
 133   2.0000      -0.950970       -25.8772
 134   2.0000      -0.937891       -25.5213
 135   2.0000      -0.934665       -25.4335
 136   2.0000      -0.933521       -25.4024
 137   2.0000      -0.925159       -25.1748
 138   2.0000      -0.914349       -24.8807
 139   2.0000      -0.914231       -24.8775
 140   2.0000      -0.905251       -24.6331
 141   2.0000      -0.893213       -24.3056
 142   2.0000      -0.891956       -24.2714
 143   2.0000      -0.887553       -24.1516
 144   2.0000      -0.882331       -24.0094
 145   2.0000      -0.878795       -23.9132
 146   2.0000      -0.872862       -23.7518
 147   2.0000      -0.857959       -23.3463
 148   2.0000      -0.853661       -23.2293
 149   2.0000      -0.847269       -23.0554
 150   2.0000      -0.835634       -22.7388
 151   2.0000      -0.835272       -22.7289
 152   2.0000      -0.827849       -22.5269
 153   2.0000      -0.813706       -22.1421
 154   2.0000      -0.795327       -21.6420
 155   2.0000      -0.786542       -21.4029
 156   2.0000      -0.781468       -21.2648
 157   2.0000      -0.778421       -21.1819
 158   2.0000      -0.772651       -21.0249
 159   2.0000      -0.765276       -20.8242
 160   2.0000      -0.763406       -20.7733
 161   2.0000      -0.757999       -20.6262
 162   2.0000      -0.749708       -20.4006
 163   2.0000      -0.735209       -20.0060
 164   2.0000      -0.723126       -19.6773
 165   2.0000      -0.717823       -19.5330
 166   2.0000      -0.712873       -19.3983
 167   2.0000      -0.711746       -19.3676
 168   2.0000      -0.701658       -19.0931
 169   2.0000      -0.695764       -18.9327
 170   2.0000      -0.688821       -18.7438
 171   2.0000      -0.687193       -18.6995
 172   2.0000      -0.678732       -18.4692
 173   2.0000      -0.675604       -18.3841
 174   2.0000      -0.665089       -18.0980
 175   2.0000      -0.663296       -18.0492
 176   2.0000      -0.657075       -17.8799
 177   2.0000      -0.652204       -17.7474
 178   2.0000      -0.648112       -17.6360
 179   2.0000      -0.639134       -17.3917
 180   2.0000      -0.637935       -17.3591
 181   2.0000      -0.635836       -17.3020
 182   2.0000      -0.633867       -17.2484
 183   2.0000      -0.628148       -17.0928
 184   2.0000      -0.625426       -17.0187
 185   2.0000      -0.620354       -16.8807
 186   2.0000      -0.609040       -16.5728
 187   2.0000      -0.607094       -16.5199
 188   2.0000      -0.605982       -16.4896
 189   2.0000      -0.604104       -16.4385
 190   2.0000      -0.598616       -16.2892
 191   2.0000      -0.595664       -16.2089
 192   2.0000      -0.594694       -16.1825
 193   2.0000      -0.587208       -15.9787
 194   2.0000      -0.586306       -15.9542
 195   2.0000      -0.581181       -15.8147
 196   2.0000      -0.575512       -15.6605
 197   2.0000      -0.574962       -15.6455
 198   2.0000      -0.571705       -15.5569
 199   2.0000      -0.564532       -15.3617
 200   2.0000      -0.559848       -15.2343
 201   2.0000      -0.556712       -15.1489
 202   2.0000      -0.556242       -15.1361
 203   2.0000      -0.553138       -15.0516
 204   2.0000      -0.550161       -14.9706
 205   2.0000      -0.547387       -14.8952
 206   2.0000      -0.546231       -14.8637
 207   2.0000      -0.542949       -14.7744
 208   2.0000      -0.542490       -14.7619
 209   2.0000      -0.540733       -14.7141
 210   2.0000      -0.536346       -14.5947
 211   2.0000      -0.534002       -14.5309
 212   2.0000      -0.533028       -14.5044
 213   2.0000      -0.531639       -14.4666
 214   2.0000      -0.530039       -14.4231
 215   2.0000      -0.529310       -14.4033
 216   2.0000      -0.528856       -14.3909
 217   2.0000      -0.525600       -14.3023
 218   2.0000      -0.523903       -14.2561
 219   2.0000      -0.522864       -14.2279
 220   2.0000      -0.520035       -14.1509
 221   2.0000      -0.519399       -14.1336
 222   2.0000      -0.513938       -13.9850
 223   2.0000      -0.512765       -13.9530
 224   2.0000      -0.511524       -13.9193
 225   2.0000      -0.509889       -13.8748
 226   2.0000      -0.506787       -13.7904
 227   2.0000      -0.504269       -13.7219
 228   2.0000      -0.499569       -13.5940
 229   2.0000      -0.499384       -13.5889
 230   2.0000      -0.498596       -13.5675
 231   2.0000      -0.495750       -13.4900
 232   2.0000      -0.494232       -13.4487
 233   2.0000      -0.493284       -13.4229
 234   2.0000      -0.491073       -13.3628
 235   2.0000      -0.485204       -13.2031
 236   2.0000      -0.481562       -13.1040
 237   2.0000      -0.479885       -13.0583
 238   2.0000      -0.477467       -12.9925
 239   2.0000      -0.473177       -12.8758
 240   2.0000      -0.467021       -12.7083
 241   2.0000      -0.464027       -12.6268
 242   2.0000      -0.463728       -12.6187
 243   2.0000      -0.462951       -12.5975
 244   2.0000      -0.459260       -12.4971
 245   2.0000      -0.455880       -12.4051
 246   2.0000      -0.453258       -12.3338
 247   2.0000      -0.452732       -12.3195
 248   2.0000      -0.452373       -12.3097
 249   2.0000      -0.447603       -12.1799
 250   2.0000      -0.446715       -12.1557
 251   2.0000      -0.446568       -12.1517
 252   2.0000      -0.444236       -12.0883
 253   2.0000      -0.443577       -12.0703
 254   2.0000      -0.442479       -12.0405
 255   2.0000      -0.439579       -11.9615
 256   2.0000      -0.433664       -11.8006
 257   2.0000      -0.432586       -11.7713
 258   2.0000      -0.429251       -11.6805
 259   2.0000      -0.427960       -11.6454
 260   2.0000      -0.424651       -11.5553
 261   2.0000      -0.423040       -11.5115
 262   2.0000      -0.419883       -11.4256
 263   2.0000      -0.416339       -11.3291
 264   2.0000      -0.413541       -11.2530
 265   2.0000      -0.405698       -11.0396
 266   2.0000      -0.404444       -11.0055
 267   2.0000      -0.402583       -10.9548
 268   2.0000      -0.396379       -10.7860
 269   2.0000      -0.394477       -10.7343
 270   2.0000      -0.392818       -10.6891
 271   2.0000      -0.383627       -10.4390
 272   2.0000      -0.381148       -10.3716
 273   2.0000      -0.380116       -10.3435
 274   2.0000      -0.379596       -10.3293
 275   2.0000      -0.372515       -10.1366
 276   2.0000      -0.370345       -10.0776
 277   2.0000      -0.366771        -9.9803
 278   2.0000      -0.359198        -9.7743
 279   2.0000      -0.357446        -9.7266
 280   2.0000      -0.353918        -9.6306
 281   2.0000      -0.347496        -9.4559
 282   2.0000      -0.342209        -9.3120
 283   2.0000      -0.335822        -9.1382
 284   2.0000      -0.330546        -8.9946
 285   2.0000      -0.321101        -8.7376
 286   2.0000      -0.319101        -8.6832
 287   2.0000      -0.313361        -8.5270
 288   2.0000      -0.309146        -8.4123
 289   2.0000      -0.299315        -8.1448
 290   2.0000      -0.295896        -8.0517
 291   2.0000      -0.277196        -7.5429
 292   2.0000      -0.240476        -6.5437
 293   0.0000      -0.126914        -3.4535
 294   0.0000      -0.104811        -2.8521
 295   0.0000      -0.080723        -2.1966
 296   0.0000      -0.066817        -1.8182
 297   0.0000      -0.061066        -1.6617

MULLIKEN ATOMIC CHARGES
-----------------------
   0 C :    0.294770
   1 C :   -0.335784
   2 C :   -0.183041
   3 N :    0.151047
   4 C :   -0.208642
   5 N :    0.182049
   6 C :    0.020145
   7 C :   -0.018555
   8 C :   -0.073266
   9 C :    0.119824
  10 C :   -0.090242
  11 C :   -0.019117
  12 S :    0.189748
  13 C :   -0.123156
  14 C :    0.038457
  15 Br:    0.026897
  16 C :    0.135359
  17 O :   -0.128204
  18 C :   -0.057819
  19 C :   -0.056895
  20 C :    0.071770
  21 O :   -0.154468
  22 C :   -0.015730
  23 C :    0.174601
  24 O :   -0.121092
  25 N :   -0.161937
  26 C :    0.191949
  27 O :   -0.138768
  28 C :   -0.095676
  29 C :    0.141690
  30 C :   -0.016289
  31 C :    0.022515
  32 C :   -0.122934
  33 S :    0.160288
  34 C :   -0.162169
  35 C :   -0.031363
  36 C :    0.176216
  37 O :   -0.188922
  38 C :    0.213943
  39 O :   -0.102029
  40 C :   -0.001396
  41 O :   -0.111570
  42 S :    0.131391
  43 C :    0.006404
  44 C :   -0.039434
  45 C :    0.042975
  46 C :    0.038834
  47 C :   -0.047447
  48 S :    0.123720
  49 C :   -0.051712
  50 C :    0.041123
  51 C :    0.046578
  52 C :   -0.021232
  53 S :    0.114048
  54 C :    0.005542
  55 C :    0.013388
  56 C :   -0.121659
  57 C :    0.140936
  58 O :   -0.146990
  59 C :    0.003204
  60 C :   -0.081720
  61 C :    0.113596
  62 C :    0.112117
  63 C :   -0.107833
  64 C :    0.238771
  65 C :    0.236033
  66 C :   -0.104415
  67 F :   -0.174056
  68 F :   -0.173048
  69 C :   -0.084705
  70 C :    0.039704
  71 C :    0.297658
  72 C :   -0.343222
  73 C :   -0.218352
  74 N :    0.163471
  75 C :   -0.176849
  76 N :    0.140271
  77 H :   -0.011344
  78 H :   -0.003850
  79 H :   -0.003441
  80 H :    0.040224
  81 H :    0.145293
  82 H :    0.009134
  83 H :    0.036600
  84 H :    0.007312
  85 H :    0.001544
  86 H :   -0.001477
  87 H :   -0.000812
  88 H :    0.007901
  89 H :    0.012021
  90 H :    0.021054
  91 H :   -0.009765
  92 H :    0.006517
  93 H :   -0.000651
  94 H :   -0.005554
Sum of atomic charges:   -0.0000000

LOEWDIN ATOMIC CHARGES
----------------------
   0 C :    0.070868
   1 C :   -0.130761
   2 C :   -0.017413
   3 N :   -0.047498
   4 C :   -0.029393
   5 N :   -0.035156
   6 C :   -0.021033
   7 C :   -0.051765
   8 C :    0.021402
   9 C :   -0.031636
  10 C :   -0.142877
  11 C :   -0.009329
  12 S :    0.435308
  13 C :   -0.270490
  14 C :   -0.070978
  15 Br:    0.139666
  16 C :    0.075910
  17 O :   -0.132998
  18 C :   -0.075019
  19 C :    0.045069
  20 C :    0.040160
  21 O :    0.052310
  22 C :   -0.057886
  23 C :    0.085952
  24 O :   -0.136572
  25 N :   -0.001942
  26 C :    0.088365
  27 O :   -0.147215
  28 C :   -0.106045
  29 C :    0.086279
  30 C :   -0.051112
  31 C :    0.010705
  32 C :   -0.191195
  33 S :    0.461779
  34 C :   -0.178209
  35 C :   -0.233138
  36 C :    0.012146
  37 O :   -0.010517
  38 C :    0.048616
  39 O :   -0.079217
  40 C :   -0.104623
  41 O :   -0.087420
  42 S :    0.389880
  43 C :   -0.076591
  44 C :   -0.147057
  45 C :   -0.017730
  46 C :   -0.026943
  47 C :   -0.159547
  48 S :    0.403537
  49 C :   -0.177185
  50 C :   -0.009085
  51 C :   -0.023894
  52 C :   -0.103073
  53 S :    0.408226
  54 C :   -0.057075
  55 C :    0.050985
  56 C :   -0.095971
  57 C :    0.078843
  58 O :   -0.148638
  59 C :   -0.052433
  60 C :    0.027985
  61 C :   -0.010075
  62 C :   -0.006566
  63 C :   -0.030746
  64 C :    0.065410
  65 C :    0.065686
  66 C :   -0.033482
  67 F :   -0.051227
  68 F :   -0.050603
  69 C :    0.011497
  70 C :   -0.018792
  71 C :    0.068106
  72 C :   -0.145676
  73 C :   -0.024200
  74 N :   -0.057147
  75 C :   -0.018854
  76 N :   -0.058099
  77 H :    0.040287
  78 H :    0.041566
  79 H :    0.038786
  80 H :    0.060537
  81 H :    0.098928
  82 H :    0.037591
  83 H :    0.047033
  84 H :    0.040779
  85 H :    0.038911
  86 H :    0.037140
  87 H :    0.037313
  88 H :    0.042815
  89 H :    0.039571
  90 H :    0.035689
  91 H :    0.040072
  92 H :    0.046982
  93 H :    0.044433
  94 H :    0.039002

  Mayer bond orders larger than 0.100000
B(  0-C ,  1-C ) :   1.6514 B(  0-C ,  6-C ) :   1.0106 B(  0-C , 18-C ) :   1.0450
B(  1-C ,  2-C ) :   1.1380 B(  1-C ,  4-C ) :   1.1394 B(  2-C ,  3-N ) :   2.9734
B(  4-C ,  5-N ) :   3.0016 B(  6-C ,  7-C ) :   1.2747 B(  6-C , 11-C ) :   1.4043
B(  7-C ,  8-C ) :   1.4227 B(  7-C , 16-C ) :   0.9398 B(  8-C ,  9-C ) :   1.2498
B(  8-C , 77-H ) :   1.0162 B(  9-C , 10-C ) :   1.3008 B(  9-C , 14-C ) :   1.1640
B( 10-C , 11-C ) :   1.3349 B( 10-C , 12-S ) :   1.0867 B( 11-C , 78-H ) :   0.9804
B( 12-S , 13-C ) :   1.0869 B( 13-C , 14-C ) :   1.6163 B( 13-C , 15-Br) :   1.0207
B( 14-C , 79-H ) :   1.0007 B( 16-C , 17-O ) :   2.2731 B( 16-C , 18-C ) :   0.9182
B( 18-C , 19-C ) :   1.5813 B( 19-C , 20-C ) :   1.1994 B( 19-C , 80-H ) :   0.9355
B( 20-C , 21-O ) :   1.1550 B( 20-C , 22-C ) :   1.3769 B( 21-O , 29-C ) :   1.1911
B( 22-C , 23-C ) :   0.8639 B( 22-C , 28-C ) :   1.3286 B( 23-C , 24-O ) :   2.2675
B( 23-C , 25-N ) :   1.0850 B( 25-N , 26-C ) :   1.0949 B( 25-N , 81-H ) :   0.9133
B( 26-C , 27-O ) :   2.1891 B( 26-C , 28-C ) :   0.8826 B( 28-C , 29-C ) :   1.3656
B( 29-C , 30-C ) :   1.1875 B( 30-C , 31-C ) :   1.5644 B( 30-C , 82-H ) :   0.9647
B( 31-C , 32-C ) :   1.1928 B( 31-C , 83-H ) :   0.9560 B( 32-C , 33-S ) :   1.0924
B( 32-C , 34-C ) :   0.1018 B( 32-C , 36-C ) :   1.4666 B( 33-S , 34-C ) :   1.1299
B( 34-C , 35-C ) :   1.4725 B( 34-C , 43-C ) :   1.1610 B( 35-C , 36-C ) :   1.2762
B( 35-C , 42-S ) :   0.9717 B( 36-C , 37-O ) :   1.0962 B( 37-O , 38-C ) :   1.0732
B( 38-C , 39-O ) :   2.2477 B( 38-C , 40-C ) :   0.7951 B( 40-C , 41-O ) :   2.1763
B( 40-C , 42-S ) :   1.0336 B( 41-O , 42-S ) :   0.1340 B( 43-C , 44-C ) :   1.5982
B( 43-C , 84-H ) :   0.9483 B( 44-C , 45-C ) :   1.1399 B( 44-C , 48-S ) :   1.0468
B( 45-C , 46-C ) :   1.5977 B( 45-C , 85-H ) :   0.9986 B( 46-C , 47-C ) :   1.1844
B( 46-C , 86-H ) :   0.9926 B( 47-C , 48-S ) :   1.0686 B( 47-C , 49-C ) :   1.4904
B( 49-C , 50-C ) :   1.1996 B( 49-C , 53-S ) :   1.0517 B( 50-C , 51-C ) :   1.5681
B( 50-C , 87-H ) :   0.9938 B( 51-C , 52-C ) :   1.1621 B( 51-C , 88-H ) :   1.0009
B( 52-C , 53-S ) :   1.0766 B( 52-C , 54-C ) :   1.5268 B( 54-C , 55-C ) :   1.1939
B( 54-C , 89-H ) :   0.9632 B( 55-C , 56-C ) :   1.5594 B( 55-C , 90-H ) :   0.9351
B( 56-C , 57-C ) :   0.9566 B( 56-C , 71-C ) :   1.0714 B( 57-C , 58-O ) :   2.2518
B( 57-C , 59-C ) :   0.9195 B( 59-C , 60-C ) :   1.4845 B( 59-C , 70-C ) :   1.2173
B( 60-C , 61-C ) :   1.1896 B( 60-C , 91-H ) :   1.0153 B( 61-C , 62-C ) :   1.2546
B( 61-C , 66-C ) :   1.1960 B( 62-C , 63-C ) :   1.1924 B( 62-C , 69-C ) :   1.2138
B( 63-C , 64-C ) :   1.4418 B( 63-C , 66-C ) :   0.1084 B( 63-C , 92-H ) :   1.0063
B( 64-C , 65-C ) :   1.1925 B( 64-C , 68-F ) :   1.1331 B( 65-C , 66-C ) :   1.4433
B( 65-C , 67-F ) :   1.1309 B( 66-C , 93-H ) :   1.0064 B( 69-C , 70-C ) :   1.4628
B( 69-C , 94-H ) :   0.9907 B( 70-C , 71-C ) :   0.9923 B( 71-C , 72-C ) :   1.6108
B( 72-C , 73-C ) :   1.1677 B( 72-C , 75-C ) :   1.1342 B( 73-C , 74-N ) :   3.0076
B( 75-C , 76-N ) :   2.9722

-----------------------------------------------------------------------------
         ABSORPTION SPECTRUM VIA TRANSITION ELECTRIC DIPOLE MOMENTS
-----------------------------------------------------------------------------
State   Energy  Wavelength   fosc         T2         TX        TY        TZ
        (cm-1)    (nm)                  (au**2)     (au)      (au)      (au)
-----------------------------------------------------------------------------
   0   11355.8    880.6   1.771251345  51.34956  -0.49935   0.25468   7.14390
   1   18246.7    548.0   0.357133948   6.44352  -1.15314  -1.76160   1.41795
   2   19986.2    500.3   0.201780591   3.32373  -0.68625  -1.47698   0.81935
   3   21815.2    458.4   0.323620323   4.88373   1.14353  -1.88288  -0.17557
   4   23528.2    425.0   0.030796018   0.43090  -0.62254   0.10385   0.18046
   5   24558.3    407.2   0.249711282   3.34746  -1.32211   0.15977   1.25458
   6   24876.0    402.0   0.181892674   2.40718   0.50871  -0.62825  -1.32428
   7   25689.2    389.3   0.165261432   2.11785   0.63920  -1.30566   0.06735
   8   25753.9    388.3   0.175822375   2.24754   1.27163   0.60390  -0.51555
   9   25804.9    387.5   0.105046793   1.34016   0.69987  -0.83781  -0.38525
  10   26039.0    384.0   0.030308698   0.38319   0.04611  -0.60943  -0.09832
  11   26705.7    374.5   0.013233828   0.16314  -0.14652  -0.35070   0.13668
  12   26714.9    374.3   0.019545425   0.24086  -0.06456   0.31820  -0.36802
  13   27349.3    365.6   0.061697233   0.74267  -0.82751  -0.19213  -0.14487
  14   27482.3    363.9   0.158496820   1.89864   0.62601  -1.22423  -0.08946
  15   28180.1    354.9   0.119249765   1.39313  -0.82862   0.80140   0.25353
  16   28825.6    346.9   0.013117426   0.14981  -0.23186   0.23336  -0.20394
  17   30041.8    332.9   0.082005569   0.89865  -0.25727   0.88612  -0.21739
  18   30226.7    330.8   0.084948905   0.92521  -0.34876   0.88158   0.16251
  19   31018.8    322.4   0.060696275   0.64419  -0.53578   0.35134  -0.48341
  20   31677.1    315.7   0.037196313   0.38657  -0.38875   0.19579   0.44397
  21   32049.0    312.0   0.087757697   0.90146  -0.39008  -0.33619  -0.79767
  22   32239.3    310.2   0.633937639   6.47347  -0.90364   2.28766   0.65077
  23   32575.4    307.0   0.066407457   0.67112   0.52467  -0.60245  -0.18139
  24   32645.4    306.3   0.208062414   2.09820  -1.22095   0.75052  -0.21025
  25   32803.5    304.8   0.313786835   3.14912  -1.72149   0.29746  -0.31164
  26   33048.1    302.6   0.087257895   0.86923  -0.08279   0.92181   0.11245
  27   33269.6    300.6   0.036902182   0.36516   0.21872  -0.08890  -0.55625
  28   33456.7    298.9   0.033848039   0.33306   0.06042   0.46803  -0.33220
  29   33528.9    298.2   0.000992547   0.00975  -0.03550  -0.00256  -0.09208
  30   33836.5    295.5   0.011776731   0.11458   0.11473   0.21064  -0.23885
  31   34063.5    293.6   0.014083463   0.13611   0.29987   0.18650   0.10681
  32   34141.7    292.9   0.008374703   0.08075  -0.17388   0.18914  -0.12143
  33   34786.5    287.5   0.018936294   0.17921   0.19319   0.37668  -0.00166
  34   34914.0    286.4   0.045629905   0.43025   0.39957  -0.51069  -0.09896
  35   35531.5    281.4   0.036126328   0.33472  -0.27251   0.29951  -0.41323
  36   35571.3    281.1   0.045069869   0.41712  -0.38363   0.43423  -0.28529
  37   36342.5    275.2   0.114355683   1.03590   0.31129   0.95228   0.17932
  38   36463.5    274.2   0.004550439   0.04108  -0.07158   0.18830   0.02243
  39   36477.5    274.1   0.007679905   0.06931   0.24130  -0.07887   0.06974
  40   36854.5    271.3   0.007398466   0.06609   0.23929  -0.07026   0.06241
  41   36919.4    270.9   0.137685237   1.22775   0.06162   1.06782  -0.28932
  42   37063.0    269.8   0.005012932   0.04453   0.13745   0.10574  -0.12022
  43   37396.6    267.4   0.054417389   0.47905  -0.61538  -0.22405   0.22398
  44   37807.7    264.5   0.184968072   1.61062  -0.32908   1.21867   0.13105
  45   38028.6    263.0   0.126210436   1.09260  -0.60011   0.29141   0.80470
  46   38126.4    262.3   0.113658462   0.98141   0.22417   0.78529  -0.56078
  47   38413.0    260.3   0.020515137   0.17582   0.12870   0.34077  -0.20769
  48   38603.4    259.0   0.065275062   0.55667   0.25624   0.47286  -0.51712
  49   38878.5    257.2   0.060699913   0.51399  -0.25564   0.21471   0.63446
  50   39129.5    255.6   0.109891275   0.92456  -0.40074   0.14942   0.86118
  51   39552.5    252.8   0.011626510   0.09677  -0.04731  -0.07867   0.29723
  52   39609.2    252.5   0.084548858   0.70273   0.28593  -0.77456   0.14503
  53   40053.7    249.7   0.147907914   1.21569  -0.87103   0.34809   0.57950
  54   40176.5    248.9   0.024094487   0.19743  -0.25333  -0.26588   0.25013

FINAL SINGLE POINT ENERGY     -7780.287978836436

DIPOLE MOMENT
-------------
                                X             Y             Z
Electronic contribution:    -88.58396      -6.48855     105.48675
Nuclear contribution   :     84.77416      10.08693    -104.79438
                        -----------------------------------------
Total Dipole Moment    :     -3.80980       3.59837       0.69237
                        -----------------------------------------
Magnitude (a.u.)       :      5.28604
Magnitude (Debye)      :     13.43605

Rotational constants in cm-1:     0.000874     0.000163     0.000159
Rotational constants in MHz :    26.204041     4.881286     4.769596

                             ****ORCA TERMINATED NORMALLY****
TOTAL RUN TIME: 0 days 0 hours 11 minutes 7 seconds 531 msec
