                         Program Version 4.2.0 -  RELEASE  -
|  1> # ORCA input file
|  2> # SCF done       -206.098946239514          0.000995898597
|  3> ! CAM-B3LYP def2-SVP def2/J RIJCOSX Grid4 TightSCF
|  4> %maxcore 5000
|  5> %tddft
|  6>     Mode sTDDFT
|  7>     Ethresh 5.0
|  8>     maxcore 5000
|  9> end
| 10>
| 11> %pal
| 12>   nprocs 6
| 13>   end
| 14> * xyz 0 1
| 15>    C      -16.48588         7.60133        -3.31369
| 16>    C      -17.72386         7.03681        -3.14848
| 17>    C      -18.07437         5.75279        -3.61353
| 18>    N      -18.39923         4.71169        -3.97168
| 19>    C      -18.80377         7.66791        -2.49781
| 20>    N      -19.71501         8.13297        -1.97746
| 21>    C      -16.08282         8.92868        -2.85530
| 22>    C      -14.73250         9.15566        -3.22870
| 23>    C      -14.06757        10.32095        -2.93153
| 24>    C      -14.76452        11.30933        -2.22882
| 25>    C      -16.11031        11.07362        -1.85847
| 26>    C      -16.78417         9.89605        -2.16241
| 27>    S      -16.78035        12.42123        -0.99315
| 28>    C      -15.26533        13.27241        -1.13558
| 29>    C      -14.30556        12.58413        -1.79950
| 30>   Br      -15.09332        14.98730        -0.39713
| 31>    C      -14.22891         7.96975        -3.93174
| 32>    O      -13.10566         7.79816        -4.39558
| 33>    C      -15.33854         7.01183        -3.96513
| 34>    C      -15.19912         5.76586        -4.52663
| 35>    N      -14.03301         5.39655        -5.06735
| 36>    C      -13.72693         4.19392        -5.61485
| 37>    S      -14.89534         2.91768        -5.74110
| 38>    C      -13.67513         1.90547        -6.44593
| 39>    N      -14.03938         0.60051        -6.81223
| 40>    O      -13.17808        -0.10906        -7.29498
| 41>    O      -15.19557         0.27783        -6.61074
| 42>    C      -12.45570         2.51166        -6.57059
| 43>    C      -12.45794         3.84081        -6.09985
| 44>    C      -11.34430         4.74212        -6.09537
| 45>    C      -10.06805         4.40018        -6.37560
| 46>    C       -8.96613         5.30966        -6.34036
| 47>    C       -7.64996         4.81997        -6.50697
| 48>    C       -6.51186         5.67511        -6.43163
| 49>    N       -5.25919         5.16704        -6.52778
| 50>    C       -5.10889         3.88795        -6.73407
| 51>    C       -6.25283         3.03268        -6.86871
| 52>    N       -7.46173         3.50057        -6.73841
| 53>    C       -6.10091         1.57768        -7.15044
| 54>    C       -3.72118         3.35377        -6.82004
| 55>    C       -6.63148         7.06665        -6.24327
| 56>    C       -7.92758         7.57426        -6.07196
| 57>    C       -9.07998         6.69909        -6.11828
| 58>    N      -10.20641         7.38740        -5.91114
| 59>    S       -9.86611         8.92981        -5.67069
| 60>    N       -8.27202         8.84432        -5.82340
| 61>    N       -5.46795         7.78733        -6.14435
| 62>    C       -5.28524         9.12889        -6.17012
| 63>    S       -4.06595         9.82303        -5.14683
| 64>    C       -4.49471        11.40340        -5.72511
| 65>    N       -3.78557        12.50086        -5.21517
| 66>    O       -4.11647        13.60933        -5.58732
| 67>    O       -2.89419        12.25363        -4.42209
| 68>    C       -5.49642        11.38974        -6.65191
| 69>    C       -5.95780        10.08785        -6.94405
| 70>    C       -6.86978         9.74957        -7.98981
| 71>    C       -7.50000        10.63835        -8.79596
| 72>    C       -8.31831        10.22157        -9.87260
| 73>    C       -8.76535        10.97215       -10.91800
| 74>    C       -8.39628        12.29028       -11.38791
| 75>    C       -7.18504        12.91113       -11.21980
| 76>    C       -6.86815        14.17117       -11.77003
| 77>    N       -6.56860        15.19958       -12.18217
| 78>    C       -6.06725        12.32524       -10.58973
| 79>    N       -5.10979        11.88416       -10.13511
| 80>    C       -9.45182        12.73882       -12.29177
| 81>    C      -10.32979        11.65315       -12.54205
| 82>    C       -9.90190        10.48760       -11.74431
| 83>    O      -10.39198         9.38083       -11.72088
| 84>    C      -11.39586        11.75022       -13.40317
| 85>    C      -11.61195        12.97666       -14.04023
| 86>    C      -10.74014        14.05903       -13.77036
| 87>    C       -9.65821        13.96024       -12.90403
| 88>    S      -11.19405        15.48198       -14.65686
| 89>    C      -12.52606        14.61495       -15.37430
| 90>    C      -12.62973        13.32678       -14.96898
| 91>   Br      -13.65393        15.49216       -16.58866
| 92>    H      -13.04039        10.46537        -3.22798
| 93>    H      -17.80877         9.76441        -1.85756
| 94>    H      -13.31449        12.95939        -1.97795
| 95>    H      -16.00581         5.04432        -4.54410
| 96>    H      -13.29734         6.12454        -5.02088
| 97>    H      -11.60596         2.01101        -6.99621
| 98>    H      -11.54166         5.77187        -5.83665
| 99>    H       -9.79596         3.38241        -6.61243
|100>    H       -5.57067         1.42789        -8.08970
|101>    H       -7.08209         1.11683        -7.21450
|102>    H       -5.52684         1.09493        -6.36114
|103>    H       -3.00807         4.16314        -6.69207
|104>    H       -3.55774         2.88039        -7.78688
|105>    H       -3.55618         2.60324        -6.04852
|106>    H       -4.66478         7.18602        -5.97467
|107>    H       -5.84458        12.28888        -7.12458
|108>    H       -6.97805         8.69688        -8.21231
|109>    H       -7.39042        11.69790        -8.62357
|110>    H       -8.68529         9.19992        -9.85176
|111>    H      -12.04138        10.90499       -13.58344
|112>    H       -9.02472        14.81337       -12.72644
|113>    H      -13.39133        12.64996       -15.31073
|114> *
|115>
|116>                          ****END OF INPUT****

CARTESIAN COORDINATES (ANGSTROEM)
---------------------------------
  C    -16.485880    7.601330   -3.313690
  C    -17.723860    7.036810   -3.148480
  C    -18.074370    5.752790   -3.613530
  N    -18.399230    4.711690   -3.971680
  C    -18.803770    7.667910   -2.497810
  N    -19.715010    8.132970   -1.977460
  C    -16.082820    8.928680   -2.855300
  C    -14.732500    9.155660   -3.228700
  C    -14.067570   10.320950   -2.931530
  C    -14.764520   11.309330   -2.228820
  C    -16.110310   11.073620   -1.858470
  C    -16.784170    9.896050   -2.162410
  S    -16.780350   12.421230   -0.993150
  C    -15.265330   13.272410   -1.135580
  C    -14.305560   12.584130   -1.799500
  Br   -15.093320   14.987300   -0.397130
  C    -14.228910    7.969750   -3.931740
  O    -13.105660    7.798160   -4.395580
  C    -15.338540    7.011830   -3.965130
  C    -15.199120    5.765860   -4.526630
  N    -14.033010    5.396550   -5.067350
  C    -13.726930    4.193920   -5.614850
  S    -14.895340    2.917680   -5.741100
  C    -13.675130    1.905470   -6.445930
  N    -14.039380    0.600510   -6.812230
  O    -13.178080   -0.109060   -7.294980
  O    -15.195570    0.277830   -6.610740
  C    -12.455700    2.511660   -6.570590
  C    -12.457940    3.840810   -6.099850
  C    -11.344300    4.742120   -6.095370
  C    -10.068050    4.400180   -6.375600
  C     -8.966130    5.309660   -6.340360
  C     -7.649960    4.819970   -6.506970
  C     -6.511860    5.675110   -6.431630
  N     -5.259190    5.167040   -6.527780
  C     -5.108890    3.887950   -6.734070
  C     -6.252830    3.032680   -6.868710
  N     -7.461730    3.500570   -6.738410
  C     -6.100910    1.577680   -7.150440
  C     -3.721180    3.353770   -6.820040
  C     -6.631480    7.066650   -6.243270
  C     -7.927580    7.574260   -6.071960
  C     -9.079980    6.699090   -6.118280
  N    -10.206410    7.387400   -5.911140
  S     -9.866110    8.929810   -5.670690
  N     -8.272020    8.844320   -5.823400
  N     -5.467950    7.787330   -6.144350
  C     -5.285240    9.128890   -6.170120
  S     -4.065950    9.823030   -5.146830
  C     -4.494710   11.403400   -5.725110
  N     -3.785570   12.500860   -5.215170
  O     -4.116470   13.609330   -5.587320
  O     -2.894190   12.253630   -4.422090
  C     -5.496420   11.389740   -6.651910
  C     -5.957800   10.087850   -6.944050
  C     -6.869780    9.749570   -7.989810
  C     -7.500000   10.638350   -8.795960
  C     -8.318310   10.221570   -9.872600
  C     -8.765350   10.972150  -10.918000
  C     -8.396280   12.290280  -11.387910
  C     -7.185040   12.911130  -11.219800
  C     -6.868150   14.171170  -11.770030
  N     -6.568600   15.199580  -12.182170
  C     -6.067250   12.325240  -10.589730
  N     -5.109790   11.884160  -10.135110
  C     -9.451820   12.738820  -12.291770
  C    -10.329790   11.653150  -12.542050
  C     -9.901900   10.487600  -11.744310
  O    -10.391980    9.380830  -11.720880
  C    -11.395860   11.750220  -13.403170
  C    -11.611950   12.976660  -14.040230
  C    -10.740140   14.059030  -13.770360
  C     -9.658210   13.960240  -12.904030
  S    -11.194050   15.481980  -14.656860
  C    -12.526060   14.614950  -15.374300
  C    -12.629730   13.326780  -14.968980
  Br   -13.653930   15.492160  -16.588660
  H    -13.040390   10.465370   -3.227980
  H    -17.808770    9.764410   -1.857560
  H    -13.314490   12.959390   -1.977950
  H    -16.005810    5.044320   -4.544100
  H    -13.297340    6.124540   -5.020880
  H    -11.605960    2.011010   -6.996210
  H    -11.541660    5.771870   -5.836650
  H     -9.795960    3.382410   -6.612430
  H     -5.570670    1.427890   -8.089700
  H     -7.082090    1.116830   -7.214500
  H     -5.526840    1.094930   -6.361140
  H     -3.008070    4.163140   -6.692070
  H     -3.557740    2.880390   -7.786880
  H     -3.556180    2.603240   -6.048520
  H     -4.664780    7.186020   -5.974670
  H     -5.844580   12.288880   -7.124580
  H     -6.978050    8.696880   -8.212310
  H     -7.390420   11.697900   -8.623570
  H     -8.685290    9.199920   -9.851760
  H    -12.041380   10.904990  -13.583440
  H     -9.024720   14.813370  -12.726440
  H    -13.391330   12.649960  -15.310730

 Total Charge           Charge          ....    0
 Multiplicity           Mult            ....    1
 Number of Electrons    NEL             ....  616
 Basis Dimension        Dim             .... 1244

ORBITAL ENERGIES
----------------

  NO   OCC          E(Eh)            E(eV)
   0   2.0000    -482.891810    -13140.1542
   1   2.0000    -482.887208    -13140.0289
   2   2.0000     -89.048070     -2423.1212
   3   2.0000     -88.991924     -2421.5934
   4   2.0000     -88.986583     -2421.4480
   5   2.0000     -88.983617     -2421.3673
   6   2.0000     -88.977345     -2421.1966
   7   2.0000     -62.569513     -1702.6030
   8   2.0000     -62.564910     -1702.4778
   9   2.0000     -56.403478     -1534.8167
  10   2.0000     -56.400736     -1534.7421
  11   2.0000     -56.400709     -1534.7413
  12   2.0000     -56.398862     -1534.6911
  13   2.0000     -56.396144     -1534.6171
  14   2.0000     -56.396112     -1534.6162
  15   2.0000     -19.241728      -523.5940
  16   2.0000     -19.240822      -523.5694
  17   2.0000     -19.238630      -523.5097
  18   2.0000     -19.238112      -523.4956
  19   2.0000     -19.237768      -523.4863
  20   2.0000     -19.215920      -522.8918
  21   2.0000     -14.653114      -398.7315
  22   2.0000     -14.649651      -398.6373
  23   2.0000     -14.500551      -394.5801
  24   2.0000     -14.487383      -394.2217
  25   2.0000     -14.458635      -393.4395
  26   2.0000     -14.453674      -393.3045
  27   2.0000     -14.447813      -393.1450
  28   2.0000     -14.438621      -392.8949
  29   2.0000     -14.423817      -392.4920
  30   2.0000     -14.419594      -392.3771
  31   2.0000     -14.417358      -392.3163
  32   2.0000     -14.416558      -392.2945
  33   2.0000     -10.385096      -282.5928
  34   2.0000     -10.374516      -282.3049
  35   2.0000     -10.374206      -282.2965
  36   2.0000     -10.373024      -282.2643
  37   2.0000     -10.366807      -282.0952
  38   2.0000     -10.366312      -282.0817
  39   2.0000     -10.360666      -281.9281
  40   2.0000     -10.359064      -281.8845
  41   2.0000     -10.351466      -281.6777
  42   2.0000     -10.349714      -281.6300
  43   2.0000     -10.348691      -281.6022
  44   2.0000     -10.347202      -281.5617
  45   2.0000     -10.346579      -281.5447
  46   2.0000     -10.346224      -281.5351
  47   2.0000     -10.345853      -281.5250
  48   2.0000     -10.344858      -281.4979
  49   2.0000     -10.344293      -281.4825
  50   2.0000     -10.343064      -281.4491
  51   2.0000     -10.337685      -281.3027
  52   2.0000     -10.337333      -281.2931
  53   2.0000     -10.334043      -281.2036
  54   2.0000     -10.327769      -281.0329
  55   2.0000     -10.326127      -280.9882
  56   2.0000     -10.322753      -280.8964
  57   2.0000     -10.319925      -280.8194
  58   2.0000     -10.319523      -280.8085
  59   2.0000     -10.317618      -280.7567
  60   2.0000     -10.317523      -280.7541
  61   2.0000     -10.316292      -280.7206
  62   2.0000     -10.314270      -280.6656
  63   2.0000     -10.313578      -280.6467
  64   2.0000     -10.312834      -280.6265
  65   2.0000     -10.312800      -280.6255
  66   2.0000     -10.310920      -280.5744
  67   2.0000     -10.310896      -280.5737
  68   2.0000     -10.309548      -280.5371
  69   2.0000     -10.307677      -280.4862
  70   2.0000     -10.307208      -280.4734
  71   2.0000     -10.304487      -280.3993
  72   2.0000     -10.304250      -280.3929
  73   2.0000     -10.304177      -280.3909
  74   2.0000     -10.303965      -280.3851
  75   2.0000     -10.303498      -280.3724
  76   2.0000     -10.303389      -280.3695
  77   2.0000     -10.298461      -280.2354
  78   2.0000     -10.295949      -280.1670
  79   2.0000     -10.294776      -280.1351
  80   2.0000     -10.293329      -280.0957
  81   2.0000     -10.292175      -280.0643
  82   2.0000     -10.288311      -279.9592
  83   2.0000     -10.286290      -279.9042
  84   2.0000     -10.285605      -279.8855
  85   2.0000      -8.798935      -239.4312
  86   2.0000      -8.794335      -239.3060
  87   2.0000      -8.139040      -221.4745
  88   2.0000      -8.087064      -220.0602
  89   2.0000      -8.082511      -219.9363
  90   2.0000      -8.079605      -219.8572
  91   2.0000      -8.073410      -219.6887
  92   2.0000      -6.635300      -180.5557
  93   2.0000      -6.630632      -180.4287
  94   2.0000      -6.620652      -180.1571
  95   2.0000      -6.620416      -180.1507
  96   2.0000      -6.616075      -180.0326
  97   2.0000      -6.615866      -180.0269
  98   2.0000      -6.110114      -166.2647
  99   2.0000      -6.102277      -166.0514
 100   2.0000      -6.101940      -166.0422
 101   2.0000      -6.056679      -164.8106
 102   2.0000      -6.052380      -164.6936
 103   2.0000      -6.052146      -164.6873
 104   2.0000      -6.049272      -164.6091
 105   2.0000      -6.048556      -164.5896
 106   2.0000      -6.047717      -164.5668
 107   2.0000      -6.044987      -164.4925
 108   2.0000      -6.043982      -164.4651
 109   2.0000      -6.043098      -164.4411
 110   2.0000      -6.040863      -164.3802
 111   2.0000      -6.038826      -164.3248
 112   2.0000      -6.034604      -164.2099
 113   2.0000      -2.751135       -74.8622
 114   2.0000      -2.747047       -74.7510
 115   2.0000      -2.746905       -74.7471
 116   2.0000      -2.746521       -74.7366
 117   2.0000      -2.742411       -74.6248
 118   2.0000      -2.742260       -74.6207
 119   2.0000      -2.735252       -74.4300
 120   2.0000      -2.735232       -74.4295
 121   2.0000      -2.730686       -74.3057
 122   2.0000      -2.730671       -74.3053
 123   2.0000      -1.323272       -36.0081
 124   2.0000      -1.319655       -35.9096
 125   2.0000      -1.152723       -31.3672
 126   2.0000      -1.145533       -31.1715
 127   2.0000      -1.142518       -31.0895
 128   2.0000      -1.138970       -30.9930
 129   2.0000      -1.130754       -30.7694
 130   2.0000      -1.109451       -30.1897
 131   2.0000      -1.107370       -30.1331
 132   2.0000      -1.090360       -29.6702
 133   2.0000      -1.031494       -28.0684
 134   2.0000      -1.026674       -27.9372
 135   2.0000      -1.024919       -27.8895
 136   2.0000      -1.020742       -27.7758
 137   2.0000      -1.015184       -27.6246
 138   2.0000      -1.012325       -27.5468
 139   2.0000      -1.008090       -27.4315
 140   2.0000      -1.001255       -27.2455
 141   2.0000      -0.997428       -27.1414
 142   2.0000      -0.996583       -27.1184
 143   2.0000      -0.995856       -27.0986
 144   2.0000      -0.991267       -26.9737
 145   2.0000      -0.969379       -26.3781
 146   2.0000      -0.950106       -25.8537
 147   2.0000      -0.947229       -25.7754
 148   2.0000      -0.931897       -25.3582
 149   2.0000      -0.924912       -25.1681
 150   2.0000      -0.916879       -24.9496
 151   2.0000      -0.910866       -24.7859
 152   2.0000      -0.910317       -24.7710
 153   2.0000      -0.906695       -24.6724
 154   2.0000      -0.901008       -24.5177
 155   2.0000      -0.894808       -24.3490
 156   2.0000      -0.892087       -24.2749
 157   2.0000      -0.888002       -24.1638
 158   2.0000      -0.883987       -24.0545
 159   2.0000      -0.873118       -23.7588
 160   2.0000      -0.864024       -23.5113
 161   2.0000      -0.856189       -23.2981
 162   2.0000      -0.846985       -23.0476
 163   2.0000      -0.841457       -22.8972
 164   2.0000      -0.838273       -22.8106
 165   2.0000      -0.832591       -22.6559
 166   2.0000      -0.827956       -22.5298
 167   2.0000      -0.819408       -22.2972
 168   2.0000      -0.801200       -21.8018
 169   2.0000      -0.791367       -21.5342
 170   2.0000      -0.773306       -21.0427
 171   2.0000      -0.770895       -20.9771
 172   2.0000      -0.766854       -20.8672
 173   2.0000      -0.761436       -20.7197
 174   2.0000      -0.756262       -20.5789
 175   2.0000      -0.745297       -20.2806
 176   2.0000      -0.740504       -20.1501
 177   2.0000      -0.734258       -19.9802
 178   2.0000      -0.718698       -19.5568
 179   2.0000      -0.718144       -19.5417
 180   2.0000      -0.709151       -19.2970
 181   2.0000      -0.701061       -19.0768
 182   2.0000      -0.698262       -19.0007
 183   2.0000      -0.693411       -18.8687
 184   2.0000      -0.686881       -18.6910
 185   2.0000      -0.677972       -18.4485
 186   2.0000      -0.676358       -18.4046
 187   2.0000      -0.667501       -18.1636
 188   2.0000      -0.665629       -18.1127
 189   2.0000      -0.659106       -17.9352
 190   2.0000      -0.653203       -17.7746
 191   2.0000      -0.646575       -17.5942
 192   2.0000      -0.643246       -17.5036
 193   2.0000      -0.639083       -17.3903
 194   2.0000      -0.638354       -17.3705
 195   2.0000      -0.634464       -17.2646
 196   2.0000      -0.633468       -17.2375
 197   2.0000      -0.632702       -17.2167
 198   2.0000      -0.630798       -17.1649
 199   2.0000      -0.626715       -17.0538
 200   2.0000      -0.625209       -17.0128
 201   2.0000      -0.621078       -16.9004
 202   2.0000      -0.610672       -16.6172
 203   2.0000      -0.605717       -16.4824
 204   2.0000      -0.601815       -16.3762
 205   2.0000      -0.599426       -16.3112
 206   2.0000      -0.598532       -16.2869
 207   2.0000      -0.589618       -16.0443
 208   2.0000      -0.586826       -15.9683
 209   2.0000      -0.585099       -15.9214
 210   2.0000      -0.578268       -15.7355
 211   2.0000      -0.573549       -15.6071
 212   2.0000      -0.570401       -15.5214
 213   2.0000      -0.567223       -15.4349
 214   2.0000      -0.563904       -15.3446
 215   2.0000      -0.563208       -15.3257
 216   2.0000      -0.560118       -15.2416
 217   2.0000      -0.555399       -15.1132
 218   2.0000      -0.553986       -15.0747
 219   2.0000      -0.547628       -14.9017
 220   2.0000      -0.546366       -14.8674
 221   2.0000      -0.544441       -14.8150
 222   2.0000      -0.540519       -14.7083
 223   2.0000      -0.539933       -14.6923
 224   2.0000      -0.538492       -14.6531
 225   2.0000      -0.535754       -14.5786
 226   2.0000      -0.533699       -14.5227
 227   2.0000      -0.528521       -14.3818
 228   2.0000      -0.526212       -14.3190
 229   2.0000      -0.523810       -14.2536
 230   2.0000      -0.521777       -14.1983
 231   2.0000      -0.516364       -14.0510
 232   2.0000      -0.515619       -14.0307
 233   2.0000      -0.514139       -13.9904
 234   2.0000      -0.509844       -13.8736
 235   2.0000      -0.506826       -13.7914
 236   2.0000      -0.505739       -13.7619
 237   2.0000      -0.505553       -13.7568
 238   2.0000      -0.504686       -13.7332
 239   2.0000      -0.501252       -13.6398
 240   2.0000      -0.497954       -13.5500
 241   2.0000      -0.496718       -13.5164
 242   2.0000      -0.496242       -13.5034
 243   2.0000      -0.492388       -13.3986
 244   2.0000      -0.490923       -13.3587
 245   2.0000      -0.486317       -13.2333
 246   2.0000      -0.484595       -13.1865
 247   2.0000      -0.481056       -13.0902
 248   2.0000      -0.479715       -13.0537
 249   2.0000      -0.476258       -12.9596
 250   2.0000      -0.472211       -12.8495
 251   2.0000      -0.470433       -12.8011
 252   2.0000      -0.467345       -12.7171
 253   2.0000      -0.463697       -12.6178
 254   2.0000      -0.460487       -12.5305
 255   2.0000      -0.457046       -12.4369
 256   2.0000      -0.456915       -12.4333
 257   2.0000      -0.453993       -12.3538
 258   2.0000      -0.453375       -12.3370
 259   2.0000      -0.449695       -12.2368
 260   2.0000      -0.449638       -12.2353
 261   2.0000      -0.448670       -12.2089
 262   2.0000      -0.447269       -12.1708
 263   2.0000      -0.446325       -12.1451
 264   2.0000      -0.444163       -12.0863
 265   2.0000      -0.442836       -12.0502
 266   2.0000      -0.438183       -11.9236
 267   2.0000      -0.433839       -11.8054
 268   2.0000      -0.433600       -11.7989
 269   2.0000      -0.428047       -11.6478
 270   2.0000      -0.423700       -11.5295
 271   2.0000      -0.419607       -11.4181
 272   2.0000      -0.419307       -11.4099
 273   2.0000      -0.418270       -11.3817
 274   2.0000      -0.416558       -11.3351
 275   2.0000      -0.411356       -11.1936
 276   2.0000      -0.407709       -11.0943
 277   2.0000      -0.403688       -10.9849
 278   2.0000      -0.397903       -10.8275
 279   2.0000      -0.396840       -10.7986
 280   2.0000      -0.395073       -10.7505
 281   2.0000      -0.390007       -10.6126
 282   2.0000      -0.388214       -10.5638
 283   2.0000      -0.385423       -10.4879
 284   2.0000      -0.382604       -10.4112
 285   2.0000      -0.381210       -10.3732
 286   2.0000      -0.380658       -10.3582
 287   2.0000      -0.378240       -10.2924
 288   2.0000      -0.378030       -10.2867
 289   2.0000      -0.376532       -10.2460
 290   2.0000      -0.370210       -10.0739
 291   2.0000      -0.366547        -9.9743
 292   2.0000      -0.366295        -9.9674
 293   2.0000      -0.361598        -9.8396
 294   2.0000      -0.350884        -9.5480
 295   2.0000      -0.347250        -9.4492
 296   2.0000      -0.346208        -9.4208
 297   2.0000      -0.344188        -9.3658
 298   2.0000      -0.340207        -9.2575
 299   2.0000      -0.336768        -9.1639
 300   2.0000      -0.326042        -8.8720
 301   2.0000      -0.321230        -8.7411
 302   2.0000      -0.317311        -8.6345
 303   2.0000      -0.303149        -8.2491
 304   2.0000      -0.297920        -8.1068
 305   2.0000      -0.295264        -8.0345
 306   2.0000      -0.280837        -7.6420
 307   2.0000      -0.246341        -6.7033
 308   0.0000      -0.112015        -3.0481
 309   0.0000      -0.091977        -2.5028
 310   0.0000      -0.087356        -2.3771
 311   0.0000      -0.073888        -2.0106
 312   0.0000      -0.059691        -1.6243

MULLIKEN ATOMIC CHARGES
-----------------------
   0 C :    0.332332
   1 C :   -0.347837
   2 C :   -0.197377
   3 N :    0.148581
   4 C :   -0.185248
   5 N :    0.152201
   6 C :    0.005651
   7 C :    0.000039
   8 C :   -0.069199
   9 C :    0.115226
  10 C :   -0.092445
  11 C :   -0.015929
  12 S :    0.193531
  13 C :   -0.125657
  14 C :    0.040870
  15 Br:    0.029736
  16 C :    0.162466
  17 O :   -0.223017
  18 C :   -0.124850
  19 C :    0.019060
  20 N :   -0.003530
  21 C :   -0.125014
  22 S :    0.174828
  23 C :    0.007771
  24 N :    0.273621
  25 O :   -0.247326
  26 O :   -0.254986
  27 C :    0.005688
  28 C :    0.150803
  29 C :   -0.038162
  30 C :   -0.083240
  31 C :    0.042789
  32 C :   -0.044691
  33 C :   -0.022861
  34 N :   -0.038409
  35 C :   -0.169147
  36 C :   -0.172958
  37 N :    0.013276
  38 C :    0.125300
  39 C :    0.129406
  40 C :    0.005529
  41 C :   -0.039213
  42 C :    0.056208
  43 N :   -0.290866
  44 S :    0.555948
  45 N :   -0.304483
  46 N :    0.041206
  47 C :   -0.110175
  48 S :    0.179572
  49 C :   -0.009652
  50 N :    0.277846
  51 O :   -0.243347
  52 O :   -0.264431
  53 C :    0.016563
  54 C :    0.156935
  55 C :    0.018147
  56 C :   -0.002643
  57 C :    0.016038
  58 C :   -0.109230
  59 C :    0.280483
  60 C :   -0.338981
  61 C :   -0.182017
  62 N :    0.154463
  63 C :   -0.215203
  64 N :    0.170166
  65 C :    0.004390
  66 C :   -0.004188
  67 C :    0.138575
  68 O :   -0.147646
  69 C :   -0.070267
  70 C :    0.113084
  71 C :   -0.090103
  72 C :   -0.021671
  73 S :    0.187262
  74 C :   -0.123491
  75 C :    0.039110
  76 Br:    0.024942
  77 H :   -0.019688
  78 H :   -0.005221
  79 H :   -0.003387
  80 H :    0.047510
  81 H :    0.188622
  82 H :    0.015306
  83 H :    0.013416
  84 H :   -0.019637
  85 H :    0.032345
  86 H :    0.036029
  87 H :    0.031495
  88 H :    0.028906
  89 H :    0.033309
  90 H :    0.034067
  91 H :    0.140472
  92 H :    0.011230
  93 H :    0.011843
  94 H :    0.014829
  95 H :    0.012971
  96 H :   -0.009143
  97 H :   -0.002840
  98 H :   -0.002581
Sum of atomic charges:   -0.0000000

LOEWDIN ATOMIC CHARGES
----------------------
   0 C :    0.078508
   1 C :   -0.148263
   2 C :   -0.020927
   3 N :   -0.051821
   4 C :   -0.020032
   5 N :   -0.053019
   6 C :   -0.018090
   7 C :   -0.051781
   8 C :    0.021281
   9 C :   -0.033972
  10 C :   -0.143778
  11 C :   -0.006647
  12 S :    0.439397
  13 C :   -0.270774
  14 C :   -0.070905
  15 Br:    0.141469
  16 C :    0.094273
  17 O :   -0.180580
  18 C :   -0.147199
  19 C :    0.111307
  20 N :    0.083939
  21 C :   -0.114865
  22 S :    0.470745
  23 C :   -0.199253
  24 N :    0.272910
  25 O :   -0.213617
  26 O :   -0.221453
  27 C :    0.005240
  28 C :   -0.080931
  29 C :   -0.027197
  30 C :   -0.010993
  31 C :   -0.047741
  32 C :   -0.003391
  33 C :   -0.039125
  34 N :   -0.057101
  35 C :    0.007862
  36 C :    0.008544
  37 N :   -0.038608
  38 C :   -0.050654
  39 C :   -0.050699
  40 C :    0.011361
  41 C :   -0.073865
  42 C :   -0.031881
  43 N :   -0.277037
  44 S :    0.681535
  45 N :   -0.277307
  46 N :    0.045563
  47 C :   -0.094589
  48 S :    0.458688
  49 C :   -0.202567
  50 N :    0.273843
  51 O :   -0.209807
  52 O :   -0.229448
  53 C :    0.017787
  54 C :   -0.090316
  55 C :    0.043188
  56 C :   -0.042749
  57 C :    0.067734
  58 C :   -0.100591
  59 C :    0.070881
  60 C :   -0.141464
  61 C :   -0.019937
  62 N :   -0.050326
  63 C :   -0.022304
  64 N :   -0.051498
  65 C :   -0.018816
  66 C :   -0.052935
  67 C :    0.081517
  68 O :   -0.147803
  69 C :    0.022174
  70 C :   -0.033381
  71 C :   -0.143502
  72 C :   -0.012104
  73 S :    0.433254
  74 C :   -0.271672
  75 C :   -0.070278
  76 Br:    0.137786
  77 H :    0.037851
  78 H :    0.042269
  79 H :    0.038766
  80 H :    0.036392
  81 H :    0.090710
  82 H :    0.046590
  83 H :    0.025463
  84 H :    0.026913
  85 H :    0.041538
  86 H :    0.042446
  87 H :    0.041229
  88 H :    0.039686
  89 H :    0.042606
  90 H :    0.042139
  91 H :    0.088276
  92 H :    0.045706
  93 H :    0.034923
  94 H :    0.030345
  95 H :    0.043379
  96 H :    0.041391
  97 H :    0.041076
  98 H :    0.039113

  Mayer bond orders larger than 0.100000
B(  0-C ,  1-C ) :   1.6259 B(  0-C ,  6-C ) :   1.0027 B(  0-C , 18-C ) :   1.0990
B(  1-C ,  2-C ) :   1.1510 B(  1-C ,  4-C ) :   1.1426 B(  2-C ,  3-N ) :   2.9551
B(  4-C ,  5-N ) :   2.9690 B(  6-C ,  7-C ) :   1.2772 B(  6-C , 11-C ) :   1.4252
B(  7-C ,  8-C ) :   1.4202 B(  7-C , 16-C ) :   0.9786 B(  8-C ,  9-C ) :   1.2446
B(  8-C , 77-H ) :   1.0163 B(  9-C , 10-C ) :   1.3111 B(  9-C , 14-C ) :   1.1636
B( 10-C , 11-C ) :   1.3199 B( 10-C , 12-S ) :   1.0908 B( 11-C , 78-H ) :   0.9794
B( 12-S , 13-C ) :   1.0902 B( 13-C , 14-C ) :   1.6146 B( 13-C , 15-Br) :   1.0221
B( 14-C , 79-H ) :   1.0001 B( 16-C , 17-O ) :   2.0413 B( 16-C , 18-C ) :   1.0031
B( 17-O , 81-H ) :   0.1342 B( 18-C , 19-C ) :   1.4491 B( 19-C , 20-N ) :   1.3465
B( 19-C , 80-H ) :   0.9304 B( 20-N , 21-C ) :   1.1926 B( 20-N , 81-H ) :   0.8259
B( 21-C , 22-S ) :   1.1335 B( 21-C , 28-C ) :   1.3675 B( 22-S , 23-C ) :   1.0815
B( 23-C , 24-N ) :   0.9609 B( 23-C , 27-C ) :   1.5017 B( 24-N , 25-O ) :   1.5360
B( 24-N , 26-O ) :   1.5185 B( 25-O , 26-O ) :   0.2624 B( 27-C , 28-C ) :   1.2140
B( 27-C , 82-H ) :   1.0021 B( 28-C , 29-C ) :   1.0634 B( 29-C , 30-C ) :   1.6536
B( 29-C , 83-H ) :   0.9469 B( 30-C , 31-C ) :   1.1866 B( 30-C , 84-H ) :   0.9630
B( 31-C , 32-C ) :   1.2529 B( 31-C , 40-C ) :   0.1357 B( 31-C , 42-C ) :   1.1524
B( 32-C , 33-C ) :   1.1866 B( 32-C , 37-N ) :   1.4259 B( 33-C , 34-N ) :   1.3540
B( 33-C , 40-C ) :   1.3235 B( 34-N , 35-C ) :   1.7353 B( 35-C , 36-C ) :   1.1095
B( 35-C , 39-C ) :   1.1003 B( 36-C , 37-N ) :   1.7538 B( 36-C , 38-C ) :   1.0963
B( 38-C , 85-H ) :   0.9406 B( 38-C , 86-H ) :   0.9422 B( 38-C , 87-H ) :   0.9389
B( 39-C , 88-H ) :   0.9419 B( 39-C , 89-H ) :   0.9373 B( 39-C , 90-H ) :   0.9403
B( 40-C , 41-C ) :   1.2613 B( 40-C , 46-N ) :   1.2606 B( 41-C , 42-C ) :   1.1236
B( 41-C , 45-N ) :   1.4469 B( 42-C , 43-N ) :   1.4868 B( 43-N , 44-S ) :   1.2841
B( 43-N , 45-N ) :   0.1513 B( 44-S , 45-N ) :   1.2859 B( 46-N , 47-C ) :   1.1813
B( 46-N , 91-H ) :   0.8526 B( 47-C , 48-S ) :   1.1489 B( 47-C , 54-C ) :   1.3604
B( 48-S , 49-C ) :   1.0754 B( 49-C , 50-N ) :   0.9623 B( 49-C , 53-C ) :   1.5131
B( 50-N , 51-O ) :   1.5407 B( 50-N , 52-O ) :   1.5118 B( 51-O , 52-O ) :   0.2611
B( 53-C , 54-C ) :   1.2206 B( 53-C , 92-H ) :   0.9953 B( 54-C , 55-C ) :   1.0833
B( 55-C , 56-C ) :   1.6585 B( 55-C , 93-H ) :   0.9767 B( 56-C , 57-C ) :   1.1380
B( 56-C , 94-H ) :   0.9540 B( 57-C , 58-C ) :   1.6022 B( 57-C , 95-H ) :   0.9548
B( 58-C , 59-C ) :   1.0459 B( 58-C , 67-C ) :   0.9437 B( 59-C , 60-C ) :   1.6337
B( 59-C , 65-C ) :   1.0142 B( 60-C , 61-C ) :   1.1332 B( 60-C , 63-C ) :   1.1636
B( 61-C , 62-N ) :   2.9853 B( 63-C , 64-N ) :   3.0046 B( 65-C , 66-C ) :   1.2737
B( 65-C , 72-C ) :   1.4132 B( 66-C , 67-C ) :   0.9236 B( 66-C , 69-C ) :   1.4262
B( 67-C , 68-O ) :   2.2631 B( 69-C , 70-C ) :   1.2508 B( 69-C , 96-H ) :   1.0158
B( 70-C , 71-C ) :   1.3071 B( 70-C , 75-C ) :   1.1625 B( 71-C , 72-C ) :   1.3282
B( 71-C , 73-S ) :   1.0852 B( 72-C , 97-H ) :   0.9815 B( 73-S , 74-C ) :   1.0865
B( 74-C , 75-C ) :   1.6194 B( 74-C , 76-Br) :   1.0197 B( 75-C , 98-H ) :   1.0001

-----------------------------------------------------------------------------
         ABSORPTION SPECTRUM VIA TRANSITION ELECTRIC DIPOLE MOMENTS
-----------------------------------------------------------------------------
State   Energy  Wavelength   fosc         T2         TX        TY        TZ
        (cm-1)    (nm)                  (au**2)     (au)      (au)      (au)
-----------------------------------------------------------------------------
   0   12386.4    807.3   0.397291837  10.55941  -2.10370  -2.03917   1.40558
   1   19425.1    514.8   0.447762250   7.58855   1.99803  -1.47251   1.19505
   2   19866.6    503.4   0.378832494   6.27768  -1.16890   1.43716   1.68699
   3   20729.1    482.4   0.193280222   3.06960  -1.10054   1.24031  -0.56572
   4   22889.9    436.9   0.029950635   0.43076  -0.06093  -0.62588  -0.18795
   5   24993.0    400.1   0.184686980   2.43273   0.08811  -0.62773  -1.42510
   6   25860.1    386.7   0.042396532   0.53973   0.60782   0.23437   0.33963
   7   26446.5    378.1   0.314208412   3.91133   0.77515   1.81940   0.01597
   8   26923.1    371.4   0.126736297   1.54971   0.64689   1.06179   0.06203
   9   27093.1    369.1   0.211371374   2.56840  -0.40510   1.05470   1.13662
  10   27577.0    362.6   0.338500683   4.04099  -1.12815   1.08121  -1.26461
  11   27838.1    359.2   0.063302129   0.74861  -0.51703  -0.06413  -0.69078
  12   28513.6    350.7   0.214145262   2.47247   1.40264   0.13814   0.69713
  13   28637.8    349.2   0.013992373   0.16085  -0.19384   0.07988  -0.34190
  14   28847.6    346.6   0.039694842   0.45300   0.42632  -0.35892  -0.37740
  15   29103.2    343.6   0.038019784   0.43007   0.18113   0.59733  -0.20116
  16   29495.0    339.0   0.006070284   0.06775  -0.04383  -0.00612   0.25651
  17   29855.8    334.9   0.610146682   6.72792   0.67296   2.35592   0.85129
  18   30060.0    332.7   0.008168263   0.08946   0.03322  -0.29500   0.03648
  19   30392.5    329.0   0.001616675   0.01751  -0.11895   0.01658  -0.05556
  20   31031.2    322.3   0.178542499   1.89417   0.64488  -1.20312  -0.17549
  21   31593.1    316.5   0.164986538   1.71922   1.13204  -0.04938   0.65974
  22   32044.3    312.1   0.169442833   1.74080  -0.43757  -1.18088  -0.39351
  23   32386.7    308.8   0.084388345   0.85781  -0.60034  -0.53926  -0.45453
  24   32636.3    306.4   0.083247645   0.83974  -0.42001   0.80884  -0.09544
  25   32727.8    305.6   0.019733868   0.19850   0.00534  -0.42817   0.12307
  26   32982.3    303.2   0.033126136   0.33065  -0.17582  -0.54489   0.05321
  27   33307.7    300.2   0.644559221   6.37080   1.86517  -0.17430   1.69162
  28   33717.2    296.6   0.000209981   0.00205  -0.00535   0.02316   0.03854
  29   33756.5    296.2   0.003959607   0.03862  -0.00891   0.15342   0.12248
  30   33873.6    295.2   0.132913268   1.29176  -0.57495  -0.97983  -0.03367
  31   34217.6    292.2   0.114116456   1.09793  -0.86981   0.04294  -0.58268
  32   34556.1    289.4   0.366533580   3.49193  -1.85390  -0.23376   0.01864
  33   34698.3    288.2   0.000766930   0.00728  -0.08020  -0.01393  -0.02550
  34   35014.8    285.6   0.368904117   3.46847  -1.71988  -0.69766   0.15416
  35   35603.4    280.9   0.039064992   0.36122   0.05856  -0.53754  -0.26237
  36   35766.5    279.6   0.230291202   2.11971  -1.29911  -0.27472  -0.59711
  37   35926.4    278.3   0.207901931   1.90511   1.33278   0.35890  -0.00265
  38   35994.3    277.8   0.021093112   0.19292  -0.32030  -0.30055   0.00121
  39   36172.8    276.5   0.127448473   1.15992   0.18648   1.05868  -0.06590
  40   36544.8    273.6   0.045216454   0.40733   0.30795   0.54054   0.14252
  41   36614.3    273.1   0.029579769   0.26596  -0.09496  -0.50527  -0.04055
  42   36871.0    271.2   0.005597722   0.04998  -0.16183   0.15395  -0.00955
  43   37396.2    267.4   0.164359990   1.44692   0.40109  -1.11464  -0.20885
  44   37604.4    265.9   0.345793066   3.02729  -0.73928   1.52027   0.41173
  45   37666.3    265.5   0.029937612   0.26166   0.21552  -0.43217  -0.16865
  46   37838.2    264.3   0.388262768   3.37808  -1.03769   1.49784   0.24033
  47   37992.4    263.2   0.012047679   0.10440   0.08890  -0.28390  -0.12607
  48   38254.4    261.4   0.018418906   0.15851  -0.31061  -0.21468   0.12627
  49   38855.5    257.4   0.065050401   0.55115  -0.26359   0.47226   0.50858
  50   39041.9    256.1   0.049597444   0.41822   0.19317  -0.51994  -0.33251
  51   39310.5    254.4   0.140090964   1.17321  -0.79668   0.61895  -0.39424
  52   39426.5    253.6   0.037273573   0.31124  -0.01708  -0.34353   0.43924
  53   39727.7    251.7   0.131042808   1.08591  -0.34249   0.82929   0.52999
  54   39896.4    250.6   0.021602692   0.17826   0.42118   0.02683   0.01225
  55   39943.9    250.4   0.006824413   0.05625  -0.23133   0.04989  -0.01551
  56   40158.6    249.0   0.078447052   0.64309  -0.43798  -0.66504  -0.09482

FINAL SINGLE POINT ENERGY    -10237.301323745014

DIPOLE MOMENT
-------------
                                X             Y             Z
Electronic contribution:    -98.58200     155.73270     -22.38464
Nuclear contribution   :     99.88436    -156.37060      22.63871
                        -----------------------------------------
Total Dipole Moment    :      1.30236      -0.63789       0.25408
                        -----------------------------------------
Magnitude (a.u.)       :      1.47228
Magnitude (Debye)      :      3.74224

Rotational constants in cm-1:     0.000448     0.000348     0.000294
Rotational constants in MHz :    13.426368    10.441930     8.804051

                             ****ORCA TERMINATED NORMALLY****
TOTAL RUN TIME: 0 days 0 hours 18 minutes 36 seconds 678 msec
