                         Program Version 4.2.0 -  RELEASE  -
|  1> # ORCA input file
|  2> # SCF done       -193.711815696659          0.000846997602
|  3> ! CAM-B3LYP def2-SVP def2/J RIJCOSX Grid4 TightSCF
|  4> %maxcore 5000
|  5> %tddft
|  6>     Mode sTDDFT
|  7>     Ethresh 5.0
|  8>     maxcore 5000
|  9> end
| 10>
| 11> %pal
| 12>   nprocs 6
| 13>   end
| 14> * xyz 0 1
| 15>    C       -5.54704        -3.37665        -2.36034
| 16>    C       -6.64043        -4.07502        -1.91757
| 17>    C       -6.69938        -5.48148        -1.82598
| 18>    N       -6.80709        -6.62006        -1.72694
| 19>    C       -7.85156        -3.49529        -1.48636
| 20>    N       -8.86221        -3.09182        -1.11843
| 21>    C       -4.29445        -3.96176        -2.82291
| 22>    C       -3.41517        -2.92002        -3.20821
| 23>    C       -2.14675        -3.15619        -3.67933
| 24>    C       -1.72756        -4.48611        -3.78670
| 25>    C       -2.61324        -5.52152        -3.40205
| 26>    C       -3.89289        -5.28216        -2.91836
| 27>    S       -1.89175        -7.08889        -3.60858
| 28>    C       -0.43166        -6.34264        -4.20148
| 29>    C       -0.47930        -4.98966        -4.24353
| 30>   Br        1.01852        -7.41947        -4.70600
| 31>    C       -4.07266        -1.61657        -2.99152
| 32>    O       -3.55572        -0.52453        -3.07519
| 33>    C       -5.43730        -1.93572        -2.50145
| 34>    C       -6.33964        -0.99755        -2.10629
| 35>    C       -6.31567         0.38044        -2.45804
| 36>    N       -6.73234         1.34786        -1.58745
| 37>    C       -6.99899         1.19802        -0.18288
| 38>    C       -5.72928         0.88290         0.60298
| 39>    N       -6.73486         2.53833        -2.14740
| 40>    C       -6.39449         2.37598        -3.42203
| 41>    C       -6.09938         1.02777        -3.68579
| 42>    C       -5.81608         0.39929        -5.00874
| 43>    C       -4.47374         0.82053        -5.60852
| 44>    C       -6.32968         3.54365        -4.34314
| 45>    C       -4.98470         4.27619        -4.20296
| 46>    C       -4.86184         5.37726        -5.19820
| 47>    C       -4.43574         6.61120        -4.92105
| 48>    C       -4.31339         7.66454        -5.88737
| 49>    S       -4.90788         7.47482        -7.50711
| 50>    C       -4.39332         9.08386        -7.94776
| 51>    C       -3.80363         9.71971        -6.87133
| 52>    C       -3.75803         8.91465        -5.71325
| 53>    C       -3.17423         9.39528        -4.41874
| 54>    C       -2.33070        10.64873        -4.62893
| 55>    C       -3.10760        11.67327        -5.46724
| 56>    N       -2.48096        12.98144        -5.55656
| 57>    C       -3.28902        11.12337        -6.88389
| 58>    C       -4.67125         9.50576        -9.28166
| 59>    C       -4.14871        10.55411        -9.95135
| 60>    C       -4.56782        10.86692       -11.28565
| 61>    C       -4.11023        11.84864       -12.07856
| 62>    C       -3.00178        12.79781       -11.75276
| 63>    C       -4.70513        12.03360       -13.45568
| 64>    N       -3.72919        11.75909       -14.48431
| 65>    C       -3.18168        12.67075       -15.28442
| 66>    C       -2.12488        12.42876       -16.11689
| 67>    C       -1.60179        13.41149       -16.96195
| 68>    C       -0.48696        13.32781       -17.76086
| 69>    C        0.59467        12.38093       -17.79379
| 70>    C        1.06988        11.62559       -16.74568
| 71>    C        2.16908        10.75129       -16.84173
| 72>    N        3.04312        10.00578       -16.86715
| 73>    C        0.58764        11.70873       -15.42641
| 74>    N        0.25743        11.76301       -14.32634
| 75>    C        1.26305        12.52767       -19.08687
| 76>    C        0.73755        13.67072       -19.73843
| 77>    C       -0.33430        14.25382       -18.89952
| 78>    O       -0.98058        15.25615       -19.12349
| 79>    C        1.18209        14.08866       -20.96763
| 80>    C        2.18412        13.33541       -21.59060
| 81>    C        2.69367        12.19046       -20.93688
| 82>    C        2.25171        11.77307       -19.68644
| 83>    S        3.91228        11.39863       -21.89144
| 84>    C        3.72380        12.60394       -23.13714
| 85>    C        2.79744        13.54978       -22.85612
| 86>   Br        4.76523        12.49603       -24.69455
| 87>    H       -1.49880        -2.34038        -3.95916
| 88>    H       -4.52653        -6.10481        -2.63227
| 89>    H        0.33213        -4.37096        -4.58085
| 90>    H       -7.16847        -1.30043        -1.47725
| 91>    H       -7.74045         0.40501        -0.03902
| 92>    H       -7.42458         2.14709         0.14859
| 93>    H       -5.29224        -0.05457         0.26549
| 94>    H       -5.96040         0.79936         1.66112
| 95>    H       -4.99710         1.67442         0.46444
| 96>    H       -6.61804         0.67195        -5.70301
| 97>    H       -5.83198        -0.68731        -4.89308
| 98>    H       -4.48206         1.87159        -5.88031
| 99>    H       -4.26994         0.23565        -6.50292
|100>    H       -3.67596         0.65111        -4.89069
|101>    H       -7.13544         4.23607        -4.09437
|102>    H       -6.46180         3.20685        -5.37256
|103>    H       -4.17576         3.55542        -4.36132
|104>    H       -4.88879         4.66430        -3.18787
|105>    H       -5.13733         5.12971        -6.21610
|106>    H       -4.14966         6.86750        -3.90961
|107>    H       -2.56531         8.60828        -3.96763
|108>    H       -3.99070         9.61944        -3.72347
|109>    H       -1.40405        10.38990        -5.14873
|110>    H       -2.06576        11.07934        -3.65959
|111>    H       -4.09474        11.82447        -5.01336
|112>    H       -1.54104        12.89491        -5.93085
|113>    H       -2.40817        13.40487        -4.63803
|114>    H       -2.31873        11.15240        -7.39237
|115>    H       -3.97222        11.77170        -7.43570
|116>    H       -5.37847         8.87169        -9.80490
|117>    H       -3.39406        11.17294        -9.49820
|118>    H       -5.36299        10.23663       -11.66870
|119>    H       -2.69340        12.71837       -10.71649
|120>    H       -3.31592        13.82408       -11.94249
|121>    H       -2.13363        12.59737       -12.38287
|122>    H       -5.05134        13.06319       -13.58427
|123>    H       -5.55908        11.36064       -13.58949
|124>    H       -3.28733        10.85047       -14.43872
|125>    H       -3.62593        13.65754       -15.25075
|126>    H       -1.68886        11.44094       -16.11943
|127>    H       -2.17388        14.32623       -17.07749
|128>    H        0.76878        14.96683       -21.43846
|129>    H        2.66693        10.88999       -19.22957
|130>    H        2.55313        14.36496       -23.51255
|131> *
|132>
|133>                          ****END OF INPUT****

CARTESIAN COORDINATES (ANGSTROEM)
---------------------------------
  C     -5.547040   -3.376650   -2.360340
  C     -6.640430   -4.075020   -1.917570
  C     -6.699380   -5.481480   -1.825980
  N     -6.807090   -6.620060   -1.726940
  C     -7.851560   -3.495290   -1.486360
  N     -8.862210   -3.091820   -1.118430
  C     -4.294450   -3.961760   -2.822910
  C     -3.415170   -2.920020   -3.208210
  C     -2.146750   -3.156190   -3.679330
  C     -1.727560   -4.486110   -3.786700
  C     -2.613240   -5.521520   -3.402050
  C     -3.892890   -5.282160   -2.918360
  S     -1.891750   -7.088890   -3.608580
  C     -0.431660   -6.342640   -4.201480
  C     -0.479300   -4.989660   -4.243530
  Br     1.018520   -7.419470   -4.706000
  C     -4.072660   -1.616570   -2.991520
  O     -3.555720   -0.524530   -3.075190
  C     -5.437300   -1.935720   -2.501450
  C     -6.339640   -0.997550   -2.106290
  C     -6.315670    0.380440   -2.458040
  N     -6.732340    1.347860   -1.587450
  C     -6.998990    1.198020   -0.182880
  C     -5.729280    0.882900    0.602980
  N     -6.734860    2.538330   -2.147400
  C     -6.394490    2.375980   -3.422030
  C     -6.099380    1.027770   -3.685790
  C     -5.816080    0.399290   -5.008740
  C     -4.473740    0.820530   -5.608520
  C     -6.329680    3.543650   -4.343140
  C     -4.984700    4.276190   -4.202960
  C     -4.861840    5.377260   -5.198200
  C     -4.435740    6.611200   -4.921050
  C     -4.313390    7.664540   -5.887370
  S     -4.907880    7.474820   -7.507110
  C     -4.393320    9.083860   -7.947760
  C     -3.803630    9.719710   -6.871330
  C     -3.758030    8.914650   -5.713250
  C     -3.174230    9.395280   -4.418740
  C     -2.330700   10.648730   -4.628930
  C     -3.107600   11.673270   -5.467240
  N     -2.480960   12.981440   -5.556560
  C     -3.289020   11.123370   -6.883890
  C     -4.671250    9.505760   -9.281660
  C     -4.148710   10.554110   -9.951350
  C     -4.567820   10.866920  -11.285650
  C     -4.110230   11.848640  -12.078560
  C     -3.001780   12.797810  -11.752760
  C     -4.705130   12.033600  -13.455680
  N     -3.729190   11.759090  -14.484310
  C     -3.181680   12.670750  -15.284420
  C     -2.124880   12.428760  -16.116890
  C     -1.601790   13.411490  -16.961950
  C     -0.486960   13.327810  -17.760860
  C      0.594670   12.380930  -17.793790
  C      1.069880   11.625590  -16.745680
  C      2.169080   10.751290  -16.841730
  N      3.043120   10.005780  -16.867150
  C      0.587640   11.708730  -15.426410
  N      0.257430   11.763010  -14.326340
  C      1.263050   12.527670  -19.086870
  C      0.737550   13.670720  -19.738430
  C     -0.334300   14.253820  -18.899520
  O     -0.980580   15.256150  -19.123490
  C      1.182090   14.088660  -20.967630
  C      2.184120   13.335410  -21.590600
  C      2.693670   12.190460  -20.936880
  C      2.251710   11.773070  -19.686440
  S      3.912280   11.398630  -21.891440
  C      3.723800   12.603940  -23.137140
  C      2.797440   13.549780  -22.856120
  Br     4.765230   12.496030  -24.694550
  H     -1.498800   -2.340380   -3.959160
  H     -4.526530   -6.104810   -2.632270
  H      0.332130   -4.370960   -4.580850
  H     -7.168470   -1.300430   -1.477250
  H     -7.740450    0.405010   -0.039020
  H     -7.424580    2.147090    0.148590
  H     -5.292240   -0.054570    0.265490
  H     -5.960400    0.799360    1.661120
  H     -4.997100    1.674420    0.464440
  H     -6.618040    0.671950   -5.703010
  H     -5.831980   -0.687310   -4.893080
  H     -4.482060    1.871590   -5.880310
  H     -4.269940    0.235650   -6.502920
  H     -3.675960    0.651110   -4.890690
  H     -7.135440    4.236070   -4.094370
  H     -6.461800    3.206850   -5.372560
  H     -4.175760    3.555420   -4.361320
  H     -4.888790    4.664300   -3.187870
  H     -5.137330    5.129710   -6.216100
  H     -4.149660    6.867500   -3.909610
  H     -2.565310    8.608280   -3.967630
  H     -3.990700    9.619440   -3.723470
  H     -1.404050   10.389900   -5.148730
  H     -2.065760   11.079340   -3.659590
  H     -4.094740   11.824470   -5.013360
  H     -1.541040   12.894910   -5.930850
  H     -2.408170   13.404870   -4.638030
  H     -2.318730   11.152400   -7.392370
  H     -3.972220   11.771700   -7.435700
  H     -5.378470    8.871690   -9.804900
  H     -3.394060   11.172940   -9.498200
  H     -5.362990   10.236630  -11.668700
  H     -2.693400   12.718370  -10.716490
  H     -3.315920   13.824080  -11.942490
  H     -2.133630   12.597370  -12.382870
  H     -5.051340   13.063190  -13.584270
  H     -5.559080   11.360640  -13.589490
  H     -3.287330   10.850470  -14.438720
  H     -3.625930   13.657540  -15.250750
  H     -1.688860   11.440940  -16.119430
  H     -2.173880   14.326230  -17.077490
  H      0.768780   14.966830  -21.438460
  H      2.666930   10.889990  -19.229570
  H      2.553130   14.364960  -23.512550

 Total Charge           Charge          ....    0
 Multiplicity           Mult            ....    1
 Number of Electrons    NEL             ....  576
 Basis Dimension        Dim             .... 1276

ORBITAL ENERGIES
----------------

  NO   OCC          E(Eh)            E(eV)
   0   2.0000    -482.889539    -13140.0924
   1   2.0000    -482.876109    -13139.7269
   2   2.0000     -88.980254     -2421.2758
   3   2.0000     -88.963692     -2420.8251
   4   2.0000     -88.939539     -2420.1679
   5   2.0000     -62.567249     -1702.5414
   6   2.0000     -62.553835     -1702.1764
   7   2.0000     -56.401211     -1534.7550
   8   2.0000     -56.398476     -1534.6805
   9   2.0000     -56.398449     -1534.6798
  10   2.0000     -56.387771     -1534.3892
  11   2.0000     -56.385085     -1534.3162
  12   2.0000     -56.385042     -1534.3150
  13   2.0000     -19.222071      -523.0591
  14   2.0000     -19.193017      -522.2685
  15   2.0000     -14.489393      -394.2764
  16   2.0000     -14.466448      -393.6521
  17   2.0000     -14.424715      -392.5165
  18   2.0000     -14.422219      -392.4485
  19   2.0000     -14.420228      -392.3943
  20   2.0000     -14.400734      -391.8639
  21   2.0000     -14.398496      -391.8030
  22   2.0000     -14.378638      -391.2626
  23   2.0000     -10.373021      -282.2643
  24   2.0000     -10.363809      -282.0136
  25   2.0000     -10.348144      -281.5873
  26   2.0000     -10.347391      -281.5668
  27   2.0000     -10.347245      -281.5628
  28   2.0000     -10.347129      -281.5597
  29   2.0000     -10.344805      -281.4965
  30   2.0000     -10.330905      -281.1182
  31   2.0000     -10.325443      -280.9696
  32   2.0000     -10.325266      -280.9648
  33   2.0000     -10.324987      -280.9572
  34   2.0000     -10.323969      -280.9295
  35   2.0000     -10.322985      -280.9027
  36   2.0000     -10.321164      -280.8532
  37   2.0000     -10.316601      -280.7290
  38   2.0000     -10.313977      -280.6576
  39   2.0000     -10.313185      -280.6360
  40   2.0000     -10.311802      -280.5984
  41   2.0000     -10.311085      -280.5789
  42   2.0000     -10.310084      -280.5516
  43   2.0000     -10.306525      -280.4548
  44   2.0000     -10.305089      -280.4157
  45   2.0000     -10.304740      -280.4062
  46   2.0000     -10.302853      -280.3549
  47   2.0000     -10.301955      -280.3304
  48   2.0000     -10.301213      -280.3102
  49   2.0000     -10.298007      -280.2230
  50   2.0000     -10.293465      -280.0994
  51   2.0000     -10.292402      -280.0705
  52   2.0000     -10.290903      -280.0297
  53   2.0000     -10.288470      -279.9635
  54   2.0000     -10.287080      -279.9257
  55   2.0000     -10.286433      -279.9081
  56   2.0000     -10.286362      -279.9061
  57   2.0000     -10.285529      -279.8835
  58   2.0000     -10.283303      -279.8229
  59   2.0000     -10.281682      -279.7788
  60   2.0000     -10.279842      -279.7287
  61   2.0000     -10.276122      -279.6275
  62   2.0000     -10.273613      -279.5592
  63   2.0000     -10.272233      -279.5217
  64   2.0000     -10.270434      -279.4727
  65   2.0000     -10.270384      -279.4714
  66   2.0000     -10.269510      -279.4476
  67   2.0000     -10.269496      -279.4472
  68   2.0000     -10.268613      -279.4232
  69   2.0000     -10.268490      -279.4198
  70   2.0000     -10.267355      -279.3889
  71   2.0000     -10.266978      -279.3787
  72   2.0000     -10.266592      -279.3682
  73   2.0000     -10.265830      -279.3474
  74   2.0000     -10.265609      -279.3414
  75   2.0000     -10.265030      -279.3257
  76   2.0000     -10.264271      -279.3050
  77   2.0000     -10.263075      -279.2725
  78   2.0000     -10.259079      -279.1637
  79   2.0000     -10.249104      -278.8923
  80   2.0000      -8.796670      -239.3696
  81   2.0000      -8.783260      -239.0047
  82   2.0000      -8.076255      -219.7661
  83   2.0000      -8.059653      -219.3143
  84   2.0000      -8.035344      -218.6528
  85   2.0000      -6.633021      -180.4937
  86   2.0000      -6.619503      -180.1258
  87   2.0000      -6.618392      -180.0956
  88   2.0000      -6.618158      -180.0892
  89   2.0000      -6.604994      -179.7310
  90   2.0000      -6.604865      -179.7275
  91   2.0000      -6.045962      -164.5190
  92   2.0000      -6.041654      -164.4018
  93   2.0000      -6.037465      -164.2878
  94   2.0000      -6.029365      -164.0674
  95   2.0000      -6.025082      -163.9508
  96   2.0000      -6.020874      -163.8363
  97   2.0000      -6.004478      -163.3902
  98   2.0000      -6.000670      -163.2865
  99   2.0000      -5.997454      -163.1990
 100   2.0000      -2.748850       -74.8000
 101   2.0000      -2.744792       -74.6896
 102   2.0000      -2.744629       -74.6851
 103   2.0000      -2.735388       -74.4337
 104   2.0000      -2.732992       -74.3685
 105   2.0000      -2.732987       -74.3684
 106   2.0000      -2.731323       -74.3231
 107   2.0000      -2.731174       -74.3190
 108   2.0000      -2.719678       -74.0062
 109   2.0000      -2.719658       -74.0056
 110   2.0000      -1.153055       -31.3762
 111   2.0000      -1.137638       -30.9567
 112   2.0000      -1.107441       -30.1350
 113   2.0000      -1.065478       -28.9931
 114   2.0000      -1.028337       -27.9825
 115   2.0000      -1.018860       -27.7246
 116   2.0000      -1.008173       -27.4338
 117   2.0000      -0.999856       -27.2075
 118   2.0000      -0.998276       -27.1645
 119   2.0000      -0.995135       -27.0790
 120   2.0000      -0.982688       -26.7403
 121   2.0000      -0.978603       -26.6292
 122   2.0000      -0.973021       -26.4773
 123   2.0000      -0.965250       -26.2658
 124   2.0000      -0.954248       -25.9664
 125   2.0000      -0.947676       -25.7876
 126   2.0000      -0.930446       -25.3187
 127   2.0000      -0.923460       -25.1286
 128   2.0000      -0.922588       -25.1049
 129   2.0000      -0.913557       -24.8592
 130   2.0000      -0.904287       -24.6069
 131   2.0000      -0.898279       -24.4434
 132   2.0000      -0.893754       -24.3203
 133   2.0000      -0.891281       -24.2530
 134   2.0000      -0.888926       -24.1889
 135   2.0000      -0.887254       -24.1434
 136   2.0000      -0.877500       -23.8780
 137   2.0000      -0.871843       -23.7241
 138   2.0000      -0.865777       -23.5590
 139   2.0000      -0.861068       -23.4309
 140   2.0000      -0.851191       -23.1621
 141   2.0000      -0.838846       -22.8262
 142   2.0000      -0.834199       -22.6997
 143   2.0000      -0.826597       -22.4928
 144   2.0000      -0.823308       -22.4034
 145   2.0000      -0.815214       -22.1831
 146   2.0000      -0.811720       -22.0880
 147   2.0000      -0.803142       -21.8546
 148   2.0000      -0.785829       -21.3835
 149   2.0000      -0.784623       -21.3507
 150   2.0000      -0.776834       -21.1387
 151   2.0000      -0.764326       -20.7984
 152   2.0000      -0.761193       -20.7131
 153   2.0000      -0.750773       -20.4296
 154   2.0000      -0.739994       -20.1363
 155   2.0000      -0.737576       -20.0705
 156   2.0000      -0.725962       -19.7544
 157   2.0000      -0.714628       -19.4460
 158   2.0000      -0.712417       -19.3859
 159   2.0000      -0.706637       -19.2286
 160   2.0000      -0.697556       -18.9815
 161   2.0000      -0.694750       -18.9051
 162   2.0000      -0.689105       -18.7515
 163   2.0000      -0.685590       -18.6559
 164   2.0000      -0.684362       -18.6224
 165   2.0000      -0.672022       -18.2866
 166   2.0000      -0.665017       -18.0960
 167   2.0000      -0.662516       -18.0280
 168   2.0000      -0.653864       -17.7925
 169   2.0000      -0.651013       -17.7150
 170   2.0000      -0.643870       -17.5206
 171   2.0000      -0.638185       -17.3659
 172   2.0000      -0.637638       -17.3510
 173   2.0000      -0.628108       -17.0917
 174   2.0000      -0.624957       -17.0060
 175   2.0000      -0.618164       -16.8211
 176   2.0000      -0.610322       -16.6077
 177   2.0000      -0.607505       -16.5311
 178   2.0000      -0.606749       -16.5105
 179   2.0000      -0.604030       -16.4365
 180   2.0000      -0.602701       -16.4003
 181   2.0000      -0.597388       -16.2557
 182   2.0000      -0.595465       -16.2034
 183   2.0000      -0.582759       -15.8577
 184   2.0000      -0.579396       -15.7662
 185   2.0000      -0.573798       -15.6138
 186   2.0000      -0.568610       -15.4727
 187   2.0000      -0.561763       -15.2864
 188   2.0000      -0.557943       -15.1824
 189   2.0000      -0.556126       -15.1330
 190   2.0000      -0.553078       -15.0500
 191   2.0000      -0.547433       -14.8964
 192   2.0000      -0.545442       -14.8422
 193   2.0000      -0.542578       -14.7643
 194   2.0000      -0.540127       -14.6976
 195   2.0000      -0.539284       -14.6747
 196   2.0000      -0.533667       -14.5218
 197   2.0000      -0.532634       -14.4937
 198   2.0000      -0.530563       -14.4374
 199   2.0000      -0.528640       -14.3850
 200   2.0000      -0.526377       -14.3234
 201   2.0000      -0.524008       -14.2590
 202   2.0000      -0.521260       -14.1842
 203   2.0000      -0.518582       -14.1113
 204   2.0000      -0.517535       -14.0828
 205   2.0000      -0.512592       -13.9483
 206   2.0000      -0.510889       -13.9020
 207   2.0000      -0.509464       -13.8632
 208   2.0000      -0.509307       -13.8590
 209   2.0000      -0.506494       -13.7824
 210   2.0000      -0.503034       -13.6883
 211   2.0000      -0.499371       -13.5886
 212   2.0000      -0.496724       -13.5165
 213   2.0000      -0.495502       -13.4833
 214   2.0000      -0.494184       -13.4474
 215   2.0000      -0.493257       -13.4222
 216   2.0000      -0.488694       -13.2980
 217   2.0000      -0.488027       -13.2799
 218   2.0000      -0.485498       -13.2111
 219   2.0000      -0.481311       -13.0971
 220   2.0000      -0.480491       -13.0748
 221   2.0000      -0.478174       -13.0118
 222   2.0000      -0.476746       -12.9729
 223   2.0000      -0.475454       -12.9378
 224   2.0000      -0.472852       -12.8670
 225   2.0000      -0.469898       -12.7866
 226   2.0000      -0.467016       -12.7081
 227   2.0000      -0.466455       -12.6929
 228   2.0000      -0.462768       -12.5926
 229   2.0000      -0.461860       -12.5678
 230   2.0000      -0.454611       -12.3706
 231   2.0000      -0.453931       -12.3521
 232   2.0000      -0.451717       -12.2918
 233   2.0000      -0.450160       -12.2495
 234   2.0000      -0.449954       -12.2439
 235   2.0000      -0.449144       -12.2218
 236   2.0000      -0.447343       -12.1728
 237   2.0000      -0.446262       -12.1434
 238   2.0000      -0.444495       -12.0953
 239   2.0000      -0.443199       -12.0601
 240   2.0000      -0.441147       -12.0042
 241   2.0000      -0.438147       -11.9226
 242   2.0000      -0.436951       -11.8900
 243   2.0000      -0.432826       -11.7778
 244   2.0000      -0.432487       -11.7686
 245   2.0000      -0.431273       -11.7355
 246   2.0000      -0.429643       -11.6912
 247   2.0000      -0.428653       -11.6643
 248   2.0000      -0.426744       -11.6123
 249   2.0000      -0.426418       -11.6034
 250   2.0000      -0.425053       -11.5663
 251   2.0000      -0.421999       -11.4832
 252   2.0000      -0.420783       -11.4501
 253   2.0000      -0.418219       -11.3803
 254   2.0000      -0.415146       -11.2967
 255   2.0000      -0.414226       -11.2717
 256   2.0000      -0.411939       -11.2094
 257   2.0000      -0.410359       -11.1664
 258   2.0000      -0.408439       -11.1142
 259   2.0000      -0.407528       -11.0894
 260   2.0000      -0.403024       -10.9668
 261   2.0000      -0.398409       -10.8413
 262   2.0000      -0.394661       -10.7393
 263   2.0000      -0.393055       -10.6956
 264   2.0000      -0.392955       -10.6928
 265   2.0000      -0.385460       -10.4889
 266   2.0000      -0.382979       -10.4214
 267   2.0000      -0.378851       -10.3091
 268   2.0000      -0.376190       -10.2367
 269   2.0000      -0.365786        -9.9535
 270   2.0000      -0.365148        -9.9362
 271   2.0000      -0.362369        -9.8605
 272   2.0000      -0.360248        -9.8028
 273   2.0000      -0.352514        -9.5924
 274   2.0000      -0.343372        -9.3436
 275   2.0000      -0.336552        -9.1580
 276   2.0000      -0.320554        -8.7227
 277   2.0000      -0.316863        -8.6223
 278   2.0000      -0.309032        -8.4092
 279   2.0000      -0.303824        -8.2675
 280   2.0000      -0.302132        -8.2214
 281   2.0000      -0.301772        -8.2116
 282   2.0000      -0.299675        -8.1546
 283   2.0000      -0.297434        -8.0936
 284   2.0000      -0.289068        -7.8659
 285   2.0000      -0.281739        -7.6665
 286   2.0000      -0.258657        -7.0384
 287   2.0000      -0.239864        -6.5270
 288   0.0000      -0.093256        -2.5376
 289   0.0000      -0.066613        -1.8126
 290   0.0000      -0.062567        -1.7025
 291   0.0000      -0.038052        -1.0355
 292   0.0000      -0.030319        -0.8250

MULLIKEN ATOMIC CHARGES
-----------------------
   0 C :    0.310927
   1 C :   -0.348080
   2 C :   -0.185277
   3 N :    0.150326
   4 C :   -0.194710
   5 N :    0.158868
   6 C :    0.015396
   7 C :   -0.012315
   8 C :   -0.068577
   9 C :    0.114846
  10 C :   -0.089277
  11 C :   -0.020192
  12 S :    0.189393
  13 C :   -0.123798
  14 C :    0.041407
  15 Br:    0.027506
  16 C :    0.133210
  17 O :   -0.144493
  18 C :   -0.075144
  19 C :   -0.094973
  20 C :    0.140320
  21 N :   -0.152661
  22 C :    0.110076
  23 C :   -0.005821
  24 N :   -0.067377
  25 C :   -0.173010
  26 C :   -0.114182
  27 C :    0.090790
  28 C :   -0.003373
  29 C :    0.131859
  30 C :    0.073640
  31 C :   -0.057288
  32 C :    0.009772
  33 C :   -0.105721
  34 S :    0.092317
  35 C :   -0.132428
  36 C :   -0.035715
  37 C :   -0.111736
  38 C :    0.131465
  39 C :    0.068956
  40 C :   -0.067203
  41 N :   -0.165692
  42 C :    0.151850
  43 C :    0.031867
  44 C :   -0.012423
  45 C :    0.012860
  46 C :   -0.206024
  47 C :    0.100683
  48 C :    0.204768
  49 N :   -0.112452
  50 C :    0.074077
  51 C :   -0.017947
  52 C :    0.024519
  53 C :   -0.140669
  54 C :    0.291134
  55 C :   -0.355824
  56 C :   -0.179278
  57 N :    0.133525
  58 C :   -0.213016
  59 N :    0.141689
  60 C :    0.001111
  61 C :   -0.003942
  62 C :    0.137133
  63 O :   -0.163136
  64 C :   -0.075637
  65 C :    0.111131
  66 C :   -0.088495
  67 C :   -0.023597
  68 S :    0.175865
  69 C :   -0.125562
  70 C :    0.039921
  71 Br:    0.012496
  72 H :   -0.009973
  73 H :   -0.006089
  74 H :   -0.001644
  75 H :    0.034715
  76 H :    0.035954
  77 H :    0.037821
  78 H :    0.023853
  79 H :    0.028171
  80 H :    0.034875
  81 H :    0.015550
  82 H :   -0.008401
  83 H :    0.006243
  84 H :    0.005160
  85 H :    0.041328
  86 H :    0.010528
  87 H :   -0.008977
  88 H :    0.022979
  89 H :    0.007519
  90 H :   -0.004481
  91 H :   -0.018121
  92 H :    0.013435
  93 H :    0.012009
  94 H :   -0.009303
  95 H :   -0.015865
  96 H :   -0.004887
  97 H :    0.085566
  98 H :    0.087378
  99 H :    0.010016
 100 H :    0.021342
 101 H :   -0.020657
 102 H :   -0.012521
 103 H :   -0.031429
 104 H :    0.014007
 105 H :    0.007497
 106 H :    0.051907
 107 H :    0.021764
 108 H :    0.014352
 109 H :    0.138474
 110 H :    0.020787
 111 H :    0.005427
 112 H :    0.005356
 113 H :   -0.015434
 114 H :   -0.008081
 115 H :   -0.006809
Sum of atomic charges:   -0.0000000

LOEWDIN ATOMIC CHARGES
----------------------
   0 C :    0.075225
   1 C :   -0.139675
   2 C :   -0.018509
   3 N :   -0.051051
   4 C :   -0.021251
   5 N :   -0.051293
   6 C :   -0.022044
   7 C :   -0.051186
   8 C :    0.022045
   9 C :   -0.031235
  10 C :   -0.143200
  11 C :   -0.008584
  12 S :    0.434750
  13 C :   -0.269886
  14 C :   -0.070255
  15 Br:    0.139984
  16 C :    0.084257
  17 O :   -0.130389
  18 C :   -0.094611
  19 C :    0.065296
  20 C :   -0.029360
  21 N :    0.101974
  22 C :    0.034704
  23 C :   -0.059235
  24 N :   -0.076076
  25 C :   -0.049914
  26 C :   -0.042067
  27 C :   -0.029536
  28 C :   -0.056565
  29 C :   -0.027047
  30 C :   -0.025348
  31 C :   -0.022464
  32 C :   -0.053547
  33 C :   -0.171839
  34 S :    0.420499
  35 C :   -0.179762
  36 C :   -0.051109
  37 C :   -0.063607
  38 C :   -0.026936
  39 C :   -0.042298
  40 C :    0.012197
  41 N :   -0.103547
  42 C :   -0.027001
  43 C :   -0.031823
  44 C :   -0.038545
  45 C :   -0.037876
  46 C :   -0.054386
  47 C :   -0.051237
  48 C :    0.049947
  49 N :    0.045931
  50 C :    0.094844
  51 C :   -0.113653
  52 C :    0.075692
  53 C :   -0.136949
  54 C :    0.076250
  55 C :   -0.165705
  56 C :   -0.021105
  57 N :   -0.070612
  58 C :   -0.014820
  59 N :   -0.080615
  60 C :   -0.017468
  61 C :   -0.049693
  62 C :    0.078868
  63 O :   -0.164942
  64 C :    0.017385
  65 C :   -0.037232
  66 C :   -0.146291
  67 C :   -0.015809
  68 S :    0.424796
  69 C :   -0.275740
  70 C :   -0.070727
  71 Br:    0.128138
  72 H :    0.041286
  73 H :    0.041398
  74 H :    0.039587
  75 H :    0.044709
  76 H :    0.029905
  77 H :    0.038644
  78 H :    0.025460
  79 H :    0.032567
  80 H :    0.033278
  81 H :    0.031418
  82 H :    0.025542
  83 H :    0.017291
  84 H :    0.022737
  85 H :    0.025501
  86 H :    0.036328
  87 H :    0.025585
  88 H :    0.032882
  89 H :    0.029699
  90 H :    0.014375
  91 H :    0.029207
  92 H :    0.030543
  93 H :    0.031382
  94 H :    0.018374
  95 H :    0.017422
  96 H :    0.019463
  97 H :    0.049826
  98 H :    0.052307
  99 H :    0.027498
 100 H :    0.035007
 101 H :    0.025034
 102 H :    0.025535
 103 H :    0.023705
 104 H :    0.032035
 105 H :    0.030920
 106 H :    0.043180
 107 H :    0.031715
 108 H :    0.027553
 109 H :    0.092964
 110 H :    0.036323
 111 H :    0.029105
 112 H :    0.039920
 113 H :    0.038889
 114 H :    0.039410
 115 H :    0.037363

  Mayer bond orders larger than 0.100000
B(  0-C ,  1-C ) :   1.6438 B(  0-C ,  6-C ) :   1.0099 B(  0-C , 18-C ) :   1.0490
B(  1-C ,  2-C ) :   1.1378 B(  1-C ,  4-C ) :   1.1486 B(  2-C ,  3-N ) :   2.9699
B(  4-C ,  5-N ) :   2.9743 B(  6-C ,  7-C ) :   1.2711 B(  6-C , 11-C ) :   1.4032
B(  7-C ,  8-C ) :   1.4205 B(  7-C , 16-C ) :   0.9355 B(  8-C ,  9-C ) :   1.2484
B(  8-C , 72-H ) :   1.0162 B(  9-C , 10-C ) :   1.3035 B(  9-C , 14-C ) :   1.1632
B( 10-C , 11-C ) :   1.3347 B( 10-C , 12-S ) :   1.0860 B( 11-C , 73-H ) :   0.9794
B( 12-S , 13-C ) :   1.0880 B( 13-C , 14-C ) :   1.6171 B( 13-C , 15-Br) :   1.0204
B( 14-C , 74-H ) :   0.9999 B( 16-C , 17-O ) :   2.1822 B( 16-C , 18-C ) :   0.9437
B( 18-C , 19-C ) :   1.6248 B( 19-C , 20-C ) :   1.0878 B( 19-C , 75-H ) :   0.9311
B( 20-C , 21-N ) :   1.1474 B( 20-C , 26-C ) :   1.4032 B( 21-N , 22-C ) :   0.9553
B( 21-N , 24-N ) :   1.1952 B( 22-C , 23-C ) :   1.1134 B( 22-C , 76-H ) :   0.9459
B( 22-C , 77-H ) :   0.9410 B( 23-C , 78-H ) :   0.9658 B( 23-C , 79-H ) :   0.9655
B( 23-C , 80-H ) :   0.9649 B( 24-N , 25-C ) :   1.5534 B( 25-C , 26-C ) :   1.3630
B( 25-C , 29-C ) :   1.0751 B( 26-C , 27-C ) :   1.0802 B( 27-C , 28-C ) :   1.0982
B( 27-C , 81-H ) :   0.9280 B( 27-C , 82-H ) :   0.9098 B( 28-C , 83-H ) :   0.9664
B( 28-C , 84-H ) :   0.9598 B( 28-C , 85-H ) :   0.9587 B( 29-C , 30-C ) :   1.0845
B( 29-C , 86-H ) :   0.9078 B( 29-C , 87-H ) :   0.9117 B( 30-C , 31-C ) :   1.0342
B( 30-C , 88-H ) :   0.9193 B( 30-C , 89-H ) :   0.9404 B( 31-C , 32-C ) :   1.8255
B( 31-C , 90-H ) :   0.9586 B( 32-C , 33-C ) :   1.1117 B( 32-C , 91-H ) :   0.9668
B( 33-C , 34-S ) :   1.1153 B( 33-C , 37-C ) :   1.5245 B( 34-S , 35-C ) :   1.1073
B( 35-C , 36-C ) :   1.5255 B( 35-C , 43-C ) :   1.0904 B( 36-C , 37-C ) :   1.3007
B( 36-C , 42-C ) :   1.0385 B( 37-C , 38-C ) :   1.0475 B( 38-C , 39-C ) :   1.0811
B( 38-C , 92-H ) :   0.9139 B( 38-C , 93-H ) :   0.9073 B( 39-C , 40-C ) :   1.0278
B( 39-C , 94-H ) :   0.9279 B( 39-C , 95-H ) :   0.9286 B( 40-C , 41-N ) :   1.1072
B( 40-C , 42-C ) :   1.0410 B( 40-C , 96-H ) :   0.9251 B( 41-N , 97-H ) :   0.9687
B( 41-N , 98-H ) :   0.9695 B( 42-C , 99-H ) :   0.8946 B( 42-C ,100-H ) :   0.9102
B( 43-C , 44-C ) :   1.7164 B( 43-C ,101-H ) :   0.9565 B( 44-C , 45-C ) :   1.1035
B( 44-C ,102-H ) :   0.9696 B( 45-C , 46-C ) :   1.7546 B( 45-C ,103-H ) :   0.9734
B( 46-C , 47-C ) :   1.0688 B( 46-C , 48-C ) :   1.0521 B( 47-C ,104-H ) :   0.9516
B( 47-C ,105-H ) :   0.9446 B( 47-C ,106-H ) :   0.9412 B( 48-C , 49-N ) :   0.9793
B( 48-C ,107-H ) :   0.9301 B( 48-C ,108-H ) :   0.9381 B( 49-N , 50-C ) :   1.3370
B( 49-N ,109-H ) :   0.9299 B( 50-C , 51-C ) :   1.4813 B( 50-C ,110-H ) :   0.9689
B( 51-C , 52-C ) :   1.2703 B( 51-C ,111-H ) :   0.9531 B( 52-C , 53-C ) :   1.4923
B( 52-C ,112-H ) :   0.9529 B( 53-C , 54-C ) :   1.0983 B( 53-C , 62-C ) :   0.9727
B( 54-C , 55-C ) :   1.5897 B( 54-C , 60-C ) :   1.0036 B( 55-C , 56-C ) :   1.1306
B( 55-C , 58-C ) :   1.1721 B( 56-C , 57-N ) :   2.9801 B( 58-C , 59-N ) :   3.0021
B( 60-C , 61-C ) :   1.2823 B( 60-C , 67-C ) :   1.4226 B( 61-C , 62-C ) :   0.9163
B( 61-C , 64-C ) :   1.4340 B( 62-C , 63-O ) :   2.2484 B( 64-C , 65-C ) :   1.2425
B( 64-C ,113-H ) :   1.0167 B( 65-C , 66-C ) :   1.3226 B( 65-C , 70-C ) :   1.1594
B( 66-C , 67-C ) :   1.3156 B( 66-C , 68-S ) :   1.0790 B( 67-C ,114-H ) :   0.9829
B( 68-S , 69-C ) :   1.0863 B( 69-C , 70-C ) :   1.6221 B( 69-C , 71-Br) :   1.0119
B( 70-C ,115-H ) :   1.0000

-----------------------------------------------------------------------------
         ABSORPTION SPECTRUM VIA TRANSITION ELECTRIC DIPOLE MOMENTS
-----------------------------------------------------------------------------
State   Energy  Wavelength   fosc         T2         TX        TY        TZ
        (cm-1)    (nm)                  (au**2)     (au)      (au)      (au)
-----------------------------------------------------------------------------
   0   22857.3    437.5   0.062070025   0.89399  -0.18680  -0.85521   0.35738
   1   23212.9    430.8   0.569252272   8.07331  -2.34130  -0.07889   1.60791
   2   23997.6    416.7   0.466431065   6.39874   0.48917  -2.45652   0.35353
   3   27108.7    368.9   0.159204971   1.93341  -0.10264   0.86682  -1.08236
   4   27339.8    365.8   0.053312008   0.64196  -0.47505   0.57336   0.29588
   5   27881.3    358.7   0.069887292   0.82520   0.78843   0.44797  -0.05386
   6   28480.5    351.1   0.341543345   3.94797  -1.61387   0.96630   0.64006
   7   28935.6    345.6   0.225117210   2.56125   1.07648   0.64088  -0.99584
   8   29238.5    342.0   0.007288028   0.08206   0.01553  -0.19512   0.20916
   9   30106.2    332.2   0.035351766   0.38657   0.44970   0.31596  -0.29070
  10   30320.6    329.8   1.745786902  18.95525   0.98348   1.90598  -3.78883
  11   30829.1    324.4   0.001051824   0.01123  -0.02575  -0.04000   0.09470
  12   31155.3    321.0   0.364153668   3.84794  -1.05578   1.60540  -0.39490
  13   31648.5    316.0   0.030791236   0.32029  -0.45581   0.31755   0.10813
  14   31919.0    313.3   0.255937181   2.63973   1.11367  -1.04972  -0.54549
  15   32324.6    309.4   0.208045281   2.11885   0.70651   0.25548  -1.24677
  16   32624.5    306.5   0.026080527   0.26318  -0.04823   0.21315  -0.46413
  17   33306.9    300.2   0.480950893   4.75381  -2.00150   0.38703   0.77331
  18   33723.0    296.5   0.135204415   1.31990   1.04521   0.26027  -0.39961
  19   34637.5    288.7   0.027935319   0.26551   0.26666   0.15451  -0.41295
  20   34895.1    286.6   0.020980585   0.19794   0.24296  -0.29823  -0.22354
  21   35605.8    280.9   0.324801081   3.00312   0.18233   0.74134  -1.55573
  22   35828.8    279.1   0.000158613   0.00146   0.00009   0.03162   0.02139
  23   36408.0    274.7   0.060849355   0.55022  -0.22047  -0.37412   0.60137
  24   36740.5    272.2   0.000023066   0.00021  -0.00065  -0.01021   0.01010
  25   37284.9    268.2   0.000049942   0.00044  -0.00763  -0.00995   0.01684
  26   37479.1    266.8   0.006753508   0.05932  -0.15423   0.18820   0.01076
  27   37595.1    266.0   0.000842462   0.00738   0.06569  -0.04914  -0.02543
  28   38591.8    259.1   0.002912705   0.02485  -0.01950   0.15582   0.01373
  29   38940.1    256.8   0.240940901   2.03699  -0.29225   1.39637   0.04171

FINAL SINGLE POINT ENERGY     -9125.500303349894

DIPOLE MOMENT
-------------
                                X             Y             Z
Electronic contribution:    160.47627    -122.03530    -183.86530
Nuclear contribution   :   -160.98727     122.20439     185.07879
                        -----------------------------------------
Total Dipole Moment    :     -0.51099       0.16909       1.21349
                        -----------------------------------------
Magnitude (a.u.)       :      1.32750
Magnitude (Debye)      :      3.37424

Rotational constants in cm-1:     0.000711     0.000131     0.000114
Rotational constants in MHz :    21.302407     3.932044     3.425161

                             ****ORCA TERMINATED NORMALLY****
TOTAL RUN TIME: 0 days 0 hours 13 minutes 31 seconds 432 msec
