                         Program Version 4.2.0 -  RELEASE  -
|  1> # ORCA input file
|  2> # SCF done       -188.565233471601          0.000701869922
|  3> ! CAM-B3LYP def2-SVP def2/J RIJCOSX Grid4 TightSCF
|  4> %maxcore 5000
|  5> %tddft
|  6>     Mode sTDDFT
|  7>     Ethresh 5.0
|  8>     maxcore 5000
|  9> end
| 10>
| 11> %pal
| 12>   nprocs 6
| 13>   end
| 14> * xyz 0 1
| 15>    C      -21.26797        -4.77643        -0.71418
| 16>    C      -20.49106        -5.90925        -0.79301
| 17>    C      -20.98843        -7.18855        -1.11013
| 18>    N      -21.32652        -8.25702        -1.36351
| 19>    C      -19.09876        -5.97078        -0.58572
| 20>    N      -17.96846        -6.11681        -0.43686
| 21>    C      -22.70987        -4.73115        -0.95240
| 22>    C      -23.15190        -3.39435        -0.80438
| 23>    C      -24.46311        -3.02352        -0.97018
| 24>    C      -25.38711        -4.02171        -1.29891
| 25>    C      -24.93741        -5.35432        -1.44338
| 26>    C      -23.60933        -5.72903        -1.27505
| 27>    S      -26.24185        -6.42838        -1.85178
| 28>    C      -27.35749        -5.08867        -1.82365
| 29>    C      -26.78600        -3.89870        -1.52381
| 30>   Br      -29.17234        -5.38790        -2.19388
| 31>    C      -21.99884        -2.53545        -0.46022
| 32>    O      -22.03279        -1.33527        -0.26688
| 33>    C      -20.83244        -3.43789        -0.40540
| 34>    C      -19.54703        -3.03740        -0.10254
| 35>    C      -19.16484        -1.72652         0.16928
| 36>    C      -17.86541        -1.36366         0.45954
| 37>    C      -17.40168        -0.05027         0.71727
| 38>    C      -16.06465         0.03113         0.95950
| 39>    C      -15.40155        -1.21772         0.91154
| 40>    S      -16.53892        -2.49932         0.54735
| 41>    C      -14.05954        -1.47100         1.10480
| 42>    C      -13.03368        -0.52263         1.37215
| 43>    C      -11.80075        -1.06565         1.49815
| 44>    C      -11.76910        -2.48733         1.34545
| 45>    S      -13.39953        -3.08346         1.02973
| 46>    C      -10.68043        -3.28470         1.40566
| 47>    C      -10.70940        -4.73644         1.23054
| 48>    S       -9.90119        -5.69714         2.63918
| 49>    C       -8.97518        -6.07633         1.21679
| 50>    C       -9.65107        -5.32273         0.32493
| 51>    C       -9.54199        -5.06620        -1.09635
| 52>    O      -10.33211        -4.40486        -1.73221
| 53>    O       -8.45566        -5.65244        -1.64173
| 54>    C       -8.33999        -5.50657        -3.06058
| 55>    C       -9.38168        -6.32342        -3.75880
| 56>    C       -9.42198        -7.66436        -3.65228
| 57>    C      -10.40935        -8.55960        -4.18169
| 58>    C      -10.17908        -9.86233        -3.90861
| 59>    C       -8.99000       -10.09686        -3.15792
| 60>    S       -8.18563        -8.59176        -2.79193
| 61>    C       -8.49253       -11.30626        -2.73202
| 62>    C       -9.07654       -12.59282        -2.81919
| 63>    C       -8.33938       -13.56546        -2.22217
| 64>    C       -7.13264       -13.11290        -1.62165
| 65>    S       -6.95955       -11.39849        -1.88451
| 66>    C       -6.20884       -13.94040        -1.01380
| 67>    C       -4.97685       -13.64453        -0.42949
| 68>    C       -4.40526       -12.46746         0.01057
| 69>    C       -4.92752       -11.19032         0.38341
| 70>    C       -6.20969       -10.92253         0.81937
| 71>    C       -6.67397        -9.64198         1.15564
| 72>    N       -7.11538        -8.61172         1.41030
| 73>    C       -7.16325       -11.93058         1.05498
| 74>    N       -7.95305       -12.73524         1.27177
| 75>    C       -3.81369       -10.24472         0.42085
| 76>    C       -2.60396       -10.96910         0.28696
| 77>    C       -2.92329       -12.40148         0.09954
| 78>    O       -2.14536       -13.32407         0.00029
| 79>    C       -1.37356       -10.36203         0.31768
| 80>    C       -1.33666        -8.97049         0.47024
| 81>    C       -2.55088        -8.25602         0.58373
| 82>    C       -3.79725        -8.87296         0.56672
| 83>    S       -2.27450        -6.54795         0.74566
| 84>    C       -0.55282        -6.81454         0.66449
| 85>    C       -0.20198        -8.11390         0.52215
| 86>   Br        0.61559        -5.35028         0.77281
| 87>    H      -24.76774        -1.99555        -0.85067
| 88>    H      -23.31905        -6.75909        -1.39597
| 89>    H      -27.32602        -2.97143        -1.46331
| 90>    H      -18.76606        -3.78746        -0.07513
| 91>    H      -19.91430        -0.94856         0.14600
| 92>    H      -18.07437         0.78880         0.71016
| 93>    H      -15.54270         0.94694         1.17095
| 94>    H      -13.24552         0.52802         1.45670
| 95>    H      -10.90128        -0.51060         1.69595
| 96>    H       -9.71309        -2.83672         1.58632
| 97>    H      -11.71395        -5.12094         1.05506
| 98>    H       -8.14554        -6.75501         1.15817
| 99>    H       -7.33301        -5.86714        -3.28912
|100>    H       -8.43945        -4.44997        -3.32515
|101>    H      -10.16903        -5.80368        -4.28181
|102>    H      -11.25108        -8.18422        -4.73549
|103>    H      -10.81123       -10.67255        -4.22467
|104>    H      -10.02622       -12.75617        -3.29531
|105>    H       -8.62706       -14.60025        -2.17029
|106>    H       -6.44501       -14.99519        -1.08700
|107>    H       -4.29109       -14.48607        -0.36906
|108>    H       -0.46622       -10.93787         0.22455
|109>    H       -4.69697        -8.28679         0.65188
|110>    H        0.81421        -8.45725         0.45559
|111> *
|112>
|113>                          ****END OF INPUT****

CARTESIAN COORDINATES (ANGSTROEM)
---------------------------------
  C    -21.267970   -4.776430   -0.714180
  C    -20.491060   -5.909250   -0.793010
  C    -20.988430   -7.188550   -1.110130
  N    -21.326520   -8.257020   -1.363510
  C    -19.098760   -5.970780   -0.585720
  N    -17.968460   -6.116810   -0.436860
  C    -22.709870   -4.731150   -0.952400
  C    -23.151900   -3.394350   -0.804380
  C    -24.463110   -3.023520   -0.970180
  C    -25.387110   -4.021710   -1.298910
  C    -24.937410   -5.354320   -1.443380
  C    -23.609330   -5.729030   -1.275050
  S    -26.241850   -6.428380   -1.851780
  C    -27.357490   -5.088670   -1.823650
  C    -26.786000   -3.898700   -1.523810
  Br   -29.172340   -5.387900   -2.193880
  C    -21.998840   -2.535450   -0.460220
  O    -22.032790   -1.335270   -0.266880
  C    -20.832440   -3.437890   -0.405400
  C    -19.547030   -3.037400   -0.102540
  C    -19.164840   -1.726520    0.169280
  C    -17.865410   -1.363660    0.459540
  C    -17.401680   -0.050270    0.717270
  C    -16.064650    0.031130    0.959500
  C    -15.401550   -1.217720    0.911540
  S    -16.538920   -2.499320    0.547350
  C    -14.059540   -1.471000    1.104800
  C    -13.033680   -0.522630    1.372150
  C    -11.800750   -1.065650    1.498150
  C    -11.769100   -2.487330    1.345450
  S    -13.399530   -3.083460    1.029730
  C    -10.680430   -3.284700    1.405660
  C    -10.709400   -4.736440    1.230540
  S     -9.901190   -5.697140    2.639180
  C     -8.975180   -6.076330    1.216790
  C     -9.651070   -5.322730    0.324930
  C     -9.541990   -5.066200   -1.096350
  O    -10.332110   -4.404860   -1.732210
  O     -8.455660   -5.652440   -1.641730
  C     -8.339990   -5.506570   -3.060580
  C     -9.381680   -6.323420   -3.758800
  C     -9.421980   -7.664360   -3.652280
  C    -10.409350   -8.559600   -4.181690
  C    -10.179080   -9.862330   -3.908610
  C     -8.990000  -10.096860   -3.157920
  S     -8.185630   -8.591760   -2.791930
  C     -8.492530  -11.306260   -2.732020
  C     -9.076540  -12.592820   -2.819190
  C     -8.339380  -13.565460   -2.222170
  C     -7.132640  -13.112900   -1.621650
  S     -6.959550  -11.398490   -1.884510
  C     -6.208840  -13.940400   -1.013800
  C     -4.976850  -13.644530   -0.429490
  C     -4.405260  -12.467460    0.010570
  C     -4.927520  -11.190320    0.383410
  C     -6.209690  -10.922530    0.819370
  C     -6.673970   -9.641980    1.155640
  N     -7.115380   -8.611720    1.410300
  C     -7.163250  -11.930580    1.054980
  N     -7.953050  -12.735240    1.271770
  C     -3.813690  -10.244720    0.420850
  C     -2.603960  -10.969100    0.286960
  C     -2.923290  -12.401480    0.099540
  O     -2.145360  -13.324070    0.000290
  C     -1.373560  -10.362030    0.317680
  C     -1.336660   -8.970490    0.470240
  C     -2.550880   -8.256020    0.583730
  C     -3.797250   -8.872960    0.566720
  S     -2.274500   -6.547950    0.745660
  C     -0.552820   -6.814540    0.664490
  C     -0.201980   -8.113900    0.522150
  Br     0.615590   -5.350280    0.772810
  H    -24.767740   -1.995550   -0.850670
  H    -23.319050   -6.759090   -1.395970
  H    -27.326020   -2.971430   -1.463310
  H    -18.766060   -3.787460   -0.075130
  H    -19.914300   -0.948560    0.146000
  H    -18.074370    0.788800    0.710160
  H    -15.542700    0.946940    1.170950
  H    -13.245520    0.528020    1.456700
  H    -10.901280   -0.510600    1.695950
  H     -9.713090   -2.836720    1.586320
  H    -11.713950   -5.120940    1.055060
  H     -8.145540   -6.755010    1.158170
  H     -7.333010   -5.867140   -3.289120
  H     -8.439450   -4.449970   -3.325150
  H    -10.169030   -5.803680   -4.281810
  H    -11.251080   -8.184220   -4.735490
  H    -10.811230  -10.672550   -4.224670
  H    -10.026220  -12.756170   -3.295310
  H     -8.627060  -14.600250   -2.170290
  H     -6.445010  -14.995190   -1.087000
  H     -4.291090  -14.486070   -0.369060
  H     -0.466220  -10.937870    0.224550
  H     -4.696970   -8.286790    0.651880
  H      0.814210   -8.457250    0.455590

 Total Charge           Charge          ....    0
 Multiplicity           Mult            ....    1
 Number of Electrons    NEL             ....  596
 Basis Dimension        Dim             .... 1192

ORBITAL ENERGIES
----------------

  NO   OCC          E(Eh)            E(eV)
   0   2.0000    -482.882068    -13139.8891
   1   2.0000    -482.876865    -13139.7475
   2   2.0000     -88.970625     -2421.0138
   3   2.0000     -88.969783     -2420.9909
   4   2.0000     -88.965410     -2420.8719
   5   2.0000     -88.964415     -2420.8448
   6   2.0000     -88.959426     -2420.7090
   7   2.0000     -88.956675     -2420.6342
   8   2.0000     -88.939303     -2420.1615
   9   2.0000     -62.559754     -1702.3374
  10   2.0000     -62.554573     -1702.1965
  11   2.0000     -56.393692     -1534.5504
  12   2.0000     -56.391002     -1534.4772
  13   2.0000     -56.390961     -1534.4761
  14   2.0000     -56.388509     -1534.4093
  15   2.0000     -56.385819     -1534.3361
  16   2.0000     -56.385781     -1534.3351
  17   2.0000     -19.262521      -524.1598
  18   2.0000     -19.205981      -522.6213
  19   2.0000     -19.204871      -522.5911
  20   2.0000     -19.199314      -522.4399
  21   2.0000     -14.416786      -392.3007
  22   2.0000     -14.403236      -391.9320
  23   2.0000     -14.399943      -391.8424
  24   2.0000     -14.397929      -391.7876
  25   2.0000     -10.401031      -283.0264
  26   2.0000     -10.355632      -281.7911
  27   2.0000     -10.353065      -281.7212
  28   2.0000     -10.349600      -281.6269
  29   2.0000     -10.348159      -281.5877
  30   2.0000     -10.342951      -281.4460
  31   2.0000     -10.342504      -281.4338
  32   2.0000     -10.335230      -281.2359
  33   2.0000     -10.332411      -281.1592
  34   2.0000     -10.332060      -281.1497
  35   2.0000     -10.327170      -281.0166
  36   2.0000     -10.327092      -281.0145
  37   2.0000     -10.325629      -280.9746
  38   2.0000     -10.324128      -280.9338
  39   2.0000     -10.323432      -280.9149
  40   2.0000     -10.323312      -280.9116
  41   2.0000     -10.321713      -280.8681
  42   2.0000     -10.321326      -280.8576
  43   2.0000     -10.320988      -280.8484
  44   2.0000     -10.319391      -280.8049
  45   2.0000     -10.319349      -280.8038
  46   2.0000     -10.312557      -280.6189
  47   2.0000     -10.311758      -280.5972
  48   2.0000     -10.310807      -280.5713
  49   2.0000     -10.309105      -280.5250
  50   2.0000     -10.305937      -280.4388
  51   2.0000     -10.305690      -280.4321
  52   2.0000     -10.304815      -280.4083
  53   2.0000     -10.304199      -280.3915
  54   2.0000     -10.303829      -280.3814
  55   2.0000     -10.303735      -280.3789
  56   2.0000     -10.302307      -280.3400
  57   2.0000     -10.301863      -280.3280
  58   2.0000     -10.301364      -280.3144
  59   2.0000     -10.301263      -280.3116
  60   2.0000     -10.300207      -280.2829
  61   2.0000     -10.299564      -280.2654
  62   2.0000     -10.297802      -280.2174
  63   2.0000     -10.297089      -280.1980
  64   2.0000     -10.294993      -280.1410
  65   2.0000     -10.294610      -280.1306
  66   2.0000     -10.294341      -280.1233
  67   2.0000     -10.293249      -280.0936
  68   2.0000     -10.291828      -280.0549
  69   2.0000     -10.291247      -280.0391
  70   2.0000     -10.291090      -280.0348
  71   2.0000     -10.288590      -279.9668
  72   2.0000     -10.287304      -279.9318
  73   2.0000     -10.286267      -279.9035
  74   2.0000     -10.284358      -279.8516
  75   2.0000     -10.284253      -279.8488
  76   2.0000     -10.283418      -279.8260
  77   2.0000     -10.277080      -279.6536
  78   2.0000     -10.275326      -279.6058
  79   2.0000     -10.271003      -279.4882
  80   2.0000      -8.789163      -239.1653
  81   2.0000      -8.783994      -239.0246
  82   2.0000      -8.066678      -219.5055
  83   2.0000      -8.064780      -219.4538
  84   2.0000      -8.061746      -219.3713
  85   2.0000      -8.060373      -219.3339
  86   2.0000      -8.055805      -219.2096
  87   2.0000      -8.052670      -219.1243
  88   2.0000      -8.035476      -218.6564
  89   2.0000      -6.625400      -180.2863
  90   2.0000      -6.620232      -180.1457
  91   2.0000      -6.610906      -179.8919
  92   2.0000      -6.610760      -179.8879
  93   2.0000      -6.605750      -179.7516
  94   2.0000      -6.605575      -179.7468
  95   2.0000      -6.036373      -164.2581
  96   2.0000      -6.034264      -164.2007
  97   2.0000      -6.032112      -164.1421
  98   2.0000      -6.031508      -164.1257
  99   2.0000      -6.030107      -164.0876
 100   2.0000      -6.030085      -164.0870
 101   2.0000      -6.027889      -164.0272
 102   2.0000      -6.027438      -164.0149
 103   2.0000      -6.026395      -163.9865
 104   2.0000      -6.025797      -163.9703
 105   2.0000      -6.025549      -163.9635
 106   2.0000      -6.022515      -163.8810
 107   2.0000      -6.022264      -163.8741
 108   2.0000      -6.021594      -163.8559
 109   2.0000      -6.021511      -163.8536
 110   2.0000      -6.018285      -163.7658
 111   2.0000      -6.016587      -163.7197
 112   2.0000      -6.013799      -163.6438
 113   2.0000      -6.005117      -163.4075
 114   2.0000      -6.002059      -163.3243
 115   2.0000      -5.995485      -163.1454
 116   2.0000      -2.741311       -74.5949
 117   2.0000      -2.737178       -74.4824
 118   2.0000      -2.737099       -74.4803
 119   2.0000      -2.736139       -74.4541
 120   2.0000      -2.732021       -74.3421
 121   2.0000      -2.731924       -74.3394
 122   2.0000      -2.725568       -74.1665
 123   2.0000      -2.725549       -74.1660
 124   2.0000      -2.720398       -74.0258
 125   2.0000      -2.720394       -74.0257
 126   2.0000      -1.192326       -32.4449
 127   2.0000      -1.120295       -30.4848
 128   2.0000      -1.112794       -30.2807
 129   2.0000      -1.097321       -29.8596
 130   2.0000      -1.018214       -27.7070
 131   2.0000      -1.014588       -27.6083
 132   2.0000      -1.010193       -27.4888
 133   2.0000      -1.008934       -27.4545
 134   2.0000      -1.008677       -27.4475
 135   2.0000      -0.998533       -27.1715
 136   2.0000      -0.994085       -27.0504
 137   2.0000      -0.990807       -26.9612
 138   2.0000      -0.986666       -26.8486
 139   2.0000      -0.981661       -26.7124
 140   2.0000      -0.980521       -26.6813
 141   2.0000      -0.978164       -26.6172
 142   2.0000      -0.973848       -26.4997
 143   2.0000      -0.936317       -25.4785
 144   2.0000      -0.930086       -25.3089
 145   2.0000      -0.916792       -24.9472
 146   2.0000      -0.909753       -24.7556
 147   2.0000      -0.902315       -24.5532
 148   2.0000      -0.900109       -24.4932
 149   2.0000      -0.894919       -24.3520
 150   2.0000      -0.890437       -24.2300
 151   2.0000      -0.879385       -23.9293
 152   2.0000      -0.877530       -23.8788
 153   2.0000      -0.872660       -23.7463
 154   2.0000      -0.867996       -23.6194
 155   2.0000      -0.867277       -23.5998
 156   2.0000      -0.861691       -23.4478
 157   2.0000      -0.847936       -23.0735
 158   2.0000      -0.842364       -22.9219
 159   2.0000      -0.837463       -22.7885
 160   2.0000      -0.833515       -22.6811
 161   2.0000      -0.827055       -22.5053
 162   2.0000      -0.822147       -22.3718
 163   2.0000      -0.816364       -22.2144
 164   2.0000      -0.803441       -21.8627
 165   2.0000      -0.800629       -21.7862
 166   2.0000      -0.779386       -21.2082
 167   2.0000      -0.773339       -21.0436
 168   2.0000      -0.758887       -20.6504
 169   2.0000      -0.747964       -20.3531
 170   2.0000      -0.746751       -20.3201
 171   2.0000      -0.741334       -20.1727
 172   2.0000      -0.724449       -19.7133
 173   2.0000      -0.714091       -19.4314
 174   2.0000      -0.702277       -19.1099
 175   2.0000      -0.696020       -18.9397
 176   2.0000      -0.694455       -18.8971
 177   2.0000      -0.682361       -18.5680
 178   2.0000      -0.680805       -18.5256
 179   2.0000      -0.677942       -18.4478
 180   2.0000      -0.675828       -18.3902
 181   2.0000      -0.665154       -18.0998
 182   2.0000      -0.658353       -17.9147
 183   2.0000      -0.653722       -17.7887
 184   2.0000      -0.648382       -17.6434
 185   2.0000      -0.644775       -17.5452
 186   2.0000      -0.643972       -17.5234
 187   2.0000      -0.642083       -17.4720
 188   2.0000      -0.635371       -17.2893
 189   2.0000      -0.633048       -17.2261
 190   2.0000      -0.624276       -16.9874
 191   2.0000      -0.623104       -16.9555
 192   2.0000      -0.617248       -16.7962
 193   2.0000      -0.615794       -16.7566
 194   2.0000      -0.609962       -16.5979
 195   2.0000      -0.607948       -16.5431
 196   2.0000      -0.601089       -16.3565
 197   2.0000      -0.590307       -16.0631
 198   2.0000      -0.586134       -15.9495
 199   2.0000      -0.584918       -15.9164
 200   2.0000      -0.581408       -15.8209
 201   2.0000      -0.575180       -15.6515
 202   2.0000      -0.572761       -15.5856
 203   2.0000      -0.569530       -15.4977
 204   2.0000      -0.561026       -15.2663
 205   2.0000      -0.550114       -14.9694
 206   2.0000      -0.546863       -14.8809
 207   2.0000      -0.544829       -14.8255
 208   2.0000      -0.539252       -14.6738
 209   2.0000      -0.534350       -14.5404
 210   2.0000      -0.533913       -14.5285
 211   2.0000      -0.532319       -14.4851
 212   2.0000      -0.530233       -14.4284
 213   2.0000      -0.524780       -14.2800
 214   2.0000      -0.524491       -14.2721
 215   2.0000      -0.521862       -14.2006
 216   2.0000      -0.519415       -14.1340
 217   2.0000      -0.518807       -14.1175
 218   2.0000      -0.516712       -14.0605
 219   2.0000      -0.514266       -13.9939
 220   2.0000      -0.513643       -13.9769
 221   2.0000      -0.511646       -13.9226
 222   2.0000      -0.507580       -13.8120
 223   2.0000      -0.507164       -13.8006
 224   2.0000      -0.503466       -13.7000
 225   2.0000      -0.501561       -13.6482
 226   2.0000      -0.500345       -13.6151
 227   2.0000      -0.499522       -13.5927
 228   2.0000      -0.495787       -13.4910
 229   2.0000      -0.494182       -13.4474
 230   2.0000      -0.493714       -13.4346
 231   2.0000      -0.490888       -13.3577
 232   2.0000      -0.483948       -13.1689
 233   2.0000      -0.481562       -13.1040
 234   2.0000      -0.479559       -13.0495
 235   2.0000      -0.478480       -13.0201
 236   2.0000      -0.478272       -13.0145
 237   2.0000      -0.476430       -12.9643
 238   2.0000      -0.473129       -12.8745
 239   2.0000      -0.471391       -12.8272
 240   2.0000      -0.469448       -12.7743
 241   2.0000      -0.465128       -12.6568
 242   2.0000      -0.458305       -12.4711
 243   2.0000      -0.458134       -12.4665
 244   2.0000      -0.451935       -12.2978
 245   2.0000      -0.449173       -12.2226
 246   2.0000      -0.446186       -12.1413
 247   2.0000      -0.445522       -12.1233
 248   2.0000      -0.445110       -12.1121
 249   2.0000      -0.439890       -11.9700
 250   2.0000      -0.438891       -11.9428
 251   2.0000      -0.437223       -11.8974
 252   2.0000      -0.435698       -11.8560
 253   2.0000      -0.434921       -11.8348
 254   2.0000      -0.434048       -11.8111
 255   2.0000      -0.433261       -11.7896
 256   2.0000      -0.429604       -11.6901
 257   2.0000      -0.428864       -11.6700
 258   2.0000      -0.426508       -11.6059
 259   2.0000      -0.426251       -11.5989
 260   2.0000      -0.421472       -11.4688
 261   2.0000      -0.419684       -11.4202
 262   2.0000      -0.417565       -11.3625
 263   2.0000      -0.414897       -11.2899
 264   2.0000      -0.411822       -11.2062
 265   2.0000      -0.411731       -11.2038
 266   2.0000      -0.408395       -11.1130
 267   2.0000      -0.407984       -11.1018
 268   2.0000      -0.401355       -10.9214
 269   2.0000      -0.394080       -10.7235
 270   2.0000      -0.393315       -10.7027
 271   2.0000      -0.392132       -10.6704
 272   2.0000      -0.389072       -10.5872
 273   2.0000      -0.384522       -10.4634
 274   2.0000      -0.381698       -10.3865
 275   2.0000      -0.376349       -10.2410
 276   2.0000      -0.371670       -10.1137
 277   2.0000      -0.370851       -10.0914
 278   2.0000      -0.366947        -9.9851
 279   2.0000      -0.366387        -9.9699
 280   2.0000      -0.358546        -9.7565
 281   2.0000      -0.355096        -9.6627
 282   2.0000      -0.350879        -9.5479
 283   2.0000      -0.349223        -9.5028
 284   2.0000      -0.343720        -9.3531
 285   2.0000      -0.337413        -9.1815
 286   2.0000      -0.332956        -9.0602
 287   2.0000      -0.326968        -8.8973
 288   2.0000      -0.319461        -8.6930
 289   2.0000      -0.308884        -8.4052
 290   2.0000      -0.305905        -8.3241
 291   2.0000      -0.303298        -8.2532
 292   2.0000      -0.302196        -8.2232
 293   2.0000      -0.288638        -7.8543
 294   2.0000      -0.286065        -7.7842
 295   2.0000      -0.280609        -7.6358
 296   2.0000      -0.246795        -6.7156
 297   2.0000      -0.230761        -6.2793
 298   0.0000      -0.103233        -2.8091
 299   0.0000      -0.100883        -2.7452
 300   0.0000      -0.059027        -1.6062
 301   0.0000      -0.054596        -1.4856
 302   0.0000      -0.036969        -1.0060

MULLIKEN ATOMIC CHARGES
-----------------------
   0 C :    0.330376
   1 C :   -0.364747
   2 C :   -0.188210
   3 N :    0.136698
   4 C :   -0.193465
   5 N :    0.132512
   6 C :    0.012201
   7 C :   -0.008518
   8 C :   -0.078488
   9 C :    0.118135
  10 C :   -0.090384
  11 C :   -0.026565
  12 S :    0.178876
  13 C :   -0.124016
  14 C :    0.037139
  15 Br:    0.014053
  16 C :    0.138281
  17 O :   -0.166551
  18 C :   -0.090079
  19 C :   -0.036896
  20 C :   -0.030778
  21 C :    0.007633
  22 C :    0.025486
  23 C :    0.047329
  24 C :   -0.059681
  25 S :    0.113148
  26 C :   -0.035188
  27 C :    0.026309
  28 C :    0.060205
  29 C :   -0.012077
  30 S :    0.113548
  31 C :    0.062254
  32 C :   -0.119799
  33 S :    0.059183
  34 C :    0.019365
  35 C :   -0.053536
  36 C :    0.197154
  37 O :   -0.215028
  38 O :   -0.309801
  39 C :    0.298926
  40 C :   -0.144163
  41 C :   -0.007437
  42 C :    0.076051
  43 C :    0.026675
  44 C :   -0.027429
  45 S :    0.112498
  46 C :   -0.067365
  47 C :    0.049484
  48 C :    0.049489
  49 C :   -0.024075
  50 S :    0.119957
  51 C :   -0.006759
  52 C :    0.026245
  53 C :   -0.137260
  54 C :    0.279739
  55 C :   -0.379329
  56 C :   -0.146556
  57 N :    0.150637
  58 C :   -0.207441
  59 N :    0.165456
  60 C :    0.013568
  61 C :    0.004142
  62 C :    0.131482
  63 O :   -0.147383
  64 C :   -0.073127
  65 C :    0.108867
  66 C :   -0.085532
  67 C :   -0.035193
  68 S :    0.170806
  69 C :   -0.125991
  70 C :    0.039278
  71 Br:    0.014561
  72 H :   -0.015895
  73 H :   -0.009636
  74 H :   -0.006710
  75 H :    0.013292
  76 H :    0.016734
  77 H :   -0.000124
  78 H :   -0.006906
  79 H :   -0.004689
  80 H :   -0.000792
  81 H :    0.004659
  82 H :    0.073259
  83 H :   -0.000393
  84 H :    0.034818
  85 H :    0.030953
  86 H :    0.024848
  87 H :    0.008001
  88 H :    0.001377
  89 H :   -0.005043
  90 H :   -0.001431
  91 H :    0.001171
  92 H :    0.026578
  93 H :   -0.012360
  94 H :   -0.016103
  95 H :   -0.004505
Sum of atomic charges:   -0.0000000

LOEWDIN ATOMIC CHARGES
----------------------
   0 C :    0.073627
   1 C :   -0.156658
   2 C :   -0.018615
   3 N :   -0.069701
   4 C :   -0.021281
   5 N :   -0.066556
   6 C :   -0.018155
   7 C :   -0.048460
   8 C :    0.017074
   9 C :   -0.035878
  10 C :   -0.145827
  11 C :   -0.013545
  12 S :    0.426681
  13 C :   -0.274854
  14 C :   -0.071086
  15 Br:    0.129483
  16 C :    0.082204
  17 O :   -0.158754
  18 C :   -0.110033
  19 C :    0.052509
  20 C :   -0.077344
  21 C :   -0.101149
  22 C :   -0.042697
  23 C :   -0.005668
  24 C :   -0.196209
  25 S :    0.410264
  26 C :   -0.144660
  27 C :   -0.033242
  28 C :   -0.004877
  29 C :   -0.146164
  30 S :    0.395660
  31 C :   -0.029701
  32 C :   -0.069209
  33 S :    0.299119
  34 C :   -0.056938
  35 C :   -0.147461
  36 C :    0.078787
  37 O :   -0.187563
  38 O :   -0.098596
  39 C :    0.079642
  40 C :   -0.040571
  41 C :   -0.139545
  42 C :    0.002866
  43 C :   -0.029561
  44 C :   -0.137287
  45 S :    0.389898
  46 C :   -0.195047
  47 C :   -0.014663
  48 C :   -0.028749
  49 C :   -0.108681
  50 S :    0.461747
  51 C :   -0.069617
  52 C :    0.041744
  53 C :   -0.108790
  54 C :    0.040583
  55 C :   -0.173752
  56 C :    0.007858
  57 N :   -0.072568
  58 C :   -0.031058
  59 N :   -0.057854
  60 C :   -0.012963
  61 C :   -0.053694
  62 C :    0.084214
  63 O :   -0.146350
  64 C :    0.021839
  65 C :   -0.039647
  66 C :   -0.144480
  67 C :   -0.023429
  68 S :    0.421838
  69 C :   -0.276736
  70 C :   -0.069118
  71 Br:    0.129330
  72 H :    0.038608
  73 H :    0.039945
  74 H :    0.037389
  75 H :    0.031916
  76 H :    0.038158
  77 H :    0.038637
  78 H :    0.034691
  79 H :    0.034931
  80 H :    0.038692
  81 H :    0.037181
  82 H :    0.033127
  83 H :    0.014286
  84 H :    0.030605
  85 H :    0.030135
  86 H :    0.040449
  87 H :    0.042470
  88 H :    0.037952
  89 H :    0.036099
  90 H :    0.038784
  91 H :    0.041972
  92 H :    0.047339
  93 H :    0.040069
  94 H :    0.036429
  95 H :    0.038210

  Mayer bond orders larger than 0.100000
B(  0-C ,  1-C ) :   1.5834 B(  0-C ,  6-C ) :   0.9895 B(  0-C , 18-C ) :   1.1118
B(  1-C ,  2-C ) :   1.1500 B(  1-C ,  4-C ) :   1.1549 B(  2-C ,  3-N ) :   2.9619
B(  4-C ,  5-N ) :   2.9564 B(  6-C ,  7-C ) :   1.2807 B(  6-C , 11-C ) :   1.4181
B(  7-C ,  8-C ) :   1.4310 B(  7-C , 16-C ) :   0.9347 B(  8-C ,  9-C ) :   1.2390
B(  8-C , 72-H ) :   1.0164 B(  9-C , 10-C ) :   1.3175 B(  9-C , 14-C ) :   1.1572
B( 10-C , 11-C ) :   1.3219 B( 10-C , 12-S ) :   1.0813 B( 11-C , 73-H ) :   0.9790
B( 12-S , 13-C ) :   1.0861 B( 13-C , 14-C ) :   1.6207 B( 13-C , 15-Br) :   1.0138
B( 14-C , 74-H ) :   1.0011 B( 16-C , 17-O ) :   2.1832 B( 16-C , 18-C ) :   0.9672
B( 18-C , 19-C ) :   1.4820 B( 19-C , 20-C ) :   1.2540 B( 19-C , 75-H ) :   0.9449
B( 20-C , 21-C ) :   1.4226 B( 20-C , 76-H ) :   0.9782 B( 21-C , 22-C ) :   1.1689
B( 21-C , 25-S ) :   1.0894 B( 22-C , 23-C ) :   1.5572 B( 22-C , 77-H ) :   1.0024
B( 23-C , 24-C ) :   1.1994 B( 23-C , 78-H ) :   0.9939 B( 24-C , 25-S ) :   1.0369
B( 24-C , 26-C ) :   1.5045 B( 26-C , 27-C ) :   1.1608 B( 26-C , 30-S ) :   1.0846
B( 27-C , 28-C ) :   1.6364 B( 27-C , 79-H ) :   0.9938 B( 28-C , 29-C ) :   1.0972
B( 28-C , 80-H ) :   0.9970 B( 29-C , 30-S ) :   1.0081 B( 29-C , 31-C ) :   1.7144
B( 31-C , 32-C ) :   0.9778 B( 31-C , 81-H ) :   0.9643 B( 32-C , 33-S ) :   0.9909
B( 32-C , 35-C ) :   0.9725 B( 32-C , 82-H ) :   0.9178 B( 33-S , 34-C ) :   1.1008
B( 34-C , 35-C ) :   1.6323 B( 34-C , 83-H ) :   0.9853 B( 35-C , 36-C ) :   1.0009
B( 36-C , 37-O ) :   2.1159 B( 36-C , 38-O ) :   1.2043 B( 38-O , 39-C ) :   0.9311
B( 39-C , 40-C ) :   1.0614 B( 39-C , 84-H ) :   0.9391 B( 39-C , 85-H ) :   0.9337
B( 40-C , 41-C ) :   1.7536 B( 40-C , 86-H ) :   0.9670 B( 41-C , 42-C ) :   1.0938
B( 41-C , 45-S ) :   1.0125 B( 42-C , 43-C ) :   1.6507 B( 42-C , 87-H ) :   0.9973
B( 43-C , 44-C ) :   1.1507 B( 43-C , 88-H ) :   0.9946 B( 44-C , 45-S ) :   1.0791
B( 44-C , 46-C ) :   1.5231 B( 46-C , 47-C ) :   1.1823 B( 46-C , 50-S ) :   1.0296
B( 47-C , 48-C ) :   1.5878 B( 47-C , 89-H ) :   0.9912 B( 48-C , 49-C ) :   1.1591
B( 48-C , 90-H ) :   0.9982 B( 49-C , 50-S ) :   1.1121 B( 49-C , 51-C ) :   1.4589
B( 51-C , 52-C ) :   1.3215 B( 51-C , 91-H ) :   0.9542 B( 52-C , 53-C ) :   1.4802
B( 52-C , 92-H ) :   0.9297 B( 53-C , 54-C ) :   1.1426 B( 53-C , 62-C ) :   0.9567
B( 54-C , 55-C ) :   1.5314 B( 54-C , 60-C ) :   1.0053 B( 55-C , 56-C ) :   1.1553
B( 55-C , 58-C ) :   1.1664 B( 56-C , 57-N ) :   2.9279 B( 57-N , 83-H ) :   0.1320
B( 58-C , 59-N ) :   3.0101 B( 60-C , 61-C ) :   1.2778 B( 60-C , 67-C ) :   1.4293
B( 61-C , 62-C ) :   0.9155 B( 61-C , 64-C ) :   1.4355 B( 62-C , 63-O ) :   2.2581
B( 64-C , 65-C ) :   1.2426 B( 64-C , 93-H ) :   1.0167 B( 65-C , 66-C ) :   1.3231
B( 65-C , 70-C ) :   1.1582 B( 66-C , 67-C ) :   1.3118 B( 66-C , 68-S ) :   1.0810
B( 67-C , 94-H ) :   0.9846 B( 68-S , 69-C ) :   1.0829 B( 69-C , 70-C ) :   1.6251
B( 69-C , 71-Br) :   1.0133 B( 70-C , 95-H ) :   1.0008

-----------------------------------------------------------------------------
         ABSORPTION SPECTRUM VIA TRANSITION ELECTRIC DIPOLE MOMENTS
-----------------------------------------------------------------------------
State   Energy  Wavelength   fosc         T2         TX        TY        TZ
        (cm-1)    (nm)                  (au**2)     (au)      (au)      (au)
-----------------------------------------------------------------------------
   0   14060.4    711.2   1.386864779  32.47224  -5.49143  -0.84359  -1.26681
   1   15744.7    635.1   0.589864791  12.33368   2.26384  -1.59065   2.16299
   2   18684.1    535.2   0.000052363   0.00092   0.01420  -0.01571  -0.02177
   3   22961.3    435.5   0.141001372   2.02163  -1.04330   0.96583  -0.01793
   4   23033.1    434.2   0.022087136   0.31569  -0.10260   0.54809  -0.06901
   5   23128.8    432.4   0.051168222   0.72832  -0.03386   0.81678  -0.24504
   6   24543.1    407.4   0.128596406   1.72494   0.92605  -0.89944  -0.24165
   7   25391.0    393.8   0.237338835   3.07727  -1.17188   1.30514   0.02372
   8   26317.7    380.0   0.194258345   2.43001   1.52727   0.14940   0.27412
   9   26712.2    374.4   0.034492528   0.42510   0.12623   0.54875   0.32870
  10   26901.0    371.7   0.051224298   0.62688  -0.41265   0.67572   0.00107
  11   27350.7    365.6   0.032098416   0.38636   0.32207   0.53060   0.03315
  12   27421.3    364.7   0.000037712   0.00045  -0.01924  -0.00606  -0.00678
  13   28819.2    347.0   0.007050950   0.08055   0.14241   0.24196  -0.04149
  14   29075.9    343.9   0.030080567   0.34059   0.09801  -0.56952  -0.08141
  15   29373.6    340.4   0.058829056   0.65934   0.06512   0.80406   0.09267
  16   29462.1    339.4   0.000380690   0.00425  -0.04000   0.04311  -0.02820
  17   30054.2    332.7   0.332532727   3.64254   0.50775  -1.82050  -0.26556
  18   30292.7    330.1   0.264951032   2.87941  -0.40164   1.61063   0.35209
  19   31493.2    317.5   0.104743005   1.09492   0.45531   0.78639   0.51885
  20   31794.4    314.5   0.001770756   0.01834   0.13212   0.01301   0.02667
  21   31949.7    313.0   0.005024411   0.05177   0.06028  -0.21225  -0.05559
  22   32003.6    312.5   0.086440988   0.88919  -0.16154   0.91301   0.17181
  23   32174.9    310.8   1.006020158  10.29354   2.32504   2.20694   0.13093
  24   32524.0    307.5   0.508577002   5.14789   2.24486  -0.07986   0.31952
  25   32640.9    306.4   0.038528318   0.38859   0.48427  -0.18862   0.34423
  26   32746.4    305.4   0.003207079   0.03224   0.08909   0.15424   0.02270
  27   32807.3    304.8   0.002264992   0.02273   0.08141   0.12589   0.01589
  28   34122.8    293.1   0.005037661   0.04860   0.02057  -0.18189  -0.12287
  29   34335.6    291.2   0.004715116   0.04521  -0.07336  -0.19224   0.05357
  30   34404.6    290.7   0.020720609   0.19827   0.03412  -0.43903  -0.06605
  31   34679.7    288.4   0.028377931   0.26939   0.51372  -0.07108   0.02077
  32   34830.4    287.1   0.099250866   0.93811   0.90657  -0.33789   0.04543
  33   34914.7    286.4   0.189620240   1.78794  -0.69637  -1.13548   0.11694
  34   35231.0    283.8   0.060711876   0.56732   0.10098  -0.72708  -0.16875
  35   35478.4    281.9   0.008834281   0.08198   0.11206   0.18384  -0.18873
  36   35976.8    278.0   0.003585250   0.03281  -0.10467   0.02033   0.14642
  37   36108.3    276.9   0.045144970   0.41160  -0.60431   0.21534   0.00593
  38   36552.9    273.6   0.189252728   1.70449  -0.90550   0.93860   0.05990
  39   36671.9    272.7   0.132521574   1.18968   0.60334  -0.87233  -0.25436
  40   36701.0    272.5   0.107148045   0.96113   0.59204   0.77108   0.12669
  41   37339.8    267.8   0.011350526   0.10007  -0.28200  -0.10175  -0.10097
  42   37372.0    267.6   0.010146853   0.08938   0.27576   0.10527   0.04752
  43   37460.2    266.9   0.113488891   0.99738   0.84095  -0.53157  -0.08726
  44   37515.5    266.6   0.020719427   0.18182   0.13071  -0.38664   0.12348
  45   37995.6    263.2   0.009020381   0.07816   0.13445  -0.24459  -0.01599
  46   38051.4    262.8   0.086568632   0.74897   0.55510  -0.66369  -0.01889
  47   38518.8    259.6   0.109994667   0.94010   0.69130  -0.48031   0.48115
  48   38800.2    257.7   0.024996584   0.21209   0.03323   0.45869   0.02435
  49   38852.0    257.4   0.042380094   0.35911  -0.05897  -0.58508  -0.11538
  50   39505.7    253.1   0.043966898   0.36639   0.02423  -0.59191  -0.12429
  51   39757.1    251.5   0.064289426   0.53235   0.55644   0.46816  -0.05961
  52   39858.1    250.9   0.070794388   0.58473  -0.48632  -0.54417  -0.22827

FINAL SINGLE POINT ENERGY    -10561.126132500227

DIPOLE MOMENT
-------------
                                X             Y             Z
Electronic contribution:    -46.59551      17.04725       2.35010
Nuclear contribution   :     48.70009     -14.31513      -3.99274
                        -----------------------------------------
Total Dipole Moment    :      2.10458       2.73212      -1.64264
                        -----------------------------------------
Magnitude (a.u.)       :      3.81995
Magnitude (Debye)      :      9.70954

Rotational constants in cm-1:     0.001212     0.000169     0.000153
Rotational constants in MHz :    36.339108     5.056255     4.580701

                             ****ORCA TERMINATED NORMALLY****
TOTAL RUN TIME: 0 days 0 hours 9 minutes 5 seconds 811 msec
