                         Program Version 4.2.0 -  RELEASE  -
|  1> # ORCA input file
|  2> # SCF done       -182.962760744423          0.000319340090
|  3> ! CAM-B3LYP def2-SVP def2/J RIJCOSX Grid4 TightSCF
|  4> %maxcore 5000
|  5> %tddft
|  6>     Mode sTDDFT
|  7>     Ethresh 5.0
|  8>     maxcore 5000
|  9> end
| 10>
| 11> %pal
| 12>   nprocs 6
| 13>   end
| 14> * xyz 0 1
| 15>    C      -13.30727         0.58143         5.76645
| 16>    C      -12.81944        -0.68619         6.01120
| 17>    C      -12.83943        -1.31894         7.26592
| 18>    N      -12.83338        -1.91339         8.25087
| 19>    C      -12.24313        -1.54727         5.05976
| 20>    N      -11.76155        -2.32976         4.36753
| 21>    C      -13.89343         1.45821         6.78102
| 22>    C      -14.26288         2.67716         6.16209
| 23>    C      -14.89397         3.69183         6.83570
| 24>    C      -15.16213         3.49662         8.19660
| 25>    C      -14.77264         2.28673         8.81138
| 26>    C      -14.14143         1.25473         8.12270
| 27>    S      -15.19975         2.26182        10.49708
| 28>    C      -15.89074         3.85759        10.34822
| 29>    C      -15.80572         4.38255         9.10433
| 30>   Br      -16.65670         4.67233        11.85551
| 31>    C      -13.89992         2.61305         4.73104
| 32>    O      -14.07411         3.50144         3.91058
| 33>    C      -13.34858         1.27122         4.51395
| 34>    C      -13.00227         0.76234         3.26309
| 35>    C      -13.02919         1.50064         2.09841
| 36>    C      -12.77110         0.98792         0.82969
| 37>    C      -12.75773         1.71503        -0.36980
| 38>    C      -12.45717         0.95987        -1.47849
| 39>    C      -12.23827        -0.39070        -1.18886
| 40>    S      -12.42419        -0.69399         0.52274
| 41>    C      -11.89493        -1.42581        -2.06359
| 42>    C      -11.59160        -1.36758        -3.42986
| 43>    C      -11.25121        -2.58535        -3.96640
| 44>    C      -11.28640        -3.65023        -3.05024
| 45>    S      -11.76596        -3.05923        -1.47648
| 46>    C      -10.96624        -4.97775        -3.31380
| 47>    C      -11.03639        -6.03458        -2.42088
| 48>    S      -11.67297        -5.81910        -0.81333
| 49>    C      -10.63526        -7.37971        -2.61946
| 50>    C      -10.04462        -7.85168        -3.90718
| 51>    C       -8.52050        -7.66293        -3.92390
| 52>    N       -7.96345        -8.34794        -5.07690
| 53>    C      -10.79902        -8.17421        -1.49920
| 54>    C      -10.44699        -9.62636        -1.40548
| 55>    C      -11.67258       -10.52108        -1.65574
| 56>    N      -12.02932       -10.49335        -3.06358
| 57>    C      -11.38357        -7.49170        -0.40873
| 58>    C      -11.72165        -7.95319         0.86000
| 59>    C      -12.35337        -7.13472         1.77966
| 60>    C      -12.68210        -7.44325         3.08478
| 61>    C      -13.32178        -6.53273         3.92098
| 62>    C      -13.61645        -6.67996         5.28641
| 63>    C      -14.22660        -5.58761         5.84617
| 64>    C      -14.45247        -4.54247         4.93495
| 65>    S      -13.86312        -4.96869         3.35476
| 66>    C      -15.04005        -3.30673         5.18888
| 67>    C      -15.45954        -2.80271         6.43303
| 68>    C      -15.93061        -1.52232         6.37561
| 69>    C      -15.92671        -0.96262         5.07698
| 70>    S      -15.30102        -2.12649         3.92572
| 71>    C      -16.29920         0.32320         4.76741
| 72>    C      -16.33690         0.94475         3.51175
| 73>    S      -16.01729         0.19114         1.95956
| 74>    C      -16.21678         1.64930         1.07286
| 75>    C      -16.49863         2.70115         1.91622
| 76>    C      -16.58490         2.28846         3.27782
| 77>    O      -16.84205         3.32829         4.08899
| 78>    C      -16.87921         4.41351         3.27079
| 79>    N      -17.03665         5.67829         3.87848
| 80>    O      -17.15533         6.63327         3.13486
| 81>    O      -17.03462         5.72903         5.09139
| 82>    C      -16.69764         4.10902         1.94764
| 83>    H      -15.19534         4.60101         6.33968
| 84>    H      -13.87268         0.34548         8.63420
| 85>    H      -16.18209         5.35015         8.82672
| 86>    H      -12.71490        -0.27962         3.19113
| 87>    H      -13.27037         2.55263         2.15432
| 88>    H      -12.95621         2.77197        -0.39007
| 89>    H      -12.39522         1.35196        -2.47787
| 90>    H      -11.61143        -0.44847        -3.98722
| 91>    H      -10.97863        -2.73374        -4.99673
| 92>    H      -10.62021        -5.18885        -4.31673
| 93>    H      -10.48360        -7.30910        -4.74561
| 94>    H      -10.26937        -8.90712        -4.04526
| 95>    H       -8.08769        -8.11829        -3.02829
| 96>    H       -8.28920        -6.58393        -3.89214
| 97>    H       -6.95220        -8.27687        -5.08138
| 98>    H       -8.30780        -7.93151        -5.93593
| 99>    H      -10.05390        -9.83850        -0.40992
|100>    H       -9.67569        -9.87362        -2.13422
|101>    H      -12.52168       -10.13534        -1.08560
|102>    H      -11.44785       -11.53643        -1.28682
|103>    H      -11.35450       -11.02137        -3.60791
|104>    H      -12.93992       -10.91199        -3.21193
|105>    H      -11.48423        -8.97337         1.12690
|106>    H      -12.60884        -6.13460         1.44784
|107>    H      -12.42095        -8.40834         3.49815
|108>    H      -13.36237        -7.57376         5.82857
|109>    H      -14.50986        -5.51853         6.88057
|110>    H      -15.37593        -3.37217         7.34014
|111>    H      -16.27643        -0.96168         7.22589
|112>    H      -16.60511         0.95569         5.59215
|113>    H      -16.08987         1.64718         0.01044
|114>    H      -16.68592         4.80824         1.13762
|115> *
|116>
|117>                          ****END OF INPUT****

CARTESIAN COORDINATES (ANGSTROEM)
---------------------------------
  C    -13.307270    0.581430    5.766450
  C    -12.819440   -0.686190    6.011200
  C    -12.839430   -1.318940    7.265920
  N    -12.833380   -1.913390    8.250870
  C    -12.243130   -1.547270    5.059760
  N    -11.761550   -2.329760    4.367530
  C    -13.893430    1.458210    6.781020
  C    -14.262880    2.677160    6.162090
  C    -14.893970    3.691830    6.835700
  C    -15.162130    3.496620    8.196600
  C    -14.772640    2.286730    8.811380
  C    -14.141430    1.254730    8.122700
  S    -15.199750    2.261820   10.497080
  C    -15.890740    3.857590   10.348220
  C    -15.805720    4.382550    9.104330
  Br   -16.656700    4.672330   11.855510
  C    -13.899920    2.613050    4.731040
  O    -14.074110    3.501440    3.910580
  C    -13.348580    1.271220    4.513950
  C    -13.002270    0.762340    3.263090
  C    -13.029190    1.500640    2.098410
  C    -12.771100    0.987920    0.829690
  C    -12.757730    1.715030   -0.369800
  C    -12.457170    0.959870   -1.478490
  C    -12.238270   -0.390700   -1.188860
  S    -12.424190   -0.693990    0.522740
  C    -11.894930   -1.425810   -2.063590
  C    -11.591600   -1.367580   -3.429860
  C    -11.251210   -2.585350   -3.966400
  C    -11.286400   -3.650230   -3.050240
  S    -11.765960   -3.059230   -1.476480
  C    -10.966240   -4.977750   -3.313800
  C    -11.036390   -6.034580   -2.420880
  S    -11.672970   -5.819100   -0.813330
  C    -10.635260   -7.379710   -2.619460
  C    -10.044620   -7.851680   -3.907180
  C     -8.520500   -7.662930   -3.923900
  N     -7.963450   -8.347940   -5.076900
  C    -10.799020   -8.174210   -1.499200
  C    -10.446990   -9.626360   -1.405480
  C    -11.672580  -10.521080   -1.655740
  N    -12.029320  -10.493350   -3.063580
  C    -11.383570   -7.491700   -0.408730
  C    -11.721650   -7.953190    0.860000
  C    -12.353370   -7.134720    1.779660
  C    -12.682100   -7.443250    3.084780
  C    -13.321780   -6.532730    3.920980
  C    -13.616450   -6.679960    5.286410
  C    -14.226600   -5.587610    5.846170
  C    -14.452470   -4.542470    4.934950
  S    -13.863120   -4.968690    3.354760
  C    -15.040050   -3.306730    5.188880
  C    -15.459540   -2.802710    6.433030
  C    -15.930610   -1.522320    6.375610
  C    -15.926710   -0.962620    5.076980
  S    -15.301020   -2.126490    3.925720
  C    -16.299200    0.323200    4.767410
  C    -16.336900    0.944750    3.511750
  S    -16.017290    0.191140    1.959560
  C    -16.216780    1.649300    1.072860
  C    -16.498630    2.701150    1.916220
  C    -16.584900    2.288460    3.277820
  O    -16.842050    3.328290    4.088990
  C    -16.879210    4.413510    3.270790
  N    -17.036650    5.678290    3.878480
  O    -17.155330    6.633270    3.134860
  O    -17.034620    5.729030    5.091390
  C    -16.697640    4.109020    1.947640
  H    -15.195340    4.601010    6.339680
  H    -13.872680    0.345480    8.634200
  H    -16.182090    5.350150    8.826720
  H    -12.714900   -0.279620    3.191130
  H    -13.270370    2.552630    2.154320
  H    -12.956210    2.771970   -0.390070
  H    -12.395220    1.351960   -2.477870
  H    -11.611430   -0.448470   -3.987220
  H    -10.978630   -2.733740   -4.996730
  H    -10.620210   -5.188850   -4.316730
  H    -10.483600   -7.309100   -4.745610
  H    -10.269370   -8.907120   -4.045260
  H     -8.087690   -8.118290   -3.028290
  H     -8.289200   -6.583930   -3.892140
  H     -6.952200   -8.276870   -5.081380
  H     -8.307800   -7.931510   -5.935930
  H    -10.053900   -9.838500   -0.409920
  H     -9.675690   -9.873620   -2.134220
  H    -12.521680  -10.135340   -1.085600
  H    -11.447850  -11.536430   -1.286820
  H    -11.354500  -11.021370   -3.607910
  H    -12.939920  -10.911990   -3.211930
  H    -11.484230   -8.973370    1.126900
  H    -12.608840   -6.134600    1.447840
  H    -12.420950   -8.408340    3.498150
  H    -13.362370   -7.573760    5.828570
  H    -14.509860   -5.518530    6.880570
  H    -15.375930   -3.372170    7.340140
  H    -16.276430   -0.961680    7.225890
  H    -16.605110    0.955690    5.592150
  H    -16.089870    1.647180    0.010440
  H    -16.685920    4.808240    1.137620

 Total Charge           Charge          ....    0
 Multiplicity           Mult            ....    1
 Number of Electrons    NEL             ....  552
 Basis Dimension        Dim             .... 1158

ORBITAL ENERGIES
----------------

  NO   OCC          E(Eh)            E(eV)
   0   2.0000    -482.866503    -13139.4655
   1   2.0000     -88.975438     -2421.1448
   2   2.0000     -88.960766     -2420.7455
   3   2.0000     -88.957260     -2420.6501
   4   2.0000     -88.953396     -2420.5450
   5   2.0000     -88.953075     -2420.5362
   6   2.0000     -88.948374     -2420.4083
   7   2.0000     -88.947704     -2420.3901
   8   2.0000     -62.544228     -1701.9150
   9   2.0000     -56.378152     -1534.1275
  10   2.0000     -56.375492     -1534.0551
  11   2.0000     -56.375438     -1534.0537
  12   2.0000     -19.305195      -525.3211
  13   2.0000     -19.240904      -523.5716
  14   2.0000     -19.239199      -523.5252
  15   2.0000     -19.185128      -522.0539
  16   2.0000     -14.651851      -398.6971
  17   2.0000     -14.390781      -391.5931
  18   2.0000     -14.386159      -391.4673
  19   2.0000     -14.384421      -391.4200
  20   2.0000     -14.383124      -391.3847
  21   2.0000     -10.381167      -282.4859
  22   2.0000     -10.346680      -281.5475
  23   2.0000     -10.335467      -281.2424
  24   2.0000     -10.333198      -281.1806
  25   2.0000     -10.324643      -280.9478
  26   2.0000     -10.315874      -280.7092
  27   2.0000     -10.315490      -280.6988
  28   2.0000     -10.313730      -280.6509
  29   2.0000     -10.312785      -280.6251
  30   2.0000     -10.312719      -280.6234
  31   2.0000     -10.311493      -280.5900
  32   2.0000     -10.310339      -280.5586
  33   2.0000     -10.308242      -280.5015
  34   2.0000     -10.307339      -280.4770
  35   2.0000     -10.307156      -280.4720
  36   2.0000     -10.305439      -280.4253
  37   2.0000     -10.305409      -280.4244
  38   2.0000     -10.304292      -280.3940
  39   2.0000     -10.302225      -280.3378
  40   2.0000     -10.299910      -280.2748
  41   2.0000     -10.299888      -280.2742
  42   2.0000     -10.299382      -280.2604
  43   2.0000     -10.296228      -280.1746
  44   2.0000     -10.294345      -280.1234
  45   2.0000     -10.292672      -280.0779
  46   2.0000     -10.291952      -280.0583
  47   2.0000     -10.291663      -280.0504
  48   2.0000     -10.289697      -279.9969
  49   2.0000     -10.289664      -279.9960
  50   2.0000     -10.289359      -279.9877
  51   2.0000     -10.288282      -279.9584
  52   2.0000     -10.285819      -279.8914
  53   2.0000     -10.285121      -279.8724
  54   2.0000     -10.282714      -279.8069
  55   2.0000     -10.282600      -279.8038
  56   2.0000     -10.282346      -279.7969
  57   2.0000     -10.282269      -279.7948
  58   2.0000     -10.282242      -279.7940
  59   2.0000     -10.282160      -279.7918
  60   2.0000     -10.279504      -279.7195
  61   2.0000     -10.279374      -279.7160
  62   2.0000     -10.278472      -279.6914
  63   2.0000     -10.275656      -279.6148
  64   2.0000     -10.273909      -279.5673
  65   2.0000     -10.273679      -279.5610
  66   2.0000     -10.270565      -279.4763
  67   2.0000     -10.270037      -279.4619
  68   2.0000     -10.268647      -279.4241
  69   2.0000     -10.261766      -279.2369
  70   2.0000     -10.255026      -279.0535
  71   2.0000     -10.253186      -279.0034
  72   2.0000      -8.773649      -238.7431
  73   2.0000      -8.068919      -219.5664
  74   2.0000      -8.055831      -219.2103
  75   2.0000      -8.052896      -219.1304
  76   2.0000      -8.049366      -219.0344
  77   2.0000      -8.048860      -219.0206
  78   2.0000      -8.043982      -218.8879
  79   2.0000      -8.043757      -218.8818
  80   2.0000      -6.609832      -179.8627
  81   2.0000      -6.595418      -179.4704
  82   2.0000      -6.595288      -179.4669
  83   2.0000      -6.038348      -164.3118
  84   2.0000      -6.033886      -164.1904
  85   2.0000      -6.031386      -164.1224
  86   2.0000      -6.025439      -163.9605
  87   2.0000      -6.022371      -163.8770
  88   2.0000      -6.021314      -163.8483
  89   2.0000      -6.019034      -163.7862
  90   2.0000      -6.018312      -163.7666
  91   2.0000      -6.018113      -163.7612
  92   2.0000      -6.017264      -163.7381
  93   2.0000      -6.014838      -163.6721
  94   2.0000      -6.014588      -163.6653
  95   2.0000      -6.014294      -163.6573
  96   2.0000      -6.013358      -163.6318
  97   2.0000      -6.013153      -163.6262
  98   2.0000      -6.010598      -163.5567
  99   2.0000      -6.010408      -163.5515
 100   2.0000      -6.009322      -163.5220
 101   2.0000      -6.009202      -163.5187
 102   2.0000      -6.005748      -163.4247
 103   2.0000      -6.005199      -163.4098
 104   2.0000      -2.725733       -74.1710
 105   2.0000      -2.721649       -74.0598
 106   2.0000      -2.721588       -74.0582
 107   2.0000      -2.710119       -73.7461
 108   2.0000      -2.710097       -73.7455
 109   2.0000      -1.323232       -36.0070
 110   2.0000      -1.226577       -33.3769
 111   2.0000      -1.139336       -31.0029
 112   2.0000      -1.097581       -29.8667
 113   2.0000      -1.004459       -27.3327
 114   2.0000      -1.000959       -27.2375
 115   2.0000      -0.995510       -27.0892
 116   2.0000      -0.994169       -27.0527
 117   2.0000      -0.991314       -26.9750
 118   2.0000      -0.984740       -26.7961
 119   2.0000      -0.977710       -26.6049
 120   2.0000      -0.973452       -26.4890
 121   2.0000      -0.969183       -26.3728
 122   2.0000      -0.966047       -26.2875
 123   2.0000      -0.964102       -26.2345
 124   2.0000      -0.959780       -26.1169
 125   2.0000      -0.931916       -25.3587
 126   2.0000      -0.919675       -25.0256
 127   2.0000      -0.915588       -24.9144
 128   2.0000      -0.903376       -24.5821
 129   2.0000      -0.897121       -24.4119
 130   2.0000      -0.886365       -24.1192
 131   2.0000      -0.882347       -24.0099
 132   2.0000      -0.879180       -23.9237
 133   2.0000      -0.873736       -23.7756
 134   2.0000      -0.862926       -23.4814
 135   2.0000      -0.858733       -23.3673
 136   2.0000      -0.855483       -23.2789
 137   2.0000      -0.848066       -23.0771
 138   2.0000      -0.845079       -22.9958
 139   2.0000      -0.842562       -22.9273
 140   2.0000      -0.831768       -22.6336
 141   2.0000      -0.823108       -22.3979
 142   2.0000      -0.822107       -22.3707
 143   2.0000      -0.819271       -22.2935
 144   2.0000      -0.802947       -21.8493
 145   2.0000      -0.798065       -21.7165
 146   2.0000      -0.787742       -21.4355
 147   2.0000      -0.781680       -21.2706
 148   2.0000      -0.778673       -21.1888
 149   2.0000      -0.762049       -20.7364
 150   2.0000      -0.750785       -20.4299
 151   2.0000      -0.732307       -19.9271
 152   2.0000      -0.726602       -19.7718
 153   2.0000      -0.713309       -19.4101
 154   2.0000      -0.706136       -19.2149
 155   2.0000      -0.704444       -19.1689
 156   2.0000      -0.695485       -18.9251
 157   2.0000      -0.691856       -18.8264
 158   2.0000      -0.682066       -18.5600
 159   2.0000      -0.674383       -18.3509
 160   2.0000      -0.669392       -18.2151
 161   2.0000      -0.667031       -18.1508
 162   2.0000      -0.660089       -17.9619
 163   2.0000      -0.647579       -17.6215
 164   2.0000      -0.645032       -17.5522
 165   2.0000      -0.640083       -17.4175
 166   2.0000      -0.637124       -17.3370
 167   2.0000      -0.634717       -17.2715
 168   2.0000      -0.632682       -17.2161
 169   2.0000      -0.629416       -17.1273
 170   2.0000      -0.626293       -17.0423
 171   2.0000      -0.623570       -16.9682
 172   2.0000      -0.617892       -16.8137
 173   2.0000      -0.613869       -16.7042
 174   2.0000      -0.605775       -16.4840
 175   2.0000      -0.602365       -16.3912
 176   2.0000      -0.599348       -16.3091
 177   2.0000      -0.594951       -16.1894
 178   2.0000      -0.591924       -16.1071
 179   2.0000      -0.590380       -16.0650
 180   2.0000      -0.583326       -15.8731
 181   2.0000      -0.581102       -15.8126
 182   2.0000      -0.577255       -15.7079
 183   2.0000      -0.570539       -15.5251
 184   2.0000      -0.569356       -15.4930
 185   2.0000      -0.565217       -15.3803
 186   2.0000      -0.563633       -15.3372
 187   2.0000      -0.554184       -15.0801
 188   2.0000      -0.550391       -14.9769
 189   2.0000      -0.548675       -14.9302
 190   2.0000      -0.543230       -14.7820
 191   2.0000      -0.541763       -14.7421
 192   2.0000      -0.534947       -14.5567
 193   2.0000      -0.529734       -14.4148
 194   2.0000      -0.523103       -14.2344
 195   2.0000      -0.521327       -14.1860
 196   2.0000      -0.517958       -14.0944
 197   2.0000      -0.516258       -14.0481
 198   2.0000      -0.511638       -13.9224
 199   2.0000      -0.506366       -13.7789
 200   2.0000      -0.504339       -13.7238
 201   2.0000      -0.503179       -13.6922
 202   2.0000      -0.501825       -13.6553
 203   2.0000      -0.500670       -13.6239
 204   2.0000      -0.499162       -13.5829
 205   2.0000      -0.498358       -13.5610
 206   2.0000      -0.493105       -13.4181
 207   2.0000      -0.492891       -13.4123
 208   2.0000      -0.490277       -13.3411
 209   2.0000      -0.486926       -13.2499
 210   2.0000      -0.486297       -13.2328
 211   2.0000      -0.483836       -13.1659
 212   2.0000      -0.480286       -13.0693
 213   2.0000      -0.479374       -13.0444
 214   2.0000      -0.473866       -12.8946
 215   2.0000      -0.471723       -12.8362
 216   2.0000      -0.470664       -12.8074
 217   2.0000      -0.468895       -12.7593
 218   2.0000      -0.466245       -12.6872
 219   2.0000      -0.465183       -12.6583
 220   2.0000      -0.462445       -12.5838
 221   2.0000      -0.457397       -12.4464
 222   2.0000      -0.457211       -12.4413
 223   2.0000      -0.451408       -12.2834
 224   2.0000      -0.450172       -12.2498
 225   2.0000      -0.447802       -12.1853
 226   2.0000      -0.445628       -12.1261
 227   2.0000      -0.444359       -12.0916
 228   2.0000      -0.442899       -12.0519
 229   2.0000      -0.438581       -11.9344
 230   2.0000      -0.436478       -11.8772
 231   2.0000      -0.434793       -11.8313
 232   2.0000      -0.432713       -11.7747
 233   2.0000      -0.430555       -11.7160
 234   2.0000      -0.425512       -11.5788
 235   2.0000      -0.423388       -11.5210
 236   2.0000      -0.422563       -11.4985
 237   2.0000      -0.421353       -11.4656
 238   2.0000      -0.418503       -11.3880
 239   2.0000      -0.416767       -11.3408
 240   2.0000      -0.415932       -11.3181
 241   2.0000      -0.413864       -11.2618
 242   2.0000      -0.407845       -11.0980
 243   2.0000      -0.407143       -11.0789
 244   2.0000      -0.404343       -11.0027
 245   2.0000      -0.401339       -10.9210
 246   2.0000      -0.395505       -10.7622
 247   2.0000      -0.394084       -10.7236
 248   2.0000      -0.387802       -10.5526
 249   2.0000      -0.386638       -10.5210
 250   2.0000      -0.379752       -10.3336
 251   2.0000      -0.378422       -10.2974
 252   2.0000      -0.376717       -10.2510
 253   2.0000      -0.370545       -10.0830
 254   2.0000      -0.368671       -10.0320
 255   2.0000      -0.361356        -9.8330
 256   2.0000      -0.360780        -9.8173
 257   2.0000      -0.356349        -9.6967
 258   2.0000      -0.347031        -9.4432
 259   2.0000      -0.338133        -9.2011
 260   2.0000      -0.335076        -9.1179
 261   2.0000      -0.327501        -8.9118
 262   2.0000      -0.325817        -8.8659
 263   2.0000      -0.322361        -8.7719
 264   2.0000      -0.316573        -8.6144
 265   2.0000      -0.315059        -8.5732
 266   2.0000      -0.313858        -8.5405
 267   2.0000      -0.305889        -8.3237
 268   2.0000      -0.304319        -8.2809
 269   2.0000      -0.299447        -8.1484
 270   2.0000      -0.290896        -7.9157
 271   2.0000      -0.290498        -7.9049
 272   2.0000      -0.270380        -7.3574
 273   2.0000      -0.254362        -6.9215
 274   2.0000      -0.216443        -5.8897
 275   2.0000      -0.200534        -5.4568
 276   0.0000      -0.106378        -2.8947
 277   0.0000      -0.083955        -2.2845
 278   0.0000      -0.058166        -1.5828
 279   0.0000      -0.045637        -1.2418
 280   0.0000      -0.026025        -0.7082

MULLIKEN ATOMIC CHARGES
-----------------------
   0 C :    0.372359
   1 C :   -0.423013
   2 C :   -0.191692
   3 N :    0.114375
   4 C :   -0.209769
   5 N :    0.139633
   6 C :   -0.002992
   7 C :    0.008582
   8 C :   -0.080050
   9 C :    0.107499
  10 C :   -0.094737
  11 C :   -0.060059
  12 S :    0.163347
  13 C :   -0.124373
  14 C :    0.039782
  15 Br:    0.004110
  16 C :    0.126336
  17 O :   -0.208802
  18 C :   -0.083904
  19 C :   -0.072614
  20 C :   -0.010934
  21 C :   -0.017777
  22 C :    0.010589
  23 C :    0.017989
  24 C :   -0.051868
  25 S :    0.115326
  26 C :   -0.017179
  27 C :    0.013599
  28 C :    0.031974
  29 C :   -0.060614
  30 S :    0.101027
  31 C :    0.014117
  32 C :   -0.078128
  33 S :    0.038778
  34 C :   -0.024641
  35 C :    0.097742
  36 C :    0.098804
  37 N :   -0.219873
  38 C :   -0.045151
  39 C :    0.096768
  40 C :    0.097558
  41 N :   -0.224038
  42 C :   -0.041027
  43 C :   -0.021732
  44 C :    0.004493
  45 C :    0.000889
  46 C :   -0.020222
  47 C :    0.021394
  48 C :    0.042702
  49 C :   -0.042665
  50 S :    0.127635
  51 C :   -0.042121
  52 C :    0.053292
  53 C :    0.033970
  54 C :   -0.036087
  55 S :    0.108452
  56 C :    0.014669
  57 C :   -0.194168
  58 S :    0.156671
  59 C :   -0.136043
  60 C :    0.158890
  61 C :    0.204493
  62 O :   -0.183913
  63 C :    0.257210
  64 N :    0.277926
  65 O :   -0.245067
  66 O :   -0.232384
  67 C :   -0.072676
  68 H :   -0.027723
  69 H :   -0.018850
  70 H :   -0.001593
  71 H :    0.001063
  72 H :    0.011538
  73 H :   -0.014732
  74 H :   -0.018747
  75 H :   -0.017113
  76 H :   -0.015191
  77 H :   -0.015918
  78 H :   -0.004753
  79 H :   -0.009379
  80 H :   -0.000228
  81 H :   -0.012758
  82 H :    0.093507
  83 H :    0.089486
  84 H :    0.005661
  85 H :    0.003048
  86 H :    0.004501
  87 H :   -0.004671
  88 H :    0.101075
  89 H :    0.096264
  90 H :   -0.018333
  91 H :    0.028282
  92 H :   -0.015410
  93 H :   -0.011872
  94 H :   -0.003078
  95 H :   -0.000428
  96 H :    0.000249
  97 H :    0.028369
  98 H :    0.035555
  99 H :    0.009511
Sum of atomic charges:   -0.0000000

LOEWDIN ATOMIC CHARGES
----------------------
   0 C :    0.067158
   1 C :   -0.185755
   2 C :   -0.016431
   3 N :   -0.102609
   4 C :   -0.028447
   5 N :   -0.089348
   6 C :   -0.018347
   7 C :   -0.054309
   8 C :    0.018413
   9 C :   -0.041910
  10 C :   -0.153190
  11 C :   -0.031049
  12 S :    0.414007
  13 C :   -0.280533
  14 C :   -0.065304
  15 Br:    0.121098
  16 C :    0.078110
  17 O :   -0.183166
  18 C :   -0.124599
  19 C :    0.001025
  20 C :   -0.071752
  21 C :   -0.137376
  22 C :   -0.060447
  23 C :   -0.036831
  24 C :   -0.196161
  25 S :    0.421805
  26 C :   -0.164187
  27 C :   -0.057823
  28 C :   -0.030386
  29 C :   -0.178830
  30 S :    0.420772
  31 C :   -0.045530
  32 C :   -0.170807
  33 S :    0.408585
  34 C :   -0.010068
  35 C :   -0.031523
  36 C :    0.023438
  37 N :   -0.122650
  38 C :   -0.047712
  39 C :   -0.031311
  40 C :    0.024453
  41 N :   -0.113670
  42 C :   -0.128337
  43 C :   -0.068490
  44 C :   -0.013611
  45 C :   -0.060079
  46 C :   -0.127905
  47 C :   -0.047622
  48 C :   -0.012884
  49 C :   -0.184684
  50 S :    0.434245
  51 C :   -0.143833
  52 C :   -0.033713
  53 C :   -0.007349
  54 C :   -0.167295
  55 S :    0.416238
  56 C :   -0.019208
  57 C :   -0.208503
  58 S :    0.496614
  59 C :   -0.169343
  60 C :   -0.079107
  61 C :    0.033858
  62 O :    0.016114
  63 C :    0.030750
  64 N :    0.278490
  65 O :   -0.205292
  66 O :   -0.197645
  67 C :   -0.001418
  68 H :    0.032777
  69 H :    0.035802
  70 H :    0.040206
  71 H :    0.023995
  72 H :    0.034041
  73 H :    0.032037
  74 H :    0.030042
  75 H :    0.030528
  76 H :    0.032025
  77 H :    0.037841
  78 H :    0.024304
  79 H :    0.028184
  80 H :    0.017912
  81 H :   -0.000521
  82 H :    0.055884
  83 H :    0.051317
  84 H :    0.030056
  85 H :    0.030115
  86 H :    0.020351
  87 H :    0.001248
  88 H :    0.053506
  89 H :    0.058128
  90 H :    0.029502
  91 H :    0.014326
  92 H :    0.033364
  93 H :    0.034020
  94 H :    0.036760
  95 H :    0.037604
  96 H :    0.038604
  97 H :    0.053849
  98 H :    0.029409
  99 H :    0.045993

  Mayer bond orders larger than 0.100000
B(  0-C ,  1-C ) :   1.5035 B(  0-C ,  6-C ) :   0.9705 B(  0-C , 18-C ) :   1.1764
B(  1-C ,  2-C ) :   1.1587 B(  1-C ,  4-C ) :   1.1787 B(  2-C ,  3-N ) :   2.9296
B(  4-C ,  5-N ) :   2.9501 B(  6-C ,  7-C ) :   1.2662 B(  6-C , 11-C ) :   1.4341
B(  7-C ,  8-C ) :   1.4257 B(  7-C , 16-C ) :   0.9299 B(  8-C ,  9-C ) :   1.2296
B(  8-C , 68-H ) :   1.0100 B(  9-C , 10-C ) :   1.3306 B(  9-C , 14-C ) :   1.1617
B( 10-C , 11-C ) :   1.2877 B( 10-C , 12-S ) :   1.0801 B( 11-C , 69-H ) :   0.9837
B( 12-S , 13-C ) :   1.0793 B( 13-C , 14-C ) :   1.6200 B( 13-C , 15-Br) :   1.0069
B( 14-C , 70-H ) :   1.0015 B( 16-C , 17-O ) :   2.0696 B( 16-C , 18-C ) :   1.0188
B( 18-C , 19-C ) :   1.3029 B( 19-C , 20-C ) :   1.4153 B( 19-C , 71-H ) :   0.9575
B( 20-C , 21-C ) :   1.2565 B( 20-C , 72-H ) :   0.9751 B( 21-C , 22-C ) :   1.3077
B( 21-C , 25-S ) :   1.1059 B( 22-C , 23-C ) :   1.3782 B( 22-C , 73-H ) :   1.0035
B( 23-C , 24-C ) :   1.3647 B( 23-C , 74-H ) :   0.9978 B( 24-C , 25-S ) :   1.0784
B( 24-C , 26-C ) :   1.2720 B( 26-C , 27-C ) :   1.3396 B( 26-C , 30-S ) :   1.1113
B( 27-C , 28-C ) :   1.4195 B( 27-C , 75-H ) :   0.9953 B( 28-C , 29-C ) :   1.2975
B( 28-C , 76-H ) :   0.9988 B( 29-C , 30-S ) :   1.0699 B( 29-C , 31-C ) :   1.3285
B( 31-C , 32-C ) :   1.4244 B( 31-C , 77-H ) :   0.9598 B( 32-C , 33-S ) :   1.0474
B( 32-C , 34-C ) :   1.2417 B( 33-S , 42-C ) :   1.0826 B( 34-C , 35-C ) :   1.0711
B( 34-C , 38-C ) :   1.5413 B( 35-C , 36-C ) :   1.0884 B( 35-C , 78-H ) :   0.8990
B( 35-C , 79-H ) :   0.8882 B( 36-C , 37-N ) :   1.0896 B( 36-C , 80-H ) :   0.9414
B( 36-C , 81-H ) :   0.9383 B( 37-N , 82-H ) :   0.9697 B( 37-N , 83-H ) :   0.9718
B( 38-C , 39-C ) :   1.0727 B( 38-C , 42-C ) :   1.2525 B( 39-C , 40-C ) :   1.0762
B( 39-C , 84-H ) :   0.9064 B( 39-C , 85-H ) :   0.9161 B( 40-C , 41-N ) :   1.0957
B( 40-C , 86-H ) :   0.9450 B( 40-C , 87-H ) :   0.9481 B( 41-N , 88-H ) :   0.9621
B( 41-N , 89-H ) :   0.9701 B( 42-C , 43-C ) :   1.3781 B( 43-C , 44-C ) :   1.3503
B( 43-C , 90-H ) :   0.9769 B( 44-C , 45-C ) :   1.3871 B( 44-C , 91-H ) :   0.9588
B( 45-C , 46-C ) :   1.3311 B( 45-C , 92-H ) :   0.9875 B( 46-C , 47-C ) :   1.2667
B( 46-C , 50-S ) :   1.1093 B( 47-C , 48-C ) :   1.4508 B( 47-C , 93-H ) :   0.9994
B( 48-C , 49-C ) :   1.3044 B( 48-C , 94-H ) :   0.9945 B( 49-C , 50-S ) :   1.0838
B( 49-C , 51-C ) :   1.3495 B( 51-C , 52-C ) :   1.2779 B( 51-C , 55-S ) :   1.1003
B( 52-C , 53-C ) :   1.4801 B( 52-C , 95-H ) :   0.9923 B( 53-C , 54-C ) :   1.1949
B( 53-C , 96-H ) :   1.0052 B( 54-C , 55-S ) :   1.0421 B( 54-C , 56-C ) :   1.4793
B( 56-C , 57-C ) :   1.2174 B( 56-C , 97-H ) :   0.9681 B( 57-C , 58-S ) :   1.0941
B( 57-C , 61-C ) :   1.4079 B( 58-S , 59-C ) :   1.2106 B( 59-C , 60-C ) :   1.3812
B( 59-C , 98-H ) :   0.9752 B( 60-C , 61-C ) :   1.2494 B( 60-C , 67-C ) :   1.0553
B( 61-C , 62-O ) :   1.1317 B( 62-O , 63-C ) :   1.1059 B( 63-C , 64-N ) :   0.9221
B( 63-C , 67-C ) :   1.5811 B( 64-N , 65-O ) :   1.5378 B( 64-N , 66-O ) :   1.5055
B( 65-O , 66-O ) :   0.2707 B( 67-C , 99-H ) :   1.0259

-----------------------------------------------------------------------------
         ABSORPTION SPECTRUM VIA TRANSITION ELECTRIC DIPOLE MOMENTS
-----------------------------------------------------------------------------
State   Energy  Wavelength   fosc         T2         TX        TY        TZ
        (cm-1)    (nm)                  (au**2)     (au)      (au)      (au)
-----------------------------------------------------------------------------
   0    6430.8   1555.0   0.072537254   3.71339  -1.51691  -1.15748   0.26949
   1    7966.6   1255.2   0.016842536   0.69600  -0.07816   0.53150   0.63828
   2   13703.8    729.7   1.398291481  33.59181   2.37170  -3.93868  -3.52897
   3   14829.2    674.3   0.116695408   2.59067   0.34694   1.57040  -0.06435
   4   15626.9    639.9   0.272340213   5.73740   0.63983  -1.62360  -1.64072
   5   17655.7    566.4   0.136246292   2.54048  -0.68755   0.57109   1.31970
   6   19542.3    511.7   0.955591584  16.09800  -0.17770   2.91340  -2.75292
   7   20488.9    488.1   0.014764189   0.23723  -0.02770  -0.42135  -0.24275
   8   21259.3    470.4   0.140346831   2.17335  -0.05837   1.33094  -0.63131
   9   22448.2    445.5   0.567041226   8.31590   0.56476  -2.40718   1.48406
  10   22578.3    442.9   0.213947748   3.11956   0.44663  -0.54850  -1.61840
  11   23607.7    423.6   0.607557271   8.47245  -0.55780   0.34739   2.83560
  12   25064.9    399.0   0.078615697   1.03257   0.15774  -0.59837  -0.80600
  13   25164.2    397.4   0.026090896   0.34134  -0.30978   0.24544   0.43027
  14   25493.4    392.3   0.008550048   0.11041  -0.12111  -0.21426   0.22324
  15   25720.6    388.8   0.005964983   0.07635  -0.00669  -0.14915  -0.23251
  16   27210.6    367.5   0.063897538   0.77308  -0.36508   0.57827   0.55262
  17   27438.5    364.5   0.029060821   0.34868  -0.34459   0.40040  -0.26385
  18   27690.1    361.1   0.065147430   0.77455  -0.48276   0.47317   0.56355
  19   28257.9    353.9   0.050092724   0.58359  -0.33529   0.56617   0.38811
  20   28571.0    350.0   0.017474722   0.20135  -0.24812   0.37215  -0.03599
  21   28738.6    348.0   0.035839386   0.41055  -0.29666   0.28680  -0.49019
  22   29067.0    344.0   0.016727710   0.18946   0.00338   0.18106  -0.39581
  23   29840.8    335.1   0.033424105   0.36874   0.35353  -0.43699   0.22978
  24   30131.3    331.9   0.008264315   0.09030  -0.04406   0.26656   0.13153
  25   30167.9    331.5   0.001631257   0.01780   0.11356  -0.03067   0.06297
  26   30312.0    329.9   0.027817313   0.30212   0.11325  -0.13836  -0.51976
  27   30685.0    325.9   0.112090570   1.20259  -0.54994   0.44826   0.83619
  28   30960.8    323.0   0.036581323   0.38898  -0.10351   0.30089   0.53640
  29   31214.6    320.4   0.011017642   0.11620   0.03884  -0.33706  -0.03291
  30   31628.5    316.2   0.001114437   0.01160  -0.01546  -0.04891  -0.09470
  31   31675.9    315.7   0.023854397   0.24792  -0.11773   0.37496   0.30572
  32   31764.7    314.8   0.013917215   0.14424   0.15731  -0.29644  -0.17781
  33   32089.2    311.6   0.004751968   0.04875  -0.15163   0.15575  -0.03875
  34   32410.5    308.5   0.020486573   0.20809  -0.12142   0.15512   0.41145
  35   32504.1    307.7   0.001369854   0.01387   0.09385  -0.06855  -0.01916
  36   32586.9    306.9   0.003581093   0.03618   0.12427   0.01929  -0.14270
  37   32708.5    305.7   0.000800255   0.00805   0.07906   0.02923  -0.03082
  38   32964.3    303.4   0.011472537   0.11458  -0.25020   0.00071   0.22798
  39   33102.1    302.1   0.165494149   1.64590  -0.60520   0.69729   0.89074
  40   33242.4    300.8   0.030800831   0.30503   0.16017  -0.33177  -0.41146
  41   33379.5    299.6   0.134977866   1.33125  -0.50699   0.89852   0.51659
  42   33476.7    298.7   0.047704951   0.46913  -0.21844   0.38898   0.51972
  43   33728.9    296.5   0.032346271   0.31572  -0.11279   0.38738  -0.39107
  44   34276.3    291.7   0.002228457   0.02140  -0.04406  -0.13888  -0.01325
  45   34412.1    290.6   0.052828578   0.50540   0.29584  -0.64435   0.05186
  46   34712.6    288.1   0.053203377   0.50458  -0.05844   0.41523   0.57336
  47   35033.9    285.4   0.000348674   0.00328   0.05290  -0.01822  -0.01207
  48   35291.5    283.4   0.002402108   0.02241   0.06753   0.02069   0.13198
  49   35318.6    283.1   0.195945947   1.82645  -0.40823   1.23061   0.38134
  50   35663.6    280.4   0.051899680   0.47909   0.25003  -0.63070  -0.13706
  51   35762.6    279.6   0.065217415   0.60036  -0.34220   0.51286  -0.46928
  52   36013.6    277.7   0.061587627   0.56299  -0.09075   0.63662   0.38661
  53   36180.0    276.4   0.107574499   0.97885  -0.17077   0.90587  -0.35930
  54   36341.5    275.2   0.050686699   0.45916  -0.05925  -0.43358   0.51736
  55   36873.7    271.2   0.003940676   0.03518  -0.02566   0.05769   0.17662
  56   36942.6    270.7   0.104831090   0.93420   0.25676  -0.91135  -0.19420
  57   37183.0    268.9   0.005838692   0.05169  -0.03901   0.16295   0.15369
  58   37399.9    267.4   0.072532619   0.63847  -0.22152   0.75708   0.12738
  59   37463.9    266.9   0.084538321   0.74288   0.17867  -0.74686  -0.39135
  60   37721.3    265.1   0.003297782   0.02878   0.13254  -0.07582  -0.07393
  61   37945.0    263.5   0.090130140   0.78197  -0.12030   0.69106   0.53846
  62   38193.7    261.8   0.059238977   0.51061  -0.10505   0.22902   0.66867
  63   38324.0    260.9   0.050032913   0.42979   0.00549  -0.40775   0.51332
  64   38731.1    258.2   0.055550645   0.47218  -0.11143   0.61778  -0.27949
  65   39356.8    254.1   0.005571595   0.04661  -0.09782  -0.06186  -0.18223
  66   39413.2    253.7   0.081903831   0.68413  -0.14143   0.52548  -0.62289
  67   39754.0    251.5   0.002990619   0.02477   0.08767   0.01679   0.12961
  68   39791.4    251.3   0.006347433   0.05252  -0.02594  -0.06417   0.21846
  69   40007.2    250.0   0.019554630   0.16091   0.17948  -0.34405   0.10162
  70   40253.3    248.4   0.008159643   0.06673   0.04776   0.04355   0.25011

FINAL SINGLE POINT ENERGY     -7894.356016590313

DIPOLE MOMENT
-------------
                                X             Y             Z
Electronic contribution:    -69.57500     143.03183     159.80284
Nuclear contribution   :     69.63250    -147.13492    -164.10703
                        -----------------------------------------
Total Dipole Moment    :      0.05750      -4.10309      -4.30419
                        -----------------------------------------
Magnitude (a.u.)       :      5.94683
Magnitude (Debye)      :     15.11563

Rotational constants in cm-1:     0.001740     0.000411     0.000354
Rotational constants in MHz :    52.178066    12.323859    10.613671

                             ****ORCA TERMINATED NORMALLY****
TOTAL RUN TIME: 0 days 0 hours 13 minutes 36 seconds 241 msec
