                         Program Version 4.2.0 -  RELEASE  -
|  1> # ORCA input file
|  2> # SCF done       -176.003762389495          0.000883817983
|  3> ! CAM-B3LYP def2-SVP def2/J RIJCOSX Grid4 TightSCF
|  4> %maxcore 5000
|  5> %tddft
|  6>     Mode sTDDFT
|  7>     Ethresh 5.0
|  8>     maxcore 5000
|  9> end
| 10>
| 11> %pal
| 12>   nprocs 6
| 13>   end
| 14> * xyz 0 1
| 15>    C       -4.27414        -1.62734         1.75227
| 16>    C       -3.20826        -1.28444         2.54936
| 17>    C       -2.35770        -2.21808         3.17291
| 18>    N       -1.62749        -2.93260         3.69818
| 19>    C       -2.83912         0.03478         2.88028
| 20>    N       -2.49752         1.07803         3.21945
| 21>    C       -4.73754        -2.98972         1.50062
| 22>    C       -5.91373        -2.92309         0.71650
| 23>    C       -6.60464        -4.04034         0.31883
| 24>    C       -6.11156        -5.28800         0.71833
| 25>    C       -4.93373        -5.34527         1.49802
| 26>    C       -4.23371        -4.21240         1.89859
| 27>    S       -4.49556        -6.98490         1.87409
| 28>    C       -5.88400        -7.56166         0.99167
| 29>    C       -6.63843        -6.57984         0.44377
| 30>   Br       -6.20979        -9.40628         0.87937
| 31>    C       -6.22516        -1.50788         0.42353
| 32>    O       -7.12917        -1.11405        -0.29521
| 33>    C       -5.18624        -0.72091         1.09809
| 34>    C       -4.98791         0.64027         0.95194
| 35>    C       -5.90445         1.60668         0.54360
| 36>    S       -5.27619         3.08208        -0.15817
| 37>    C       -6.84673         3.70972        -0.48997
| 38>    C       -7.84234         2.84498         0.00148
| 39>    C       -7.31437         1.66722         0.60477
| 40>    C       -8.17841         0.76870         1.23761
| 41>    C       -9.54100         0.95361         1.16109
| 42>    S      -10.67010        -0.25656         1.74770
| 43>    C       -9.75097        -1.82212         1.55563
| 44>    C       -9.09401        -2.29689         2.83870
| 45>    C      -10.06626         2.13113         0.56816
| 46>    S      -11.81313         2.42468         0.48485
| 47>    C      -12.26843         2.52676         2.26610
| 48>    C      -13.52885         1.73542         2.54698
| 49>    C       -9.23064         3.05884         0.00435
| 50>    C       -7.05686         4.93062        -1.17530
| 51>    C       -6.08286         5.77962        -1.56971
| 52>    C       -6.34030         7.01480        -2.27602
| 53>    C       -5.34719         7.87487        -2.58457
| 54>    C       -7.67504         7.29499        -2.64231
| 55>    C       -8.82768         7.50286        -2.95644
| 56>    C      -10.14681         7.73735        -3.32271
| 57>    C      -10.56765         8.90723        -3.87500
| 58>    C      -11.90084         9.14891        -4.25347
| 59>    C      -12.34329        10.32821        -4.79539
| 60>    C      -13.66609        10.64096        -5.20079
| 61>    C      -13.81432        11.89830        -5.69952
| 62>    C      -12.61653        12.65044        -5.71470
| 63>    S      -11.29079        11.70677        -5.07878
| 64>    C      -12.42588        13.94949        -6.14485
| 65>    C      -13.37447        14.85052        -6.67779
| 66>    C      -12.85346        16.06553        -6.99894
| 67>    C      -11.46240        16.19423        -6.73797
| 68>    S      -10.84613        14.69742        -6.06719
| 69>    C      -10.72361        17.32442        -6.97740
| 70>    C       -9.34927        17.53050        -6.74774
| 71>    S       -8.64118        19.09315        -7.14060
| 72>    C       -7.05715        18.65652        -6.63897
| 73>    C       -7.04591        17.36063        -6.18259
| 74>    C       -8.33210        16.73554        -6.24590
| 75>    O       -8.26140        15.46751        -5.78708
| 76>    C       -6.96427        15.27611        -5.43551
| 77>    N       -6.60634        14.01137        -4.91488
| 78>    O       -5.43644        13.86297        -4.60849
| 79>    O       -7.47067        13.16729        -4.81138
| 80>    C       -6.17352        16.37413        -5.64649
| 81>    H       -7.49711        -3.95899        -0.28222
| 82>    H       -3.33774        -4.30917         2.48845
| 83>    H       -7.52783        -6.75738        -0.13294
| 84>    H       -3.98209         1.00866         1.11914
| 85>    H       -7.76812        -0.05786         1.78837
| 86>    H       -9.03489        -1.67146         0.74804
| 87>    H      -10.50955        -2.53670         1.23398
| 88>    H       -8.36454        -1.57877         3.20817
| 89>    H       -8.58216        -3.24119         2.65862
| 90>    H       -9.84145        -2.44861         3.61461
| 91>    H      -12.40895         3.58597         2.48358
| 92>    H      -11.42410         2.14699         2.83706
| 93>    H      -14.35415         2.11003         1.94624
| 94>    H      -13.79249         1.82430         3.59882
| 95>    H      -13.37327         0.68592         2.31082
| 96>    H       -9.65252         3.95064        -0.43028
| 97>    H       -8.08578         5.18532        -1.39152
| 98>    H       -5.04725         5.55448        -1.35040
| 99>    H       -4.32648         7.66624        -2.31406
|100>    H       -5.54322         8.79414        -3.10752
|101>    H      -10.85051         6.93134        -3.15013
|102>    H       -9.84941         9.70153        -4.03492
|103>    H      -12.62791         8.35947        -4.10954
|104>    H      -14.46309         9.92388        -5.10903
|105>    H      -14.74454        12.30534        -6.05367
|106>    H      -14.40717        14.58076        -6.80862
|107>    H      -13.41868        16.88047        -7.41569
|108>    H      -11.25340        18.17045        -7.39468
|109>    H       -6.25525        19.36066        -6.70973
|110>    H       -5.12561        16.44661        -5.44211
|111> *
|112>
|113>                          ****END OF INPUT****

CARTESIAN COORDINATES (ANGSTROEM)
---------------------------------
  C     -4.274140   -1.627340    1.752270
  C     -3.208260   -1.284440    2.549360
  C     -2.357700   -2.218080    3.172910
  N     -1.627490   -2.932600    3.698180
  C     -2.839120    0.034780    2.880280
  N     -2.497520    1.078030    3.219450
  C     -4.737540   -2.989720    1.500620
  C     -5.913730   -2.923090    0.716500
  C     -6.604640   -4.040340    0.318830
  C     -6.111560   -5.288000    0.718330
  C     -4.933730   -5.345270    1.498020
  C     -4.233710   -4.212400    1.898590
  S     -4.495560   -6.984900    1.874090
  C     -5.884000   -7.561660    0.991670
  C     -6.638430   -6.579840    0.443770
  Br    -6.209790   -9.406280    0.879370
  C     -6.225160   -1.507880    0.423530
  O     -7.129170   -1.114050   -0.295210
  C     -5.186240   -0.720910    1.098090
  C     -4.987910    0.640270    0.951940
  C     -5.904450    1.606680    0.543600
  S     -5.276190    3.082080   -0.158170
  C     -6.846730    3.709720   -0.489970
  C     -7.842340    2.844980    0.001480
  C     -7.314370    1.667220    0.604770
  C     -8.178410    0.768700    1.237610
  C     -9.541000    0.953610    1.161090
  S    -10.670100   -0.256560    1.747700
  C     -9.750970   -1.822120    1.555630
  C     -9.094010   -2.296890    2.838700
  C    -10.066260    2.131130    0.568160
  S    -11.813130    2.424680    0.484850
  C    -12.268430    2.526760    2.266100
  C    -13.528850    1.735420    2.546980
  C     -9.230640    3.058840    0.004350
  C     -7.056860    4.930620   -1.175300
  C     -6.082860    5.779620   -1.569710
  C     -6.340300    7.014800   -2.276020
  C     -5.347190    7.874870   -2.584570
  C     -7.675040    7.294990   -2.642310
  C     -8.827680    7.502860   -2.956440
  C    -10.146810    7.737350   -3.322710
  C    -10.567650    8.907230   -3.875000
  C    -11.900840    9.148910   -4.253470
  C    -12.343290   10.328210   -4.795390
  C    -13.666090   10.640960   -5.200790
  C    -13.814320   11.898300   -5.699520
  C    -12.616530   12.650440   -5.714700
  S    -11.290790   11.706770   -5.078780
  C    -12.425880   13.949490   -6.144850
  C    -13.374470   14.850520   -6.677790
  C    -12.853460   16.065530   -6.998940
  C    -11.462400   16.194230   -6.737970
  S    -10.846130   14.697420   -6.067190
  C    -10.723610   17.324420   -6.977400
  C     -9.349270   17.530500   -6.747740
  S     -8.641180   19.093150   -7.140600
  C     -7.057150   18.656520   -6.638970
  C     -7.045910   17.360630   -6.182590
  C     -8.332100   16.735540   -6.245900
  O     -8.261400   15.467510   -5.787080
  C     -6.964270   15.276110   -5.435510
  N     -6.606340   14.011370   -4.914880
  O     -5.436440   13.862970   -4.608490
  O     -7.470670   13.167290   -4.811380
  C     -6.173520   16.374130   -5.646490
  H     -7.497110   -3.958990   -0.282220
  H     -3.337740   -4.309170    2.488450
  H     -7.527830   -6.757380   -0.132940
  H     -3.982090    1.008660    1.119140
  H     -7.768120   -0.057860    1.788370
  H     -9.034890   -1.671460    0.748040
  H    -10.509550   -2.536700    1.233980
  H     -8.364540   -1.578770    3.208170
  H     -8.582160   -3.241190    2.658620
  H     -9.841450   -2.448610    3.614610
  H    -12.408950    3.585970    2.483580
  H    -11.424100    2.146990    2.837060
  H    -14.354150    2.110030    1.946240
  H    -13.792490    1.824300    3.598820
  H    -13.373270    0.685920    2.310820
  H     -9.652520    3.950640   -0.430280
  H     -8.085780    5.185320   -1.391520
  H     -5.047250    5.554480   -1.350400
  H     -4.326480    7.666240   -2.314060
  H     -5.543220    8.794140   -3.107520
  H    -10.850510    6.931340   -3.150130
  H     -9.849410    9.701530   -4.034920
  H    -12.627910    8.359470   -4.109540
  H    -14.463090    9.923880   -5.109030
  H    -14.744540   12.305340   -6.053670
  H    -14.407170   14.580760   -6.808620
  H    -13.418680   16.880470   -7.415690
  H    -11.253400   18.170450   -7.394680
  H     -6.255250   19.360660   -6.709730
  H     -5.125610   16.446610   -5.442110

 Total Charge           Charge          ....    0
 Multiplicity           Mult            ....    1
 Number of Electrons    NEL             ....  536
 Basis Dimension        Dim             .... 1120

ORBITAL ENERGIES
----------------

  NO   OCC          E(Eh)            E(eV)
   0   2.0000    -482.879977    -13139.8322
   1   2.0000     -88.978149     -2421.2185
   2   2.0000     -88.973575     -2421.0941
   3   2.0000     -88.968338     -2420.9516
   4   2.0000     -88.942589     -2420.2509
   5   2.0000     -88.942409     -2420.2460
   6   2.0000     -88.923040     -2419.7189
   7   2.0000     -88.910409     -2419.3752
   8   2.0000     -62.557675     -1702.2809
   9   2.0000     -56.391620     -1534.4940
  10   2.0000     -56.388915     -1534.4204
  11   2.0000     -56.388883     -1534.4195
  12   2.0000     -19.311149      -525.4831
  13   2.0000     -19.246836      -523.7330
  14   2.0000     -19.243921      -523.6537
  15   2.0000     -19.203007      -522.5404
  16   2.0000     -14.657904      -398.8618
  17   2.0000     -14.402201      -391.9038
  18   2.0000     -14.402106      -391.9012
  19   2.0000     -10.390268      -282.7336
  20   2.0000     -10.353042      -281.7206
  21   2.0000     -10.351855      -281.6883
  22   2.0000     -10.350753      -281.6583
  23   2.0000     -10.331266      -281.1280
  24   2.0000     -10.327832      -281.0346
  25   2.0000     -10.326263      -280.9919
  26   2.0000     -10.322786      -280.8973
  27   2.0000     -10.316646      -280.7302
  28   2.0000     -10.315422      -280.6969
  29   2.0000     -10.314726      -280.6780
  30   2.0000     -10.313263      -280.6382
  31   2.0000     -10.311040      -280.5777
  32   2.0000     -10.310917      -280.5743
  33   2.0000     -10.309343      -280.5315
  34   2.0000     -10.309051      -280.5235
  35   2.0000     -10.308725      -280.5147
  36   2.0000     -10.308613      -280.5116
  37   2.0000     -10.306037      -280.4415
  38   2.0000     -10.305926      -280.4385
  39   2.0000     -10.303803      -280.3807
  40   2.0000     -10.302128      -280.3352
  41   2.0000     -10.301530      -280.3189
  42   2.0000     -10.299114      -280.2531
  43   2.0000     -10.297698      -280.2146
  44   2.0000     -10.297176      -280.2004
  45   2.0000     -10.296041      -280.1695
  46   2.0000     -10.294156      -280.1182
  47   2.0000     -10.293646      -280.1044
  48   2.0000     -10.292338      -280.0688
  49   2.0000     -10.291680      -280.0508
  50   2.0000     -10.290512      -280.0191
  51   2.0000     -10.290437      -280.0170
  52   2.0000     -10.290194      -280.0104
  53   2.0000     -10.289895      -280.0023
  54   2.0000     -10.288590      -279.9668
  55   2.0000     -10.287295      -279.9315
  56   2.0000     -10.285990      -279.8960
  57   2.0000     -10.285974      -279.8956
  58   2.0000     -10.285927      -279.8943
  59   2.0000     -10.285740      -279.8892
  60   2.0000     -10.282462      -279.8000
  61   2.0000     -10.282011      -279.7877
  62   2.0000     -10.281466      -279.7729
  63   2.0000     -10.281370      -279.7703
  64   2.0000     -10.277702      -279.6705
  65   2.0000     -10.277069      -279.6533
  66   2.0000     -10.270336      -279.4700
  67   2.0000     -10.265757      -279.3455
  68   2.0000     -10.260704      -279.2079
  69   2.0000     -10.253810      -279.0203
  70   2.0000      -8.787084      -239.1087
  71   2.0000      -8.073056      -219.6790
  72   2.0000      -8.068911      -219.5662
  73   2.0000      -8.064264      -219.4398
  74   2.0000      -8.039028      -218.7531
  75   2.0000      -8.038623      -218.7420
  76   2.0000      -8.018226      -218.1870
  77   2.0000      -8.005751      -217.8475
  78   2.0000      -6.623356      -180.2307
  79   2.0000      -6.608831      -179.8354
  80   2.0000      -6.608638      -179.8302
  81   2.0000      -6.042374      -164.4214
  82   2.0000      -6.038114      -164.3054
  83   2.0000      -6.037860      -164.2985
  84   2.0000      -6.035391      -164.2313
  85   2.0000      -6.033951      -164.1921
  86   2.0000      -6.033901      -164.1908
  87   2.0000      -6.031543      -164.1266
  88   2.0000      -6.029697      -164.0764
  89   2.0000      -6.025503      -163.9623
  90   2.0000      -6.008748      -163.5063
  91   2.0000      -6.008405      -163.4970
  92   2.0000      -6.004716      -163.3966
  93   2.0000      -6.004237      -163.3836
  94   2.0000      -5.999868      -163.2647
  95   2.0000      -5.999353      -163.2507
  96   2.0000      -5.988462      -162.9543
  97   2.0000      -5.984167      -162.8375
  98   2.0000      -5.978483      -162.6828
  99   2.0000      -5.976217      -162.6211
 100   2.0000      -5.972491      -162.5197
 101   2.0000      -5.965034      -162.3168
 102   2.0000      -2.739224       -74.5381
 103   2.0000      -2.735153       -74.4273
 104   2.0000      -2.735024       -74.4238
 105   2.0000      -2.723466       -74.1093
 106   2.0000      -2.723461       -74.1091
 107   2.0000      -1.328814       -36.1589
 108   2.0000      -1.233233       -33.5580
 109   2.0000      -1.144599       -31.1461
 110   2.0000      -1.116715       -30.3873
 111   2.0000      -1.013378       -27.5754
 112   2.0000      -1.008249       -27.4358
 113   2.0000      -1.001816       -27.2608
 114   2.0000      -1.000583       -27.2272
 115   2.0000      -0.994584       -27.0640
 116   2.0000      -0.981285       -26.7021
 117   2.0000      -0.978487       -26.6260
 118   2.0000      -0.973963       -26.5029
 119   2.0000      -0.959316       -26.1043
 120   2.0000      -0.938423       -25.5358
 121   2.0000      -0.938206       -25.5299
 122   2.0000      -0.932224       -25.3671
 123   2.0000      -0.912850       -24.8399
 124   2.0000      -0.906102       -24.6563
 125   2.0000      -0.900439       -24.5022
 126   2.0000      -0.898765       -24.4566
 127   2.0000      -0.894676       -24.3454
 128   2.0000      -0.890086       -24.2205
 129   2.0000      -0.883189       -24.0328
 130   2.0000      -0.877253       -23.8713
 131   2.0000      -0.873394       -23.7662
 132   2.0000      -0.863141       -23.4873
 133   2.0000      -0.850866       -23.1532
 134   2.0000      -0.847269       -23.0554
 135   2.0000      -0.844138       -22.9702
 136   2.0000      -0.839810       -22.8524
 137   2.0000      -0.829246       -22.5649
 138   2.0000      -0.822076       -22.3698
 139   2.0000      -0.820599       -22.3296
 140   2.0000      -0.809010       -22.0143
 141   2.0000      -0.803753       -21.8712
 142   2.0000      -0.793134       -21.5823
 143   2.0000      -0.779724       -21.2174
 144   2.0000      -0.773737       -21.0545
 145   2.0000      -0.772474       -21.0201
 146   2.0000      -0.757342       -20.6083
 147   2.0000      -0.747590       -20.3430
 148   2.0000      -0.740077       -20.1385
 149   2.0000      -0.718838       -19.5606
 150   2.0000      -0.712486       -19.3877
 151   2.0000      -0.712024       -19.3751
 152   2.0000      -0.706051       -19.2126
 153   2.0000      -0.698938       -19.0191
 154   2.0000      -0.684128       -18.6161
 155   2.0000      -0.682310       -18.5666
 156   2.0000      -0.678873       -18.4731
 157   2.0000      -0.670859       -18.2550
 158   2.0000      -0.669330       -18.2134
 159   2.0000      -0.665905       -18.1202
 160   2.0000      -0.660137       -17.9632
 161   2.0000      -0.653480       -17.7821
 162   2.0000      -0.649551       -17.6752
 163   2.0000      -0.642864       -17.4932
 164   2.0000      -0.636571       -17.3220
 165   2.0000      -0.634264       -17.2592
 166   2.0000      -0.633713       -17.2442
 167   2.0000      -0.627006       -17.0617
 168   2.0000      -0.621797       -16.9199
 169   2.0000      -0.618296       -16.8247
 170   2.0000      -0.614636       -16.7251
 171   2.0000      -0.614506       -16.7216
 172   2.0000      -0.604043       -16.4368
 173   2.0000      -0.589587       -16.0435
 174   2.0000      -0.589522       -16.0417
 175   2.0000      -0.583191       -15.8694
 176   2.0000      -0.580749       -15.8030
 177   2.0000      -0.579770       -15.7763
 178   2.0000      -0.569390       -15.4939
 179   2.0000      -0.565008       -15.3747
 180   2.0000      -0.563865       -15.3435
 181   2.0000      -0.561974       -15.2921
 182   2.0000      -0.553436       -15.0598
 183   2.0000      -0.548059       -14.9135
 184   2.0000      -0.544208       -14.8086
 185   2.0000      -0.543118       -14.7790
 186   2.0000      -0.540005       -14.6943
 187   2.0000      -0.532692       -14.4953
 188   2.0000      -0.529974       -14.4213
 189   2.0000      -0.529357       -14.4045
 190   2.0000      -0.526870       -14.3369
 191   2.0000      -0.523624       -14.2485
 192   2.0000      -0.522104       -14.2072
 193   2.0000      -0.517203       -14.0738
 194   2.0000      -0.515822       -14.0362
 195   2.0000      -0.513551       -13.9744
 196   2.0000      -0.508185       -13.8284
 197   2.0000      -0.505550       -13.7567
 198   2.0000      -0.502805       -13.6820
 199   2.0000      -0.499315       -13.5871
 200   2.0000      -0.498780       -13.5725
 201   2.0000      -0.498366       -13.5612
 202   2.0000      -0.496513       -13.5108
 203   2.0000      -0.492712       -13.4074
 204   2.0000      -0.485428       -13.2092
 205   2.0000      -0.484916       -13.1952
 206   2.0000      -0.480489       -13.0748
 207   2.0000      -0.478631       -13.0242
 208   2.0000      -0.476870       -12.9763
 209   2.0000      -0.475883       -12.9494
 210   2.0000      -0.473333       -12.8800
 211   2.0000      -0.470042       -12.7905
 212   2.0000      -0.467177       -12.7125
 213   2.0000      -0.464655       -12.6439
 214   2.0000      -0.463249       -12.6057
 215   2.0000      -0.462255       -12.5786
 216   2.0000      -0.458791       -12.4843
 217   2.0000      -0.455440       -12.3932
 218   2.0000      -0.452609       -12.3161
 219   2.0000      -0.450072       -12.2471
 220   2.0000      -0.449783       -12.2392
 221   2.0000      -0.444577       -12.0975
 222   2.0000      -0.439325       -11.9546
 223   2.0000      -0.438326       -11.9275
 224   2.0000      -0.437059       -11.8930
 225   2.0000      -0.434677       -11.8282
 226   2.0000      -0.433454       -11.7949
 227   2.0000      -0.432423       -11.7668
 228   2.0000      -0.431253       -11.7350
 229   2.0000      -0.429314       -11.6822
 230   2.0000      -0.428281       -11.6541
 231   2.0000      -0.423660       -11.5284
 232   2.0000      -0.418266       -11.3816
 233   2.0000      -0.416569       -11.3354
 234   2.0000      -0.415056       -11.2943
 235   2.0000      -0.413574       -11.2539
 236   2.0000      -0.410085       -11.1590
 237   2.0000      -0.407364       -11.0849
 238   2.0000      -0.404027       -10.9941
 239   2.0000      -0.396827       -10.7982
 240   2.0000      -0.395137       -10.7522
 241   2.0000      -0.393411       -10.7053
 242   2.0000      -0.391472       -10.6525
 243   2.0000      -0.386134       -10.5072
 244   2.0000      -0.382761       -10.4155
 245   2.0000      -0.380252       -10.3472
 246   2.0000      -0.377559       -10.2739
 247   2.0000      -0.373307       -10.1582
 248   2.0000      -0.371366       -10.1054
 249   2.0000      -0.369506       -10.0548
 250   2.0000      -0.358225        -9.7478
 251   2.0000      -0.353021        -9.6062
 252   2.0000      -0.346388        -9.4257
 253   2.0000      -0.340979        -9.2785
 254   2.0000      -0.338878        -9.2213
 255   2.0000      -0.335604        -9.1323
 256   2.0000      -0.325984        -8.8705
 257   2.0000      -0.323898        -8.8137
 258   2.0000      -0.321085        -8.7372
 259   2.0000      -0.315076        -8.5737
 260   2.0000      -0.306528        -8.3411
 261   2.0000      -0.304010        -8.2725
 262   2.0000      -0.286543        -7.7972
 263   2.0000      -0.282039        -7.6747
 264   2.0000      -0.278556        -7.5799
 265   2.0000      -0.268854        -7.3159
 266   2.0000      -0.243710        -6.6317
 267   2.0000      -0.210393        -5.7251
 268   0.0000      -0.095875        -2.6089
 269   0.0000      -0.085047        -2.3143
 270   0.0000      -0.063384        -1.7248
 271   0.0000      -0.059596        -1.6217
 272   0.0000      -0.029737        -0.8092

MULLIKEN ATOMIC CHARGES
-----------------------
   0 C :    0.305229
   1 C :   -0.356099
   2 C :   -0.187284
   3 N :    0.140103
   4 C :   -0.208994
   5 N :    0.152925
   6 C :    0.019358
   7 C :   -0.002828
   8 C :   -0.090772
   9 C :    0.117041
  10 C :   -0.092600
  11 C :   -0.026160
  12 S :    0.182068
  13 C :   -0.124164
  14 C :    0.037310
  15 Br:    0.016601
  16 C :    0.123859
  17 O :   -0.172297
  18 C :   -0.118054
  19 C :    0.019759
  20 C :   -0.140421
  21 S :    0.172402
  22 C :   -0.048099
  23 C :    0.097689
  24 C :    0.178714
  25 C :   -0.011679
  26 C :   -0.027533
  27 S :    0.003771
  28 C :   -0.143357
  29 C :    0.037350
  30 C :   -0.095125
  31 S :   -0.021566
  32 C :   -0.120947
  33 C :    0.029974
  34 C :   -0.023759
  35 C :    0.013288
  36 C :    0.008150
  37 C :   -0.020612
  38 C :    0.000226
  39 C :    0.003744
  40 C :    0.004121
  41 C :   -0.106391
  42 C :    0.028289
  43 C :   -0.026816
  44 C :   -0.011176
  45 C :    0.037716
  46 C :    0.028108
  47 C :   -0.052792
  48 S :    0.094312
  49 C :   -0.039349
  50 C :    0.032791
  51 C :    0.031680
  52 C :   -0.031531
  53 S :    0.099420
  54 C :    0.044811
  55 C :   -0.232106
  56 S :    0.147930
  57 C :   -0.140535
  58 C :    0.127568
  59 C :    0.197255
  60 O :   -0.192054
  61 C :    0.248910
  62 N :    0.272363
  63 O :   -0.251945
  64 O :   -0.227731
  65 C :   -0.081351
  66 H :   -0.015977
  67 H :   -0.008737
  68 H :   -0.006953
  69 H :    0.023159
  70 H :   -0.045514
  71 H :    0.082440
  72 H :    0.050810
  73 H :    0.026131
  74 H :    0.023277
  75 H :    0.020176
  76 H :    0.051814
  77 H :    0.057208
  78 H :    0.019700
  79 H :    0.020480
  80 H :    0.029516
  81 H :   -0.027726
  82 H :    0.008743
  83 H :   -0.008163
  84 H :    0.023984
  85 H :    0.043352
  86 H :    0.018060
  87 H :    0.025267
  88 H :   -0.012982
  89 H :   -0.010760
  90 H :   -0.013415
  91 H :   -0.013288
  92 H :   -0.013471
  93 H :   -0.022368
  94 H :    0.033207
  95 H :    0.013323
Sum of atomic charges:   -0.0000000

LOEWDIN ATOMIC CHARGES
----------------------
   0 C :    0.075816
   1 C :   -0.154026
   2 C :   -0.018933
   3 N :   -0.064650
   4 C :   -0.025801
   5 N :   -0.061707
   6 C :   -0.020353
   7 C :   -0.047123
   8 C :    0.010922
   9 C :   -0.036496
  10 C :   -0.147111
  11 C :   -0.011237
  12 S :    0.429459
  13 C :   -0.274160
  14 C :   -0.072145
  15 Br:    0.131363
  16 C :    0.070987
  17 O :   -0.156529
  18 C :   -0.125778
  19 C :    0.040517
  20 C :   -0.185838
  21 S :    0.489017
  22 C :   -0.120972
  23 C :   -0.054164
  24 C :   -0.004789
  25 C :   -0.027241
  26 C :   -0.148430
  27 S :    0.320698
  28 C :   -0.137221
  29 C :   -0.072929
  30 C :   -0.177647
  31 S :    0.258655
  32 C :   -0.130569
  33 C :   -0.071495
  34 C :   -0.015672
  35 C :   -0.043493
  36 C :    0.021764
  37 C :   -0.047142
  38 C :    0.008570
  39 C :   -0.037433
  40 C :   -0.027969
  41 C :   -0.051946
  42 C :    0.001959
  43 C :   -0.062596
  44 C :   -0.136201
  45 C :   -0.033866
  46 C :   -0.027718
  47 C :   -0.177796
  48 S :    0.385230
  49 C :   -0.180512
  50 C :   -0.030653
  51 C :   -0.034226
  52 C :   -0.142710
  53 S :    0.400690
  54 C :   -0.087436
  55 C :   -0.198057
  56 S :    0.473418
  57 C :   -0.190294
  58 C :   -0.080550
  59 C :    0.010795
  60 O :   -0.000719
  61 C :    0.026574
  62 N :    0.272863
  63 O :   -0.212640
  64 O :   -0.190930
  65 C :   -0.009265
  66 H :    0.037333
  67 H :    0.040397
  68 H :    0.037340
  69 H :    0.043124
  70 H :    0.026765
  71 H :    0.026615
  72 H :    0.027557
  73 H :    0.022553
  74 H :    0.027693
  75 H :    0.026025
  76 H :    0.021207
  77 H :    0.019682
  78 H :    0.023631
  79 H :    0.028039
  80 H :    0.021198
  81 H :    0.029747
  82 H :    0.041495
  83 H :    0.027989
  84 H :    0.026759
  85 H :    0.036835
  86 H :    0.039572
  87 H :    0.033322
  88 H :    0.032955
  89 H :    0.033937
  90 H :    0.031923
  91 H :    0.031740
  92 H :    0.032496
  93 H :    0.033570
  94 H :    0.029088
  95 H :    0.047284

  Mayer bond orders larger than 0.100000
B(  0-C ,  1-C ) :   1.6067 B(  0-C ,  6-C ) :   0.9923 B(  0-C , 18-C ) :   1.1138
B(  1-C ,  2-C ) :   1.1465 B(  1-C ,  4-C ) :   1.1451 B(  2-C ,  3-N ) :   2.9664
B(  4-C ,  5-N ) :   2.9917 B(  6-C ,  7-C ) :   1.2759 B(  6-C , 11-C ) :   1.4177
B(  7-C ,  8-C ) :   1.4272 B(  7-C , 16-C ) :   0.9279 B(  8-C ,  9-C ) :   1.2326
B(  8-C , 66-H ) :   1.0171 B(  9-C , 10-C ) :   1.3194 B(  9-C , 14-C ) :   1.1628
B( 10-C , 11-C ) :   1.3169 B( 10-C , 12-S ) :   1.0833 B( 11-C , 67-H ) :   0.9797
B( 12-S , 13-C ) :   1.0880 B( 13-C , 14-C ) :   1.6169 B( 13-C , 15-Br) :   1.0141
B( 14-C , 68-H ) :   1.0006 B( 16-C , 17-O ) :   2.1199 B( 16-C , 18-C ) :   1.0059
B( 18-C , 19-C ) :   1.4441 B( 19-C , 20-C ) :   1.3287 B( 19-C , 69-H ) :   0.9264
B( 20-C , 21-S ) :   1.0816 B( 20-C , 24-C ) :   1.2554 B( 21-S , 22-C ) :   1.1991
B( 22-C , 23-C ) :   1.2787 B( 22-C , 35-C ) :   1.1653 B( 23-C , 24-C ) :   1.2250
B( 23-C , 34-C ) :   1.2018 B( 24-C , 25-C ) :   1.2771 B( 25-C , 26-C ) :   1.4765
B( 25-C , 70-H ) :   0.9750 B( 26-C , 27-S ) :   1.0519 B( 26-C , 30-C ) :   1.2561
B( 27-S , 28-C ) :   0.9968 B( 28-C , 29-C ) :   1.0598 B( 28-C , 71-H ) :   0.9321
B( 28-C , 72-H ) :   0.9517 B( 29-C , 73-H ) :   0.9707 B( 29-C , 74-H ) :   0.9594
B( 29-C , 75-H ) :   0.9647 B( 30-C , 31-S ) :   1.0350 B( 30-C , 34-C ) :   1.5536
B( 31-S , 32-C ) :   0.9684 B( 32-C , 33-C ) :   1.0695 B( 32-C , 76-H ) :   0.9554
B( 32-C , 77-H ) :   0.9533 B( 33-C , 78-H ) :   0.9715 B( 33-C , 79-H ) :   0.9644
B( 33-C , 80-H ) :   0.9716 B( 34-C , 81-H ) :   0.9880 B( 35-C , 36-C ) :   1.6626
B( 35-C , 82-H ) :   0.9544 B( 36-C , 37-C ) :   1.0907 B( 36-C , 83-H ) :   0.9882
B( 37-C , 38-C ) :   1.8464 B( 37-C , 39-C ) :   0.8720 B( 38-C , 84-H ) :   0.9498
B( 38-C , 85-H ) :   0.9485 B( 39-C , 40-C ) :   2.3222 B( 40-C , 41-C ) :   0.9841
B( 41-C , 42-C ) :   1.6647 B( 41-C , 86-H ) :   0.9655 B( 42-C , 43-C ) :   1.1540
B( 42-C , 87-H ) :   0.9776 B( 43-C , 44-C ) :   1.5691 B( 43-C , 88-H ) :   0.9808
B( 44-C , 45-C ) :   1.1387 B( 44-C , 48-S ) :   1.0370 B( 45-C , 46-C ) :   1.5918
B( 45-C , 89-H ) :   0.9997 B( 46-C , 47-C ) :   1.1870 B( 46-C , 90-H ) :   0.9939
B( 47-C , 48-S ) :   1.0497 B( 47-C , 49-C ) :   1.5073 B( 49-C , 50-C ) :   1.1822
B( 49-C , 53-S ) :   1.0374 B( 50-C , 51-C ) :   1.5961 B( 50-C , 91-H ) :   0.9934
B( 51-C , 52-C ) :   1.1392 B( 51-C , 92-H ) :   0.9994 B( 52-C , 53-S ) :   1.0464
B( 52-C , 54-C ) :   1.6031 B( 54-C , 55-C ) :   1.1525 B( 54-C , 93-H ) :   0.9432
B( 55-C , 56-S ) :   1.1343 B( 55-C , 57-C ) :   0.1088 B( 55-C , 59-C ) :   1.4253
B( 56-S , 57-C ) :   1.1810 B( 57-C , 58-C ) :   1.4306 B( 57-C , 94-H ) :   0.9764
B( 58-C , 59-C ) :   1.2345 B( 58-C , 65-C ) :   1.0626 B( 59-C , 60-O ) :   1.0897
B( 60-O , 61-C ) :   1.1204 B( 61-C , 62-N ) :   0.9156 B( 61-C , 65-C ) :   1.5774
B( 62-N , 63-O ) :   1.5299 B( 62-N , 64-O ) :   1.5159 B( 63-O , 64-O ) :   0.2805
B( 65-C , 95-H ) :   1.0259

-----------------------------------------------------------------------------
         ABSORPTION SPECTRUM VIA TRANSITION ELECTRIC DIPOLE MOMENTS
-----------------------------------------------------------------------------
State   Energy  Wavelength   fosc         T2         TX        TY        TZ
        (cm-1)    (nm)                  (au**2)     (au)      (au)      (au)
-----------------------------------------------------------------------------
   0   13595.6    735.5   0.981248402  23.76055   0.37995   4.60629  -1.54865
   1   15303.5    653.4   0.024605127   0.52931  -0.04485   0.68785  -0.23273
   2   15813.2    632.4   1.058537291  22.03755  -1.74619   4.05772  -1.58849
   3   16689.6    599.2   0.094945123   1.87284   1.28658   0.43537  -0.16736
   4   22664.4    441.2   0.023327620   0.33885  -0.33107  -0.06835  -0.47388
   5   23465.9    426.2   0.224056950   3.14338   0.12159   1.50827  -0.92397
   6   23570.4    424.3   0.023253027   0.32478  -0.27474   0.42469  -0.26256
   7   23922.5    418.0   0.155753584   2.14341  -0.89554  -0.93198   0.68763
   8   25475.8    392.5   0.043386989   0.56067   0.73990   0.07426  -0.08773
   9   25863.5    386.6   0.060265122   0.76710  -0.86055  -0.13969  -0.08394
  10   26676.8    374.9   0.219196871   2.70505  -0.05734   1.63048  -0.20805
  11   27281.2    366.6   0.032793478   0.39573   0.20806   0.54332   0.23926
  12   27423.1    364.7   0.425104494   5.10333  -2.12671   0.42109  -0.63490
  13   27682.1    361.2   0.196134482   2.33255  -1.08713  -1.04949  -0.22195
  14   28622.6    349.4   0.290129766   3.33702  -1.64018   0.38463  -0.70632
  15   29321.6    341.0   0.097302458   1.09248   0.92028   0.44132  -0.22539
  16   30031.9    333.0   0.150775485   1.65281   1.24026  -0.05931  -0.33322
  17   30614.2    326.6   0.078632650   0.84558  -0.79349  -0.33441  -0.32268
  18   30822.2    324.4   0.034731113   0.37096   0.44870  -0.40620   0.06810
  19   31199.5    320.5   0.025924038   0.27355   0.34205  -0.37136   0.13653
  20   31574.3    316.7   0.018775730   0.19577   0.39013  -0.08336   0.19136
  21   32164.1    310.9   0.048350129   0.49488   0.61640   0.32966  -0.07912
  22   32306.2    309.5   0.337642441   3.44070   0.72537   1.54320   0.73012
  23   32601.7    306.7   0.074970993   0.75706   0.83928  -0.18565   0.13489
  24   32610.4    306.7   0.000620653   0.00627   0.07598  -0.01589   0.01552
  25   33059.4    302.5   0.071950508   0.71650  -0.46680  -0.69335  -0.13367
  26   33544.9    298.1   0.014203437   0.13939   0.31414  -0.16723   0.11289
  27   33655.3    297.1   0.118135516   1.15559  -0.34101   0.91485   0.44984
  28   33893.3    295.0   0.027439408   0.26652  -0.29901   0.03453  -0.41944
  29   34241.9    292.0   0.000296967   0.00286  -0.01248   0.04941   0.01606
  30   34372.1    290.9   0.012287859   0.11769   0.23294   0.24227   0.06882
  31   34920.0    286.4   0.004538618   0.04279   0.17163  -0.08532   0.07780
  32   35388.4    282.6   0.090457446   0.84151  -0.44248   0.75346  -0.27932
  33   35493.8    281.7   0.193242228   1.79236  -0.10586  -1.26941   0.41202
  34   35704.6    280.1   0.002107574   0.01943  -0.12212  -0.06477  -0.01797
  35   36207.1    276.2   0.208935750   1.89974  -1.26969  -0.12661  -0.52115
  36   36360.3    275.0   0.026860765   0.24320  -0.14522  -0.46312   0.08736
  37   36561.4    273.5   0.164652497   1.48259  -0.86115   0.72089  -0.47045
  38   36782.7    271.9   0.195399220   1.74886   0.51725   1.17137  -0.33048
  39   37065.0    269.8   0.032572490   0.28931  -0.18953   0.05255  -0.50063
  40   37386.3    267.5   0.007850341   0.06913  -0.02697   0.20749  -0.15921
  41   37460.9    266.9   0.056867653   0.49976  -0.38922   0.43483  -0.39900
  42   37540.6    266.4   0.215375081   1.88873  -0.99171  -0.94960  -0.05922
  43   37853.0    264.2   0.001167207   0.01015  -0.09099  -0.00874   0.04237
  44   38092.8    262.5   0.028706701   0.24809   0.23617  -0.38256   0.21440
  45   38445.6    260.1   0.013931204   0.11929  -0.00948   0.28513  -0.19470
  46   38630.1    258.9   0.062386398   0.53167  -0.67766   0.05730  -0.26298
  47   38835.7    257.5   0.013313956   0.11286  -0.33168  -0.05305  -0.00617
  48   38989.4    256.5   0.015442496   0.13039  -0.03110   0.33758  -0.12436
  49   39086.7    255.8   0.079741429   0.67163  -0.81137  -0.05164   0.10316
  50   39247.6    254.8   0.338498540   2.83935  -0.22467  -1.52005   0.69162
  51   39697.4    251.9   0.009964489   0.08264  -0.20222   0.20052  -0.03915
  52   39739.9    251.6   0.006688413   0.05541   0.21810   0.08608  -0.02071
  53   39837.5    251.0   0.038894985   0.32142   0.15350   0.53904  -0.08544
  54   40032.3    249.8   0.002213802   0.01821   0.04723   0.01894   0.12496
  55   40203.4    248.7   0.021562278   0.17657  -0.22043  -0.30089   0.19350

FINAL SINGLE POINT ENERGY     -7783.715222855715

DIPOLE MOMENT
-------------
                                X             Y             Z
Electronic contribution:     57.95427    -137.55989       9.33406
Nuclear contribution   :    -61.17168     140.86322     -11.84295
                        -----------------------------------------
Total Dipole Moment    :     -3.21741       3.30332      -2.50889
                        -----------------------------------------
Magnitude (a.u.)       :      5.24959
Magnitude (Debye)      :     13.34339

Rotational constants in cm-1:     0.001877     0.000185     0.000175
Rotational constants in MHz :    56.258746     5.539653     5.233785

                             ****ORCA TERMINATED NORMALLY****
TOTAL RUN TIME: 0 days 0 hours 9 minutes 52 seconds 141 msec
