                         Program Version 4.2.0 -  RELEASE  -
|  1> # ORCA input file
|  2> # SCF done       -201.332505239211          0.000754514534
|  3> ! CAM-B3LYP def2-SVP def2/J RIJCOSX Grid4 TightSCF
|  4> %maxcore 5000
|  5> %tddft
|  6>     Mode sTDDFT
|  7>     Ethresh 5.0
|  8>     maxcore 5000
|  9> end
| 10>
| 11> %pal
| 12>   nprocs 6
| 13>   end
| 14> * xyz 0 1
| 15>    C        1.03795        -1.51625        -5.89883
| 16>    C        1.78305        -2.40917        -5.17437
| 17>    C        2.53079        -3.46200        -5.74072
| 18>    N        3.15376        -4.33523        -6.14858
| 19>    C        1.89099        -2.38615        -3.76872
| 20>    N        2.00048        -2.40039        -2.62639
| 21>    C        0.89107        -1.50427        -7.35255
| 22>    C        0.03554        -0.43232        -7.71943
| 23>    C       -0.29623        -0.16170        -9.02563
| 24>    C        0.23862        -0.98813       -10.01879
| 25>    C        1.08984        -2.05549        -9.64453
| 26>    C        1.42696        -2.32765        -8.32292
| 27>    S        1.63578        -2.95101       -11.02747
| 28>    C        0.72633        -1.89617       -12.07676
| 29>    C        0.04793        -0.92080       -11.42524
| 30>   Br        0.75578        -2.18089       -13.92983
| 31>    C       -0.38846         0.26676        -6.50475
| 32>    O       -1.13477         1.24597        -6.43375
| 33>    C        0.24799        -0.42039        -5.38375
| 34>    C        0.06391        -0.00490        -4.08381
| 35>    N       -0.73329         1.03655        -3.83325
| 36>    C       -1.01466         1.62227        -2.64164
| 37>    S       -0.24695         1.14067        -1.16344
| 38>    C       -1.11251         2.39696        -0.34037
| 39>    N       -0.90147         2.53591         1.04083
| 40>    O       -1.50537         3.41961         1.61612
| 41>    O       -0.12297         1.75416         1.55473
| 42>    C       -1.93386         3.13243        -1.15103
| 43>    C       -1.90178         2.69842        -2.49087
| 44>    C       -2.65951         3.23219        -3.58960
| 45>    C       -3.30288         4.41909        -3.57885
| 46>    C       -4.02631         5.01562        -4.65189
| 47>    S       -4.86953         6.49807        -4.29326
| 48>    C       -5.41279         6.65638        -5.93424
| 49>    C       -4.97858         5.58664        -6.70585
| 50>    C       -4.18887         4.66992        -5.98835
| 51>    C       -3.61007         3.44805        -6.63016
| 52>    C       -3.72074         3.46881        -8.15945
| 53>    C       -2.63924         4.29400        -8.84634
| 54>    O       -2.87666         5.03075        -9.77162
| 55>    C       -1.23528         4.09424        -8.33422
| 56>    C       -5.12341         3.91635        -8.56342
| 57>    C       -5.35303         5.36210        -8.13392
| 58>    C       -6.19195         7.79574        -6.29193
| 59>    C       -6.29428         8.26621        -7.55421
| 60>    C       -7.04597         9.40434        -7.96309
| 61>    O       -7.65637        10.22299        -7.06170
| 62>    C       -8.18209        11.25438        -7.70189
| 63>    C       -7.94460        11.14870        -9.05389
| 64>    N       -8.32502        12.05827       -10.06241
| 65>    O       -8.98373        13.01987        -9.74045
| 66>    O       -7.96060        11.80508       -11.19977
| 67>    C       -7.21509         9.93173        -9.24154
| 68>    N       -6.77736         9.47207       -10.45360
| 69>    C       -6.43531         8.20812       -10.74398
| 70>    C       -5.76145         7.74824       -11.83588
| 71>    C       -5.03903         8.40610       -12.90111
| 72>    C       -4.50851         9.67253       -12.89205
| 73>    C       -3.78373        10.23464       -13.96342
| 74>    N       -3.19603        10.74837       -14.80488
| 75>    C       -4.51610        10.52702       -11.77252
| 76>    N       -4.45919        11.22617       -10.86256
| 77>    C       -4.78490         7.40087       -13.93045
| 78>    C       -5.17326         6.12957       -13.43751
| 79>    C       -5.76885         6.29026       -12.09874
| 80>    O       -6.21225         5.42704       -11.37144
| 81>    C       -5.00411         4.97460       -14.16084
| 82>    C       -4.43858         5.07826       -15.43621
| 83>    C       -4.07218         6.35388       -15.92691
| 84>    C       -4.23328         7.52181       -15.19158
| 85>    S       -3.40604         6.25611       -17.52854
| 86>    C       -3.62024         4.52600       -17.51589
| 87>    C       -4.16462         4.04449       -16.37304
| 88>   Br       -3.10566         3.51783       -19.01175
| 89>    H       -0.94799         0.65981        -9.27960
| 90>    H        2.07984        -3.15180        -8.08942
| 91>    H       -0.56156        -0.18428       -11.91605
| 92>    H        0.54062        -0.48829        -3.24144
| 93>    H       -1.14939         1.44692        -4.68900
| 94>    H       -2.54106         3.93466        -0.77439
| 95>    H       -2.69964         2.61415        -4.46932
| 96>    H       -3.27638         5.01702        -2.67753
| 97>    H       -4.15499         2.57274        -6.26062
| 98>    H       -2.56773         3.33231        -6.33932
| 99>    H       -3.54903         2.44382        -8.51375
|100>    H       -1.07428         3.08432        -7.96786
|101>    H       -1.06608         4.79197        -7.51441
|102>    H       -0.52433         4.33026        -9.12256
|103>    H       -5.85795         3.26143        -8.09105
|104>    H       -5.25029         3.85902        -9.64422
|105>    H       -6.40110         5.62655        -8.28718
|106>    H       -4.74558         5.99862        -8.78257
|107>    H       -6.69644         8.31083        -5.48571
|108>    H       -5.71472         7.81284        -8.33821
|109>    H       -8.69610        12.00962        -7.14047
|110>    H       -6.74431        10.19155       -11.17566
|111>    H       -6.80791         7.44541       -10.06932
|112>    H       -5.29929         4.01934       -13.75623
|113>    H       -3.94129         8.47056       -15.60987
|114>    H       -4.36616         3.00357       -16.19745
|115> *
|116>
|117>                          ****END OF INPUT****

CARTESIAN COORDINATES (ANGSTROEM)
---------------------------------
  C      1.037950   -1.516250   -5.898830
  C      1.783050   -2.409170   -5.174370
  C      2.530790   -3.462000   -5.740720
  N      3.153760   -4.335230   -6.148580
  C      1.890990   -2.386150   -3.768720
  N      2.000480   -2.400390   -2.626390
  C      0.891070   -1.504270   -7.352550
  C      0.035540   -0.432320   -7.719430
  C     -0.296230   -0.161700   -9.025630
  C      0.238620   -0.988130  -10.018790
  C      1.089840   -2.055490   -9.644530
  C      1.426960   -2.327650   -8.322920
  S      1.635780   -2.951010  -11.027470
  C      0.726330   -1.896170  -12.076760
  C      0.047930   -0.920800  -11.425240
  Br     0.755780   -2.180890  -13.929830
  C     -0.388460    0.266760   -6.504750
  O     -1.134770    1.245970   -6.433750
  C      0.247990   -0.420390   -5.383750
  C      0.063910   -0.004900   -4.083810
  N     -0.733290    1.036550   -3.833250
  C     -1.014660    1.622270   -2.641640
  S     -0.246950    1.140670   -1.163440
  C     -1.112510    2.396960   -0.340370
  N     -0.901470    2.535910    1.040830
  O     -1.505370    3.419610    1.616120
  O     -0.122970    1.754160    1.554730
  C     -1.933860    3.132430   -1.151030
  C     -1.901780    2.698420   -2.490870
  C     -2.659510    3.232190   -3.589600
  C     -3.302880    4.419090   -3.578850
  C     -4.026310    5.015620   -4.651890
  S     -4.869530    6.498070   -4.293260
  C     -5.412790    6.656380   -5.934240
  C     -4.978580    5.586640   -6.705850
  C     -4.188870    4.669920   -5.988350
  C     -3.610070    3.448050   -6.630160
  C     -3.720740    3.468810   -8.159450
  C     -2.639240    4.294000   -8.846340
  O     -2.876660    5.030750   -9.771620
  C     -1.235280    4.094240   -8.334220
  C     -5.123410    3.916350   -8.563420
  C     -5.353030    5.362100   -8.133920
  C     -6.191950    7.795740   -6.291930
  C     -6.294280    8.266210   -7.554210
  C     -7.045970    9.404340   -7.963090
  O     -7.656370   10.222990   -7.061700
  C     -8.182090   11.254380   -7.701890
  C     -7.944600   11.148700   -9.053890
  N     -8.325020   12.058270  -10.062410
  O     -8.983730   13.019870   -9.740450
  O     -7.960600   11.805080  -11.199770
  C     -7.215090    9.931730   -9.241540
  N     -6.777360    9.472070  -10.453600
  C     -6.435310    8.208120  -10.743980
  C     -5.761450    7.748240  -11.835880
  C     -5.039030    8.406100  -12.901110
  C     -4.508510    9.672530  -12.892050
  C     -3.783730   10.234640  -13.963420
  N     -3.196030   10.748370  -14.804880
  C     -4.516100   10.527020  -11.772520
  N     -4.459190   11.226170  -10.862560
  C     -4.784900    7.400870  -13.930450
  C     -5.173260    6.129570  -13.437510
  C     -5.768850    6.290260  -12.098740
  O     -6.212250    5.427040  -11.371440
  C     -5.004110    4.974600  -14.160840
  C     -4.438580    5.078260  -15.436210
  C     -4.072180    6.353880  -15.926910
  C     -4.233280    7.521810  -15.191580
  S     -3.406040    6.256110  -17.528540
  C     -3.620240    4.526000  -17.515890
  C     -4.164620    4.044490  -16.373040
  Br    -3.105660    3.517830  -19.011750
  H     -0.947990    0.659810   -9.279600
  H      2.079840   -3.151800   -8.089420
  H     -0.561560   -0.184280  -11.916050
  H      0.540620   -0.488290   -3.241440
  H     -1.149390    1.446920   -4.689000
  H     -2.541060    3.934660   -0.774390
  H     -2.699640    2.614150   -4.469320
  H     -3.276380    5.017020   -2.677530
  H     -4.154990    2.572740   -6.260620
  H     -2.567730    3.332310   -6.339320
  H     -3.549030    2.443820   -8.513750
  H     -1.074280    3.084320   -7.967860
  H     -1.066080    4.791970   -7.514410
  H     -0.524330    4.330260   -9.122560
  H     -5.857950    3.261430   -8.091050
  H     -5.250290    3.859020   -9.644220
  H     -6.401100    5.626550   -8.287180
  H     -4.745580    5.998620   -8.782570
  H     -6.696440    8.310830   -5.485710
  H     -5.714720    7.812840   -8.338210
  H     -8.696100   12.009620   -7.140470
  H     -6.744310   10.191550  -11.175660
  H     -6.807910    7.445410  -10.069320
  H     -5.299290    4.019340  -13.756230
  H     -3.941290    8.470560  -15.609870
  H     -4.366160    3.003570  -16.197450

 Total Charge           Charge          ....    0
 Multiplicity           Mult            ....    1
 Number of Electrons    NEL             ....  592
 Basis Dimension        Dim             .... 1218

ORBITAL ENERGIES
----------------

  NO   OCC          E(Eh)            E(eV)
   0   2.0000    -482.895783    -13140.2623
   1   2.0000    -482.887254    -13140.0302
   2   2.0000     -88.997599     -2421.7478
   3   2.0000     -88.988468     -2421.4993
   4   2.0000     -88.976355     -2421.1697
   5   2.0000     -88.960154     -2420.7289
   6   2.0000     -62.573504     -1702.7116
   7   2.0000     -62.564992     -1702.4800
   8   2.0000     -56.407468     -1534.9252
   9   2.0000     -56.404726     -1534.8506
  10   2.0000     -56.404699     -1534.8499
  11   2.0000     -56.398940     -1534.6932
  12   2.0000     -56.396230     -1534.6194
  13   2.0000     -56.396195     -1534.6185
  14   2.0000     -19.334763      -526.1257
  15   2.0000     -19.262663      -524.1637
  16   2.0000     -19.261244      -524.1251
  17   2.0000     -19.249575      -523.8076
  18   2.0000     -19.246099      -523.7130
  19   2.0000     -19.245586      -523.6990
  20   2.0000     -19.215452      -522.8790
  21   2.0000     -19.209528      -522.7178
  22   2.0000     -14.672620      -399.2623
  23   2.0000     -14.657644      -398.8548
  24   2.0000     -14.507004      -394.7556
  25   2.0000     -14.491639      -394.3376
  26   2.0000     -14.429281      -392.6407
  27   2.0000     -14.424895      -392.5214
  28   2.0000     -14.417873      -392.3303
  29   2.0000     -14.413509      -392.2115
  30   2.0000     -10.394416      -282.8464
  31   2.0000     -10.381751      -282.5018
  32   2.0000     -10.378560      -282.4150
  33   2.0000     -10.377466      -282.3852
  34   2.0000     -10.370869      -282.2057
  35   2.0000     -10.367149      -282.1045
  36   2.0000     -10.362533      -281.9789
  37   2.0000     -10.361380      -281.9475
  38   2.0000     -10.359926      -281.9079
  39   2.0000     -10.358992      -281.8825
  40   2.0000     -10.357214      -281.8341
  41   2.0000     -10.355934      -281.7993
  42   2.0000     -10.355626      -281.7909
  43   2.0000     -10.353407      -281.7305
  44   2.0000     -10.347175      -281.5610
  45   2.0000     -10.344642      -281.4920
  46   2.0000     -10.341356      -281.4026
  47   2.0000     -10.339194      -281.3438
  48   2.0000     -10.331431      -281.1325
  49   2.0000     -10.327778      -281.0331
  50   2.0000     -10.325810      -280.9796
  51   2.0000     -10.323304      -280.9114
  52   2.0000     -10.321351      -280.8582
  53   2.0000     -10.320361      -280.8313
  54   2.0000     -10.319700      -280.8133
  55   2.0000     -10.319029      -280.7950
  56   2.0000     -10.318824      -280.7895
  57   2.0000     -10.316797      -280.7343
  58   2.0000     -10.315393      -280.6961
  59   2.0000     -10.311136      -280.5803
  60   2.0000     -10.310567      -280.5648
  61   2.0000     -10.309289      -280.5300
  62   2.0000     -10.308922      -280.5200
  63   2.0000     -10.308470      -280.5077
  64   2.0000     -10.307877      -280.4916
  65   2.0000     -10.307153      -280.4719
  66   2.0000     -10.305607      -280.4298
  67   2.0000     -10.304466      -280.3988
  68   2.0000     -10.301970      -280.3309
  69   2.0000     -10.300668      -280.2954
  70   2.0000     -10.299164      -280.2545
  71   2.0000     -10.298337      -280.2320
  72   2.0000     -10.298160      -280.2272
  73   2.0000     -10.292618      -280.0764
  74   2.0000     -10.291819      -280.0546
  75   2.0000     -10.288509      -279.9646
  76   2.0000     -10.284556      -279.8570
  77   2.0000     -10.284310      -279.8503
  78   2.0000     -10.282807      -279.8094
  79   2.0000     -10.268168      -279.4110
  80   2.0000     -10.267754      -279.3998
  81   2.0000     -10.262029      -279.2440
  82   2.0000      -8.802947      -239.5404
  83   2.0000      -8.794426      -239.3085
  84   2.0000      -8.092804      -220.2164
  85   2.0000      -8.084366      -219.9868
  86   2.0000      -8.072391      -219.6609
  87   2.0000      -8.056136      -219.2186
  88   2.0000      -6.639316      -180.6650
  89   2.0000      -6.630729      -180.4313
  90   2.0000      -6.624653      -180.2660
  91   2.0000      -6.624432      -180.2599
  92   2.0000      -6.616158      -180.0348
  93   2.0000      -6.615961      -180.0295
  94   2.0000      -6.062443      -164.9675
  95   2.0000      -6.058074      -164.8486
  96   2.0000      -6.054297      -164.7458
  97   2.0000      -6.054032      -164.7386
  98   2.0000      -6.049742      -164.6218
  99   2.0000      -6.045663      -164.5108
 100   2.0000      -6.042087      -164.4135
 101   2.0000      -6.037789      -164.2966
 102   2.0000      -6.033611      -164.1829
 103   2.0000      -6.025234      -163.9550
 104   2.0000      -6.021392      -163.8504
 105   2.0000      -6.018287      -163.7659
 106   2.0000      -2.755159       -74.9717
 107   2.0000      -2.751069       -74.8604
 108   2.0000      -2.750905       -74.8559
 109   2.0000      -2.746582       -74.7383
 110   2.0000      -2.742501       -74.6272
 111   2.0000      -2.742386       -74.6241
 112   2.0000      -2.739242       -74.5386
 113   2.0000      -2.739234       -74.5384
 114   2.0000      -2.730796       -74.3087
 115   2.0000      -2.730779       -74.3083
 116   2.0000      -1.343044       -36.5461
 117   2.0000      -1.328070       -36.1386
 118   2.0000      -1.255231       -34.1566
 119   2.0000      -1.162770       -31.6406
 120   2.0000      -1.162269       -31.6269
 121   2.0000      -1.147439       -31.2234
 122   2.0000      -1.130352       -30.7584
 123   2.0000      -1.128061       -30.6961
 124   2.0000      -1.113990       -30.3132
 125   2.0000      -1.093782       -29.7633
 126   2.0000      -1.037052       -28.2196
 127   2.0000      -1.026012       -27.9192
 128   2.0000      -1.022826       -27.8325
 129   2.0000      -1.018784       -27.7225
 130   2.0000      -1.013536       -27.5797
 131   2.0000      -1.006694       -27.3935
 132   2.0000      -1.003236       -27.2994
 133   2.0000      -0.998177       -27.1618
 134   2.0000      -0.994943       -27.0738
 135   2.0000      -0.989328       -26.9210
 136   2.0000      -0.964740       -26.2519
 137   2.0000      -0.955442       -25.9989
 138   2.0000      -0.941816       -25.6281
 139   2.0000      -0.936357       -25.4796
 140   2.0000      -0.931609       -25.3504
 141   2.0000      -0.924902       -25.1679
 142   2.0000      -0.922190       -25.0941
 143   2.0000      -0.912066       -24.8186
 144   2.0000      -0.909216       -24.7410
 145   2.0000      -0.900151       -24.4944
 146   2.0000      -0.897104       -24.4114
 147   2.0000      -0.891597       -24.2616
 148   2.0000      -0.886487       -24.1225
 149   2.0000      -0.881944       -23.9989
 150   2.0000      -0.864239       -23.5171
 151   2.0000      -0.861802       -23.4508
 152   2.0000      -0.854052       -23.2399
 153   2.0000      -0.846174       -23.0256
 154   2.0000      -0.843575       -22.9549
 155   2.0000      -0.836766       -22.7696
 156   2.0000      -0.830292       -22.5934
 157   2.0000      -0.829223       -22.5643
 158   2.0000      -0.819482       -22.2992
 159   2.0000      -0.809332       -22.0230
 160   2.0000      -0.795093       -21.6356
 161   2.0000      -0.781611       -21.2687
 162   2.0000      -0.777303       -21.1515
 163   2.0000      -0.765157       -20.8210
 164   2.0000      -0.760099       -20.6834
 165   2.0000      -0.747087       -20.3293
 166   2.0000      -0.740568       -20.1519
 167   2.0000      -0.733785       -19.9673
 168   2.0000      -0.729799       -19.8588
 169   2.0000      -0.723158       -19.6781
 170   2.0000      -0.716860       -19.5067
 171   2.0000      -0.708965       -19.2919
 172   2.0000      -0.704495       -19.1703
 173   2.0000      -0.696838       -18.9619
 174   2.0000      -0.689891       -18.7729
 175   2.0000      -0.686928       -18.6923
 176   2.0000      -0.673844       -18.3362
 177   2.0000      -0.669417       -18.2158
 178   2.0000      -0.665124       -18.0989
 179   2.0000      -0.663169       -18.0457
 180   2.0000      -0.659755       -17.9528
 181   2.0000      -0.654283       -17.8040
 182   2.0000      -0.651432       -17.7264
 183   2.0000      -0.650077       -17.6895
 184   2.0000      -0.644605       -17.5406
 185   2.0000      -0.639118       -17.3913
 186   2.0000      -0.637816       -17.3559
 187   2.0000      -0.635053       -17.2807
 188   2.0000      -0.631949       -17.1962
 189   2.0000      -0.628293       -17.0967
 190   2.0000      -0.624261       -16.9870
 191   2.0000      -0.617329       -16.7984
 192   2.0000      -0.611543       -16.6409
 193   2.0000      -0.607771       -16.5383
 194   2.0000      -0.605514       -16.4769
 195   2.0000      -0.596703       -16.2371
 196   2.0000      -0.593073       -16.1383
 197   2.0000      -0.592186       -16.1142
 198   2.0000      -0.587000       -15.9731
 199   2.0000      -0.583808       -15.8862
 200   2.0000      -0.581656       -15.8277
 201   2.0000      -0.579532       -15.7699
 202   2.0000      -0.573161       -15.5965
 203   2.0000      -0.570853       -15.5337
 204   2.0000      -0.570202       -15.5160
 205   2.0000      -0.567699       -15.4479
 206   2.0000      -0.562056       -15.2943
 207   2.0000      -0.560174       -15.2431
 208   2.0000      -0.555804       -15.1242
 209   2.0000      -0.552844       -15.0436
 210   2.0000      -0.550454       -14.9786
 211   2.0000      -0.546103       -14.8602
 212   2.0000      -0.545265       -14.8374
 213   2.0000      -0.542549       -14.7635
 214   2.0000      -0.539761       -14.6877
 215   2.0000      -0.537147       -14.6165
 216   2.0000      -0.535410       -14.5692
 217   2.0000      -0.532824       -14.4989
 218   2.0000      -0.530991       -14.4490
 219   2.0000      -0.524727       -14.2786
 220   2.0000      -0.521724       -14.1968
 221   2.0000      -0.519592       -14.1388
 222   2.0000      -0.515596       -14.0301
 223   2.0000      -0.512343       -13.9416
 224   2.0000      -0.511486       -13.9182
 225   2.0000      -0.509876       -13.8744
 226   2.0000      -0.509150       -13.8547
 227   2.0000      -0.507583       -13.8120
 228   2.0000      -0.504636       -13.7319
 229   2.0000      -0.500121       -13.6090
 230   2.0000      -0.498408       -13.5624
 231   2.0000      -0.495717       -13.4891
 232   2.0000      -0.490744       -13.3538
 233   2.0000      -0.489053       -13.3078
 234   2.0000      -0.488175       -13.2839
 235   2.0000      -0.485083       -13.1998
 236   2.0000      -0.479756       -13.0548
 237   2.0000      -0.477436       -12.9917
 238   2.0000      -0.476721       -12.9722
 239   2.0000      -0.472701       -12.8628
 240   2.0000      -0.471415       -12.8279
 241   2.0000      -0.466723       -12.7002
 242   2.0000      -0.463459       -12.6114
 243   2.0000      -0.461520       -12.5586
 244   2.0000      -0.460677       -12.5357
 245   2.0000      -0.459682       -12.5086
 246   2.0000      -0.456886       -12.4325
 247   2.0000      -0.454625       -12.3710
 248   2.0000      -0.453250       -12.3336
 249   2.0000      -0.452058       -12.3011
 250   2.0000      -0.451208       -12.2780
 251   2.0000      -0.447274       -12.1709
 252   2.0000      -0.443060       -12.0563
 253   2.0000      -0.439658       -11.9637
 254   2.0000      -0.439123       -11.9491
 255   2.0000      -0.438996       -11.9457
 256   2.0000      -0.437297       -11.8995
 257   2.0000      -0.430724       -11.7206
 258   2.0000      -0.428057       -11.6480
 259   2.0000      -0.425714       -11.5843
 260   2.0000      -0.425076       -11.5669
 261   2.0000      -0.421897       -11.4804
 262   2.0000      -0.420651       -11.4465
 263   2.0000      -0.415278       -11.3003
 264   2.0000      -0.413863       -11.2618
 265   2.0000      -0.410392       -11.1673
 266   2.0000      -0.406770       -11.0688
 267   2.0000      -0.402704       -10.9581
 268   2.0000      -0.402112       -10.9420
 269   2.0000      -0.400149       -10.8886
 270   2.0000      -0.398799       -10.8519
 271   2.0000      -0.393535       -10.7086
 272   2.0000      -0.392544       -10.6817
 273   2.0000      -0.391712       -10.6590
 274   2.0000      -0.391197       -10.6450
 275   2.0000      -0.385778       -10.4976
 276   2.0000      -0.385334       -10.4855
 277   2.0000      -0.385172       -10.4811
 278   2.0000      -0.383451       -10.4342
 279   2.0000      -0.376817       -10.2537
 280   2.0000      -0.375643       -10.2218
 281   2.0000      -0.370979       -10.0949
 282   2.0000      -0.363759        -9.8984
 283   2.0000      -0.356514        -9.7012
 284   2.0000      -0.350573        -9.5396
 285   2.0000      -0.341043        -9.2802
 286   2.0000      -0.331899        -9.0314
 287   2.0000      -0.326173        -8.8756
 288   2.0000      -0.323160        -8.7936
 289   2.0000      -0.316449        -8.6110
 290   2.0000      -0.315926        -8.5968
 291   2.0000      -0.308040        -8.3822
 292   2.0000      -0.303009        -8.2453
 293   2.0000      -0.294836        -8.0229
 294   2.0000      -0.283872        -7.7245
 295   2.0000      -0.248779        -6.7696
 296   0.0000      -0.098609        -2.6833
 297   0.0000      -0.083924        -2.2837
 298   0.0000      -0.081556        -2.2192
 299   0.0000      -0.062103        -1.6899
 300   0.0000      -0.060336        -1.6418

MULLIKEN ATOMIC CHARGES
-----------------------
   0 C :    0.325806
   1 C :   -0.339946
   2 C :   -0.183457
   3 N :    0.154552
   4 C :   -0.197025
   5 N :    0.148592
   6 C :    0.005551
   7 C :    0.011333
   8 C :   -0.075543
   9 C :    0.115866
  10 C :   -0.093496
  11 C :   -0.016725
  12 S :    0.197520
  13 C :   -0.125107
  14 C :    0.038191
  15 Br:    0.032406
  16 C :    0.175946
  17 O :   -0.241487
  18 C :   -0.128949
  19 C :    0.037901
  20 N :   -0.005918
  21 C :   -0.123756
  22 S :    0.184464
  23 C :    0.005201
  24 N :    0.274303
  25 O :   -0.242940
  26 O :   -0.254085
  27 C :    0.000575
  28 C :    0.139237
  29 C :   -0.071821
  30 C :    0.064941
  31 C :   -0.135813
  32 S :    0.125767
  33 C :   -0.138625
  34 C :   -0.061541
  35 C :   -0.088502
  36 C :    0.120111
  37 C :   -0.083811
  38 C :   -0.027471
  39 O :   -0.183353
  40 C :    0.047388
  41 C :    0.115170
  42 C :    0.043645
  43 C :    0.047871
  44 C :   -0.077223
  45 C :    0.053143
  46 O :   -0.160844
  47 C :    0.085771
  48 C :    0.136526
  49 N :    0.284011
  50 O :   -0.226670
  51 O :   -0.257556
  52 C :    0.064544
  53 N :    0.013859
  54 C :    0.047085
  55 C :   -0.135422
  56 C :    0.309853
  57 C :   -0.345086
  58 C :   -0.175784
  59 N :    0.146071
  60 C :   -0.248011
  61 N :    0.162994
  62 C :    0.001336
  63 C :    0.004383
  64 C :    0.156992
  65 O :   -0.164376
  66 C :   -0.075117
  67 C :    0.120961
  68 C :   -0.088874
  69 C :   -0.023803
  70 S :    0.186520
  71 C :   -0.124218
  72 C :    0.034466
  73 Br:    0.020909
  74 H :   -0.018563
  75 H :   -0.002756
  76 H :   -0.000741
  77 H :    0.045266
  78 H :    0.179159
  79 H :    0.015849
  80 H :   -0.017950
  81 H :   -0.018839
  82 H :    0.028231
  83 H :    0.027543
  84 H :    0.017223
  85 H :    0.035710
  86 H :    0.045849
  87 H :    0.028856
  88 H :   -0.005083
  89 H :    0.017340
  90 H :    0.028532
  91 H :    0.061244
  92 H :   -0.002774
  93 H :    0.002023
  94 H :    0.034946
  95 H :    0.168653
  96 H :    0.036570
  97 H :   -0.015714
  98 H :   -0.003795
  99 H :   -0.006187
Sum of atomic charges:   -0.0000000

LOEWDIN ATOMIC CHARGES
----------------------
   0 C :    0.078308
   1 C :   -0.144982
   2 C :   -0.020140
   3 N :   -0.049567
   4 C :   -0.020645
   5 N :   -0.049529
   6 C :   -0.017446
   7 C :   -0.052262
   8 C :    0.021328
   9 C :   -0.033347
  10 C :   -0.143149
  11 C :   -0.005398
  12 S :    0.442203
  13 C :   -0.270039
  14 C :   -0.070378
  15 Br:    0.143133
  16 C :    0.101822
  17 O :   -0.184754
  18 C :   -0.148083
  19 C :    0.114988
  20 N :    0.084097
  21 C :   -0.122748
  22 S :    0.473446
  23 C :   -0.196767
  24 N :    0.272789
  25 O :   -0.209505
  26 O :   -0.220211
  27 C :    0.000948
  28 C :   -0.077001
  29 C :   -0.049228
  30 C :   -0.022335
  31 C :   -0.177893
  32 S :    0.435858
  33 C :   -0.177506
  34 C :   -0.047300
  35 C :   -0.049453
  36 C :   -0.020975
  37 C :   -0.058972
  38 C :    0.090705
  39 O :   -0.145542
  40 C :   -0.086106
  41 C :   -0.015397
  42 C :   -0.032731
  43 C :   -0.023573
  44 C :   -0.051635
  45 C :    0.013841
  46 O :    0.049000
  47 C :    0.094294
  48 C :   -0.088792
  49 N :    0.294352
  50 O :   -0.187682
  51 O :   -0.209554
  52 C :   -0.008598
  53 N :    0.089121
  54 C :    0.106668
  55 C :   -0.146740
  56 C :    0.075978
  57 C :   -0.153841
  58 C :   -0.019586
  59 N :   -0.054964
  60 C :   -0.028885
  61 N :   -0.060568
  62 C :   -0.017209
  63 C :   -0.048930
  64 C :    0.092378
  65 O :   -0.158415
  66 C :    0.021990
  67 C :   -0.034428
  68 C :   -0.144024
  69 C :   -0.010646
  70 S :    0.432999
  71 C :   -0.273006
  72 C :   -0.071690
  73 Br:    0.134551
  74 H :    0.039047
  75 H :    0.042887
  76 H :    0.039514
  77 H :    0.038060
  78 H :    0.082953
  79 H :    0.046190
  80 H :    0.025640
  81 H :    0.028158
  82 H :    0.037047
  83 H :    0.028624
  84 H :    0.041952
  85 H :    0.027777
  86 H :    0.051009
  87 H :    0.038530
  88 H :    0.021772
  89 H :    0.031092
  90 H :    0.032276
  91 H :    0.032312
  92 H :    0.031763
  93 H :    0.040230
  94 H :    0.041946
  95 H :    0.087405
  96 H :    0.043271
  97 H :    0.039233
  98 H :    0.041206
  99 H :    0.037459

  Mayer bond orders larger than 0.100000
B(  0-C ,  1-C ) :   1.6352 B(  0-C ,  6-C ) :   1.0040 B(  0-C , 18-C ) :   1.0950
B(  1-C ,  2-C ) :   1.1409 B(  1-C ,  4-C ) :   1.1461 B(  2-C ,  3-N ) :   2.9696
B(  4-C ,  5-N ) :   2.9557 B(  6-C ,  7-C ) :   1.2689 B(  6-C , 11-C ) :   1.4280
B(  7-C ,  8-C ) :   1.4160 B(  7-C , 16-C ) :   0.9864 B(  8-C ,  9-C ) :   1.2508
B(  8-C , 74-H ) :   1.0193 B(  9-C , 10-C ) :   1.3071 B(  9-C , 14-C ) :   1.1644
B( 10-C , 11-C ) :   1.3174 B( 10-C , 12-S ) :   1.0936 B( 11-C , 75-H ) :   0.9802
B( 12-S , 13-C ) :   1.0897 B( 13-C , 14-C ) :   1.6161 B( 13-C , 15-Br) :   1.0238
B( 14-C , 76-H ) :   0.9997 B( 16-C , 17-O ) :   1.9309 B( 16-C , 18-C ) :   1.0367
B( 17-O , 78-H ) :   0.1497 B( 18-C , 19-C ) :   1.4309 B( 19-C , 20-N ) :   1.3589
B( 19-C , 77-H ) :   0.9321 B( 20-N , 21-C ) :   1.1787 B( 20-N , 78-H ) :   0.8216
B( 21-C , 22-S ) :   1.1300 B( 21-C , 28-C ) :   1.3787 B( 22-S , 23-C ) :   1.0890
B( 23-C , 24-N ) :   0.9591 B( 23-C , 27-C ) :   1.5046 B( 24-N , 25-O ) :   1.5393
B( 24-N , 26-O ) :   1.5192 B( 25-O , 26-O ) :   0.2642 B( 27-C , 28-C ) :   1.2174
B( 27-C , 79-H ) :   1.0009 B( 28-C , 29-C ) :   1.0760 B( 29-C , 30-C ) :   1.7167
B( 29-C , 80-H ) :   0.9501 B( 30-C , 31-C ) :   1.1310 B( 30-C , 81-H ) :   0.9483
B( 31-C , 32-S ) :   1.1198 B( 31-C , 35-C ) :   1.4832 B( 32-S , 33-C ) :   1.1147
B( 33-C , 34-C ) :   1.4896 B( 33-C , 43-C ) :   1.0953 B( 34-C , 35-C ) :   1.3367
B( 34-C , 42-C ) :   1.0403 B( 35-C , 36-C ) :   1.0494 B( 36-C , 37-C ) :   1.0395
B( 36-C , 82-H ) :   0.8918 B( 36-C , 83-H ) :   0.9003 B( 37-C , 38-C ) :   0.9075
B( 37-C , 41-C ) :   1.0534 B( 37-C , 84-H ) :   0.8828 B( 38-C , 39-O ) :   2.1697
B( 38-C , 40-C ) :   1.0433 B( 40-C , 85-H ) :   0.9421 B( 40-C , 86-H ) :   0.9307
B( 40-C , 87-H ) :   0.9438 B( 41-C , 42-C ) :   1.0828 B( 41-C , 88-H ) :   0.9384
B( 41-C , 89-H ) :   0.9120 B( 42-C , 90-H ) :   0.9168 B( 42-C , 91-H ) :   0.8833
B( 43-C , 44-C ) :   1.6702 B( 43-C , 92-H ) :   0.9693 B( 44-C , 45-C ) :   1.1500
B( 44-C , 93-H ) :   0.9505 B( 45-C , 46-O ) :   1.1197 B( 45-C , 52-C ) :   1.3977
B( 46-O , 47-C ) :   1.2072 B( 47-C , 48-C ) :   1.4389 B( 47-C , 94-H ) :   1.0140
B( 48-C , 49-N ) :   0.9387 B( 48-C , 52-C ) :   1.2481 B( 49-N , 50-O ) :   1.5616
B( 49-N , 51-O ) :   1.4825 B( 50-O , 51-O ) :   0.2647 B( 52-C , 53-N ) :   1.1619
B( 53-N , 54-C ) :   1.2902 B( 53-N , 95-H ) :   0.8588 B( 54-C , 55-C ) :   1.5594
B( 54-C , 96-H ) :   0.9100 B( 55-C , 56-C ) :   1.0510 B( 55-C , 64-C ) :   0.9822
B( 56-C , 57-C ) :   1.6169 B( 56-C , 62-C ) :   1.0142 B( 57-C , 58-C ) :   1.1332
B( 57-C , 60-C ) :   1.1712 B( 58-C , 59-N ) :   2.9782 B( 60-C , 61-N ) :   3.0036
B( 62-C , 63-C ) :   1.2805 B( 62-C , 69-C ) :   1.4159 B( 63-C , 64-C ) :   0.9348
B( 63-C , 66-C ) :   1.4287 B( 64-C , 65-O ) :   2.1849 B( 66-C , 67-C ) :   1.2455
B( 66-C , 97-H ) :   1.0166 B( 67-C , 68-C ) :   1.3111 B( 67-C , 72-C ) :   1.1600
B( 68-C , 69-C ) :   1.3259 B( 68-C , 70-S ) :   1.0851 B( 69-C , 98-H ) :   0.9806
B( 70-S , 71-C ) :   1.0878 B( 71-C , 72-C ) :   1.6193 B( 71-C , 73-Br) :   1.0173
B( 72-C , 99-H ) :   1.0009

-----------------------------------------------------------------------------
         ABSORPTION SPECTRUM VIA TRANSITION ELECTRIC DIPOLE MOMENTS
-----------------------------------------------------------------------------
State   Energy  Wavelength   fosc         T2         TX        TY        TZ
        (cm-1)    (nm)                  (au**2)     (au)      (au)      (au)
-----------------------------------------------------------------------------
   0   18873.1    529.9   0.609526472  10.63226  -1.71491   2.77120  -0.10858
   1   21171.0    472.3   0.569093589   8.84950   0.59784   0.07822  -2.91307
   2   22098.9    452.5   0.045033764   0.67088  -0.12655   0.06551   0.80658
   3   24367.1    410.4   0.273507311   3.69523   1.04478  -1.38287   0.83147
   4   25516.7    391.9   0.407680406   5.25982  -1.23022   1.12059  -1.57818
   5   26262.9    380.8   0.634348810   7.95171   0.62167  -1.10398  -2.51922
   6   28120.1    355.6   0.023398026   0.27393  -0.33958   0.38838   0.08820
   7   28249.1    354.0   0.113959476   1.32807  -0.29021   0.45549  -1.01803
   8   29145.8    343.1   0.145493429   1.64340   1.04154  -0.09378  -0.74148
   9   29521.5    338.7   0.332824651   3.71153   0.20353  -0.32364   1.88822
  10   29871.2    334.8   0.658094418   7.25290  -0.07250  -1.21791  -2.40090
  11   30432.1    328.6   0.142517914   1.54175   0.27571  -0.05785   1.20929
  12   31078.0    321.8   0.464162998   4.91692  -1.28932   1.78310  -0.27412
  13   31726.4    315.2   0.048922498   0.50765  -0.51724  -0.09476  -0.48076
  14   32353.0    309.1   0.178281739   1.81413   0.32277  -0.59037   1.16679
  15   33210.3    301.1   0.017616051   0.17463   0.17803  -0.19241   0.32544
  16   33540.0    298.2   0.110604127   1.08563   0.34795  -0.96922  -0.15869
  17   33698.7    296.7   0.113472197   1.10854   0.05193  -1.05149  -0.01467
  18   34079.2    293.4   0.333447098   3.22117  -0.79594   1.05210  -1.21686
  19   34282.1    291.7   0.125153874   1.20186   0.02402  -0.53788  -0.95497
  20   34358.0    291.1   0.035399280   0.33919   0.03920  -0.58067  -0.02169
  21   34738.0    287.9   0.051882685   0.49169  -0.07039  -0.61000  -0.33859
  22   34838.6    287.0   0.010838457   0.10242   0.00950  -0.26308   0.18199
  23   35018.0    285.6   0.080058776   0.75265  -0.35366   0.73702  -0.29047
  24   35096.5    284.9   0.132874332   1.24639   0.48106  -0.83771   0.55965
  25   35410.8    282.4   0.199019912   1.85027  -0.15086   1.26564   0.47506
  26   35621.1    280.7   0.062824837   0.58063   0.70973   0.15208  -0.23191
  27   36070.4    277.2   0.297790559   2.71791  -0.12313   0.97889   1.32081
  28   36299.2    275.5   0.153450496   1.39171  -0.14147   0.70192   0.93755
  29   36526.4    273.8   0.031179086   0.28102   0.10637  -0.29238  -0.42920
  30   36685.1    272.6   0.002679167   0.02404  -0.03767   0.14295  -0.04678
  31   37246.6    268.5   0.004235859   0.03744  -0.00173  -0.01502   0.19290
  32   37328.8    267.9   0.005152271   0.04544  -0.02968  -0.09939  -0.18623
  33   37428.1    267.2   0.081501952   0.71688   0.14524   0.30324   0.77707
  34   37843.5    264.2   0.182867408   1.59082   0.55516  -0.84185  -0.75757
  35   37921.1    263.7   0.003227843   0.02802   0.11299   0.02890   0.12009
  36   38113.0    262.4   0.012676166   0.10949  -0.21691   0.24216   0.06166
  37   38348.3    260.8   0.054278441   0.46597   0.01425  -0.42176  -0.53655
  38   38417.2    260.3   0.016429085   0.14079   0.03171   0.21234   0.30772
  39   38533.3    259.5   0.007125309   0.06088   0.03403   0.07302  -0.23321
  40   39195.4    255.1   0.024578997   0.20645   0.18010   0.20227  -0.36483
  41   39301.0    254.4   0.007924922   0.06638   0.08610  -0.05759   0.23591
  42   39421.7    253.7   0.009863232   0.08237   0.04612   0.13899  -0.24682
  43   39838.5    251.0   0.007980363   0.06595  -0.04789   0.24786  -0.04711
  44   39986.4    250.1   0.002647715   0.02180  -0.12953  -0.05272  -0.04734

FINAL SINGLE POINT ENERGY     -9773.190213461274

DIPOLE MOMENT
-------------
                                X             Y             Z
Electronic contribution:     47.11806     -71.12062    -162.10062
Nuclear contribution   :    -48.93803      69.58394     160.46250
                        -----------------------------------------
Total Dipole Moment    :     -1.81997      -1.53668      -1.63812
                        -----------------------------------------
Magnitude (a.u.)       :      2.89086
Magnitude (Debye)      :      7.34799

Rotational constants in cm-1:     0.000605     0.000421     0.000255
Rotational constants in MHz :    18.130097    12.608785     7.643547

                             ****ORCA TERMINATED NORMALLY****
TOTAL RUN TIME: 0 days 0 hours 10 minutes 49 seconds 152 msec
