                         Program Version 4.2.0 -  RELEASE  -
|  1> # ORCA input file
|  2> # SCF done       -181.020107242527          0.000331527649
|  3> ! CAM-B3LYP def2-SVP def2/J RIJCOSX Grid4 TightSCF
|  4> %maxcore 5000
|  5> %tddft
|  6>     Mode sTDDFT
|  7>     Ethresh 5.0
|  8>     maxcore 5000
|  9> end
| 10>
| 11> %pal
| 12>   nprocs 6
| 13>   end
| 14> * xyz 0 1
| 15>    C       -1.44532         1.01879        -2.81195
| 16>    C       -1.52984        -0.35156        -2.77393
| 17>    C       -0.49678        -1.21915        -3.18432
| 18>    N        0.30134        -1.98089        -3.50273
| 19>    C       -2.63379        -1.09838        -2.31569
| 20>    N       -3.48607        -1.77973        -1.95367
| 21>    C       -0.27594         1.77313        -3.25600
| 22>    C       -0.54653         3.15550        -3.11048
| 23>    C        0.36360         4.13009        -3.43685
| 24>    C        1.60628         3.72104        -3.93275
| 25>    C        1.86860         2.33858        -4.07713
| 26>    C        0.94594         1.35305        -3.74654
| 27>    S        3.46315         2.05305        -4.70645
| 28>    C        3.75158         3.77152        -4.76467
| 29>    C        2.70924         4.52232        -4.33641
| 30>   Br        5.40147         4.41272        -5.38529
| 31>    C       -1.90909         3.32633        -2.57138
| 32>    O       -2.45684         4.38827        -2.33289
| 33>    C       -2.45235         1.97611        -2.40226
| 34>    C       -3.71028         1.65711        -1.94874
| 35>    C       -4.74628         2.46745        -1.47521
| 36>    S       -4.70136         4.20545        -1.31259
| 37>    C       -6.28904         4.21982        -0.62592
| 38>    C       -6.84626         2.94355        -0.55779
| 39>    C       -5.98165         1.95921        -1.03251
| 40>    C       -6.36055         0.51330        -1.10243
| 41>    C       -7.65491         0.23068        -0.34461
| 42>    C       -8.71103         1.28513        -0.67010
| 43>    N      -10.00239         0.85825        -0.16729
| 44>    C       -8.23742         2.63566        -0.10217
| 45>    C       -6.83573         5.48633        -0.25142
| 46>    C       -7.78139         5.70097         0.68367
| 47>    C       -8.32664         6.98567         1.04665
| 48>    C       -8.58857         8.02180         0.23798
| 49>    C       -8.41572         8.02272        -1.24577
| 50>    C       -9.20627         9.27959         0.79640
| 51>    N      -10.60980         9.36176         0.43011
| 52>    C      -11.46784         8.35113         0.71617
| 53>    C      -12.81286         8.44655         0.70748
| 54>    C      -13.67697         7.34843         0.97214
| 55>    S      -13.11365         5.74074         1.31287
| 56>    C      -14.72142         5.16474         1.54465
| 57>    C      -15.64722         6.13945         1.37454
| 58>    C      -15.06044         7.38631         1.04606
| 59>    O      -15.70991         8.56049         0.78089
| 60>    C      -16.92554         8.79115         1.24755
| 61>    C      -17.59008         9.92653         0.90869
| 62>    C      -18.88707        10.27708         1.32980
| 63>    C      -19.68784         9.80124         2.33608
| 64>    C      -21.14474        10.07995         2.23612
| 65>    O      -21.68579        10.83764         1.46030
| 66>    C      -21.78695         9.20924         3.23930
| 67>    C      -23.11423         9.00337         3.47733
| 68>    C      -23.50004         8.08595         4.48088
| 69>    C      -22.49406         7.39343         5.21452
| 70>    C      -22.88400         6.47403         6.20755
| 71>    C      -24.21413         6.26962         6.44796
| 72>    C      -25.21821         6.94210         5.73908
| 73>    C      -24.85691         7.83674         4.77018
| 74>    F      -24.58831         5.39149         7.39790
| 75>    C      -21.12485         7.63382         4.94949
| 76>    C      -20.77630         8.53552         3.98125
| 77>    C      -19.46889         9.00433         3.51660
| 78>    C      -18.30740         8.87985         4.24314
| 79>    C      -17.09926         9.52434         3.92557
| 80>    N      -16.08823        10.02888         3.71621
| 81>    C      -18.19630         8.13794         5.43496
| 82>    N      -18.03233         7.52928         6.39539
| 83>    H        0.12601         5.17489        -3.31213
| 84>    H        1.19618         0.31367        -3.87647
| 85>    H        2.71585         5.59653        -4.30538
| 86>    H       -3.95480         0.60373        -1.94169
| 87>    H       -5.56165        -0.11619        -0.70404
| 88>    H       -6.48920         0.23974        -2.15485
| 89>    H       -7.46470         0.23813         0.73109
| 90>    H       -8.03373        -0.75498        -0.61264
| 91>    H       -8.80641         1.37158        -1.75942
| 92>    H       -9.96863         0.73605         0.83960
| 93>    H      -10.71621         1.54768        -0.37503
| 94>    H       -8.26364         2.57713         0.99229
| 95>    H       -8.91410         3.43821        -0.41008
| 96>    H       -6.36342         6.33552        -0.72551
| 97>    H       -8.13808         4.87396         1.28077
| 98>    H       -8.59044         7.07887         2.09431
| 99>    H       -8.39995         7.01113        -1.64276
|100>    H       -7.48263         8.51469        -1.52153
|101>    H       -9.23252         8.57582        -1.70674
|102>    H       -8.70392        10.15111         0.36799
|103>    H       -9.08126         9.31010         1.88815
|104>    H      -11.00972        10.28752         0.38720
|105>    H      -10.99655         7.39754         0.91315
|106>    H      -13.30239         9.39049         0.51623
|107>    H      -14.88123         4.13424         1.78763
|108>    H      -16.70505         5.96419         1.45537
|109>    H      -17.39102         8.02421         1.85638
|110>    H      -17.10363        10.59161         0.20958
|111>    H      -19.38647        11.01657         0.70956
|112>    H      -23.86227         9.53365         2.90727
|113>    H      -22.13799         5.94121         6.77635
|114>    H      -26.25154         6.74009         5.97255
|115>    H      -25.61212         8.36745         4.21009
|116>    H      -20.38755         7.08902         5.51744
|117> *
|118>
|119>                          ****END OF INPUT****

CARTESIAN COORDINATES (ANGSTROEM)
---------------------------------
  C     -1.445320    1.018790   -2.811950
  C     -1.529840   -0.351560   -2.773930
  C     -0.496780   -1.219150   -3.184320
  N      0.301340   -1.980890   -3.502730
  C     -2.633790   -1.098380   -2.315690
  N     -3.486070   -1.779730   -1.953670
  C     -0.275940    1.773130   -3.256000
  C     -0.546530    3.155500   -3.110480
  C      0.363600    4.130090   -3.436850
  C      1.606280    3.721040   -3.932750
  C      1.868600    2.338580   -4.077130
  C      0.945940    1.353050   -3.746540
  S      3.463150    2.053050   -4.706450
  C      3.751580    3.771520   -4.764670
  C      2.709240    4.522320   -4.336410
  Br     5.401470    4.412720   -5.385290
  C     -1.909090    3.326330   -2.571380
  O     -2.456840    4.388270   -2.332890
  C     -2.452350    1.976110   -2.402260
  C     -3.710280    1.657110   -1.948740
  C     -4.746280    2.467450   -1.475210
  S     -4.701360    4.205450   -1.312590
  C     -6.289040    4.219820   -0.625920
  C     -6.846260    2.943550   -0.557790
  C     -5.981650    1.959210   -1.032510
  C     -6.360550    0.513300   -1.102430
  C     -7.654910    0.230680   -0.344610
  C     -8.711030    1.285130   -0.670100
  N    -10.002390    0.858250   -0.167290
  C     -8.237420    2.635660   -0.102170
  C     -6.835730    5.486330   -0.251420
  C     -7.781390    5.700970    0.683670
  C     -8.326640    6.985670    1.046650
  C     -8.588570    8.021800    0.237980
  C     -8.415720    8.022720   -1.245770
  C     -9.206270    9.279590    0.796400
  N    -10.609800    9.361760    0.430110
  C    -11.467840    8.351130    0.716170
  C    -12.812860    8.446550    0.707480
  C    -13.676970    7.348430    0.972140
  S    -13.113650    5.740740    1.312870
  C    -14.721420    5.164740    1.544650
  C    -15.647220    6.139450    1.374540
  C    -15.060440    7.386310    1.046060
  O    -15.709910    8.560490    0.780890
  C    -16.925540    8.791150    1.247550
  C    -17.590080    9.926530    0.908690
  C    -18.887070   10.277080    1.329800
  C    -19.687840    9.801240    2.336080
  C    -21.144740   10.079950    2.236120
  O    -21.685790   10.837640    1.460300
  C    -21.786950    9.209240    3.239300
  C    -23.114230    9.003370    3.477330
  C    -23.500040    8.085950    4.480880
  C    -22.494060    7.393430    5.214520
  C    -22.884000    6.474030    6.207550
  C    -24.214130    6.269620    6.447960
  C    -25.218210    6.942100    5.739080
  C    -24.856910    7.836740    4.770180
  F    -24.588310    5.391490    7.397900
  C    -21.124850    7.633820    4.949490
  C    -20.776300    8.535520    3.981250
  C    -19.468890    9.004330    3.516600
  C    -18.307400    8.879850    4.243140
  C    -17.099260    9.524340    3.925570
  N    -16.088230   10.028880    3.716210
  C    -18.196300    8.137940    5.434960
  N    -18.032330    7.529280    6.395390
  H      0.126010    5.174890   -3.312130
  H      1.196180    0.313670   -3.876470
  H      2.715850    5.596530   -4.305380
  H     -3.954800    0.603730   -1.941690
  H     -5.561650   -0.116190   -0.704040
  H     -6.489200    0.239740   -2.154850
  H     -7.464700    0.238130    0.731090
  H     -8.033730   -0.754980   -0.612640
  H     -8.806410    1.371580   -1.759420
  H     -9.968630    0.736050    0.839600
  H    -10.716210    1.547680   -0.375030
  H     -8.263640    2.577130    0.992290
  H     -8.914100    3.438210   -0.410080
  H     -6.363420    6.335520   -0.725510
  H     -8.138080    4.873960    1.280770
  H     -8.590440    7.078870    2.094310
  H     -8.399950    7.011130   -1.642760
  H     -7.482630    8.514690   -1.521530
  H     -9.232520    8.575820   -1.706740
  H     -8.703920   10.151110    0.367990
  H     -9.081260    9.310100    1.888150
  H    -11.009720   10.287520    0.387200
  H    -10.996550    7.397540    0.913150
  H    -13.302390    9.390490    0.516230
  H    -14.881230    4.134240    1.787630
  H    -16.705050    5.964190    1.455370
  H    -17.391020    8.024210    1.856380
  H    -17.103630   10.591610    0.209580
  H    -19.386470   11.016570    0.709560
  H    -23.862270    9.533650    2.907270
  H    -22.137990    5.941210    6.776350
  H    -26.251540    6.740090    5.972550
  H    -25.612120    8.367450    4.210090
  H    -20.387550    7.089020    5.517440

 Total Charge           Charge          ....    0
 Multiplicity           Mult            ....    1
 Number of Electrons    NEL             ....  516
 Basis Dimension        Dim             .... 1152

ORBITAL ENERGIES
----------------

  NO   OCC          E(Eh)            E(eV)
   0   2.0000    -482.884048    -13139.9430
   1   2.0000     -88.973195     -2421.0837
   2   2.0000     -88.956717     -2420.6353
   3   2.0000     -88.955441     -2420.6006
   4   2.0000     -62.561753     -1702.3919
   5   2.0000     -56.395698     -1534.6050
   6   2.0000     -56.392992     -1534.5313
   7   2.0000     -56.392956     -1534.5303
   8   2.0000     -24.782301      -674.3607
   9   2.0000     -19.296159      -525.0752
  10   2.0000     -19.215576      -522.8824
  11   2.0000     -19.204506      -522.5812
  12   2.0000     -14.433723      -392.7616
  13   2.0000     -14.414806      -392.2468
  14   2.0000     -14.413447      -392.2098
  15   2.0000     -14.409693      -392.1077
  16   2.0000     -14.409658      -392.1067
  17   2.0000     -14.383460      -391.3939
  18   2.0000     -10.370181      -282.1870
  19   2.0000     -10.365486      -282.0592
  20   2.0000     -10.364077      -282.0209
  21   2.0000     -10.356815      -281.8233
  22   2.0000     -10.356115      -281.8042
  23   2.0000     -10.337539      -281.2987
  24   2.0000     -10.337400      -281.2950
  25   2.0000     -10.335652      -281.2474
  26   2.0000     -10.334893      -281.2267
  27   2.0000     -10.332388      -281.1586
  28   2.0000     -10.322471      -280.8887
  29   2.0000     -10.318416      -280.7784
  30   2.0000     -10.316827      -280.7351
  31   2.0000     -10.316677      -280.7311
  32   2.0000     -10.314480      -280.6713
  33   2.0000     -10.313473      -280.6439
  34   2.0000     -10.313448      -280.6432
  35   2.0000     -10.312590      -280.6198
  36   2.0000     -10.310097      -280.5520
  37   2.0000     -10.307547      -280.4826
  38   2.0000     -10.305221      -280.4193
  39   2.0000     -10.304718      -280.4056
  40   2.0000     -10.304238      -280.3926
  41   2.0000     -10.302233      -280.3380
  42   2.0000     -10.301469      -280.3172
  43   2.0000     -10.301003      -280.3045
  44   2.0000     -10.300441      -280.2893
  45   2.0000     -10.298218      -280.2287
  46   2.0000     -10.296433      -280.1802
  47   2.0000     -10.295032      -280.1421
  48   2.0000     -10.294745      -280.1342
  49   2.0000     -10.294378      -280.1243
  50   2.0000     -10.294364      -280.1239
  51   2.0000     -10.293994      -280.1138
  52   2.0000     -10.293856      -280.1101
  53   2.0000     -10.293279      -280.0944
  54   2.0000     -10.292603      -280.0760
  55   2.0000     -10.290731      -280.0250
  56   2.0000     -10.290653      -280.0229
  57   2.0000     -10.289984      -280.0047
  58   2.0000     -10.289947      -280.0037
  59   2.0000     -10.288702      -279.9698
  60   2.0000     -10.285360      -279.8789
  61   2.0000     -10.285329      -279.8780
  62   2.0000     -10.283451      -279.8269
  63   2.0000     -10.281838      -279.7830
  64   2.0000     -10.281837      -279.7830
  65   2.0000     -10.279974      -279.7323
  66   2.0000     -10.279718      -279.7254
  67   2.0000     -10.274819      -279.5921
  68   2.0000     -10.272949      -279.5412
  69   2.0000     -10.269985      -279.4605
  70   2.0000     -10.262938      -279.2688
  71   2.0000     -10.258459      -279.1469
  72   2.0000      -8.791183      -239.2203
  73   2.0000      -8.069185      -219.5737
  74   2.0000      -8.051232      -219.0852
  75   2.0000      -8.050600      -219.0680
  76   2.0000      -6.627444      -180.3419
  77   2.0000      -6.612934      -179.9471
  78   2.0000      -6.612742      -179.9419
  79   2.0000      -6.038843      -164.3253
  80   2.0000      -6.034621      -164.2104
  81   2.0000      -6.030421      -164.0961
  82   2.0000      -6.020555      -163.8276
  83   2.0000      -6.019891      -163.8095
  84   2.0000      -6.016539      -163.7183
  85   2.0000      -6.015481      -163.6896
  86   2.0000      -6.013218      -163.6280
  87   2.0000      -6.012875      -163.6186
  88   2.0000      -2.743365       -74.6508
  89   2.0000      -2.739226       -74.5381
  90   2.0000      -2.739086       -74.5343
  91   2.0000      -2.727561       -74.2207
  92   2.0000      -2.727541       -74.2202
  93   2.0000      -1.296757       -35.2866
  94   2.0000      -1.205559       -32.8049
  95   2.0000      -1.130705       -30.7681
  96   2.0000      -1.119587       -30.4655
  97   2.0000      -1.035480       -28.1768
  98   2.0000      -1.019928       -27.7536
  99   2.0000      -1.013942       -27.5908
 100   2.0000      -1.010892       -27.5078
 101   2.0000      -0.998001       -27.1570
 102   2.0000      -0.996114       -27.1056
 103   2.0000      -0.991351       -26.9760
 104   2.0000      -0.989836       -26.9348
 105   2.0000      -0.985921       -26.8283
 106   2.0000      -0.982942       -26.7472
 107   2.0000      -0.973451       -26.4890
 108   2.0000      -0.971013       -26.4226
 109   2.0000      -0.940244       -25.5853
 110   2.0000      -0.929860       -25.3028
 111   2.0000      -0.926512       -25.2117
 112   2.0000      -0.911168       -24.7941
 113   2.0000      -0.906274       -24.6610
 114   2.0000      -0.905421       -24.6378
 115   2.0000      -0.899983       -24.4898
 116   2.0000      -0.888484       -24.1769
 117   2.0000      -0.883446       -24.0398
 118   2.0000      -0.882562       -24.0157
 119   2.0000      -0.880452       -23.9583
 120   2.0000      -0.873022       -23.7561
 121   2.0000      -0.858344       -23.3567
 122   2.0000      -0.853786       -23.2327
 123   2.0000      -0.837468       -22.7887
 124   2.0000      -0.830275       -22.5929
 125   2.0000      -0.826861       -22.5000
 126   2.0000      -0.821203       -22.3461
 127   2.0000      -0.819210       -22.2918
 128   2.0000      -0.809868       -22.0376
 129   2.0000      -0.799400       -21.7528
 130   2.0000      -0.786981       -21.4148
 131   2.0000      -0.783849       -21.3296
 132   2.0000      -0.766116       -20.8471
 133   2.0000      -0.757785       -20.6204
 134   2.0000      -0.754845       -20.5404
 135   2.0000      -0.742873       -20.2146
 136   2.0000      -0.732765       -19.9395
 137   2.0000      -0.720899       -19.6167
 138   2.0000      -0.714758       -19.4496
 139   2.0000      -0.711332       -19.3563
 140   2.0000      -0.704757       -19.1774
 141   2.0000      -0.701353       -19.0848
 142   2.0000      -0.692724       -18.8500
 143   2.0000      -0.688229       -18.7277
 144   2.0000      -0.680938       -18.5293
 145   2.0000      -0.679474       -18.4894
 146   2.0000      -0.676784       -18.4162
 147   2.0000      -0.667651       -18.1677
 148   2.0000      -0.657962       -17.9041
 149   2.0000      -0.655718       -17.8430
 150   2.0000      -0.652149       -17.7459
 151   2.0000      -0.640005       -17.4154
 152   2.0000      -0.632268       -17.2049
 153   2.0000      -0.626578       -17.0500
 154   2.0000      -0.625299       -17.0152
 155   2.0000      -0.620694       -16.8899
 156   2.0000      -0.619025       -16.8445
 157   2.0000      -0.614720       -16.7274
 158   2.0000      -0.605724       -16.4826
 159   2.0000      -0.595875       -16.2146
 160   2.0000      -0.594397       -16.1744
 161   2.0000      -0.592026       -16.1099
 162   2.0000      -0.586155       -15.9501
 163   2.0000      -0.580525       -15.7969
 164   2.0000      -0.577098       -15.7036
 165   2.0000      -0.569423       -15.4948
 166   2.0000      -0.566810       -15.4237
 167   2.0000      -0.561984       -15.2924
 168   2.0000      -0.560237       -15.2448
 169   2.0000      -0.557474       -15.1696
 170   2.0000      -0.554543       -15.0899
 171   2.0000      -0.553136       -15.0516
 172   2.0000      -0.551162       -14.9979
 173   2.0000      -0.546786       -14.8788
 174   2.0000      -0.543811       -14.7978
 175   2.0000      -0.541609       -14.7379
 176   2.0000      -0.540832       -14.7168
 177   2.0000      -0.537084       -14.6148
 178   2.0000      -0.536569       -14.6008
 179   2.0000      -0.534384       -14.5413
 180   2.0000      -0.528794       -14.3892
 181   2.0000      -0.526645       -14.3307
 182   2.0000      -0.524101       -14.2615
 183   2.0000      -0.520506       -14.1637
 184   2.0000      -0.519417       -14.1341
 185   2.0000      -0.513428       -13.9711
 186   2.0000      -0.511638       -13.9224
 187   2.0000      -0.509165       -13.8551
 188   2.0000      -0.506700       -13.7880
 189   2.0000      -0.506175       -13.7737
 190   2.0000      -0.502196       -13.6654
 191   2.0000      -0.497190       -13.5292
 192   2.0000      -0.496195       -13.5022
 193   2.0000      -0.493500       -13.4288
 194   2.0000      -0.493126       -13.4186
 195   2.0000      -0.491085       -13.3631
 196   2.0000      -0.490348       -13.3430
 197   2.0000      -0.489040       -13.3074
 198   2.0000      -0.485839       -13.2203
 199   2.0000      -0.485455       -13.2099
 200   2.0000      -0.480645       -13.0790
 201   2.0000      -0.478402       -13.0180
 202   2.0000      -0.473353       -12.8806
 203   2.0000      -0.472392       -12.8544
 204   2.0000      -0.469474       -12.7750
 205   2.0000      -0.468168       -12.7395
 206   2.0000      -0.464516       -12.6401
 207   2.0000      -0.459212       -12.4958
 208   2.0000      -0.456382       -12.4188
 209   2.0000      -0.453459       -12.3393
 210   2.0000      -0.452844       -12.3225
 211   2.0000      -0.451871       -12.2960
 212   2.0000      -0.447532       -12.1780
 213   2.0000      -0.446937       -12.1618
 214   2.0000      -0.446831       -12.1589
 215   2.0000      -0.441628       -12.0173
 216   2.0000      -0.440475       -11.9859
 217   2.0000      -0.439472       -11.9586
 218   2.0000      -0.438496       -11.9321
 219   2.0000      -0.436733       -11.8841
 220   2.0000      -0.434166       -11.8143
 221   2.0000      -0.432119       -11.7585
 222   2.0000      -0.425627       -11.5819
 223   2.0000      -0.424858       -11.5610
 224   2.0000      -0.424493       -11.5511
 225   2.0000      -0.422948       -11.5090
 226   2.0000      -0.420990       -11.4557
 227   2.0000      -0.420635       -11.4461
 228   2.0000      -0.419878       -11.4255
 229   2.0000      -0.417363       -11.3570
 230   2.0000      -0.411999       -11.2111
 231   2.0000      -0.410691       -11.1755
 232   2.0000      -0.409793       -11.1510
 233   2.0000      -0.407169       -11.0796
 234   2.0000      -0.401827       -10.9343
 235   2.0000      -0.398826       -10.8526
 236   2.0000      -0.398484       -10.8433
 237   2.0000      -0.392122       -10.6702
 238   2.0000      -0.385066       -10.4782
 239   2.0000      -0.377084       -10.2610
 240   2.0000      -0.375494       -10.2177
 241   2.0000      -0.373371       -10.1599
 242   2.0000      -0.364194        -9.9102
 243   2.0000      -0.350045        -9.5252
 244   2.0000      -0.341828        -9.3016
 245   2.0000      -0.331499        -9.0206
 246   2.0000      -0.329524        -8.9668
 247   2.0000      -0.321730        -8.7547
 248   2.0000      -0.317632        -8.6432
 249   2.0000      -0.316178        -8.6036
 250   2.0000      -0.311345        -8.4721
 251   2.0000      -0.309843        -8.4313
 252   2.0000      -0.304498        -8.2858
 253   2.0000      -0.295815        -8.0495
 254   2.0000      -0.291497        -7.9320
 255   2.0000      -0.281141        -7.6502
 256   2.0000      -0.261484        -7.1154
 257   2.0000      -0.237333        -6.4582
 258   0.0000      -0.090167        -2.4536
 259   0.0000      -0.083743        -2.2788
 260   0.0000      -0.058551        -1.5933
 261   0.0000      -0.048182        -1.3111
 262   0.0000      -0.023970        -0.6523

MULLIKEN ATOMIC CHARGES
-----------------------
   0 C :    0.325597
   1 C :   -0.361857
   2 C :   -0.185396
   3 N :    0.143692
   4 C :   -0.179826
   5 N :    0.135279
   6 C :    0.013454
   7 C :   -0.007948
   8 C :   -0.081192
   9 C :    0.121761
  10 C :   -0.090831
  11 C :   -0.026428
  12 S :    0.185133
  13 C :   -0.122473
  14 C :    0.035298
  15 Br:    0.021406
  16 C :    0.153839
  17 O :   -0.179164
  18 C :   -0.085718
  19 C :   -0.055233
  20 C :   -0.091327
  21 S :    0.190114
  22 C :   -0.115925
  23 C :   -0.055865
  24 C :   -0.111733
  25 C :    0.129835
  26 C :    0.083172
  27 C :   -0.081877
  28 N :   -0.158727
  29 C :    0.170665
  30 C :    0.018572
  31 C :    0.001318
  32 C :    0.020621
  33 C :   -0.224136
  34 C :    0.094314
  35 C :    0.215261
  36 N :   -0.172578
  37 C :    0.051808
  38 C :   -0.002790
  39 C :   -0.128474
  40 S :    0.086513
  41 C :   -0.064278
  42 C :   -0.018246
  43 C :    0.171761
  44 O :   -0.200533
  45 C :    0.177379
  46 C :   -0.010951
  47 C :    0.036387
  48 C :   -0.142072
  49 C :    0.133344
  50 O :   -0.153408
  51 C :    0.015522
  52 C :   -0.081215
  53 C :    0.097477
  54 C :    0.101149
  55 C :   -0.096902
  56 C :    0.301656
  57 C :   -0.031918
  58 C :   -0.010363
  59 F :   -0.192936
  60 C :   -0.088857
  61 C :    0.034668
  62 C :    0.279858
  63 C :   -0.360619
  64 C :   -0.212727
  65 N :    0.166616
  66 C :   -0.168984
  67 N :    0.145434
  68 H :   -0.012641
  69 H :   -0.006994
  70 H :   -0.004044
  71 H :   -0.006513
  72 H :    0.042925
  73 H :    0.027500
  74 H :   -0.007074
  75 H :    0.013251
  76 H :    0.000721
  77 H :    0.085993
  78 H :    0.088398
  79 H :    0.002673
  80 H :    0.004754
  81 H :   -0.003343
  82 H :    0.002368
  83 H :   -0.008324
  84 H :    0.027947
  85 H :    0.031427
  86 H :    0.021191
  87 H :    0.009811
  88 H :    0.010968
  89 H :    0.119961
  90 H :    0.001719
  91 H :   -0.020512
  92 H :    0.028591
  93 H :   -0.006556
  94 H :    0.041368
  95 H :    0.010987
  96 H :    0.030395
  97 H :   -0.013587
  98 H :   -0.002926
  99 H :    0.002189
 100 H :   -0.010219
 101 H :   -0.007803
Sum of atomic charges:   -0.0000000

LOEWDIN ATOMIC CHARGES
----------------------
   0 C :    0.079686
   1 C :   -0.151638
   2 C :   -0.018587
   3 N :   -0.059937
   4 C :   -0.018871
   5 N :   -0.061569
   6 C :   -0.020714
   7 C :   -0.049163
   8 C :    0.019579
   9 C :   -0.033772
  10 C :   -0.145031
  11 C :   -0.010127
  12 S :    0.431836
  13 C :   -0.272589
  14 C :   -0.071055
  15 Br:    0.134855
  16 C :    0.081794
  17 O :   -0.168480
  18 C :   -0.117492
  19 C :    0.058179
  20 C :   -0.198590
  21 S :    0.505650
  22 C :   -0.152602
  23 C :   -0.068075
  24 C :   -0.008877
  25 C :   -0.027534
  26 C :   -0.024938
  27 C :    0.011778
  28 N :   -0.100203
  29 C :   -0.042836
  30 C :   -0.043593
  31 C :   -0.011765
  32 C :   -0.054182
  33 C :   -0.019919
  34 C :   -0.051826
  35 C :    0.047308
  36 N :   -0.019173
  37 C :    0.033575
  38 C :   -0.129773
  39 C :   -0.169303
  40 S :    0.420835
  41 C :   -0.183996
  42 C :   -0.088850
  43 C :   -0.019849
  44 O :    0.009285
  45 C :    0.136006
  46 C :   -0.099745
  47 C :    0.078052
  48 C :   -0.120334
  49 C :    0.081319
  50 O :   -0.154032
  51 C :   -0.057956
  52 C :    0.031820
  53 C :   -0.019595
  54 C :    0.001908
  55 C :   -0.042670
  56 C :    0.091860
  57 C :   -0.038619
  58 C :    0.003815
  59 F :   -0.067231
  60 C :    0.008072
  61 C :   -0.017845
  62 C :    0.065753
  63 C :   -0.158827
  64 C :   -0.019001
  65 N :   -0.047672
  66 C :   -0.020493
  67 N :   -0.061599
  68 H :    0.039938
  69 H :    0.040914
  70 H :    0.038334
  71 H :    0.047412
  72 H :    0.041144
  73 H :    0.041151
  74 H :    0.019464
  75 H :    0.031176
  76 H :    0.020496
  77 H :    0.050224
  78 H :    0.052603
  79 H :    0.024451
  80 H :    0.027165
  81 H :    0.030699
  82 H :    0.031321
  83 H :    0.028678
  84 H :    0.033568
  85 H :    0.037968
  86 H :    0.031424
  87 H :    0.030480
  88 H :    0.016796
  89 H :    0.078360
  90 H :    0.019370
  91 H :    0.028813
  92 H :    0.024348
  93 H :    0.030787
  94 H :    0.025901
  95 H :    0.040632
  96 H :    0.048202
  97 H :    0.038850
  98 H :    0.042595
  99 H :    0.041186
 100 H :    0.035154
 101 H :    0.037952

  Mayer bond orders larger than 0.100000
B(  0-C ,  1-C ) :   1.6039 B(  0-C ,  6-C ) :   0.9938 B(  0-C , 18-C ) :   1.0966
B(  1-C ,  2-C ) :   1.1466 B(  1-C ,  4-C ) :   1.1516 B(  2-C ,  3-N ) :   2.9642
B(  4-C ,  5-N ) :   2.9520 B(  6-C ,  7-C ) :   1.2770 B(  6-C , 11-C ) :   1.4137
B(  7-C ,  8-C ) :   1.4226 B(  7-C , 16-C ) :   0.9522 B(  8-C ,  9-C ) :   1.2388
B(  8-C , 68-H ) :   1.0188 B(  9-C , 10-C ) :   1.3106 B(  9-C , 14-C ) :   1.1619
B( 10-C , 11-C ) :   1.3231 B( 10-C , 12-S ) :   1.0857 B( 11-C , 69-H ) :   0.9806
B( 12-S , 13-C ) :   1.0866 B( 13-C , 14-C ) :   1.6184 B( 13-C , 15-Br) :   1.0178
B( 14-C , 70-H ) :   1.0011 B( 16-C , 17-O ) :   2.1451 B( 16-C , 18-C ) :   0.9741
B( 18-C , 19-C ) :   1.4779 B( 19-C , 20-C ) :   1.2960 B( 19-C , 71-H ) :   0.9293
B( 20-C , 21-S ) :   1.0818 B( 20-C , 24-C ) :   1.3530 B( 21-S , 22-C ) :   1.1412
B( 22-C , 23-C ) :   1.4145 B( 22-C , 30-C ) :   1.1073 B( 23-C , 24-C ) :   1.4060
B( 23-C , 29-C ) :   1.0250 B( 24-C , 25-C ) :   1.0494 B( 25-C , 26-C ) :   1.0886
B( 25-C , 72-H ) :   0.8998 B( 25-C , 73-H ) :   0.9033 B( 26-C , 27-C ) :   1.0426
B( 26-C , 74-H ) :   0.9299 B( 26-C , 75-H ) :   0.9258 B( 27-C , 28-N ) :   1.1148
B( 27-C , 29-C ) :   1.0159 B( 27-C , 76-H ) :   0.9313 B( 28-N , 77-H ) :   0.9698
B( 28-N , 78-H ) :   0.9718 B( 29-C , 79-H ) :   0.8868 B( 29-C , 80-H ) :   0.9092
B( 30-C , 31-C ) :   1.7370 B( 30-C , 81-H ) :   0.9529 B( 31-C , 32-C ) :   1.0844
B( 31-C , 82-H ) :   0.9557 B( 32-C , 33-C ) :   1.8254 B( 32-C , 83-H ) :   0.9430
B( 33-C , 34-C ) :   1.0801 B( 33-C , 35-C ) :   1.0379 B( 34-C , 84-H ) :   0.9480
B( 34-C , 85-H ) :   0.9426 B( 34-C , 86-H ) :   0.9436 B( 35-C , 36-N ) :   1.0042
B( 35-C , 87-H ) :   0.9338 B( 35-C , 88-H ) :   0.9386 B( 36-N , 37-C ) :   1.1969
B( 36-N , 89-H ) :   0.9405 B( 37-C , 38-C ) :   1.6423 B( 37-C , 90-H ) :   0.9586
B( 38-C , 39-C ) :   1.1675 B( 38-C , 91-H ) :   0.9671 B( 39-C , 40-S ) :   1.1214
B( 39-C , 43-C ) :   1.5093 B( 40-S , 41-C ) :   1.1446 B( 41-C , 42-C ) :   1.5841
B( 41-C , 92-H ) :   0.9682 B( 42-C , 43-C ) :   1.2105 B( 42-C , 93-H ) :   0.9942
B( 43-C , 44-O ) :   1.0356 B( 44-O , 45-C ) :   1.1860 B( 45-C , 46-C ) :   1.5598
B( 45-C , 94-H ) :   0.9519 B( 46-C , 47-C ) :   1.2364 B( 46-C , 95-H ) :   0.9645
B( 47-C , 48-C ) :   1.5691 B( 47-C , 96-H ) :   0.9300 B( 48-C , 49-C ) :   0.9612
B( 48-C , 62-C ) :   1.0687 B( 49-C , 50-O ) :   2.2526 B( 49-C , 51-C ) :   0.9185
B( 51-C , 52-C ) :   1.4794 B( 51-C , 61-C ) :   1.2191 B( 52-C , 53-C ) :   1.1873
B( 52-C , 97-H ) :   1.0146 B( 53-C , 54-C ) :   1.2579 B( 53-C , 58-C ) :   1.2367
B( 54-C , 55-C ) :   1.2041 B( 54-C , 60-C ) :   1.2033 B( 55-C , 56-C ) :   1.4420
B( 55-C , 98-H ) :   1.0059 B( 56-C , 57-C ) :   1.2547 B( 56-C , 59-F ) :   1.0864
B( 57-C , 58-C ) :   1.4613 B( 57-C , 99-H ) :   0.9934 B( 58-C ,100-H ) :   0.9966
B( 60-C , 61-C ) :   1.4654 B( 60-C ,101-H ) :   0.9932 B( 61-C , 62-C ) :   0.9930
B( 62-C , 63-C ) :   1.6045 B( 63-C , 64-C ) :   1.1795 B( 63-C , 66-C ) :   1.1326
B( 64-C , 65-N ) :   2.9690 B( 66-C , 67-N ) :   2.9790

-----------------------------------------------------------------------------
         ABSORPTION SPECTRUM VIA TRANSITION ELECTRIC DIPOLE MOMENTS
-----------------------------------------------------------------------------
State   Energy  Wavelength   fosc         T2         TX        TY        TZ
        (cm-1)    (nm)                  (au**2)     (au)      (au)      (au)
-----------------------------------------------------------------------------
   0   17368.7    575.7   0.343981626   6.51993  -2.18686   0.43791   1.24331
   1   21116.4    473.6   1.190924122  18.56693   3.46437  -2.10405  -1.46222
   2   21595.7    463.1   0.043814511   0.66792  -0.63031   0.43376   0.28721
   3   25002.9    400.0   0.148674949   1.95759  -0.36252  -0.12407   1.34565
   4   26217.1    381.4   0.082928083   1.04134  -0.89572   0.30030   0.38580
   5   27068.4    369.4   0.127933320   1.55595   1.18656  -0.25768  -0.28572
   6   28321.5    353.1   0.268840736   3.12503  -1.42224  -0.69957   0.78287
   7   28350.4    352.7   0.185179031   2.15035  -1.26012  -0.59983   0.45016
   8   28490.1    351.0   0.090084579   1.04096   0.90200   0.39921  -0.26073
   9   29522.3    338.7   0.091447999   1.01976  -1.00583  -0.03703  -0.08185
  10   29878.2    334.7   0.011459320   0.12626  -0.34455   0.01597   0.08541
  11   30216.4    330.9   0.000086371   0.00094   0.01194   0.02782   0.00497
  12   30832.7    324.3   0.036407117   0.38873   0.42842   0.44143  -0.10162
  13   30941.5    323.2   0.059958717   0.63795   0.74733   0.28037  -0.02904
  14   31255.5    319.9   0.000077583   0.00082   0.01733  -0.02271   0.00098
  15   31694.7    315.5   0.001373835   0.01427  -0.07901  -0.00178   0.08958
  16   32124.0    311.3   0.008644747   0.08859   0.24973   0.12525  -0.10268
  17   32669.7    306.1   0.042974758   0.43306  -0.64244  -0.02115  -0.14100
  18   33353.1    299.8   0.588448809   5.80829  -1.60548  -1.71521   0.53738
  19   33404.7    299.4   0.338070236   3.33176   1.81480  -0.12582  -0.14984
  20   33618.8    297.5   0.001776828   0.01740   0.11956  -0.05433  -0.01243
  21   34259.6    291.9   0.041547576   0.39924  -0.61962  -0.11417   0.04778
  22   34329.5    291.3   0.012649674   0.12131  -0.32816   0.09417   0.06891
  23   34452.1    290.3   0.420736388   4.02040   1.98731  -0.03375  -0.26435
  24   35612.8    280.8   0.486592843   4.49816  -1.81978  -0.63364   0.88604
  25   35686.2    280.2   0.117122224   1.08047   0.34572   0.97975  -0.03223
  26   35939.5    278.2   0.171611221   1.57199   0.56049  -1.11342  -0.13462
  27   36898.9    271.0   0.123259121   1.09972  -0.78766   0.57433   0.38660
  28   37378.0    267.5   0.724122799   6.37781  -1.58862  -1.95922   0.12473
  29   38590.5    259.1   0.094437921   0.80564  -0.68553   0.50678   0.28082
  30   39259.3    254.7   0.000008221   0.00007  -0.00219   0.00262   0.00757
  31   39389.6    253.9   0.133503394   1.11580  -0.48881   0.62526  -0.69708
  32   39841.6    251.0   0.000043891   0.00036  -0.00888  -0.01530   0.00705
  33   39952.6    250.3   0.000090146   0.00074  -0.00804   0.02149   0.01471

FINAL SINGLE POINT ENERGY     -6496.833533987375

DIPOLE MOMENT
-------------
                                X             Y             Z
Electronic contribution:    181.52277     -14.37518     -60.19114
Nuclear contribution   :   -181.95699      16.51158      59.42692
                        -----------------------------------------
Total Dipole Moment    :     -0.43422       2.13640      -0.76421
                        -----------------------------------------
Magnitude (a.u.)       :      2.31014
Magnitude (Debye)      :      5.87191

Rotational constants in cm-1:     0.002567     0.000161     0.000154
Rotational constants in MHz :    76.945533     4.830693     4.613640

                             ****ORCA TERMINATED NORMALLY****
TOTAL RUN TIME: 0 days 0 hours 9 minutes 58 seconds 913 msec
