                         Program Version 4.2.0 -  RELEASE  -
|  1> # ORCA input file
|  2> # SCF done       -175.169319613330          0.000592446363
|  3> ! CAM-B3LYP def2-SVP def2/J RIJCOSX Grid4 TightSCF
|  4> %maxcore 5000
|  5> %tddft
|  6>     Mode sTDDFT
|  7>     Ethresh 5.0
|  8>     maxcore 5000
|  9> end
| 10>
| 11> %pal
| 12>   nprocs 6
| 13>   end
| 14> * xyz 0 1
| 15>    C       -7.86760        -2.82876        -3.77421
| 16>    C       -7.70760        -3.62569        -2.66505
| 17>    C       -7.28261        -4.96913        -2.71667
| 18>    N       -6.94812        -6.06740        -2.68434
| 19>    C       -7.89729        -3.24610        -1.32042
| 20>    N       -7.99744        -3.02870        -0.19583
| 21>    C       -7.53992        -3.23856        -5.13733
| 22>    C       -7.72987        -2.12699        -5.99074
| 23>    C       -7.49194        -2.17366        -7.34234
| 24>    C       -7.04046        -3.38321        -7.88083
| 25>    C       -6.85589        -4.49177        -7.02208
| 26>    C       -7.09856        -4.44137        -5.65363
| 27>    S       -6.29585        -5.88725        -7.89244
| 28>    C       -6.31432        -4.97332        -9.37745
| 29>    C       -6.72025        -3.68981        -9.23173
| 30>   Br       -5.79679        -5.80010       -10.97960
| 31>    C       -8.20832        -0.98005        -5.19965
| 32>    O       -8.50774         0.10684        -5.67351
| 33>    C       -8.29826        -1.44525        -3.81325
| 34>    C       -8.78690        -0.79376        -2.69141
| 35>    C       -9.08584         0.52679        -2.38011
| 36>    S       -9.68888         0.80087        -0.74300
| 37>    C       -9.66320         2.55077        -0.85588
| 38>    C       -9.25687         2.91218        -2.15761
| 39>    C       -8.95138         1.79118        -2.98392
| 40>    N       -8.58625         2.28335        -4.17747
| 41>    N       -8.67028         3.61302        -4.20176
| 42>    C       -9.05771         4.01932        -3.01563
| 43>    C       -9.99761         3.25214         0.29610
| 44>    C       -9.83714         4.59215         0.60447
| 45>    C      -10.16333         5.17387         1.84893
| 46>    C       -9.81115         6.49063         1.96843
| 47>    C       -9.19288         7.00999         0.81896
| 48>    S       -9.09286         5.78698        -0.42385
| 49>    C       -8.66124         8.27668         0.60426
| 50>    C       -8.55482         9.36012         1.49111
| 51>    C       -7.89420        10.43848         0.96635
| 52>    C       -7.46455        10.26878        -0.36552
| 53>    S       -7.93159         8.67869        -0.93098
| 54>    C       -6.69849        11.16874        -1.08487
| 55>    C       -6.28670        11.10557        -2.41113
| 56>    S       -4.97639        12.16713        -2.91656
| 57>    C       -4.95151        11.59245        -4.56895
| 58>    C       -5.96086        10.62541        -4.71487
| 59>    C       -6.69456        10.35890        -3.53057
| 60>    N       -7.64741         9.46509        -3.88163
| 61>    N       -7.56207         9.14134        -5.17543
| 62>    C       -6.56682         9.81352        -5.70015
| 63>    C       -3.99435        11.90843        -5.53163
| 64>    C       -2.95830        12.80970        -5.50500
| 65>    C       -2.67985        13.95475        -4.68117
| 66>    C       -3.61137        14.81394        -4.14800
| 67>    C       -3.28458        15.95733        -3.39609
| 68>    N       -3.06408        16.88590        -2.75711
| 69>    C       -4.99070        14.69388        -4.40568
| 70>    N       -6.11287        14.65316        -4.64704
| 71>    C       -1.24225        14.20392        -4.75415
| 72>    C       -0.69786        13.39318        -5.78217
| 73>    C       -1.76910        12.55061        -6.35460
| 74>    O       -1.68913        11.77318        -7.27913
| 75>    C        0.63295        13.42509        -6.11779
| 76>    C        1.46712        14.28604        -5.39528
| 77>    C        0.91491        15.08245        -4.36450
| 78>    C       -0.43543        15.06020        -4.03270
| 79>    S        2.12682        16.05977        -3.59382
| 80>    C        3.34220        15.39689        -4.65444
| 81>    C        2.86689        14.49024        -5.54049
| 82>   Br        5.12284        15.96240        -4.48903
| 83>    H       -7.64645        -1.30547        -7.96368
| 84>    H       -6.94341        -5.31676        -5.04619
| 85>    H       -6.79166        -2.98695       -10.04161
| 86>    H       -8.95427        -1.44848        -1.84337
| 87>    H       -8.41222         1.72807        -5.01406
| 88>    H       -9.19130         5.06419        -2.83486
| 89>    H      -10.38352         2.64397         1.10588
| 90>    H      -10.63913         4.60256         2.62603
| 91>    H       -9.97845         7.08433         2.84872
| 92>    H       -8.94685         9.31999         2.49105
| 93>    H       -7.70598        11.35153         1.50250
| 94>    H       -6.32873        12.01697        -0.52212
| 95>    H       -8.36389         9.04379        -3.31330
| 96>    H       -6.32253         9.71107        -6.73724
| 97>    H       -3.98927        11.24695        -6.39370
| 98>    H        1.02111        12.80531        -6.91070
| 99>    H       -0.81379        15.67997        -3.23642
|100>    H        3.47630        13.98352        -6.26632
|101> *
|102>
|103>                          ****END OF INPUT****

CARTESIAN COORDINATES (ANGSTROEM)
---------------------------------
  C     -7.867600   -2.828760   -3.774210
  C     -7.707600   -3.625690   -2.665050
  C     -7.282610   -4.969130   -2.716670
  N     -6.948120   -6.067400   -2.684340
  C     -7.897290   -3.246100   -1.320420
  N     -7.997440   -3.028700   -0.195830
  C     -7.539920   -3.238560   -5.137330
  C     -7.729870   -2.126990   -5.990740
  C     -7.491940   -2.173660   -7.342340
  C     -7.040460   -3.383210   -7.880830
  C     -6.855890   -4.491770   -7.022080
  C     -7.098560   -4.441370   -5.653630
  S     -6.295850   -5.887250   -7.892440
  C     -6.314320   -4.973320   -9.377450
  C     -6.720250   -3.689810   -9.231730
  Br    -5.796790   -5.800100  -10.979600
  C     -8.208320   -0.980050   -5.199650
  O     -8.507740    0.106840   -5.673510
  C     -8.298260   -1.445250   -3.813250
  C     -8.786900   -0.793760   -2.691410
  C     -9.085840    0.526790   -2.380110
  S     -9.688880    0.800870   -0.743000
  C     -9.663200    2.550770   -0.855880
  C     -9.256870    2.912180   -2.157610
  C     -8.951380    1.791180   -2.983920
  N     -8.586250    2.283350   -4.177470
  N     -8.670280    3.613020   -4.201760
  C     -9.057710    4.019320   -3.015630
  C     -9.997610    3.252140    0.296100
  C     -9.837140    4.592150    0.604470
  C    -10.163330    5.173870    1.848930
  C     -9.811150    6.490630    1.968430
  C     -9.192880    7.009990    0.818960
  S     -9.092860    5.786980   -0.423850
  C     -8.661240    8.276680    0.604260
  C     -8.554820    9.360120    1.491110
  C     -7.894200   10.438480    0.966350
  C     -7.464550   10.268780   -0.365520
  S     -7.931590    8.678690   -0.930980
  C     -6.698490   11.168740   -1.084870
  C     -6.286700   11.105570   -2.411130
  S     -4.976390   12.167130   -2.916560
  C     -4.951510   11.592450   -4.568950
  C     -5.960860   10.625410   -4.714870
  C     -6.694560   10.358900   -3.530570
  N     -7.647410    9.465090   -3.881630
  N     -7.562070    9.141340   -5.175430
  C     -6.566820    9.813520   -5.700150
  C     -3.994350   11.908430   -5.531630
  C     -2.958300   12.809700   -5.505000
  C     -2.679850   13.954750   -4.681170
  C     -3.611370   14.813940   -4.148000
  C     -3.284580   15.957330   -3.396090
  N     -3.064080   16.885900   -2.757110
  C     -4.990700   14.693880   -4.405680
  N     -6.112870   14.653160   -4.647040
  C     -1.242250   14.203920   -4.754150
  C     -0.697860   13.393180   -5.782170
  C     -1.769100   12.550610   -6.354600
  O     -1.689130   11.773180   -7.279130
  C      0.632950   13.425090   -6.117790
  C      1.467120   14.286040   -5.395280
  C      0.914910   15.082450   -4.364500
  C     -0.435430   15.060200   -4.032700
  S      2.126820   16.059770   -3.593820
  C      3.342200   15.396890   -4.654440
  C      2.866890   14.490240   -5.540490
  Br     5.122840   15.962400   -4.489030
  H     -7.646450   -1.305470   -7.963680
  H     -6.943410   -5.316760   -5.046190
  H     -6.791660   -2.986950  -10.041610
  H     -8.954270   -1.448480   -1.843370
  H     -8.412220    1.728070   -5.014060
  H     -9.191300    5.064190   -2.834860
  H    -10.383520    2.643970    1.105880
  H    -10.639130    4.602560    2.626030
  H     -9.978450    7.084330    2.848720
  H     -8.946850    9.319990    2.491050
  H     -7.705980   11.351530    1.502500
  H     -6.328730   12.016970   -0.522120
  H     -8.363890    9.043790   -3.313300
  H     -6.322530    9.711070   -6.737240
  H     -3.989270   11.246950   -6.393700
  H      1.021110   12.805310   -6.910700
  H     -0.813790   15.679970   -3.236420
  H      3.476300   13.983520   -6.266320

 Total Charge           Charge          ....    0
 Multiplicity           Mult            ....    1
 Number of Electrons    NEL             ....  556
 Basis Dimension        Dim             .... 1102

ORBITAL ENERGIES
----------------

  NO   OCC          E(Eh)            E(eV)
   0   2.0000    -482.885244    -13139.9755
   1   2.0000    -482.880533    -13139.8473
   2   2.0000     -88.985154     -2421.4091
   3   2.0000     -88.982666     -2421.3414
   4   2.0000     -88.977312     -2421.1957
   5   2.0000     -88.975309     -2421.1412
   6   2.0000     -88.973361     -2421.0882
   7   2.0000     -88.969320     -2420.9783
   8   2.0000     -62.562973     -1702.4250
   9   2.0000     -62.558237     -1702.2962
  10   2.0000     -56.396922     -1534.6383
  11   2.0000     -56.394206     -1534.5644
  12   2.0000     -56.394173     -1534.5635
  13   2.0000     -56.392182     -1534.5093
  14   2.0000     -56.389478     -1534.4357
  15   2.0000     -56.389444     -1534.4348
  16   2.0000     -19.215064      -522.8685
  17   2.0000     -19.213023      -522.8129
  18   2.0000     -14.500461      -394.5776
  19   2.0000     -14.476922      -393.9371
  20   2.0000     -14.453373      -393.2963
  21   2.0000     -14.435740      -392.8164
  22   2.0000     -14.415893      -392.2764
  23   2.0000     -14.413153      -392.2018
  24   2.0000     -14.405853      -392.0032
  25   2.0000     -14.402893      -391.9227
  26   2.0000     -10.366405      -282.0842
  27   2.0000     -10.364583      -282.0346
  28   2.0000     -10.358146      -281.8595
  29   2.0000     -10.352661      -281.7102
  30   2.0000     -10.346121      -281.5323
  31   2.0000     -10.344794      -281.4962
  32   2.0000     -10.344420      -281.4860
  33   2.0000     -10.342029      -281.4209
  34   2.0000     -10.341919      -281.4179
  35   2.0000     -10.341703      -281.4120
  36   2.0000     -10.341097      -281.3955
  37   2.0000     -10.339298      -281.3466
  38   2.0000     -10.339141      -281.3423
  39   2.0000     -10.332387      -281.1586
  40   2.0000     -10.330848      -281.1167
  41   2.0000     -10.330793      -281.1152
  42   2.0000     -10.327886      -281.0361
  43   2.0000     -10.325417      -280.9689
  44   2.0000     -10.322848      -280.8990
  45   2.0000     -10.321935      -280.8741
  46   2.0000     -10.321913      -280.8735
  47   2.0000     -10.318738      -280.7871
  48   2.0000     -10.318339      -280.7763
  49   2.0000     -10.317591      -280.7559
  50   2.0000     -10.316331      -280.7216
  51   2.0000     -10.315850      -280.7085
  52   2.0000     -10.315744      -280.7057
  53   2.0000     -10.315155      -280.6896
  54   2.0000     -10.311274      -280.5840
  55   2.0000     -10.310162      -280.5538
  56   2.0000     -10.309941      -280.5478
  57   2.0000     -10.308966      -280.5212
  58   2.0000     -10.308298      -280.5031
  59   2.0000     -10.307191      -280.4729
  60   2.0000     -10.306560      -280.4558
  61   2.0000     -10.305254      -280.4202
  62   2.0000     -10.302381      -280.3420
  63   2.0000     -10.300550      -280.2922
  64   2.0000     -10.300168      -280.2818
  65   2.0000     -10.299726      -280.2698
  66   2.0000     -10.299450      -280.2623
  67   2.0000     -10.297240      -280.2022
  68   2.0000     -10.296752      -280.1889
  69   2.0000     -10.296267      -280.1757
  70   2.0000     -10.294366      -280.1239
  71   2.0000     -10.293606      -280.1033
  72   2.0000     -10.292101      -280.0623
  73   2.0000     -10.290948      -280.0309
  74   2.0000     -10.287005      -279.9236
  75   2.0000     -10.284404      -279.8529
  76   2.0000      -8.792412      -239.2537
  77   2.0000      -8.787657      -239.1243
  78   2.0000      -8.079484      -219.8539
  79   2.0000      -8.078930      -219.8389
  80   2.0000      -8.073266      -219.6847
  81   2.0000      -8.071311      -219.6315
  82   2.0000      -8.068533      -219.5559
  83   2.0000      -8.065358      -219.4696
  84   2.0000      -6.628719      -180.3766
  85   2.0000      -6.623925      -180.2462
  86   2.0000      -6.614140      -179.9799
  87   2.0000      -6.613947      -179.9746
  88   2.0000      -6.609407      -179.8511
  89   2.0000      -6.609217      -179.8459
  90   2.0000      -6.048940      -164.6000
  91   2.0000      -6.048584      -164.5903
  92   2.0000      -6.044624      -164.4826
  93   2.0000      -6.044519      -164.4797
  94   2.0000      -6.042949      -164.4370
  95   2.0000      -6.041513      -164.3979
  96   2.0000      -6.040977      -164.3834
  97   2.0000      -6.040049      -164.3581
  98   2.0000      -6.038724      -164.3220
  99   2.0000      -6.038014      -164.3027
 100   2.0000      -6.036744      -164.2682
 101   2.0000      -6.035014      -164.2211
 102   2.0000      -6.034463      -164.2061
 103   2.0000      -6.033758      -164.1869
 104   2.0000      -6.032541      -164.1538
 105   2.0000      -6.030779      -164.1058
 106   2.0000      -6.030357      -164.0944
 107   2.0000      -6.026593      -163.9919
 108   2.0000      -2.744574       -74.6837
 109   2.0000      -2.740488       -74.5725
 110   2.0000      -2.740376       -74.5694
 111   2.0000      -2.739805       -74.5539
 112   2.0000      -2.735717       -74.4427
 113   2.0000      -2.735595       -74.4393
 114   2.0000      -2.728772       -74.2537
 115   2.0000      -2.728753       -74.2532
 116   2.0000      -2.724046       -74.1251
 117   2.0000      -2.724023       -74.1244
 118   2.0000      -1.163563       -31.6622
 119   2.0000      -1.149571       -31.2814
 120   2.0000      -1.127997       -30.6944
 121   2.0000      -1.127920       -30.6923
 122   2.0000      -1.028962       -27.9995
 123   2.0000      -1.023131       -27.8408
 124   2.0000      -1.015275       -27.6270
 125   2.0000      -1.013937       -27.5906
 126   2.0000      -1.009698       -27.4753
 127   2.0000      -1.004852       -27.3434
 128   2.0000      -1.002854       -27.2890
 129   2.0000      -0.995271       -27.0827
 130   2.0000      -0.992320       -27.0024
 131   2.0000      -0.988815       -26.9070
 132   2.0000      -0.983815       -26.7710
 133   2.0000      -0.980807       -26.6891
 134   2.0000      -0.946577       -25.7577
 135   2.0000      -0.938755       -25.5448
 136   2.0000      -0.937132       -25.5007
 137   2.0000      -0.928472       -25.2650
 138   2.0000      -0.918153       -24.9842
 139   2.0000      -0.907995       -24.7078
 140   2.0000      -0.905681       -24.6448
 141   2.0000      -0.900749       -24.5106
 142   2.0000      -0.897494       -24.4220
 143   2.0000      -0.889286       -24.1987
 144   2.0000      -0.885469       -24.0948
 145   2.0000      -0.878419       -23.9030
 146   2.0000      -0.877318       -23.8730
 147   2.0000      -0.871207       -23.7068
 148   2.0000      -0.868474       -23.6324
 149   2.0000      -0.865903       -23.5624
 150   2.0000      -0.857523       -23.3344
 151   2.0000      -0.849241       -23.1090
 152   2.0000      -0.834778       -22.7155
 153   2.0000      -0.828597       -22.5473
 154   2.0000      -0.822549       -22.3827
 155   2.0000      -0.815646       -22.1949
 156   2.0000      -0.796508       -21.6741
 157   2.0000      -0.777329       -21.1522
 158   2.0000      -0.763619       -20.7791
 159   2.0000      -0.755116       -20.5478
 160   2.0000      -0.753281       -20.4978
 161   2.0000      -0.744416       -20.2566
 162   2.0000      -0.728261       -19.8170
 163   2.0000      -0.721525       -19.6337
 164   2.0000      -0.714975       -19.4554
 165   2.0000      -0.710872       -19.3438
 166   2.0000      -0.706647       -19.2288
 167   2.0000      -0.702885       -19.1265
 168   2.0000      -0.695949       -18.9377
 169   2.0000      -0.692499       -18.8438
 170   2.0000      -0.689469       -18.7614
 171   2.0000      -0.682276       -18.5657
 172   2.0000      -0.680315       -18.5123
 173   2.0000      -0.678458       -18.4618
 174   2.0000      -0.669255       -18.2113
 175   2.0000      -0.660585       -17.9754
 176   2.0000      -0.651538       -17.7292
 177   2.0000      -0.650348       -17.6969
 178   2.0000      -0.646500       -17.5922
 179   2.0000      -0.633126       -17.2282
 180   2.0000      -0.627610       -17.0781
 181   2.0000      -0.623879       -16.9766
 182   2.0000      -0.621949       -16.9241
 183   2.0000      -0.613615       -16.6973
 184   2.0000      -0.605720       -16.4825
 185   2.0000      -0.600816       -16.3490
 186   2.0000      -0.593294       -16.1443
 187   2.0000      -0.591713       -16.1013
 188   2.0000      -0.584128       -15.8949
 189   2.0000      -0.577934       -15.7264
 190   2.0000      -0.571335       -15.5468
 191   2.0000      -0.564703       -15.3664
 192   2.0000      -0.562542       -15.3075
 193   2.0000      -0.558688       -15.2027
 194   2.0000      -0.557725       -15.1765
 195   2.0000      -0.554033       -15.0760
 196   2.0000      -0.551863       -15.0169
 197   2.0000      -0.547784       -14.9060
 198   2.0000      -0.542169       -14.7532
 199   2.0000      -0.539677       -14.6854
 200   2.0000      -0.538391       -14.6504
 201   2.0000      -0.536844       -14.6083
 202   2.0000      -0.532078       -14.4786
 203   2.0000      -0.530081       -14.4242
 204   2.0000      -0.528882       -14.3916
 205   2.0000      -0.526452       -14.3255
 206   2.0000      -0.525651       -14.3037
 207   2.0000      -0.519809       -14.1447
 208   2.0000      -0.519456       -14.1351
 209   2.0000      -0.518190       -14.1007
 210   2.0000      -0.510533       -13.8923
 211   2.0000      -0.508746       -13.8437
 212   2.0000      -0.506900       -13.7935
 213   2.0000      -0.503215       -13.6932
 214   2.0000      -0.501803       -13.6547
 215   2.0000      -0.498405       -13.5623
 216   2.0000      -0.497216       -13.5299
 217   2.0000      -0.494675       -13.4608
 218   2.0000      -0.488606       -13.2956
 219   2.0000      -0.487086       -13.2543
 220   2.0000      -0.486216       -13.2306
 221   2.0000      -0.481895       -13.1130
 222   2.0000      -0.480731       -13.0814
 223   2.0000      -0.472736       -12.8638
 224   2.0000      -0.469872       -12.7859
 225   2.0000      -0.468112       -12.7380
 226   2.0000      -0.467408       -12.7188
 227   2.0000      -0.465267       -12.6606
 228   2.0000      -0.459634       -12.5073
 229   2.0000      -0.458013       -12.4632
 230   2.0000      -0.457785       -12.4570
 231   2.0000      -0.452077       -12.3016
 232   2.0000      -0.450687       -12.2638
 233   2.0000      -0.448596       -12.2069
 234   2.0000      -0.445440       -12.1210
 235   2.0000      -0.445118       -12.1123
 236   2.0000      -0.442978       -12.0540
 237   2.0000      -0.442547       -12.0423
 238   2.0000      -0.440661       -11.9910
 239   2.0000      -0.438931       -11.9439
 240   2.0000      -0.437115       -11.8945
 241   2.0000      -0.433792       -11.8041
 242   2.0000      -0.431790       -11.7496
 243   2.0000      -0.431489       -11.7414
 244   2.0000      -0.426337       -11.6012
 245   2.0000      -0.424156       -11.5419
 246   2.0000      -0.421396       -11.4668
 247   2.0000      -0.416761       -11.3407
 248   2.0000      -0.413207       -11.2439
 249   2.0000      -0.410157       -11.1609
 250   2.0000      -0.405926       -11.0458
 251   2.0000      -0.401167       -10.9163
 252   2.0000      -0.396567       -10.7911
 253   2.0000      -0.389475       -10.5982
 254   2.0000      -0.386231       -10.5099
 255   2.0000      -0.380653       -10.3581
 256   2.0000      -0.378500       -10.2995
 257   2.0000      -0.374735       -10.1971
 258   2.0000      -0.370062       -10.0699
 259   2.0000      -0.368044       -10.0150
 260   2.0000      -0.366662        -9.9774
 261   2.0000      -0.364445        -9.9170
 262   2.0000      -0.362588        -9.8665
 263   2.0000      -0.354552        -9.6478
 264   2.0000      -0.350873        -9.5477
 265   2.0000      -0.345183        -9.3929
 266   2.0000      -0.342034        -9.3072
 267   2.0000      -0.333985        -9.0882
 268   2.0000      -0.329912        -8.9774
 269   2.0000      -0.327204        -8.9037
 270   2.0000      -0.325239        -8.8502
 271   2.0000      -0.314768        -8.5653
 272   2.0000      -0.309817        -8.4305
 273   2.0000      -0.298525        -8.1233
 274   2.0000      -0.293549        -7.9879
 275   2.0000      -0.286694        -7.8013
 276   2.0000      -0.264167        -7.1883
 277   2.0000      -0.224546        -6.1102
 278   0.0000      -0.134564        -3.6617
 279   0.0000      -0.094253        -2.5648
 280   0.0000      -0.068227        -1.8565
 281   0.0000      -0.061264        -1.6671
 282   0.0000      -0.049856        -1.3567

MULLIKEN ATOMIC CHARGES
-----------------------
   0 C :    0.318303
   1 C :   -0.372691
   2 C :   -0.186946
   3 N :    0.139627
   4 C :   -0.196874
   5 N :    0.146832
   6 C :    0.014306
   7 C :   -0.016038
   8 C :   -0.077306
   9 C :    0.119207
  10 C :   -0.091859
  11 C :   -0.021897
  12 S :    0.183466
  13 C :   -0.123986
  14 C :    0.037178
  15 Br:    0.018796
  16 C :    0.168486
  17 O :   -0.224426
  18 C :   -0.113068
  19 C :    0.045174
  20 C :   -0.192759
  21 S :    0.157518
  22 C :   -0.099806
  23 C :   -0.002990
  24 C :    0.141168
  25 N :   -0.010009
  26 N :   -0.050249
  27 C :   -0.017868
  28 C :    0.023726
  29 C :   -0.016141
  30 C :    0.029917
  31 C :    0.037921
  32 C :   -0.040419
  33 S :    0.087654
  34 C :   -0.033725
  35 C :    0.030783
  36 C :    0.043233
  37 C :   -0.047718
  38 S :    0.067426
  39 C :    0.041965
  40 C :   -0.188878
  41 S :    0.171613
  42 C :   -0.082201
  43 C :    0.021400
  44 C :    0.169687
  45 N :   -0.038983
  46 N :   -0.045384
  47 C :    0.009516
  48 C :    0.015623
  49 C :   -0.137373
  50 C :    0.253996
  51 C :   -0.326811
  52 C :   -0.172890
  53 N :    0.147567
  54 C :   -0.219678
  55 N :    0.170800
  56 C :    0.007335
  57 C :    0.000578
  58 C :    0.139366
  59 O :   -0.146525
  60 C :   -0.072352
  61 C :    0.112527
  62 C :   -0.088077
  63 C :   -0.024295
  64 S :    0.183124
  65 C :   -0.125288
  66 C :    0.040111
  67 Br:    0.022448
  68 H :   -0.014012
  69 H :   -0.007836
  70 H :   -0.004746
  71 H :    0.001373
  72 H :    0.156022
  73 H :   -0.000588
  74 H :   -0.004502
  75 H :    0.001087
  76 H :   -0.002364
  77 H :   -0.002250
  78 H :    0.003422
  79 H :    0.001714
  80 H :    0.142127
  81 H :    0.011255
  82 H :    0.022424
  83 H :   -0.008883
  84 H :   -0.004321
  85 H :   -0.002785
Sum of atomic charges:    0.0000000

LOEWDIN ATOMIC CHARGES
----------------------
   0 C :    0.077376
   1 C :   -0.156875
   2 C :   -0.018414
   3 N :   -0.065497
   4 C :   -0.026746
   5 N :   -0.063808
   6 C :   -0.018389
   7 C :   -0.050307
   8 C :    0.019760
   9 C :   -0.035937
  10 C :   -0.144730
  11 C :   -0.011886
  12 S :    0.431133
  13 C :   -0.274003
  14 C :   -0.070666
  15 Br:    0.132871
  16 C :    0.096793
  17 O :   -0.179521
  18 C :   -0.128243
  19 C :    0.035087
  20 C :   -0.203883
  21 S :    0.465684
  22 C :   -0.121121
  23 C :   -0.109729
  24 C :    0.006204
  25 N :    0.124168
  26 N :   -0.052379
  27 C :   -0.050254
  28 C :   -0.083615
  29 C :   -0.129479
  30 C :   -0.030486
  31 C :   -0.021755
  32 C :   -0.181708
  33 S :    0.424613
  34 C :   -0.163392
  35 C :   -0.032205
  36 C :   -0.018450
  37 C :   -0.151683
  38 S :    0.399179
  39 C :   -0.058244
  40 C :   -0.170006
  41 S :    0.497392
  42 C :   -0.169444
  43 C :   -0.062400
  44 C :   -0.027216
  45 N :    0.100022
  46 N :   -0.036094
  47 C :   -0.030639
  48 C :    0.041224
  49 C :   -0.098249
  50 C :    0.060239
  51 C :   -0.151994
  52 C :   -0.020520
  53 N :   -0.055972
  54 C :   -0.041568
  55 N :   -0.050286
  56 C :   -0.016434
  57 C :   -0.051690
  58 C :    0.081961
  59 O :   -0.147130
  60 C :    0.022138
  61 C :   -0.034660
  62 C :   -0.143811
  63 C :   -0.014767
  64 S :    0.430652
  65 C :   -0.272927
  66 C :   -0.069676
  67 Br:    0.135644
  68 H :    0.039302
  69 H :    0.040637
  70 H :    0.038096
  71 H :    0.043732
  72 H :    0.069067
  73 H :    0.005598
  74 H :    0.039793
  75 H :    0.038601
  76 H :    0.036856
  77 H :    0.037369
  78 H :    0.040103
  79 H :    0.043245
  80 H :    0.061256
  81 H :    0.029220
  82 H :    0.052992
  83 H :    0.041522
  84 H :    0.040383
  85 H :    0.038977

  Mayer bond orders larger than 0.100000
B(  0-C ,  1-C ) :   1.5834 B(  0-C ,  6-C ) :   0.9813 B(  0-C , 18-C ) :   1.1342
B(  1-C ,  2-C ) :   1.1512 B(  1-C ,  4-C ) :   1.1458 B(  2-C ,  3-N ) :   2.9630
B(  4-C ,  5-N ) :   2.9769 B(  6-C ,  7-C ) :   1.2771 B(  6-C , 11-C ) :   1.4234
B(  7-C ,  8-C ) :   1.4203 B(  7-C , 16-C ) :   0.9602 B(  8-C ,  9-C ) :   1.2399
B(  8-C , 68-H ) :   1.0176 B(  9-C , 10-C ) :   1.3143 B(  9-C , 14-C ) :   1.1617
B( 10-C , 11-C ) :   1.3167 B( 10-C , 12-S ) :   1.0869 B( 11-C , 69-H ) :   0.9800
B( 12-S , 13-C ) :   1.0866 B( 13-C , 14-C ) :   1.6182 B( 13-C , 15-Br) :   1.0159
B( 14-C , 70-H ) :   1.0008 B( 16-C , 17-O ) :   2.0595 B( 16-C , 18-C ) :   0.9998
B( 17-O , 72-H ) :   0.1138 B( 18-C , 19-C ) :   1.4388 B( 19-C , 20-C ) :   1.3961
B( 19-C , 71-H ) :   0.8926 B( 20-C , 21-S ) :   1.0764 B( 20-C , 24-C ) :   1.2102
B( 21-S , 22-C ) :   1.1614 B( 22-C , 23-C ) :   1.2209 B( 22-C , 28-C ) :   1.2643
B( 23-C , 24-C ) :   1.2781 B( 23-C , 27-C ) :   1.1849 B( 24-C , 25-N ) :   1.2682
B( 25-N , 26-N ) :   1.1438 B( 25-N , 72-H ) :   0.8893 B( 26-N , 27-C ) :   1.7158
B( 27-C , 73-H ) :   0.9884 B( 28-C , 29-C ) :   1.5095 B( 28-C , 74-H ) :   0.9417
B( 29-C , 30-C ) :   1.1843 B( 29-C , 33-S ) :   1.0689 B( 30-C , 31-C ) :   1.5435
B( 30-C , 75-H ) :   0.9996 B( 31-C , 32-C ) :   1.2276 B( 31-C , 76-H ) :   0.9940
B( 32-C , 33-S ) :   1.0562 B( 32-C , 34-C ) :   1.4381 B( 34-C , 35-C ) :   1.2283
B( 34-C , 38-S ) :   1.0615 B( 35-C , 36-C ) :   1.5409 B( 35-C , 77-H ) :   0.9939
B( 36-C , 37-C ) :   1.1894 B( 36-C , 78-H ) :   0.9990 B( 37-C , 38-S ) :   1.0307
B( 37-C , 39-C ) :   1.5276 B( 39-C , 40-C ) :   1.2561 B( 39-C , 79-H ) :   0.9383
B( 40-C , 41-S ) :   1.1303 B( 40-C , 44-C ) :   1.2711 B( 41-S , 42-C ) :   1.1064
B( 42-C , 43-C ) :   1.2622 B( 42-C , 48-C ) :   1.2592 B( 43-C , 44-C ) :   1.2863
B( 43-C , 47-C ) :   1.1920 B( 44-C , 45-N ) :   1.1608 B( 45-N , 46-N ) :   1.1568
B( 45-N , 80-H ) :   0.9302 B( 46-N , 47-C ) :   1.7058 B( 47-C , 81-H ) :   0.9985
B( 48-C , 49-C ) :   1.5537 B( 48-C , 82-H ) :   0.9417 B( 49-C , 50-C ) :   1.0666
B( 49-C , 58-C ) :   0.9552 B( 50-C , 51-C ) :   1.6207 B( 50-C , 56-C ) :   1.0126
B( 51-C , 52-C ) :   1.1365 B( 51-C , 54-C ) :   1.1562 B( 52-C , 53-N ) :   2.9845
B( 54-C , 55-N ) :   3.0187 B( 56-C , 57-C ) :   1.2734 B( 56-C , 63-C ) :   1.4222
B( 57-C , 58-C ) :   0.9212 B( 57-C , 60-C ) :   1.4313 B( 58-C , 59-O ) :   2.2567
B( 60-C , 61-C ) :   1.2463 B( 60-C , 83-H ) :   1.0172 B( 61-C , 62-C ) :   1.3125
B( 61-C , 66-C ) :   1.1636 B( 62-C , 63-C ) :   1.3186 B( 62-C , 64-S ) :   1.0844
B( 63-C , 84-H ) :   0.9850 B( 64-S , 65-C ) :   1.0862 B( 65-C , 66-C ) :   1.6196
B( 65-C , 67-Br) :   1.0177 B( 66-C , 85-H ) :   1.0003

-----------------------------------------------------------------------------
         ABSORPTION SPECTRUM VIA TRANSITION ELECTRIC DIPOLE MOMENTS
-----------------------------------------------------------------------------
State   Energy  Wavelength   fosc         T2         TX        TY        TZ
        (cm-1)    (nm)                  (au**2)     (au)      (au)      (au)
-----------------------------------------------------------------------------
   0    7281.4   1373.4   1.134146107  51.27781  -2.41484  -6.71408   0.60622
   1   14439.2    692.6   0.016718487   0.38118   0.00164  -0.61717   0.01662
   2   15919.5    628.2   0.905528322  18.72613   2.52123  -1.46549  -3.19717
   3   20731.5    482.4   0.108921057   1.72964   0.44056  -0.97963  -0.75886
   4   21748.0    459.8   0.030941192   0.46837  -0.19867   0.60976   0.23895
   5   21901.5    456.6   0.059198486   0.88984  -0.25669   0.13532  -0.89757
   6   22660.5    441.3   0.155454190   2.25844  -1.10419   0.51317   0.88083
   7   23385.4    427.6   0.183961203   2.58975   0.57593  -0.37810  -1.45434
   8   24240.5    412.5   0.020133657   0.27344  -0.21400  -0.41224  -0.24020
   9   25297.9    395.3   0.010978578   0.14287   0.21768   0.23093   0.20532
  10   25849.6    386.9   0.020888271   0.26603  -0.08894  -0.40970  -0.30044
  11   26904.2    371.7   0.013030495   0.15945  -0.38310  -0.03380  -0.10741
  12   27408.2    364.9   0.047394184   0.56927  -0.26591  -0.49141   0.50703
  13   27632.7    361.9   0.112965391   1.34585  -0.85656  -0.78217   0.01898
  14   27663.7    361.5   0.044352851   0.52782  -0.63454  -0.35378   0.00491
  15   28643.0    349.1   0.039397473   0.45282  -0.19352   0.31747   0.56088
  16   28811.4    347.1   0.018314008   0.20926   0.38513  -0.24652   0.01282
  17   29628.9    337.5   0.084498984   0.93888  -0.18790  -0.29879  -0.90239
  18   29859.1    334.9   0.321742921   3.54738   0.11551  -0.69372  -1.74722
  19   30447.6    328.4   0.045057706   0.48718  -0.33652   0.56083   0.24374
  20   30658.3    326.2   0.126575539   1.35918   1.08367   0.42520  -0.06368
  21   31083.6    321.7   0.387665284   4.10584  -0.37560   0.27354   1.97229
  22   31257.1    319.9   0.034517940   0.36356  -0.23566  -0.27198   0.48379
  23   31500.3    317.5   0.200355549   2.09393   1.37000  -0.38495  -0.26238
  24   31955.9    312.9   0.176884842   1.82228  -1.34442  -0.03367   0.11700
  25   32243.1    310.1   0.001517125   0.01549  -0.07804   0.04938   0.08343
  26   32528.2    307.4   0.082600135   0.83598  -0.58100  -0.54121  -0.45334
  27   32674.7    306.0   0.028667348   0.28884   0.47126  -0.07450  -0.24738
  28   32946.6    303.5   0.065472544   0.65422   0.72441   0.35211   0.07401
  29   33056.0    302.5   0.017310398   0.17240  -0.41379  -0.03365  -0.00636
  30   33274.9    300.5   0.003876328   0.03835   0.05289   0.03152  -0.18590
  31   33408.1    299.3   0.049954941   0.49227   0.42667   0.55665  -0.01916
  32   33486.4    298.6   0.060350150   0.59332  -0.57331  -0.20681  -0.47102
  33   33895.9    295.0   0.009755466   0.09475  -0.03880   0.21226   0.21952
  34   34917.2    286.4   0.001342346   0.01266  -0.03394   0.04189  -0.09874
  35   35033.5    285.4   0.010454429   0.09824  -0.11935  -0.02367  -0.28885
  36   35173.2    284.3   0.005273474   0.04936   0.00370   0.14235   0.17053
  37   35315.7    283.2   0.020889128   0.19473  -0.23149   0.33712   0.16581
  38   35704.0    280.1   0.210910687   1.94472  -0.07317  -0.51716   1.29302
  39   35797.0    279.4   0.126766772   1.16583  -0.84935   0.64533   0.16731
  40   36153.6    276.6   0.248521523   2.26302  -0.61804   0.16226   1.36188
  41   37235.3    268.6   0.069037362   0.61039  -0.68657  -0.36574   0.07244
  42   37598.4    266.0   0.017605960   0.15416   0.11625  -0.19878   0.31801
  43   37795.6    264.6   0.013463377   0.11727   0.13187  -0.27925  -0.14798
  44   37959.4    263.4   0.016498093   0.14308  -0.00989  -0.18984  -0.32703
  45   38026.0    263.0   0.005810378   0.05030   0.19839   0.08446  -0.06174
  46   38213.5    261.7   0.087887071   0.75715   0.74974  -0.17336   0.40619
  47   38429.8    260.2   0.072974763   0.62514  -0.09396   0.18426   0.76313
  48   38483.0    259.9   0.014011820   0.11987  -0.08997   0.26590  -0.20265
  49   38743.6    258.1   0.052761971   0.44833   0.55487  -0.24819  -0.28081
  50   38966.5    256.6   0.030223399   0.25535  -0.13962   0.33772  -0.34900
  51   39387.7    253.9   0.013632657   0.11394  -0.16294  -0.26602   0.12895
  52   39510.7    253.1   0.350413612   2.91972  -0.46084   1.64462  -0.05093
  53   39765.5    251.5   0.042632331   0.35295  -0.04024   0.59219   0.02530
  54   40037.6    249.8   0.029444065   0.24211  -0.41371  -0.13469   0.22980
  55   40287.9    248.2   0.105983804   0.86605   0.35025  -0.04559  -0.86098

FINAL SINGLE POINT ENERGY    -10037.647371091862

DIPOLE MOMENT
-------------
                                X             Y             Z
Electronic contribution:    111.90727     -21.75279     -82.64940
Nuclear contribution   :   -112.14165      23.75282      84.32977
                        -----------------------------------------
Total Dipole Moment    :     -0.23438       2.00004       1.68037
                        -----------------------------------------
Magnitude (a.u.)       :      2.62273
Magnitude (Debye)      :      6.66645

Rotational constants in cm-1:     0.000790     0.000205     0.000174
Rotational constants in MHz :    23.695044     6.153921     5.227456

                             ****ORCA TERMINATED NORMALLY****
TOTAL RUN TIME: 0 days 0 hours 9 minutes 47 seconds 643 msec
