                         Program Version 4.2.0 -  RELEASE  -
|  1> # ORCA input file
|  2> # SCF done       -198.746494093222          0.000746553008
|  3> ! CAM-B3LYP def2-SVP def2/J RIJCOSX Grid4 TightSCF
|  4> %maxcore 5000
|  5> %tddft
|  6>     Mode sTDDFT
|  7>     Ethresh 5.0
|  8>     maxcore 5000
|  9> end
| 10>
| 11> %pal
| 12>   nprocs 6
| 13>   end
| 14> * xyz 0 1
| 15>    C       -0.07303         4.40406         2.73916
| 16>    C       -0.09263         4.24900         1.37523
| 17>    C        0.92698         3.61467         0.63575
| 18>    N        1.72072         3.11200        -0.02443
| 19>    C       -1.11066         4.69660         0.50842
| 20>    N       -1.88746         5.03034        -0.26942
| 21>    C        0.99969         3.94804         3.61903
| 22>    C        0.67487         4.29717         4.95191
| 23>    C        1.49282         4.00701         6.01618
| 24>    C        2.69335         3.33893         5.75397
| 25>    C        3.01057         2.99311         4.41923
| 26>    C        2.18213         3.28632         3.34301
| 27>    S        4.54041         2.17413         4.31783
| 28>    C        4.73014         2.30791         6.04593
| 29>    C        3.70235         2.93130         6.66914
| 30>   Br        6.26651         1.61019         6.86520
| 31>    C       -0.62813         4.99398         4.97403
| 32>    O       -1.18801         5.42721         5.95920
| 33>    C       -1.07827         5.04426         3.56285
| 34>    C       -2.24926         5.61373         3.13371
| 35>    C       -3.19196         6.24718         3.96519
| 36>    C       -4.31001         6.83657         3.44982
| 37>    C       -5.26430         7.52233         4.22535
| 38>    O       -6.31681         8.13587         3.61953
| 39>    C       -7.05772         8.75936         4.56818
| 40>    C       -6.48160         8.53264         5.81815
| 41>    C       -5.33740         7.74434         5.60609
| 42>    O       -4.48291         7.29400         6.53451
| 43>    O       -6.88050         8.95465         7.04554
| 44>    C       -8.19410         9.53426         4.23730
| 45>    C       -8.69848         9.69012         2.98438
| 46>    C       -9.78902        10.54635         2.71041
| 47>    C      -10.33040        10.73610         1.47812
| 48>    C      -11.36453        11.67640         1.23014
| 49>    O      -11.79678        12.48423         2.23564
| 50>    C      -12.71378        13.29944         1.75429
| 51>    C      -12.92263        13.07884         0.40753
| 52>    N      -13.84141        13.87713        -0.31658
| 53>    O      -14.65549        14.48838         0.34459
| 54>    O      -13.75820        13.93785        -1.52933
| 55>    C      -12.04559        11.99755         0.04466
| 56>    N      -11.88972        11.28968        -1.10968
| 57>    C      -12.40147        11.51773        -2.34047
| 58>    C      -12.26340        10.64685        -3.38020
| 59>    C      -12.74584        10.83764        -4.69933
| 60>    C      -12.50429         9.79227        -5.53441
| 61>    C      -11.82661         8.70825        -4.92835
| 62>    S      -11.47375         9.06842        -3.25694
| 63>    C      -11.48927         7.49894        -5.50690
| 64>    C      -11.72712         7.09076        -6.83647
| 65>    C      -11.30995         5.82042        -7.10250
| 66>    C      -10.72776         5.15877        -5.99807
| 67>    S      -10.70064         6.21593        -4.60961
| 68>    C      -10.24209         3.86555        -5.98919
| 69>    C       -9.72607         3.23516        -4.86400
| 70>    C       -9.21369         1.95754        -4.77455
| 71>    C       -8.81620         1.01351        -5.78144
| 72>    C       -8.36701         1.28911        -7.05322
| 73>    C       -7.97487         0.30386        -7.97924
| 74>    N       -7.67018        -0.45558        -8.78594
| 75>    C       -8.14075         2.58488        -7.55674
| 76>    N       -7.89249         3.61113        -8.00999
| 77>    C       -8.76570        -0.30471        -5.14742
| 78>    C       -8.92814        -0.14007        -3.74948
| 79>    C       -9.15351         1.29260        -3.45614
| 80>    O       -9.30744         1.80713        -2.36824
| 81>    C       -8.89789        -1.19663        -2.87390
| 82>    C       -8.71189        -2.47899        -3.40364
| 83>    C       -8.56345        -2.63323        -4.80090
| 84>    C       -8.58296        -1.56195        -5.68730
| 85>    S       -8.36248        -4.30221        -5.24266
| 86>    C       -8.47540        -4.76280        -3.56477
| 87>    C       -8.65526        -3.72333        -2.71671
| 88>   Br       -8.35221        -6.57442        -3.09209
| 89>    H        1.21530         4.28829         7.01996
| 90>    H        2.47120         3.00040         2.34577
| 91>    H        3.65579         3.09793         7.72985
| 92>    H       -2.47654         5.59317         2.07547
| 93>    H       -3.00942         6.27744         5.02819
| 94>    H       -4.49744         6.81434         2.38388
| 95>    H       -4.77326         7.59664         7.40587
| 96>    H       -7.68824         9.47389         6.97191
| 97>    H       -8.67076        10.04983         5.06208
| 98>    H       -8.23783         9.15878         2.16437
| 99>    H      -10.20135        11.10423         3.54065
|100>    H       -9.95279        10.17988         0.63244
|101>    H      -13.16627        14.02277         2.40418
|102>    H      -11.31910        10.45558        -1.01785
|103>    H      -12.94131        12.44154        -2.49039
|104>    H      -13.25587        11.74174        -4.97845
|105>    H      -12.80136         9.76313        -6.56657
|106>    H      -12.19678         7.73524        -7.55729
|107>    H      -11.39966         5.33611        -8.05822
|108>    H      -10.31832         3.32357        -6.92039
|109>    H       -9.81480         3.75605        -3.91489
|110>    H       -9.01567        -1.04194        -1.81285
|111>    H       -8.46993        -1.73033        -6.74537
|112>    H       -8.74638        -3.82680        -1.65083
|113> *
|114>
|115>                          ****END OF INPUT****

CARTESIAN COORDINATES (ANGSTROEM)
---------------------------------
  C     -0.073030    4.404060    2.739160
  C     -0.092630    4.249000    1.375230
  C      0.926980    3.614670    0.635750
  N      1.720720    3.112000   -0.024430
  C     -1.110660    4.696600    0.508420
  N     -1.887460    5.030340   -0.269420
  C      0.999690    3.948040    3.619030
  C      0.674870    4.297170    4.951910
  C      1.492820    4.007010    6.016180
  C      2.693350    3.338930    5.753970
  C      3.010570    2.993110    4.419230
  C      2.182130    3.286320    3.343010
  S      4.540410    2.174130    4.317830
  C      4.730140    2.307910    6.045930
  C      3.702350    2.931300    6.669140
  Br     6.266510    1.610190    6.865200
  C     -0.628130    4.993980    4.974030
  O     -1.188010    5.427210    5.959200
  C     -1.078270    5.044260    3.562850
  C     -2.249260    5.613730    3.133710
  C     -3.191960    6.247180    3.965190
  C     -4.310010    6.836570    3.449820
  C     -5.264300    7.522330    4.225350
  O     -6.316810    8.135870    3.619530
  C     -7.057720    8.759360    4.568180
  C     -6.481600    8.532640    5.818150
  C     -5.337400    7.744340    5.606090
  O     -4.482910    7.294000    6.534510
  O     -6.880500    8.954650    7.045540
  C     -8.194100    9.534260    4.237300
  C     -8.698480    9.690120    2.984380
  C     -9.789020   10.546350    2.710410
  C    -10.330400   10.736100    1.478120
  C    -11.364530   11.676400    1.230140
  O    -11.796780   12.484230    2.235640
  C    -12.713780   13.299440    1.754290
  C    -12.922630   13.078840    0.407530
  N    -13.841410   13.877130   -0.316580
  O    -14.655490   14.488380    0.344590
  O    -13.758200   13.937850   -1.529330
  C    -12.045590   11.997550    0.044660
  N    -11.889720   11.289680   -1.109680
  C    -12.401470   11.517730   -2.340470
  C    -12.263400   10.646850   -3.380200
  C    -12.745840   10.837640   -4.699330
  C    -12.504290    9.792270   -5.534410
  C    -11.826610    8.708250   -4.928350
  S    -11.473750    9.068420   -3.256940
  C    -11.489270    7.498940   -5.506900
  C    -11.727120    7.090760   -6.836470
  C    -11.309950    5.820420   -7.102500
  C    -10.727760    5.158770   -5.998070
  S    -10.700640    6.215930   -4.609610
  C    -10.242090    3.865550   -5.989190
  C     -9.726070    3.235160   -4.864000
  C     -9.213690    1.957540   -4.774550
  C     -8.816200    1.013510   -5.781440
  C     -8.367010    1.289110   -7.053220
  C     -7.974870    0.303860   -7.979240
  N     -7.670180   -0.455580   -8.785940
  C     -8.140750    2.584880   -7.556740
  N     -7.892490    3.611130   -8.009990
  C     -8.765700   -0.304710   -5.147420
  C     -8.928140   -0.140070   -3.749480
  C     -9.153510    1.292600   -3.456140
  O     -9.307440    1.807130   -2.368240
  C     -8.897890   -1.196630   -2.873900
  C     -8.711890   -2.478990   -3.403640
  C     -8.563450   -2.633230   -4.800900
  C     -8.582960   -1.561950   -5.687300
  S     -8.362480   -4.302210   -5.242660
  C     -8.475400   -4.762800   -3.564770
  C     -8.655260   -3.723330   -2.716710
  Br    -8.352210   -6.574420   -3.092090
  H      1.215300    4.288290    7.019960
  H      2.471200    3.000400    2.345770
  H      3.655790    3.097930    7.729850
  H     -2.476540    5.593170    2.075470
  H     -3.009420    6.277440    5.028190
  H     -4.497440    6.814340    2.383880
  H     -4.773260    7.596640    7.405870
  H     -7.688240    9.473890    6.971910
  H     -8.670760   10.049830    5.062080
  H     -8.237830    9.158780    2.164370
  H    -10.201350   11.104230    3.540650
  H     -9.952790   10.179880    0.632440
  H    -13.166270   14.022770    2.404180
  H    -11.319100   10.455580   -1.017850
  H    -12.941310   12.441540   -2.490390
  H    -13.255870   11.741740   -4.978450
  H    -12.801360    9.763130   -6.566570
  H    -12.196780    7.735240   -7.557290
  H    -11.399660    5.336110   -8.058220
  H    -10.318320    3.323570   -6.920390
  H     -9.814800    3.756050   -3.914890
  H     -9.015670   -1.041940   -1.812850
  H     -8.469930   -1.730330   -6.745370
  H     -8.746380   -3.826800   -1.650830

 Total Charge           Charge          ....    0
 Multiplicity           Mult            ....    1
 Number of Electrons    NEL             ....  588
 Basis Dimension        Dim             .... 1208

ORBITAL ENERGIES
----------------

  NO   OCC          E(Eh)            E(eV)
   0   2.0000    -482.881113    -13139.8631
   1   2.0000    -482.872109    -13139.6181
   2   2.0000     -88.969480     -2420.9826
   3   2.0000     -88.967988     -2420.9420
   4   2.0000     -88.958944     -2420.6959
   5   2.0000     -88.954920     -2420.5864
   6   2.0000     -62.558845     -1702.3127
   7   2.0000     -62.549832     -1702.0674
   8   2.0000     -56.392787     -1534.5257
   9   2.0000     -56.390084     -1534.4522
  10   2.0000     -56.390048     -1534.4512
  11   2.0000     -56.383764     -1534.2802
  12   2.0000     -56.381084     -1534.2073
  13   2.0000     -56.381041     -1534.2061
  14   2.0000     -19.343719      -526.3694
  15   2.0000     -19.305257      -525.3228
  16   2.0000     -19.286911      -524.8235
  17   2.0000     -19.277657      -524.5717
  18   2.0000     -19.272773      -524.4388
  19   2.0000     -19.270211      -524.3691
  20   2.0000     -19.207315      -522.6576
  21   2.0000     -19.189159      -522.1636
  22   2.0000     -14.684098      -399.5746
  23   2.0000     -14.503313      -394.6552
  24   2.0000     -14.407128      -392.0379
  25   2.0000     -14.405402      -391.9909
  26   2.0000     -14.392701      -391.6453
  27   2.0000     -14.389718      -391.5641
  28   2.0000     -10.386576      -282.6331
  29   2.0000     -10.374058      -282.2925
  30   2.0000     -10.368217      -282.1335
  31   2.0000     -10.361068      -281.9390
  32   2.0000     -10.359517      -281.8968
  33   2.0000     -10.358648      -281.8732
  34   2.0000     -10.357795      -281.8499
  35   2.0000     -10.354654      -281.7645
  36   2.0000     -10.353485      -281.7326
  37   2.0000     -10.349499      -281.6242
  38   2.0000     -10.346162      -281.5334
  39   2.0000     -10.342421      -281.4316
  40   2.0000     -10.340246      -281.3724
  41   2.0000     -10.337127      -281.2875
  42   2.0000     -10.332029      -281.1488
  43   2.0000     -10.331345      -281.1302
  44   2.0000     -10.321123      -280.8520
  45   2.0000     -10.319563      -280.8096
  46   2.0000     -10.318738      -280.7871
  47   2.0000     -10.316729      -280.7325
  48   2.0000     -10.315717      -280.7049
  49   2.0000     -10.313997      -280.6581
  50   2.0000     -10.313629      -280.6481
  51   2.0000     -10.311930      -280.6019
  52   2.0000     -10.310323      -280.5582
  53   2.0000     -10.308870      -280.5186
  54   2.0000     -10.308373      -280.5051
  55   2.0000     -10.306975      -280.4670
  56   2.0000     -10.306051      -280.4419
  57   2.0000     -10.304611      -280.4027
  58   2.0000     -10.304443      -280.3982
  59   2.0000     -10.301023      -280.3051
  60   2.0000     -10.300781      -280.2985
  61   2.0000     -10.300234      -280.2836
  62   2.0000     -10.298690      -280.2416
  63   2.0000     -10.297974      -280.2221
  64   2.0000     -10.297288      -280.2034
  65   2.0000     -10.296780      -280.1896
  66   2.0000     -10.293857      -280.1101
  67   2.0000     -10.293447      -280.0989
  68   2.0000     -10.291437      -280.0442
  69   2.0000     -10.290861      -280.0286
  70   2.0000     -10.288519      -279.9648
  71   2.0000     -10.287511      -279.9374
  72   2.0000     -10.285821      -279.8914
  73   2.0000     -10.285151      -279.8732
  74   2.0000     -10.283970      -279.8410
  75   2.0000     -10.283635      -279.8319
  76   2.0000     -10.281646      -279.7778
  77   2.0000     -10.281162      -279.7646
  78   2.0000     -10.276341      -279.6335
  79   2.0000     -10.271232      -279.4944
  80   2.0000     -10.270510      -279.4748
  81   2.0000     -10.266024      -279.3527
  82   2.0000      -8.788286      -239.1414
  83   2.0000      -8.779256      -238.8957
  84   2.0000      -8.065530      -219.4742
  85   2.0000      -8.064309      -219.4410
  86   2.0000      -8.054980      -219.1871
  87   2.0000      -8.051060      -219.0805
  88   2.0000      -6.624556      -180.2633
  89   2.0000      -6.615487      -180.0165
  90   2.0000      -6.610030      -179.8681
  91   2.0000      -6.609845      -179.8630
  92   2.0000      -6.600999      -179.6223
  93   2.0000      -6.600865      -179.6187
  94   2.0000      -6.035217      -164.2266
  95   2.0000      -6.034042      -164.1946
  96   2.0000      -6.030960      -164.1108
  97   2.0000      -6.030117      -164.0878
  98   2.0000      -6.026723      -163.9955
  99   2.0000      -6.025173      -163.9533
 100   2.0000      -6.024676      -163.9398
 101   2.0000      -6.020666      -163.8307
 102   2.0000      -6.020417      -163.8239
 103   2.0000      -6.016707      -163.7229
 104   2.0000      -6.016176      -163.7085
 105   2.0000      -6.012190      -163.6000
 106   2.0000      -2.740441       -74.5712
 107   2.0000      -2.736363       -74.4602
 108   2.0000      -2.736204       -74.4559
 109   2.0000      -2.731362       -74.3241
 110   2.0000      -2.727323       -74.2142
 111   2.0000      -2.727176       -74.2102
 112   2.0000      -2.724674       -74.1421
 113   2.0000      -2.724650       -74.1415
 114   2.0000      -2.715685       -73.8976
 115   2.0000      -2.715669       -73.8971
 116   2.0000      -1.353417       -36.8284
 117   2.0000      -1.266120       -34.4529
 118   2.0000      -1.226085       -33.3635
 119   2.0000      -1.181904       -32.1612
 120   2.0000      -1.171169       -31.8691
 121   2.0000      -1.165318       -31.7099
 122   2.0000      -1.121883       -30.5280
 123   2.0000      -1.103361       -30.0240
 124   2.0000      -1.102589       -30.0030
 125   2.0000      -1.015275       -27.6270
 126   2.0000      -1.008920       -27.4541
 127   2.0000      -1.005345       -27.3568
 128   2.0000      -1.003007       -27.2932
 129   2.0000      -0.991354       -26.9761
 130   2.0000      -0.985466       -26.8159
 131   2.0000      -0.985155       -26.8074
 132   2.0000      -0.980893       -26.6915
 133   2.0000      -0.972354       -26.4591
 134   2.0000      -0.970203       -26.4006
 135   2.0000      -0.967185       -26.3184
 136   2.0000      -0.951426       -25.8896
 137   2.0000      -0.938512       -25.5382
 138   2.0000      -0.931360       -25.3436
 139   2.0000      -0.924099       -25.1460
 140   2.0000      -0.918955       -25.0060
 141   2.0000      -0.907601       -24.6971
 142   2.0000      -0.903070       -24.5738
 143   2.0000      -0.901010       -24.5177
 144   2.0000      -0.892444       -24.2846
 145   2.0000      -0.888303       -24.1720
 146   2.0000      -0.880891       -23.9703
 147   2.0000      -0.878755       -23.9121
 148   2.0000      -0.871244       -23.7078
 149   2.0000      -0.866635       -23.5823
 150   2.0000      -0.859464       -23.3872
 151   2.0000      -0.858595       -23.3636
 152   2.0000      -0.849782       -23.1238
 153   2.0000      -0.836305       -22.7570
 154   2.0000      -0.834259       -22.7013
 155   2.0000      -0.826814       -22.4988
 156   2.0000      -0.822462       -22.3803
 157   2.0000      -0.810540       -22.0559
 158   2.0000      -0.809009       -22.0143
 159   2.0000      -0.794098       -21.6085
 160   2.0000      -0.778787       -21.1919
 161   2.0000      -0.763431       -20.7740
 162   2.0000      -0.755773       -20.5656
 163   2.0000      -0.748946       -20.3799
 164   2.0000      -0.741565       -20.1790
 165   2.0000      -0.740129       -20.1399
 166   2.0000      -0.734403       -19.9841
 167   2.0000      -0.730230       -19.8706
 168   2.0000      -0.717269       -19.5179
 169   2.0000      -0.704687       -19.1755
 170   2.0000      -0.700771       -19.0690
 171   2.0000      -0.692807       -18.8522
 172   2.0000      -0.686600       -18.6833
 173   2.0000      -0.683573       -18.6010
 174   2.0000      -0.679707       -18.4958
 175   2.0000      -0.673355       -18.3229
 176   2.0000      -0.672441       -18.2981
 177   2.0000      -0.666551       -18.1378
 178   2.0000      -0.665024       -18.0962
 179   2.0000      -0.656892       -17.8749
 180   2.0000      -0.651486       -17.7278
 181   2.0000      -0.650029       -17.6882
 182   2.0000      -0.649345       -17.6696
 183   2.0000      -0.643278       -17.5045
 184   2.0000      -0.640479       -17.4283
 185   2.0000      -0.636714       -17.3259
 186   2.0000      -0.629793       -17.1375
 187   2.0000      -0.627044       -17.0627
 188   2.0000      -0.622776       -16.9466
 189   2.0000      -0.620986       -16.8979
 190   2.0000      -0.615338       -16.7442
 191   2.0000      -0.613423       -16.6921
 192   2.0000      -0.603205       -16.4140
 193   2.0000      -0.602695       -16.4002
 194   2.0000      -0.596739       -16.2381
 195   2.0000      -0.594594       -16.1797
 196   2.0000      -0.587190       -15.9783
 197   2.0000      -0.586288       -15.9537
 198   2.0000      -0.585654       -15.9365
 199   2.0000      -0.583477       -15.8772
 200   2.0000      -0.576788       -15.6952
 201   2.0000      -0.574808       -15.6413
 202   2.0000      -0.571824       -15.5601
 203   2.0000      -0.562590       -15.3089
 204   2.0000      -0.556465       -15.1422
 205   2.0000      -0.552191       -15.0259
 206   2.0000      -0.541772       -14.7424
 207   2.0000      -0.538008       -14.6399
 208   2.0000      -0.534386       -14.5414
 209   2.0000      -0.533143       -14.5076
 210   2.0000      -0.531515       -14.4633
 211   2.0000      -0.529551       -14.4098
 212   2.0000      -0.526973       -14.3397
 213   2.0000      -0.525509       -14.2998
 214   2.0000      -0.523127       -14.2350
 215   2.0000      -0.517427       -14.0799
 216   2.0000      -0.516693       -14.0599
 217   2.0000      -0.515209       -14.0196
 218   2.0000      -0.511149       -13.9091
 219   2.0000      -0.510577       -13.8935
 220   2.0000      -0.508407       -13.8344
 221   2.0000      -0.504926       -13.7397
 222   2.0000      -0.503312       -13.6958
 223   2.0000      -0.502934       -13.6855
 224   2.0000      -0.501962       -13.6591
 225   2.0000      -0.501537       -13.6475
 226   2.0000      -0.498809       -13.5733
 227   2.0000      -0.496825       -13.5193
 228   2.0000      -0.491846       -13.3838
 229   2.0000      -0.489158       -13.3107
 230   2.0000      -0.488765       -13.3000
 231   2.0000      -0.486015       -13.2251
 232   2.0000      -0.485676       -13.2159
 233   2.0000      -0.485039       -13.1986
 234   2.0000      -0.478693       -13.0259
 235   2.0000      -0.475433       -12.9372
 236   2.0000      -0.473862       -12.8944
 237   2.0000      -0.469236       -12.7686
 238   2.0000      -0.467395       -12.7185
 239   2.0000      -0.465644       -12.6708
 240   2.0000      -0.464782       -12.6474
 241   2.0000      -0.464492       -12.6395
 242   2.0000      -0.451700       -12.2914
 243   2.0000      -0.451599       -12.2886
 244   2.0000      -0.451235       -12.2787
 245   2.0000      -0.448895       -12.2151
 246   2.0000      -0.441654       -12.0180
 247   2.0000      -0.441262       -12.0073
 248   2.0000      -0.440529       -11.9874
 249   2.0000      -0.437580       -11.9072
 250   2.0000      -0.436203       -11.8697
 251   2.0000      -0.435037       -11.8379
 252   2.0000      -0.431385       -11.7386
 253   2.0000      -0.427930       -11.6446
 254   2.0000      -0.427259       -11.6263
 255   2.0000      -0.427139       -11.6230
 256   2.0000      -0.422619       -11.5000
 257   2.0000      -0.421877       -11.4798
 258   2.0000      -0.418476       -11.3873
 259   2.0000      -0.417969       -11.3735
 260   2.0000      -0.417627       -11.3642
 261   2.0000      -0.414638       -11.2829
 262   2.0000      -0.411462       -11.1965
 263   2.0000      -0.410355       -11.1663
 264   2.0000      -0.406178       -11.0527
 265   2.0000      -0.404096       -10.9960
 266   2.0000      -0.401695       -10.9307
 267   2.0000      -0.398630       -10.8473
 268   2.0000      -0.398486       -10.8434
 269   2.0000      -0.394295       -10.7293
 270   2.0000      -0.389313       -10.5937
 271   2.0000      -0.387341       -10.5401
 272   2.0000      -0.380579       -10.3561
 273   2.0000      -0.378666       -10.3040
 274   2.0000      -0.370577       -10.0839
 275   2.0000      -0.369840       -10.0639
 276   2.0000      -0.362407        -9.8616
 277   2.0000      -0.361804        -9.8452
 278   2.0000      -0.357029        -9.7152
 279   2.0000      -0.352068        -9.5803
 280   2.0000      -0.339808        -9.2466
 281   2.0000      -0.333293        -9.0694
 282   2.0000      -0.329825        -8.9750
 283   2.0000      -0.326682        -8.8895
 284   2.0000      -0.325731        -8.8636
 285   2.0000      -0.313418        -8.5285
 286   2.0000      -0.308816        -8.4033
 287   2.0000      -0.299007        -8.1364
 288   2.0000      -0.296647        -8.0722
 289   2.0000      -0.287749        -7.8300
 290   2.0000      -0.280925        -7.6444
 291   2.0000      -0.275025        -7.4838
 292   2.0000      -0.246695        -6.7129
 293   2.0000      -0.219310        -5.9677
 294   0.0000      -0.101185        -2.7534
 295   0.0000      -0.091393        -2.4869
 296   0.0000      -0.068573        -1.8660
 297   0.0000      -0.062299        -1.6952
 298   0.0000      -0.048753        -1.3266

MULLIKEN ATOMIC CHARGES
-----------------------
   0 C :    0.334940
   1 C :   -0.358188
   2 C :   -0.184778
   3 N :    0.145495
   4 C :   -0.188246
   5 N :    0.139406
   6 C :    0.013964
   7 C :   -0.010115
   8 C :   -0.080437
   9 C :    0.122877
  10 C :   -0.088999
  11 C :   -0.027420
  12 S :    0.183980
  13 C :   -0.123158
  14 C :    0.035699
  15 Br:    0.019356
  16 C :    0.141220
  17 O :   -0.151540
  18 C :   -0.070461
  19 C :   -0.036188
  20 C :   -0.033010
  21 C :    0.012528
  22 C :    0.121340
  23 O :   -0.211637
  24 C :    0.113579
  25 C :    0.088167
  26 C :    0.075530
  27 O :   -0.143141
  28 O :   -0.189809
  29 C :   -0.064522
  30 C :    0.028606
  31 C :    0.022887
  32 C :   -0.068374
  33 C :    0.089523
  34 O :   -0.159803
  35 C :    0.106794
  36 C :    0.069720
  37 N :    0.285108
  38 O :   -0.230410
  39 O :   -0.240866
  40 C :    0.040360
  41 N :   -0.001386
  42 C :    0.032723
  43 C :   -0.064106
  44 C :    0.056483
  45 C :    0.016707
  46 C :   -0.024778
  47 S :    0.060657
  48 C :   -0.067333
  49 C :    0.039349
  50 C :    0.032074
  51 C :   -0.012623
  52 S :    0.101879
  53 C :   -0.008275
  54 C :    0.024018
  55 C :   -0.133140
  56 C :    0.288686
  57 C :   -0.352439
  58 C :   -0.179518
  59 N :    0.132008
  60 C :   -0.218147
  61 N :    0.156244
  62 C :    0.006405
  63 C :   -0.006059
  64 C :    0.136743
  65 O :   -0.162400
  66 C :   -0.076704
  67 C :    0.113819
  68 C :   -0.089967
  69 C :   -0.025689
  70 S :    0.175982
  71 C :   -0.123381
  72 C :    0.035417
  73 Br:    0.010328
  74 H :   -0.014986
  75 H :   -0.007853
  76 H :   -0.005296
  77 H :    0.007456
  78 H :    0.043192
  79 H :    0.012315
  80 H :    0.199530
  81 H :    0.194747
  82 H :   -0.027910
  83 H :    0.009010
  84 H :   -0.000913
  85 H :   -0.001810
  86 H :    0.035930
  87 H :    0.142825
  88 H :    0.038527
  89 H :    0.003410
  90 H :   -0.007933
  91 H :   -0.006197
  92 H :   -0.000528
  93 H :    0.005210
  94 H :    0.008309
  95 H :   -0.015871
  96 H :   -0.007381
  97 H :   -0.007341
Sum of atomic charges:   -0.0000000

LOEWDIN ATOMIC CHARGES
----------------------
   0 C :    0.075189
   1 C :   -0.145669
   2 C :   -0.018157
   3 N :   -0.058677
   4 C :   -0.020283
   5 N :   -0.056684
   6 C :   -0.019797
   7 C :   -0.049695
   8 C :    0.018798
   9 C :   -0.033896
  10 C :   -0.144474
  11 C :   -0.011034
  12 S :    0.430379
  13 C :   -0.272928
  14 C :   -0.071341
  15 Br:    0.133450
  16 C :    0.082628
  17 O :   -0.147571
  18 C :   -0.102195
  19 C :    0.065757
  20 C :   -0.034162
  21 C :    0.018866
  22 C :   -0.002210
  23 O :    0.006041
  24 C :   -0.002844
  25 C :   -0.015991
  26 C :    0.016978
  27 O :   -0.016168
  28 O :   -0.054788
  29 C :   -0.045193
  30 C :   -0.014377
  31 C :   -0.011775
  32 C :   -0.055393
  33 C :   -0.002101
  34 O :    0.052159
  35 C :    0.091318
  36 C :   -0.100227
  37 N :    0.294063
  38 O :   -0.192073
  39 O :   -0.201719
  40 C :   -0.007014
  41 N :    0.060401
  42 C :    0.030806
  43 C :   -0.208092
  44 C :   -0.001062
  45 C :   -0.054371
  46 C :   -0.138128
  47 S :    0.355553
  48 C :   -0.205834
  49 C :   -0.006376
  50 C :   -0.043725
  51 C :   -0.098553
  52 S :    0.394837
  53 C :   -0.077308
  54 C :    0.051825
  55 C :   -0.113297
  56 C :    0.068656
  57 C :   -0.157749
  58 C :   -0.019805
  59 N :   -0.069508
  60 C :   -0.024342
  61 N :   -0.065016
  62 C :   -0.014614
  63 C :   -0.050168
  64 C :    0.077866
  65 O :   -0.162790
  66 C :    0.016545
  67 C :   -0.037996
  68 C :   -0.145624
  69 C :   -0.017292
  70 S :    0.424950
  71 C :   -0.276623
  72 C :   -0.071056
  73 Br:    0.126499
  74 H :    0.039068
  75 H :    0.040649
  76 H :    0.037917
  77 H :    0.040985
  78 H :    0.034393
  79 H :    0.045006
  80 H :    0.110266
  81 H :    0.100625
  82 H :    0.026968
  83 H :    0.035967
  84 H :    0.030057
  85 H :    0.034163
  86 H :    0.041436
  87 H :    0.088194
  88 H :    0.034270
  89 H :    0.040203
  90 H :    0.034785
  91 H :    0.034840
  92 H :    0.039144
  93 H :    0.037234
  94 H :    0.033119
  95 H :    0.038419
  96 H :    0.039569
  97 H :    0.036925

  Mayer bond orders larger than 0.100000
B(  0-C ,  1-C ) :   1.6121 B(  0-C ,  6-C ) :   0.9958 B(  0-C , 18-C ) :   1.0806
B(  1-C ,  2-C ) :   1.1441 B(  1-C ,  4-C ) :   1.1485 B(  2-C ,  3-N ) :   2.9649
B(  4-C ,  5-N ) :   2.9566 B(  6-C ,  7-C ) :   1.2783 B(  6-C , 11-C ) :   1.4099
B(  7-C ,  8-C ) :   1.4222 B(  7-C , 16-C ) :   0.9391 B(  8-C ,  9-C ) :   1.2433
B(  8-C , 74-H ) :   1.0174 B(  9-C , 10-C ) :   1.3080 B(  9-C , 14-C ) :   1.1600
B( 10-C , 11-C ) :   1.3278 B( 10-C , 12-S ) :   1.0845 B( 11-C , 75-H ) :   0.9798
B( 12-S , 13-C ) :   1.0860 B( 13-C , 14-C ) :   1.6195 B( 13-C , 15-Br) :   1.0169
B( 14-C , 76-H ) :   1.0009 B( 16-C , 17-O ) :   2.2008 B( 16-C , 18-C ) :   0.9538
B( 18-C , 19-C ) :   1.4979 B( 19-C , 20-C ) :   1.1877 B( 19-C , 77-H ) :   0.9629
B( 20-C , 21-C ) :   1.5028 B( 20-C , 78-H ) :   0.9744 B( 21-C , 22-C ) :   1.1673
B( 21-C , 79-H ) :   0.9749 B( 22-C , 23-O ) :   1.0977 B( 22-C , 24-C ) :   0.1073
B( 22-C , 26-C ) :   1.3661 B( 23-O , 24-C ) :   1.1376 B( 24-C , 25-C ) :   1.2923
B( 24-C , 29-C ) :   1.1402 B( 25-C , 26-C ) :   1.2604 B( 25-C , 28-O ) :   1.2416
B( 26-C , 27-O ) :   1.2780 B( 27-O , 80-H ) :   0.9437 B( 28-O , 81-H ) :   0.9553
B( 29-C , 30-C ) :   1.6209 B( 29-C , 82-H ) :   0.9641 B( 30-C , 31-C ) :   1.1228
B( 30-C , 83-H ) :   0.9978 B( 31-C , 32-C ) :   1.6344 B( 31-C , 84-H ) :   0.9901
B( 32-C , 33-C ) :   1.1380 B( 32-C , 85-H ) :   0.9650 B( 33-C , 34-O ) :   1.1008
B( 33-C , 40-C ) :   1.3671 B( 34-O , 35-C ) :   1.2248 B( 35-C , 36-C ) :   1.4479
B( 35-C , 86-H ) :   1.0093 B( 36-C , 37-N ) :   0.9293 B( 36-C , 40-C ) :   1.2384
B( 37-N , 38-O ) :   1.5563 B( 37-N , 39-O ) :   1.4882 B( 38-O , 39-O ) :   0.2600
B( 39-O , 88-H ) :   0.1046 B( 40-C , 41-N ) :   1.2015 B( 41-N , 42-C ) :   1.2004
B( 41-N , 87-H ) :   0.8912 B( 42-C , 43-C ) :   1.5617 B( 42-C , 88-H ) :   0.9377
B( 43-C , 44-C ) :   1.1718 B( 43-C , 47-S ) :   0.9912 B( 44-C , 45-C ) :   1.5901
B( 44-C , 89-H ) :   0.9948 B( 45-C , 46-C ) :   1.1994 B( 45-C , 90-H ) :   0.9929
B( 46-C , 47-S ) :   1.0817 B( 46-C , 48-C ) :   1.4750 B( 48-C , 49-C ) :   1.2222
B( 48-C , 52-S ) :   1.0321 B( 49-C , 50-C ) :   1.5408 B( 49-C , 91-H ) :   0.9934
B( 50-C , 51-C ) :   1.1873 B( 50-C , 92-H ) :   1.0009 B( 51-C , 52-S ) :   1.0898
B( 51-C , 53-C ) :   1.4867 B( 53-C , 54-C ) :   1.2386 B( 53-C , 93-H ) :   0.9610
B( 54-C , 55-C ) :   1.5112 B( 54-C , 94-H ) :   0.9417 B( 55-C , 56-C ) :   1.0955
B( 55-C , 64-C ) :   0.9718 B( 56-C , 57-C ) :   1.5908 B( 56-C , 62-C ) :   1.0034
B( 57-C , 58-C ) :   1.1353 B( 57-C , 60-C ) :   1.1665 B( 58-C , 59-N ) :   2.9733
B( 60-C , 61-N ) :   3.0124 B( 62-C , 63-C ) :   1.2775 B( 62-C , 69-C ) :   1.4261
B( 63-C , 64-C ) :   0.9177 B( 63-C , 66-C ) :   1.4350 B( 64-C , 65-O ) :   2.2415
B( 66-C , 67-C ) :   1.2436 B( 66-C , 95-H ) :   1.0159 B( 67-C , 68-C ) :   1.3201
B( 67-C , 72-C ) :   1.1607 B( 68-C , 69-C ) :   1.3150 B( 68-C , 70-S ) :   1.0812
B( 69-C , 96-H ) :   0.9817 B( 70-S , 71-C ) :   1.0843 B( 71-C , 72-C ) :   1.6226
B( 71-C , 73-Br) :   1.0105 B( 72-C , 97-H ) :   0.9999

-----------------------------------------------------------------------------
         ABSORPTION SPECTRUM VIA TRANSITION ELECTRIC DIPOLE MOMENTS
-----------------------------------------------------------------------------
State   Energy  Wavelength   fosc         T2         TX        TY        TZ
        (cm-1)    (nm)                  (au**2)     (au)      (au)      (au)
-----------------------------------------------------------------------------
   0   12266.6    815.2   0.886578023  23.79399   0.43980   3.94969   2.82851
   1   16316.0    612.9   1.379079894  27.82609   3.71506  -3.73570   0.26260
   2   18584.2    538.1   1.332496893  23.60465   3.86261  -2.94669   0.04424
   3   18797.3    532.0   0.017112045   0.29970   0.41691  -0.14104  -0.32556
   4   22051.1    453.5   0.152433980   2.27576  -0.04338   0.16545   1.49883
   5   22635.3    441.8   0.039199245   0.57012  -0.12380  -0.51080   0.54211
   6   23919.4    418.1   0.224966688   3.09630  -0.72545   0.74333  -1.42038
   7   25415.4    393.5   0.057735958   0.74787  -0.21568  -0.79813  -0.25364
   8   25510.4    392.0   0.002129410   0.02748   0.07183   0.13052  -0.07269
   9   25894.7    386.2   0.015495734   0.19701  -0.26466   0.35023   0.06556
  10   26431.5    378.3   0.398831163   4.96755   0.53468  -1.26724   1.75379
  11   27298.4    366.3   0.260906383   3.14646  -1.15537   0.16977  -1.33520
  12   27706.3    360.9   0.126260316   1.50025  -1.02923   0.59057   0.30358
  13   28012.3    357.0   0.002436203   0.02863  -0.08433   0.06616  -0.13093
  14   28131.6    355.5   0.251522981   2.94347   0.42370  -0.59294   1.55318
  15   28426.0    351.8   0.033070831   0.38301   0.17267  -0.08233   0.58857
  16   29400.6    340.1   0.013674869   0.15312   0.12314   0.17294   0.32871
  17   29623.4    337.6   0.003136506   0.03486  -0.08559  -0.16237  -0.03417
  18   29889.4    334.6   0.007991777   0.08802   0.00091   0.00754  -0.29659
  19   30334.9    329.7   0.016935096   0.18379  -0.03141  -0.18469   0.38561
  20   30855.6    324.1   0.009188102   0.09803   0.11892   0.25068  -0.14508
  21   31522.4    317.2   0.002144387   0.02240   0.02575  -0.14643  -0.01701
  22   31745.9    315.0   0.045568397   0.47255  -0.04235   0.52748  -0.43878
  23   32176.9    310.8   0.000036981   0.00038   0.01232  -0.00172   0.01496
  24   32450.6    308.2   0.072928746   0.73986  -0.28174  -0.42434   0.69312
  25   32581.5    306.9   0.083542543   0.84414  -0.06352  -0.79276   0.46003
  26   33124.2    301.9   0.286105150   2.84351  -0.20296  -1.44350   0.84772
  27   33205.4    301.2   0.331753760   3.28914  -0.79265   0.72194  -1.46275
  28   33390.3    299.5   0.359496454   3.54446   1.10830  -0.42956   1.46001
  29   33443.7    299.0   0.064522543   0.63514   0.49746  -0.45334   0.42680
  30   33933.9    294.7   0.020322217   0.19716  -0.17035  -0.12528   0.39044
  31   34555.7    289.4   0.028537219   0.27187   0.21377   0.47136   0.06317
  32   35052.0    285.3   0.068795788   0.64614  -0.47031   0.35727  -0.54526
  33   35126.2    284.7   0.015581145   0.14603  -0.01852  -0.35165   0.14843
  34   35428.3    282.3   0.064457324   0.59896   0.24919   0.54686  -0.48766
  35   35941.9    278.2   0.046729083   0.42802   0.19747  -0.25305   0.57008
  36   36289.2    275.6   0.012877990   0.11683  -0.11205  -0.17346   0.27237
  37   36814.7    271.6   0.026813169   0.23977   0.18841   0.42288  -0.15951
  38   37090.1    269.6   0.089363354   0.79319   0.19250  -0.20494  -0.84506
  39   37225.3    268.6   0.025480781   0.22535  -0.20843   0.40261  -0.14076
  40   37491.0    266.7   0.062005721   0.54448  -0.04015  -0.14403  -0.72258
  41   37782.1    264.7   0.059666952   0.51990   0.07285  -0.16299   0.69859
  42   37929.9    263.6   0.019817160   0.17200  -0.12943  -0.27905   0.27818
  43   38087.3    262.6   0.016759145   0.14486  -0.12417   0.13704   0.33266
  44   38357.7    260.7   0.027656731   0.23737  -0.26476   0.33218   0.23860
  45   38552.3    259.4   0.116154001   0.99188   0.69153  -0.70151  -0.14683
  46   38847.6    257.4   0.046680898   0.39560  -0.18352   0.16241  -0.57926
  47   38945.5    256.8   0.227925798   1.92669   0.19139  -0.16400   1.36498
  48   39277.0    254.6   0.035612884   0.29850   0.17368   0.14443   0.49747
  49   39757.4    251.5   0.075966253   0.62904  -0.07084   0.14542  -0.77645
  50   39876.1    250.8   0.022701728   0.18742  -0.07317  -0.20550   0.37395
  51   40089.9    249.4   0.080240848   0.65892  -0.33891   0.04282   0.73636
  52   40207.4    248.7   0.054714695   0.44800  -0.22884  -0.24297   0.58017

FINAL SINGLE POINT ENERGY     -9738.711006216219

DIPOLE MOMENT
-------------
                                X             Y             Z
Electronic contribution:    127.82906    -173.66422      36.69054
Nuclear contribution   :   -131.23901     178.40880     -31.03808
                        -----------------------------------------
Total Dipole Moment    :     -3.40994       4.74458       5.65246
                        -----------------------------------------
Magnitude (a.u.)       :      8.12952
Magnitude (Debye)      :     20.66359

Rotational constants in cm-1:     0.000391     0.000265     0.000173
Rotational constants in MHz :    11.707388     7.946101     5.178798

                             ****ORCA TERMINATED NORMALLY****
TOTAL RUN TIME: 0 days 0 hours 11 minutes 17 seconds 689 msec
