                         Program Version 4.2.0 -  RELEASE  -
|  1> # ORCA input file
|  2> # SCF done       -197.639216760581          0.000848497717
|  3> ! CAM-B3LYP def2-SVP def2/J RIJCOSX Grid4 TightSCF
|  4> %maxcore 5000
|  5> %tddft
|  6>     Mode sTDDFT
|  7>     Ethresh 5.0
|  8>     maxcore 5000
|  9> end
| 10>
| 11> %pal
| 12>   nprocs 6
| 13>   end
| 14> * xyz 0 1
| 15>    C       -2.62358         6.19939        -1.22085
| 16>    C       -2.55586         7.21707        -0.30036
| 17>    C       -1.40259         7.99440        -0.07039
| 18>    N       -0.50208         8.66947         0.15778
| 19>    C       -3.58615         7.61380         0.57678
| 20>    N       -4.35539         7.98528         1.34586
| 21>    C       -1.49909         5.72847        -2.02342
| 22>    C       -1.91598         4.58215        -2.73980
| 23>    C       -1.08679         3.89007        -3.58763
| 24>    C        0.22312         4.35758        -3.73926
| 25>    C        0.63160         5.50621        -3.02234
| 26>    C       -0.20903         6.20276        -2.16124
| 27>    S        2.28576         5.91642        -3.36210
| 28>    C        2.40364         4.55661        -4.44731
| 29>    C        1.26509         3.83158        -4.55146
| 30>   Br        4.01895         4.22452        -5.34147
| 31>    C       -3.33044         4.30309        -2.43378
| 32>    O       -3.98129         3.39517        -2.93116
| 33>    C       -3.76500         5.35305        -1.51078
| 34>    C       -5.04047         5.65158        -1.06976
| 35>    C       -6.25448         4.96847        -1.07950
| 36>    S       -7.65064         5.90508        -0.52184
| 37>    C       -8.76889         4.59037        -0.62840
| 38>    C       -8.09617         3.44757        -1.07959
| 39>    C       -6.70463         3.66936        -1.34205
| 40>    N       -6.15693         2.51212        -1.75748
| 41>    C       -7.15551         1.57473        -1.82706
| 42>    N       -6.88052         0.26489        -2.25737
| 43>    O       -5.72837         0.00470        -2.55554
| 44>    O       -7.81102        -0.52017        -2.29767
| 45>    C       -8.36113         2.10047        -1.40976
| 46>    C      -10.15113         4.76282        -0.30533
| 47>    C      -10.96648         3.65441        -0.00795
| 48>    C      -12.29730         3.85068         0.24991
| 49>    C      -12.85865         5.14282         0.20749
| 50>    C      -12.05352         6.24784        -0.05097
| 51>    C      -10.71381         6.05122        -0.29374
| 52>    C      -14.27142         5.03981         0.46274
| 53>    C      -14.59115         3.68690         0.69346
| 54>    C      -13.35431         2.82470         0.58519
| 55>    C      -13.49716         1.77863        -0.53641
| 56>    C      -13.78669         2.40279        -1.89611
| 57>    C      -13.04344         2.11402         1.91583
| 58>    C      -12.89482         3.08163         3.08366
| 59>    C      -15.88095         3.30378         0.95227
| 60>    C      -16.90598         4.26913         0.95706
| 61>    C      -16.56930         5.61246         0.70441
| 62>    C      -15.27118         6.00660         0.47445
| 63>    C      -18.28060         3.93170         1.17251
| 64>    C      -18.76074         2.75897         1.67122
| 65>    C      -20.13067         2.47947         1.79610
| 66>    C      -20.64912         1.34152         2.36554
| 67>    C      -22.01389         0.97798         2.44558
| 68>    C      -22.24268        -0.21147         3.07103
| 69>    C      -21.07422        -0.84533         3.54192
| 70>    S      -19.66288         0.10659         3.13296
| 71>    C      -20.98333        -2.02645         4.25717
| 72>    C      -22.03032        -2.90976         4.59893
| 73>    C      -21.62655        -3.98251         5.33417
| 74>    C      -20.24179        -4.00549         5.63425
| 75>    S      -19.46694        -2.60788         4.90264
| 76>    C      -19.61296        -4.95683         6.39651
| 77>    C      -18.26361        -5.01387         6.79994
| 78>    C      -17.75617        -6.06812         7.64135
| 79>    C      -16.42293        -5.83676         7.89952
| 80>    C      -15.47875        -6.55174         8.67199
| 81>    C      -14.21209        -6.04511         8.75330
| 82>    C      -13.04340        -6.50018         9.44307
| 83>    C      -12.01159        -5.61290         9.20696
| 84>    C      -12.50679        -4.57235         8.35505
| 85>    C      -13.84016        -4.81724         8.06936
| 86>    C      -14.77378        -4.10762         7.29481
| 87>    C      -16.05188        -4.61125         7.21156
| 88>    C      -17.20825        -4.13671         6.54197
| 89>    C      -10.67538        -5.73097         9.73863
| 90>    C       -9.67847        -4.87687         9.52329
| 91>    H       -1.43675         3.01790        -4.11722
| 92>    H        0.15119         7.07447        -1.64152
| 93>    H        1.16122         2.96224        -5.17478
| 94>    H       -5.13661         6.63289        -0.61815
| 95>    H       -5.23114         2.44301        -2.18872
| 96>    H       -9.28588         1.56285        -1.37793
| 97>    H      -10.53193         2.67001         0.04349
| 98>    H      -12.47212         7.24245        -0.06694
| 99>    H      -10.07448         6.89534        -0.50853
|100>    H      -14.30581         1.09398        -0.27345
|101>    H      -12.57488         1.19693        -0.59315
|102>    H      -14.71448         2.97004        -1.86870
|103>    H      -13.88068         1.62556        -2.65071
|104>    H      -12.98316         3.07378        -2.19212
|105>    H      -12.12124         1.54088         1.79925
|106>    H      -13.84962         1.40943         2.12979
|107>    H      -12.08241         3.78223         2.90335
|108>    H      -12.67908         2.53309         3.99746
|109>    H      -13.81085         3.64925         3.23160
|110>    H      -16.12086         2.26523         1.12027
|111>    H      -17.35922         6.35003         0.70334
|112>    H      -15.03517         7.04455         0.29317
|113>    H      -18.99891         4.70376         0.92342
|114>    H      -18.07848         1.98850         2.00542
|115>    H      -20.83789         3.20028         1.40627
|116>    H      -22.78380         1.60554         2.03244
|117>    H      -23.21866        -0.63821         3.21778
|118>    H      -23.04541        -2.73569         4.29057
|119>    H      -22.28410        -4.75926         5.68373
|120>    H      -20.24710        -5.75903         6.75559
|121>    H      -18.34463        -6.89283         8.00304
|122>    H      -15.76506        -7.46283         9.17871
|123>    H      -12.99085        -7.38872        10.04546
|124>    H      -11.93293        -3.73706         7.99800
|125>    H      -14.49099        -3.19564         6.78866
|126>    H      -17.24526        -3.24479         5.94698
|127>    H      -10.50901        -6.60096        10.36193
|128>    H       -9.79511        -3.99901         8.91145
|129>    H       -8.70424        -5.02897         9.95433
|130> *
|131>
|132>                          ****END OF INPUT****

CARTESIAN COORDINATES (ANGSTROEM)
---------------------------------
  C     -2.623580    6.199390   -1.220850
  C     -2.555860    7.217070   -0.300360
  C     -1.402590    7.994400   -0.070390
  N     -0.502080    8.669470    0.157780
  C     -3.586150    7.613800    0.576780
  N     -4.355390    7.985280    1.345860
  C     -1.499090    5.728470   -2.023420
  C     -1.915980    4.582150   -2.739800
  C     -1.086790    3.890070   -3.587630
  C      0.223120    4.357580   -3.739260
  C      0.631600    5.506210   -3.022340
  C     -0.209030    6.202760   -2.161240
  S      2.285760    5.916420   -3.362100
  C      2.403640    4.556610   -4.447310
  C      1.265090    3.831580   -4.551460
  Br     4.018950    4.224520   -5.341470
  C     -3.330440    4.303090   -2.433780
  O     -3.981290    3.395170   -2.931160
  C     -3.765000    5.353050   -1.510780
  C     -5.040470    5.651580   -1.069760
  C     -6.254480    4.968470   -1.079500
  S     -7.650640    5.905080   -0.521840
  C     -8.768890    4.590370   -0.628400
  C     -8.096170    3.447570   -1.079590
  C     -6.704630    3.669360   -1.342050
  N     -6.156930    2.512120   -1.757480
  C     -7.155510    1.574730   -1.827060
  N     -6.880520    0.264890   -2.257370
  O     -5.728370    0.004700   -2.555540
  O     -7.811020   -0.520170   -2.297670
  C     -8.361130    2.100470   -1.409760
  C    -10.151130    4.762820   -0.305330
  C    -10.966480    3.654410   -0.007950
  C    -12.297300    3.850680    0.249910
  C    -12.858650    5.142820    0.207490
  C    -12.053520    6.247840   -0.050970
  C    -10.713810    6.051220   -0.293740
  C    -14.271420    5.039810    0.462740
  C    -14.591150    3.686900    0.693460
  C    -13.354310    2.824700    0.585190
  C    -13.497160    1.778630   -0.536410
  C    -13.786690    2.402790   -1.896110
  C    -13.043440    2.114020    1.915830
  C    -12.894820    3.081630    3.083660
  C    -15.880950    3.303780    0.952270
  C    -16.905980    4.269130    0.957060
  C    -16.569300    5.612460    0.704410
  C    -15.271180    6.006600    0.474450
  C    -18.280600    3.931700    1.172510
  C    -18.760740    2.758970    1.671220
  C    -20.130670    2.479470    1.796100
  C    -20.649120    1.341520    2.365540
  C    -22.013890    0.977980    2.445580
  C    -22.242680   -0.211470    3.071030
  C    -21.074220   -0.845330    3.541920
  S    -19.662880    0.106590    3.132960
  C    -20.983330   -2.026450    4.257170
  C    -22.030320   -2.909760    4.598930
  C    -21.626550   -3.982510    5.334170
  C    -20.241790   -4.005490    5.634250
  S    -19.466940   -2.607880    4.902640
  C    -19.612960   -4.956830    6.396510
  C    -18.263610   -5.013870    6.799940
  C    -17.756170   -6.068120    7.641350
  C    -16.422930   -5.836760    7.899520
  C    -15.478750   -6.551740    8.671990
  C    -14.212090   -6.045110    8.753300
  C    -13.043400   -6.500180    9.443070
  C    -12.011590   -5.612900    9.206960
  C    -12.506790   -4.572350    8.355050
  C    -13.840160   -4.817240    8.069360
  C    -14.773780   -4.107620    7.294810
  C    -16.051880   -4.611250    7.211560
  C    -17.208250   -4.136710    6.541970
  C    -10.675380   -5.730970    9.738630
  C     -9.678470   -4.876870    9.523290
  H     -1.436750    3.017900   -4.117220
  H      0.151190    7.074470   -1.641520
  H      1.161220    2.962240   -5.174780
  H     -5.136610    6.632890   -0.618150
  H     -5.231140    2.443010   -2.188720
  H     -9.285880    1.562850   -1.377930
  H    -10.531930    2.670010    0.043490
  H    -12.472120    7.242450   -0.066940
  H    -10.074480    6.895340   -0.508530
  H    -14.305810    1.093980   -0.273450
  H    -12.574880    1.196930   -0.593150
  H    -14.714480    2.970040   -1.868700
  H    -13.880680    1.625560   -2.650710
  H    -12.983160    3.073780   -2.192120
  H    -12.121240    1.540880    1.799250
  H    -13.849620    1.409430    2.129790
  H    -12.082410    3.782230    2.903350
  H    -12.679080    2.533090    3.997460
  H    -13.810850    3.649250    3.231600
  H    -16.120860    2.265230    1.120270
  H    -17.359220    6.350030    0.703340
  H    -15.035170    7.044550    0.293170
  H    -18.998910    4.703760    0.923420
  H    -18.078480    1.988500    2.005420
  H    -20.837890    3.200280    1.406270
  H    -22.783800    1.605540    2.032440
  H    -23.218660   -0.638210    3.217780
  H    -23.045410   -2.735690    4.290570
  H    -22.284100   -4.759260    5.683730
  H    -20.247100   -5.759030    6.755590
  H    -18.344630   -6.892830    8.003040
  H    -15.765060   -7.462830    9.178710
  H    -12.990850   -7.388720   10.045460
  H    -11.932930   -3.737060    7.998000
  H    -14.490990   -3.195640    6.788660
  H    -17.245260   -3.244790    5.946980
  H    -10.509010   -6.600960   10.361930
  H     -9.795110   -3.999010    8.911450
  H     -8.704240   -5.028970    9.954330

 Total Charge           Charge          ....    0
 Multiplicity           Mult            ....    1
 Number of Electrons    NEL             ....  574
 Basis Dimension        Dim             .... 1293

ORBITAL ENERGIES
----------------

  NO   OCC          E(Eh)            E(eV)
   0   2.0000    -482.881509    -13139.8739
   1   2.0000     -88.980193     -2421.2742
   2   2.0000     -88.971171     -2421.0287
   3   2.0000     -88.943506     -2420.2758
   4   2.0000     -88.941564     -2420.2230
   5   2.0000     -62.559232     -1702.3233
   6   2.0000     -56.393179     -1534.5364
   7   2.0000     -56.390471     -1534.4627
   8   2.0000     -56.390432     -1534.4617
   9   2.0000     -19.243613      -523.6453
  10   2.0000     -19.241478      -523.5872
  11   2.0000     -19.218121      -522.9517
  12   2.0000     -14.652981      -398.7279
  13   2.0000     -14.472239      -393.8096
  14   2.0000     -14.408720      -392.0812
  15   2.0000     -14.406331      -392.0162
  16   2.0000     -10.369608      -282.1714
  17   2.0000     -10.360671      -281.9282
  18   2.0000     -10.354214      -281.7525
  19   2.0000     -10.345046      -281.5030
  20   2.0000     -10.341432      -281.4047
  21   2.0000     -10.334149      -281.2065
  22   2.0000     -10.331908      -281.1455
  23   2.0000     -10.323567      -280.9185
  24   2.0000     -10.321989      -280.8756
  25   2.0000     -10.320516      -280.8355
  26   2.0000     -10.312452      -280.6161
  27   2.0000     -10.310217      -280.5553
  28   2.0000     -10.308414      -280.5062
  29   2.0000     -10.306342      -280.4498
  30   2.0000     -10.304882      -280.4101
  31   2.0000     -10.302969      -280.3580
  32   2.0000     -10.302478      -280.3447
  33   2.0000     -10.302296      -280.3397
  34   2.0000     -10.301944      -280.3302
  35   2.0000     -10.300915      -280.3021
  36   2.0000     -10.300387      -280.2878
  37   2.0000     -10.299849      -280.2731
  38   2.0000     -10.296620      -280.1853
  39   2.0000     -10.296471      -280.1812
  40   2.0000     -10.295850      -280.1643
  41   2.0000     -10.292368      -280.0696
  42   2.0000     -10.290870      -280.0288
  43   2.0000     -10.289855      -280.0012
  44   2.0000     -10.289759      -279.9986
  45   2.0000     -10.287951      -279.9494
  46   2.0000     -10.287001      -279.9235
  47   2.0000     -10.286063      -279.8980
  48   2.0000     -10.285700      -279.8881
  49   2.0000     -10.285291      -279.8770
  50   2.0000     -10.283150      -279.8187
  51   2.0000     -10.282354      -279.7971
  52   2.0000     -10.282247      -279.7942
  53   2.0000     -10.281821      -279.7826
  54   2.0000     -10.281777      -279.7814
  55   2.0000     -10.281469      -279.7730
  56   2.0000     -10.281083      -279.7625
  57   2.0000     -10.278218      -279.6845
  58   2.0000     -10.277804      -279.6733
  59   2.0000     -10.275786      -279.6184
  60   2.0000     -10.275758      -279.6176
  61   2.0000     -10.275113      -279.6000
  62   2.0000     -10.274186      -279.5748
  63   2.0000     -10.273055      -279.5440
  64   2.0000     -10.272502      -279.5290
  65   2.0000     -10.272409      -279.5265
  66   2.0000     -10.270538      -279.4755
  67   2.0000     -10.268986      -279.4333
  68   2.0000     -10.268986      -279.4333
  69   2.0000     -10.268763      -279.4273
  70   2.0000     -10.267829      -279.4018
  71   2.0000     -10.267321      -279.3880
  72   2.0000     -10.266498      -279.3656
  73   2.0000     -10.264030      -279.2985
  74   2.0000     -10.263626      -279.2875
  75   2.0000     -10.263329      -279.2794
  76   2.0000     -10.262935      -279.2686
  77   2.0000     -10.256273      -279.0874
  78   2.0000     -10.251082      -278.9461
  79   2.0000     -10.250872      -278.9404
  80   2.0000      -8.788667      -239.1518
  81   2.0000      -8.075058      -219.7335
  82   2.0000      -8.067099      -219.5169
  83   2.0000      -8.039266      -218.7596
  84   2.0000      -8.037907      -218.7226
  85   2.0000      -6.624966      -180.2745
  86   2.0000      -6.610380      -179.8776
  87   2.0000      -6.610230      -179.8735
  88   2.0000      -6.044362      -164.4754
  89   2.0000      -6.040123      -164.3601
  90   2.0000      -6.037287      -164.2829
  91   2.0000      -6.036790      -164.2694
  92   2.0000      -6.032514      -164.1531
  93   2.0000      -6.028349      -164.0397
  94   2.0000      -6.008979      -163.5126
  95   2.0000      -6.007623      -163.4757
  96   2.0000      -6.004948      -163.4029
  97   2.0000      -6.003696      -163.3689
  98   2.0000      -6.000318      -163.2769
  99   2.0000      -5.998760      -163.2346
 100   2.0000      -2.740824       -74.5816
 101   2.0000      -2.736769       -74.4713
 102   2.0000      -2.736591       -74.4664
 103   2.0000      -2.725034       -74.1520
 104   2.0000      -2.725020       -74.1516
 105   2.0000      -1.322747       -35.9938
 106   2.0000      -1.141663       -31.0662
 107   2.0000      -1.132610       -30.8199
 108   2.0000      -1.106089       -30.0982
 109   2.0000      -1.017712       -27.6934
 110   2.0000      -1.007540       -27.4166
 111   2.0000      -1.004233       -27.3266
 112   2.0000      -0.994030       -27.0489
 113   2.0000      -0.992080       -26.9959
 114   2.0000      -0.986713       -26.8498
 115   2.0000      -0.984253       -26.7829
 116   2.0000      -0.983781       -26.7700
 117   2.0000      -0.970252       -26.4019
 118   2.0000      -0.957490       -26.0546
 119   2.0000      -0.955252       -25.9937
 120   2.0000      -0.938739       -25.5444
 121   2.0000      -0.929529       -25.2938
 122   2.0000      -0.916896       -24.9500
 123   2.0000      -0.904750       -24.6195
 124   2.0000      -0.903191       -24.5771
 125   2.0000      -0.901745       -24.5377
 126   2.0000      -0.897146       -24.4126
 127   2.0000      -0.886882       -24.1333
 128   2.0000      -0.882531       -24.0149
 129   2.0000      -0.880337       -23.9552
 130   2.0000      -0.872298       -23.7364
 131   2.0000      -0.861150       -23.4331
 132   2.0000      -0.861039       -23.4301
 133   2.0000      -0.851761       -23.1776
 134   2.0000      -0.847805       -23.0699
 135   2.0000      -0.842424       -22.9235
 136   2.0000      -0.842238       -22.9185
 137   2.0000      -0.837906       -22.8006
 138   2.0000      -0.836396       -22.7595
 139   2.0000      -0.825021       -22.4500
 140   2.0000      -0.821926       -22.3657
 141   2.0000      -0.817761       -22.2524
 142   2.0000      -0.802904       -21.8481
 143   2.0000      -0.795283       -21.6407
 144   2.0000      -0.791419       -21.5356
 145   2.0000      -0.784618       -21.3505
 146   2.0000      -0.769239       -20.9321
 147   2.0000      -0.766350       -20.8535
 148   2.0000      -0.756383       -20.5822
 149   2.0000      -0.755819       -20.5669
 150   2.0000      -0.746794       -20.3213
 151   2.0000      -0.739282       -20.1169
 152   2.0000      -0.726473       -19.7683
 153   2.0000      -0.719906       -19.5896
 154   2.0000      -0.708044       -19.2669
 155   2.0000      -0.697970       -18.9927
 156   2.0000      -0.697029       -18.9671
 157   2.0000      -0.687484       -18.7074
 158   2.0000      -0.685398       -18.6506
 159   2.0000      -0.681081       -18.5332
 160   2.0000      -0.679383       -18.4869
 161   2.0000      -0.675851       -18.3909
 162   2.0000      -0.673378       -18.3235
 163   2.0000      -0.666225       -18.1289
 164   2.0000      -0.665698       -18.1146
 165   2.0000      -0.655503       -17.8372
 166   2.0000      -0.653264       -17.7762
 167   2.0000      -0.650275       -17.6949
 168   2.0000      -0.642755       -17.4903
 169   2.0000      -0.637703       -17.3528
 170   2.0000      -0.635533       -17.2937
 171   2.0000      -0.633700       -17.2439
 172   2.0000      -0.624847       -17.0030
 173   2.0000      -0.621812       -16.9204
 174   2.0000      -0.619237       -16.8503
 175   2.0000      -0.617975       -16.8159
 176   2.0000      -0.610909       -16.6237
 177   2.0000      -0.608419       -16.5559
 178   2.0000      -0.604845       -16.4587
 179   2.0000      -0.602476       -16.3942
 180   2.0000      -0.597644       -16.2627
 181   2.0000      -0.594649       -16.1812
 182   2.0000      -0.588785       -16.0216
 183   2.0000      -0.581522       -15.8240
 184   2.0000      -0.578052       -15.7296
 185   2.0000      -0.575558       -15.6617
 186   2.0000      -0.571937       -15.5632
 187   2.0000      -0.569831       -15.5059
 188   2.0000      -0.558076       -15.1860
 189   2.0000      -0.550580       -14.9820
 190   2.0000      -0.550027       -14.9670
 191   2.0000      -0.549057       -14.9406
 192   2.0000      -0.546246       -14.8641
 193   2.0000      -0.545532       -14.8447
 194   2.0000      -0.543115       -14.7789
 195   2.0000      -0.542403       -14.7595
 196   2.0000      -0.536871       -14.6090
 197   2.0000      -0.535031       -14.5589
 198   2.0000      -0.532310       -14.4849
 199   2.0000      -0.531965       -14.4755
 200   2.0000      -0.526705       -14.3324
 201   2.0000      -0.524967       -14.2851
 202   2.0000      -0.522508       -14.2182
 203   2.0000      -0.521211       -14.1829
 204   2.0000      -0.519763       -14.1435
 205   2.0000      -0.512194       -13.9375
 206   2.0000      -0.510569       -13.8933
 207   2.0000      -0.508065       -13.8252
 208   2.0000      -0.503806       -13.7093
 209   2.0000      -0.502118       -13.6633
 210   2.0000      -0.498898       -13.5757
 211   2.0000      -0.495669       -13.4878
 212   2.0000      -0.494365       -13.4523
 213   2.0000      -0.492539       -13.4027
 214   2.0000      -0.491209       -13.3665
 215   2.0000      -0.490394       -13.3443
 216   2.0000      -0.489715       -13.3258
 217   2.0000      -0.488392       -13.2898
 218   2.0000      -0.486834       -13.2474
 219   2.0000      -0.481531       -13.1031
 220   2.0000      -0.478917       -13.0320
 221   2.0000      -0.475671       -12.9437
 222   2.0000      -0.474674       -12.9165
 223   2.0000      -0.471362       -12.8264
 224   2.0000      -0.469206       -12.7677
 225   2.0000      -0.468363       -12.7448
 226   2.0000      -0.466586       -12.6965
 227   2.0000      -0.463370       -12.6089
 228   2.0000      -0.461677       -12.5629
 229   2.0000      -0.456832       -12.4310
 230   2.0000      -0.454932       -12.3793
 231   2.0000      -0.454308       -12.3624
 232   2.0000      -0.452682       -12.3181
 233   2.0000      -0.450804       -12.2670
 234   2.0000      -0.448322       -12.1995
 235   2.0000      -0.447387       -12.1740
 236   2.0000      -0.443800       -12.0764
 237   2.0000      -0.442322       -12.0362
 238   2.0000      -0.441400       -12.0111
 239   2.0000      -0.437278       -11.8989
 240   2.0000      -0.435204       -11.8425
 241   2.0000      -0.434913       -11.8346
 242   2.0000      -0.433275       -11.7900
 243   2.0000      -0.432318       -11.7640
 244   2.0000      -0.429887       -11.6978
 245   2.0000      -0.426462       -11.6046
 246   2.0000      -0.425762       -11.5856
 247   2.0000      -0.423122       -11.5137
 248   2.0000      -0.419383       -11.4120
 249   2.0000      -0.419325       -11.4104
 250   2.0000      -0.416306       -11.3283
 251   2.0000      -0.416163       -11.3244
 252   2.0000      -0.412757       -11.2317
 253   2.0000      -0.409321       -11.1382
 254   2.0000      -0.403218       -10.9721
 255   2.0000      -0.401628       -10.9289
 256   2.0000      -0.400290       -10.8924
 257   2.0000      -0.397603       -10.8193
 258   2.0000      -0.395550       -10.7635
 259   2.0000      -0.392620       -10.6837
 260   2.0000      -0.389969       -10.6116
 261   2.0000      -0.389637       -10.6026
 262   2.0000      -0.388238       -10.5645
 263   2.0000      -0.382838       -10.4176
 264   2.0000      -0.380650       -10.3580
 265   2.0000      -0.373129       -10.1534
 266   2.0000      -0.371527       -10.1098
 267   2.0000      -0.371044       -10.0966
 268   2.0000      -0.364391        -9.9156
 269   2.0000      -0.364090        -9.9074
 270   2.0000      -0.355083        -9.6623
 271   2.0000      -0.346382        -9.4255
 272   2.0000      -0.336507        -9.1568
 273   2.0000      -0.335875        -9.1396
 274   2.0000      -0.334292        -9.0965
 275   2.0000      -0.325875        -8.8675
 276   2.0000      -0.322102        -8.7648
 277   2.0000      -0.320837        -8.7304
 278   2.0000      -0.319726        -8.7002
 279   2.0000      -0.311976        -8.4893
 280   2.0000      -0.303263        -8.2522
 281   2.0000      -0.289186        -7.8691
 282   2.0000      -0.279267        -7.5992
 283   2.0000      -0.266893        -7.2625
 284   2.0000      -0.256233        -6.9724
 285   2.0000      -0.243427        -6.6240
 286   2.0000      -0.200534        -5.4568
 287   0.0000      -0.099225        -2.7000
 288   0.0000      -0.094293        -2.5658
 289   0.0000      -0.071353        -1.9416
 290   0.0000      -0.065761        -1.7894
 291   0.0000      -0.053106        -1.4451

MULLIKEN ATOMIC CHARGES
-----------------------
   0 C :    0.313344
   1 C :   -0.363687
   2 C :   -0.183820
   3 N :    0.140028
   4 C :   -0.201468
   5 N :    0.151579
   6 C :    0.014945
   7 C :   -0.021595
   8 C :   -0.072367
   9 C :    0.118234
  10 C :   -0.091845
  11 C :   -0.020553
  12 S :    0.184993
  13 C :   -0.123087
  14 C :    0.037076
  15 Br:    0.020594
  16 C :    0.170354
  17 O :   -0.222545
  18 C :   -0.111798
  19 C :    0.040167
  20 C :   -0.204339
  21 S :    0.169064
  22 C :   -0.089586
  23 C :    0.084865
  24 C :    0.128684
  25 N :    0.006377
  26 C :    0.137068
  27 N :    0.280022
  28 O :   -0.246069
  29 O :   -0.246089
  30 C :   -0.102111
  31 C :    0.115054
  32 C :   -0.100375
  33 C :    0.015864
  34 C :    0.114077
  35 C :   -0.043257
  36 C :   -0.022223
  37 C :    0.094540
  38 C :    0.018603
  39 C :   -0.140939
  40 C :    0.061627
  41 C :    0.026170
  42 C :    0.067045
  43 C :    0.024345
  44 C :   -0.091293
  45 C :    0.131299
  46 C :   -0.018729
  47 C :   -0.038406
  48 C :   -0.028660
  49 C :    0.022859
  50 C :   -0.021255
  51 C :   -0.016121
  52 C :    0.035253
  53 C :    0.023835
  54 C :   -0.046674
  55 S :    0.065783
  56 C :   -0.033651
  57 C :    0.020497
  58 C :    0.036534
  59 C :   -0.022780
  60 S :    0.058830
  61 C :   -0.014783
  62 C :    0.061897
  63 C :   -0.039342
  64 C :    0.062823
  65 C :   -0.005281
  66 C :    0.062996
  67 C :   -0.031496
  68 C :    0.064468
  69 C :   -0.024640
  70 C :    0.051834
  71 C :   -0.002027
  72 C :    0.054224
  73 C :   -0.045527
  74 C :    0.009972
  75 C :   -0.024285
  76 H :   -0.010086
  77 H :   -0.006891
  78 H :   -0.002962
  79 H :    0.007578
  80 H :    0.161696
  81 H :   -0.002290
  82 H :   -0.039180
  83 H :   -0.027109
  84 H :   -0.008354
  85 H :    0.003966
  86 H :   -0.001537
  87 H :    0.023614
  88 H :    0.014941
  89 H :    0.017218
  90 H :   -0.000593
  91 H :    0.001751
  92 H :    0.021022
  93 H :    0.011312
  94 H :    0.023850
  95 H :   -0.039984
  96 H :   -0.026064
  97 H :   -0.033506
  98 H :   -0.023421
  99 H :   -0.000014
 100 H :   -0.019652
 101 H :   -0.015654
 102 H :   -0.014495
 103 H :   -0.017378
 104 H :   -0.014445
 105 H :   -0.025982
 106 H :   -0.024846
 107 H :   -0.028149
 108 H :   -0.029504
 109 H :   -0.024689
 110 H :   -0.027127
 111 H :   -0.016323
 112 H :   -0.019720
 113 H :    0.007757
 114 H :    0.020134
Sum of atomic charges:   -0.0000000

LOEWDIN ATOMIC CHARGES
----------------------
   0 C :    0.078920
   1 C :   -0.153552
   2 C :   -0.018275
   3 N :   -0.061897
   4 C :   -0.027263
   5 N :   -0.060086
   6 C :   -0.019385
   7 C :   -0.050763
   8 C :    0.022317
   9 C :   -0.034875
  10 C :   -0.144282
  11 C :   -0.010675
  12 S :    0.431796
  13 C :   -0.273106
  14 C :   -0.069933
  15 Br:    0.134146
  16 C :    0.098343
  17 O :   -0.175277
  18 C :   -0.129530
  19 C :    0.045264
  20 C :   -0.213908
  21 S :    0.488279
  22 C :   -0.106308
  23 C :   -0.081651
  24 C :    0.029091
  25 N :    0.096261
  26 C :   -0.006129
  27 N :    0.279254
  28 O :   -0.210383
  29 O :   -0.209190
  30 C :   -0.029855
  31 C :   -0.054036
  32 C :   -0.006590
  33 C :    0.006385
  34 C :    0.003628
  35 C :   -0.016219
  36 C :   -0.008439
  37 C :   -0.029431
  38 C :    0.009125
  39 C :   -0.035653
  40 C :   -0.011495
  41 C :   -0.057642
  42 C :   -0.010954
  43 C :   -0.057475
  44 C :   -0.020186
  45 C :   -0.014833
  46 C :   -0.019004
  47 C :   -0.013324
  48 C :   -0.026737
  49 C :   -0.023813
  50 C :   -0.063353
  51 C :   -0.141248
  52 C :   -0.039639
  53 C :   -0.029139
  54 C :   -0.184197
  55 S :    0.362555
  56 C :   -0.174123
  57 C :   -0.045558
  58 C :   -0.026892
  59 C :   -0.153377
  60 S :    0.383078
  61 C :   -0.045051
  62 C :   -0.066029
  63 C :    0.038655
  64 C :   -0.063414
  65 C :    0.065926
  66 C :   -0.055754
  67 C :    0.009640
  68 C :   -0.056657
  69 C :    0.043245
  70 C :   -0.059912
  71 C :    0.065824
  72 C :   -0.052855
  73 C :   -0.007792
  74 C :   -0.021003
  75 C :   -0.054141
  76 H :    0.040973
  77 H :    0.040877
  78 H :    0.038847
  79 H :    0.044570
  80 H :    0.076564
  81 H :    0.037943
  82 H :    0.027880
  83 H :    0.031142
  84 H :    0.024024
  85 H :    0.022716
  86 H :    0.019325
  87 H :    0.026651
  88 H :    0.026396
  89 H :    0.023423
  90 H :    0.020090
  91 H :    0.021938
  92 H :    0.024768
  93 H :    0.025305
  94 H :    0.026495
  95 H :    0.024372
  96 H :    0.027097
  97 H :    0.027646
  98 H :    0.026620
  99 H :    0.020580
 100 H :    0.031438
 101 H :    0.032406
 102 H :    0.031600
 103 H :    0.030161
 104 H :    0.032688
 105 H :    0.032879
 106 H :    0.024306
 107 H :    0.033781
 108 H :    0.023369
 109 H :    0.024597
 110 H :    0.034104
 111 H :    0.011696
 112 H :    0.029150
 113 H :    0.017739
 114 H :    0.024400

  Mayer bond orders larger than 0.100000
B(  0-C ,  1-C ) :   1.6019 B(  0-C ,  6-C ) :   0.9880 B(  0-C , 18-C ) :   1.1126
B(  1-C ,  2-C ) :   1.1469 B(  1-C ,  4-C ) :   1.1434 B(  2-C ,  3-N ) :   2.9656
B(  4-C ,  5-N ) :   2.9860 B(  6-C ,  7-C ) :   1.2744 B(  6-C , 11-C ) :   1.4186
B(  7-C ,  8-C ) :   1.4220 B(  7-C , 16-C ) :   0.9618 B(  8-C ,  9-C ) :   1.2389
B(  8-C , 76-H ) :   1.0183 B(  9-C , 10-C ) :   1.3127 B(  9-C , 14-C ) :   1.1618
B( 10-C , 11-C ) :   1.3179 B( 10-C , 12-S ) :   1.0875 B( 11-C , 77-H ) :   0.9817
B( 12-S , 13-C ) :   1.0856 B( 13-C , 14-C ) :   1.6206 B( 13-C , 15-Br) :   1.0165
B( 14-C , 78-H ) :   1.0004 B( 16-C , 17-O ) :   2.0536 B( 16-C , 18-C ) :   1.0008
B( 17-O , 80-H ) :   0.1210 B( 18-C , 19-C ) :   1.4665 B( 19-C , 20-C ) :   1.3636
B( 19-C , 79-H ) :   0.8980 B( 20-C , 21-S ) :   1.0740 B( 20-C , 24-C ) :   1.2454
B( 21-S , 22-C ) :   1.2098 B( 22-C , 23-C ) :   1.3132 B( 22-C , 31-C ) :   1.0974
B( 23-C , 24-C ) :   1.2425 B( 23-C , 30-C ) :   1.1378 B( 24-C , 25-N ) :   1.3120
B( 25-N , 26-C ) :   1.1773 B( 25-N , 80-H ) :   0.8391 B( 26-C , 27-N ) :   0.9264
B( 26-C , 30-C ) :   1.5137 B( 27-N , 28-O ) :   1.5021 B( 27-N , 29-O ) :   1.5277
B( 28-O , 29-O ) :   0.2723 B( 30-C , 81-H ) :   1.0132 B( 31-C , 32-C ) :   1.2872
B( 31-C , 36-C ) :   1.3102 B( 32-C , 33-C ) :   1.4082 B( 32-C , 82-H ) :   1.0051
B( 33-C , 34-C ) :   1.3528 B( 33-C , 39-C ) :   0.9091 B( 34-C , 35-C ) :   1.3215
B( 34-C , 37-C ) :   1.0131 B( 35-C , 36-C ) :   1.4111 B( 35-C , 83-H ) :   0.9932
B( 36-C , 84-H ) :   0.9825 B( 37-C , 38-C ) :   1.3459 B( 37-C , 47-C ) :   1.3281
B( 38-C , 39-C ) :   0.9172 B( 38-C , 44-C ) :   1.4180 B( 39-C , 40-C ) :   1.0403
B( 39-C , 42-C ) :   1.0350 B( 40-C , 41-C ) :   1.1020 B( 40-C , 85-H ) :   0.9387
B( 40-C , 86-H ) :   0.9393 B( 41-C , 87-H ) :   0.9647 B( 41-C , 88-H ) :   0.9638
B( 41-C , 89-H ) :   0.9631 B( 42-C , 43-C ) :   1.1002 B( 42-C , 90-H ) :   0.9402
B( 42-C , 91-H ) :   0.9397 B( 43-C , 92-H ) :   0.9647 B( 43-C , 93-H ) :   0.9638
B( 43-C , 94-H ) :   0.9642 B( 44-C , 45-C ) :   1.2893 B( 44-C , 95-H ) :   1.0007
B( 45-C , 46-C ) :   1.3175 B( 45-C , 48-C ) :   1.0739 B( 46-C , 47-C ) :   1.3925
B( 46-C , 96-H ) :   0.9934 B( 47-C , 97-H ) :   0.9912 B( 48-C , 49-C ) :   1.6402
B( 48-C , 98-H ) :   0.9860 B( 49-C , 50-C ) :   1.1616 B( 49-C , 99-H ) :   0.9637
B( 50-C , 51-C ) :   1.5495 B( 50-C ,100-H ) :   0.9839 B( 51-C , 52-C ) :   1.1485
B( 51-C , 55-S ) :   1.0347 B( 52-C , 53-C ) :   1.5781 B( 52-C ,101-H ) :   0.9996
B( 53-C , 54-C ) :   1.1980 B( 53-C ,102-H ) :   0.9944 B( 54-C , 55-S ) :   1.0386
B( 54-C , 56-C ) :   1.4966 B( 56-C , 57-C ) :   1.1901 B( 56-C , 60-S ) :   1.0468
B( 57-C , 58-C ) :   1.5835 B( 57-C ,103-H ) :   0.9934 B( 58-C , 59-C ) :   1.1473
B( 58-C ,104-H ) :   0.9987 B( 59-C , 60-S ) :   1.0291 B( 59-C , 61-C ) :   1.5681
B( 61-C , 62-C ) :   1.1401 B( 61-C ,105-H ) :   0.9682 B( 62-C , 63-C ) :   1.1143
B( 62-C , 73-C ) :   1.4481 B( 63-C , 64-C ) :   1.4517 B( 63-C ,106-H ) :   1.0155
B( 64-C , 65-C ) :   1.1108 B( 64-C , 72-C ) :   1.1261 B( 65-C , 66-C ) :   1.4800
B( 65-C ,107-H ) :   1.0056 B( 66-C , 67-C ) :   1.0793 B( 66-C , 70-C ) :   1.1218
B( 67-C , 68-C ) :   1.5132 B( 67-C ,108-H ) :   1.0171 B( 68-C , 69-C ) :   1.1405
B( 68-C , 74-C ) :   1.0839 B( 69-C , 70-C ) :   1.4406 B( 69-C ,109-H ) :   1.0079
B( 70-C , 71-C ) :   1.1331 B( 71-C , 72-C ) :   1.4382 B( 71-C ,110-H ) :   1.0043
B( 72-C , 73-C ) :   1.1336 B( 73-C ,111-H ) :   0.9959 B( 74-C , 75-C ) :   1.9341
B( 74-C ,112-H ) :   0.9664 B( 75-C ,113-H ) :   0.9526 B( 75-C ,114-H ) :   0.9491

-----------------------------------------------------------------------------
         ABSORPTION SPECTRUM VIA TRANSITION ELECTRIC DIPOLE MOMENTS
-----------------------------------------------------------------------------
State   Energy  Wavelength   fosc         T2         TX        TY        TZ
        (cm-1)    (nm)                  (au**2)     (au)      (au)      (au)
-----------------------------------------------------------------------------
   0    7061.7   1416.1   0.059712251   2.78376   0.47331  -1.19530   1.06348
   1   12382.4    807.6   1.011347958  26.88877   2.71462   3.41618  -2.80166
   2   14951.7    668.8   0.095470244   2.10210  -0.93340   0.86029  -0.70054
   3   16284.8    614.1   0.798383096  16.14008   2.56343  -2.55070   1.75010
   4   18783.4    532.4   1.358259803  23.80582   4.83029   0.52852  -0.44134
   5   22062.4    453.3   0.069980508   1.04424  -0.56848   0.84286   0.10322
   6   22640.3    441.7   0.074271725   1.07998  -0.75609   0.40974  -0.58345
   7   23190.9    431.2   0.044741522   0.63514  -0.75261  -0.08014   0.24960
   8   24090.0    415.1   0.241555971   3.30108  -1.74288   0.24544  -0.45081
   9   24258.4    412.2   0.042581534   0.57788  -0.66226   0.17387   0.33023
  10   24931.8    401.1   0.082498577   1.08935   0.30366   0.96545   0.25506
  11   25565.8    391.1   0.167935741   2.16252   1.45888  -0.16195   0.08929
  12   26232.2    381.2   1.011666548  12.69633   3.44992   0.68557   0.56957
  13   26649.8    375.2   0.073684454   0.91024   0.62125   0.71220   0.13062
  14   27435.8    364.5   0.099083781   1.18894  -1.04445   0.02109   0.31244
  15   27542.8    363.1   0.251560859   3.00684   1.30081  -0.81853  -0.80295
  16   28078.2    356.1   0.102609073   1.20307   0.95450   0.41488  -0.34623
  17   28601.8    349.6   0.036711170   0.42255   0.35888  -0.34101   0.42127
  18   29914.8    334.3   0.152121300   1.67410  -1.25596  -0.30604  -0.05485
  19   30039.8    332.9   0.090292652   0.98954   0.62917  -0.35678  -0.68293
  20   30601.2    326.8   0.104126092   1.12020  -0.76066  -0.65963  -0.32633
  21   30839.1    324.3   0.059826581   0.63866  -0.31345  -0.67123  -0.29976
  22   31111.9    321.4   0.048540412   0.51363   0.47654  -0.53362  -0.04227
  23   31567.6    316.8   0.098804905   1.03042   0.85200   0.55044  -0.03904
  24   32027.7    312.2   0.016677477   0.17143  -0.08517  -0.39887  -0.07127
  25   32340.3    309.2   0.010442438   0.10630  -0.23948   0.21242   0.06188
  26   32388.2    308.8   0.016143275   0.16409   0.28043   0.28208   0.07667
  27   32658.4    306.2   0.057264774   0.57726  -0.71199  -0.05629   0.25914
  28   32813.4    304.8   0.514627556   5.16319   1.21609  -1.17432  -1.51832
  29   33138.8    301.8   0.076432974   0.75931   0.65913   0.56550   0.07122
  30   33324.0    300.1   0.020315854   0.20070   0.15476  -0.41783   0.04663
  31   33451.5    298.9   0.056695013   0.55796   0.69218  -0.27931   0.02889
  32   34445.6    290.3   0.041573796   0.39734  -0.60580  -0.16080   0.06701
  33   34596.2    289.0   0.011712323   0.11145  -0.21415  -0.15469  -0.20412
  34   34820.8    287.2   0.002117623   0.02002   0.07879  -0.09260  -0.07237
  35   35130.1    284.7   0.004583439   0.04295  -0.18997   0.06241  -0.05448
  36   35508.1    281.6   0.062124168   0.57598  -0.67875   0.22303  -0.25601
  37   35632.6    280.6   0.068317270   0.63119   0.46543   0.64036  -0.06711
  38   35694.9    280.2   0.043101282   0.39752   0.51946   0.22374   0.27860
  39   35839.6    279.0   0.036630624   0.33648   0.43311   0.22071  -0.31651
  40   36045.3    277.4   0.033245432   0.30364  -0.22442   0.30397   0.40110
  41   36645.8    272.9   0.023614003   0.21214   0.34829  -0.20227   0.22342
  42   36732.7    272.2   0.025624895   0.22966   0.45322   0.10880   0.11143
  43   36940.2    270.7   0.028419282   0.25327  -0.48209   0.14219   0.02538
  44   37163.6    269.1   0.107883313   0.95568   0.85342   0.42274   0.22055
  45   37245.6    268.5   0.096706501   0.85478   0.74688   0.47957   0.25879
  46   37614.3    265.9   0.014210473   0.12437   0.22185  -0.18598   0.20142
  47   37743.0    264.9   0.053143074   0.46354  -0.06598  -0.67027  -0.09961
  48   37965.3    263.4   0.100066924   0.86772   0.69341   0.52646   0.33127
  49   38128.0    262.3   0.211229059   1.82383   0.61422   1.11106   0.46056
  50   38242.7    261.5   0.022811619   0.19637  -0.31338  -0.29394  -0.10849
  51   38592.5    259.1   0.008095068   0.06905  -0.16493   0.18092  -0.09550
  52   38999.3    256.4   0.047582923   0.40167  -0.37439   0.50212   0.09683
  53   39157.1    255.4   0.051236452   0.43077  -0.09578  -0.63535   0.13388
  54   39411.4    253.7   0.234651548   1.96010  -0.44101   1.19809   0.57461
  55   39880.8    250.7   0.200218340   1.65278   0.95708  -0.65307  -0.55703
  56   40063.6    249.6   0.003056916   0.02512   0.05064  -0.14610  -0.03476
  57   40159.8    249.0   0.103245659   0.84636  -0.62637  -0.64403  -0.19811

FINAL SINGLE POINT ENERGY     -7069.298127972877

DIPOLE MOMENT
-------------
                                X             Y             Z
Electronic contribution:    253.15619      61.36252    -111.99557
Nuclear contribution   :   -256.84807     -62.65450     111.98425
                        -----------------------------------------
Total Dipole Moment    :     -3.69188      -1.29198      -0.01132
                        -----------------------------------------
Magnitude (a.u.)       :      3.91144
Magnitude (Debye)      :      9.94208

Rotational constants in cm-1:     0.000948     0.000179     0.000160
Rotational constants in MHz :    28.428723     5.368100     4.788893

                             ****ORCA TERMINATED NORMALLY****
TOTAL RUN TIME: 0 days 0 hours 15 minutes 31 seconds 992 msec
