                         Program Version 4.2.0 -  RELEASE  -
|  1> # ORCA input file
|  2> # SCF done       -197.133390546916          0.000745052147
|  3> ! CAM-B3LYP def2-SVP def2/J RIJCOSX Grid4 TightSCF
|  4> %maxcore 5000
|  5> %tddft
|  6>     Mode sTDDFT
|  7>     Ethresh 5.0
|  8>     maxcore 5000
|  9> end
| 10>
| 11> %pal
| 12>   nprocs 6
| 13>   end
| 14> * xyz 0 1
| 15>    C       -7.22004         2.75363         4.13831
| 16>    C       -7.76080         1.82546         4.98856
| 17>    C       -7.52448         1.78874         6.37849
| 18>    N       -7.36903         1.71202         7.51282
| 19>    C       -8.62382         0.78932         4.57644
| 20>    N       -9.32957        -0.06520         4.27782
| 21>    C       -6.32463         3.84369         4.51449
| 22>    C       -5.97951         4.58251         3.35185
| 23>    C       -5.15441         5.68154         3.38711
| 24>    C       -4.64154         6.07102         4.62836
| 25>    C       -4.98696         5.32631         5.78291
| 26>    C       -5.82302         4.21610         5.74677
| 27>    S       -4.24389         5.97917         7.20888
| 28>    C       -3.48980         7.22735         6.25176
| 29>    C       -3.77919         7.15960         4.92969
| 30>   Br       -2.39475         8.49746         7.08849
| 31>    C       -6.64452         3.98120         2.19428
| 32>    O       -6.58655         4.34366         1.02340
| 33>    C       -7.42300         2.84638         2.70830
| 34>    C       -8.20498         2.07959         1.88360
| 35>    N       -8.26748         2.35020         0.57158
| 36>    C       -8.99688         1.69214        -0.36365
| 37>    S       -9.80636         0.20285         0.01905
| 38>    C      -10.30493         0.06928        -1.63534
| 39>    N      -11.08293        -1.04191        -2.00029
| 40>    O      -11.42525        -1.12980        -3.16275
| 41>    O      -11.34989        -1.83420        -1.11662
| 42>    C       -9.86953         1.09807        -2.42281
| 43>    C       -9.12761         2.06288        -1.70927
| 44>    C       -8.60638         3.23841        -2.35627
| 45>    C       -8.26346         4.40504        -1.77077
| 46>    C       -7.71455         5.53129        -2.44879
| 47>    C       -7.52055         5.75187        -3.80036
| 48>    C       -6.93651         6.99141        -4.04591
| 49>    C       -6.66383         7.73068        -2.87889
| 50>    S       -7.16020         6.87229        -1.46584
| 51>    C       -6.07538         8.96244        -3.11390
| 52>    C       -5.89700         9.20122        -4.47149
| 53>    S       -6.47215         7.86411        -5.46066
| 54>    C       -5.35163        10.34907        -5.09960
| 55>    C       -4.75631        11.43827        -4.40390
| 56>    C       -4.21356        12.57723        -5.10718
| 57>    N       -3.76910        13.63155        -4.40519
| 58>    C       -3.69718        13.56764        -3.10008
| 59>    C       -4.10377        12.38174        -2.41261
| 60>    N       -4.65816        11.39193        -3.07194
| 61>    C       -3.95976        12.26891        -1.00829
| 62>    N       -3.84096        12.19345         0.12858
| 63>    C       -3.19405        14.69694        -2.40636
| 64>    N       -2.75139        15.60015        -1.85887
| 65>    C       -4.16528        12.65366        -6.51696
| 66>    C       -4.77930        11.58931        -7.20212
| 67>    C       -5.34545        10.46138        -6.50774
| 68>    N       -5.83548         9.55837        -7.35825
| 69>    S       -5.60538        10.06884        -8.86045
| 70>    N       -4.87988        11.45540        -8.52593
| 71>    C       -3.59423        13.74903        -7.22951
| 72>    C       -2.61744        14.59992        -6.82640
| 73>    C       -1.67914        14.55360        -5.72226
| 74>    C       -1.11072        13.43007        -5.18011
| 75>    C       -0.12812        13.45422        -4.16979
| 76>    N        0.65449        13.40948        -3.33142
| 77>    C       -1.44905        12.12078        -5.57047
| 78>    N       -1.71592        11.03657        -5.84051
| 79>    C       -1.26252        15.92279        -5.45764
| 80>    C       -1.70878        16.74893        -6.52189
| 81>    C       -2.48063        15.93507        -7.48157
| 82>    O       -2.95506        16.27535        -8.53848
| 83>    C       -1.45006        18.09766        -6.56161
| 84>    C       -0.73464        18.65640        -5.49683
| 85>    C       -0.31297        17.82453        -4.42991
| 86>    C       -0.56165        16.45841        -4.39456
| 87>    S        0.53174        18.72476        -3.21119
| 88>    C        0.32036        20.18550        -4.13900
| 89>    C       -0.35274        20.01126        -5.30193
| 90>   Br        1.00484        21.80348        -3.48779
| 91>    H       -4.91378         6.22433         2.48651
| 92>    H       -6.05759         3.68501         6.65407
| 93>    H       -3.40168         7.84921         4.19695
| 94>    H       -8.80398         1.25570         2.24964
| 95>    H       -7.65293         3.12922         0.27588
| 96>    H      -10.09784         1.16062        -3.47159
| 97>    H       -8.52451         3.15019        -3.43064
| 98>    H       -8.40406         4.56187        -0.71206
| 99>    H       -7.79976         5.05521        -4.56802
|100>    H       -5.78465         9.66371        -2.35560
|101>    H       -4.04010        13.95702        -8.19669
|102>    H       -1.79262        18.70534        -7.38446
|103>    H       -0.23699        15.86518        -3.55569
|104>    H       -0.57229        20.80425        -5.99328
|105> *
|106>
|107>                          ****END OF INPUT****

CARTESIAN COORDINATES (ANGSTROEM)
---------------------------------
  C     -7.220040    2.753630    4.138310
  C     -7.760800    1.825460    4.988560
  C     -7.524480    1.788740    6.378490
  N     -7.369030    1.712020    7.512820
  C     -8.623820    0.789320    4.576440
  N     -9.329570   -0.065200    4.277820
  C     -6.324630    3.843690    4.514490
  C     -5.979510    4.582510    3.351850
  C     -5.154410    5.681540    3.387110
  C     -4.641540    6.071020    4.628360
  C     -4.986960    5.326310    5.782910
  C     -5.823020    4.216100    5.746770
  S     -4.243890    5.979170    7.208880
  C     -3.489800    7.227350    6.251760
  C     -3.779190    7.159600    4.929690
  Br    -2.394750    8.497460    7.088490
  C     -6.644520    3.981200    2.194280
  O     -6.586550    4.343660    1.023400
  C     -7.423000    2.846380    2.708300
  C     -8.204980    2.079590    1.883600
  N     -8.267480    2.350200    0.571580
  C     -8.996880    1.692140   -0.363650
  S     -9.806360    0.202850    0.019050
  C    -10.304930    0.069280   -1.635340
  N    -11.082930   -1.041910   -2.000290
  O    -11.425250   -1.129800   -3.162750
  O    -11.349890   -1.834200   -1.116620
  C     -9.869530    1.098070   -2.422810
  C     -9.127610    2.062880   -1.709270
  C     -8.606380    3.238410   -2.356270
  C     -8.263460    4.405040   -1.770770
  C     -7.714550    5.531290   -2.448790
  C     -7.520550    5.751870   -3.800360
  C     -6.936510    6.991410   -4.045910
  C     -6.663830    7.730680   -2.878890
  S     -7.160200    6.872290   -1.465840
  C     -6.075380    8.962440   -3.113900
  C     -5.897000    9.201220   -4.471490
  S     -6.472150    7.864110   -5.460660
  C     -5.351630   10.349070   -5.099600
  C     -4.756310   11.438270   -4.403900
  C     -4.213560   12.577230   -5.107180
  N     -3.769100   13.631550   -4.405190
  C     -3.697180   13.567640   -3.100080
  C     -4.103770   12.381740   -2.412610
  N     -4.658160   11.391930   -3.071940
  C     -3.959760   12.268910   -1.008290
  N     -3.840960   12.193450    0.128580
  C     -3.194050   14.696940   -2.406360
  N     -2.751390   15.600150   -1.858870
  C     -4.165280   12.653660   -6.516960
  C     -4.779300   11.589310   -7.202120
  C     -5.345450   10.461380   -6.507740
  N     -5.835480    9.558370   -7.358250
  S     -5.605380   10.068840   -8.860450
  N     -4.879880   11.455400   -8.525930
  C     -3.594230   13.749030   -7.229510
  C     -2.617440   14.599920   -6.826400
  C     -1.679140   14.553600   -5.722260
  C     -1.110720   13.430070   -5.180110
  C     -0.128120   13.454220   -4.169790
  N      0.654490   13.409480   -3.331420
  C     -1.449050   12.120780   -5.570470
  N     -1.715920   11.036570   -5.840510
  C     -1.262520   15.922790   -5.457640
  C     -1.708780   16.748930   -6.521890
  C     -2.480630   15.935070   -7.481570
  O     -2.955060   16.275350   -8.538480
  C     -1.450060   18.097660   -6.561610
  C     -0.734640   18.656400   -5.496830
  C     -0.312970   17.824530   -4.429910
  C     -0.561650   16.458410   -4.394560
  S      0.531740   18.724760   -3.211190
  C      0.320360   20.185500   -4.139000
  C     -0.352740   20.011260   -5.301930
  Br     1.004840   21.803480   -3.487790
  H     -4.913780    6.224330    2.486510
  H     -6.057590    3.685010    6.654070
  H     -3.401680    7.849210    4.196950
  H     -8.803980    1.255700    2.249640
  H     -7.652930    3.129220    0.275880
  H    -10.097840    1.160620   -3.471590
  H     -8.524510    3.150190   -3.430640
  H     -8.404060    4.561870   -0.712060
  H     -7.799760    5.055210   -4.568020
  H     -5.784650    9.663710   -2.355600
  H     -4.040100   13.957020   -8.196690
  H     -1.792620   18.705340   -7.384460
  H     -0.236990   15.865180   -3.555690
  H     -0.572290   20.804250   -5.993280

 Total Charge           Charge          ....    0
 Multiplicity           Mult            ....    1
 Number of Electrons    NEL             ....  608
 Basis Dimension        Dim             .... 1194

ORBITAL ENERGIES
----------------

  NO   OCC          E(Eh)            E(eV)
   0   2.0000    -482.890098    -13140.1076
   1   2.0000    -482.884880    -13139.9656
   2   2.0000     -89.056532     -2423.3514
   3   2.0000     -89.000252     -2421.8200
   4   2.0000     -88.983640     -2421.3680
   5   2.0000     -88.974603     -2421.1220
   6   2.0000     -88.974560     -2421.1209
   7   2.0000     -88.971225     -2421.0301
   8   2.0000     -62.567802     -1702.5565
   9   2.0000     -62.562588     -1702.4146
  10   2.0000     -56.401769     -1534.7702
  11   2.0000     -56.399020     -1534.6954
  12   2.0000     -56.398999     -1534.6948
  13   2.0000     -56.396535     -1534.6277
  14   2.0000     -56.393823     -1534.5539
  15   2.0000     -56.393792     -1534.5531
  16   2.0000     -19.247438      -523.7494
  17   2.0000     -19.246683      -523.7289
  18   2.0000     -19.243570      -523.6441
  19   2.0000     -19.217627      -522.9382
  20   2.0000     -14.659135      -398.8953
  21   2.0000     -14.505845      -394.7241
  22   2.0000     -14.472116      -393.8063
  23   2.0000     -14.469805      -393.7434
  24   2.0000     -14.466998      -393.6670
  25   2.0000     -14.460751      -393.4971
  26   2.0000     -14.442442      -392.9988
  27   2.0000     -14.437058      -392.8523
  28   2.0000     -14.428143      -392.6097
  29   2.0000     -14.423108      -392.4727
  30   2.0000     -14.422987      -392.4694
  31   2.0000     -14.417456      -392.3189
  32   2.0000     -10.393504      -282.8216
  33   2.0000     -10.390153      -282.7304
  34   2.0000     -10.388420      -282.6833
  35   2.0000     -10.384506      -282.5768
  36   2.0000     -10.379380      -282.4373
  37   2.0000     -10.368764      -282.1484
  38   2.0000     -10.365709      -282.0653
  39   2.0000     -10.360394      -281.9207
  40   2.0000     -10.360042      -281.9111
  41   2.0000     -10.358279      -281.8631
  42   2.0000     -10.356538      -281.8157
  43   2.0000     -10.355435      -281.7857
  44   2.0000     -10.353437      -281.7314
  45   2.0000     -10.352549      -281.7072
  46   2.0000     -10.351898      -281.6895
  47   2.0000     -10.345786      -281.5231
  48   2.0000     -10.343633      -281.4646
  49   2.0000     -10.343071      -281.4493
  50   2.0000     -10.335649      -281.2473
  51   2.0000     -10.335084      -281.2319
  52   2.0000     -10.332152      -281.1521
  53   2.0000     -10.331026      -281.1215
  54   2.0000     -10.330307      -281.1019
  55   2.0000     -10.329366      -281.0763
  56   2.0000     -10.325946      -280.9833
  57   2.0000     -10.325360      -280.9673
  58   2.0000     -10.325059      -280.9591
  59   2.0000     -10.321750      -280.8691
  60   2.0000     -10.320200      -280.8269
  61   2.0000     -10.319806      -280.8162
  62   2.0000     -10.319539      -280.8089
  63   2.0000     -10.319032      -280.7951
  64   2.0000     -10.317270      -280.7472
  65   2.0000     -10.316893      -280.7369
  66   2.0000     -10.316780      -280.7338
  67   2.0000     -10.315948      -280.7112
  68   2.0000     -10.315361      -280.6952
  69   2.0000     -10.313518      -280.6451
  70   2.0000     -10.313297      -280.6391
  71   2.0000     -10.310068      -280.5512
  72   2.0000     -10.309774      -280.5432
  73   2.0000     -10.308881      -280.5189
  74   2.0000     -10.307810      -280.4898
  75   2.0000     -10.306024      -280.4412
  76   2.0000     -10.305664      -280.4314
  77   2.0000     -10.304595      -280.4023
  78   2.0000     -10.303261      -280.3660
  79   2.0000     -10.302576      -280.3473
  80   2.0000     -10.301779      -280.3257
  81   2.0000     -10.301535      -280.3190
  82   2.0000     -10.295896      -280.1656
  83   2.0000     -10.294365      -280.1239
  84   2.0000      -8.797234      -239.3849
  85   2.0000      -8.792020      -239.2430
  86   2.0000      -8.147589      -221.7072
  87   2.0000      -8.095465      -220.2888
  88   2.0000      -8.079593      -219.8569
  89   2.0000      -8.070581      -219.6117
  90   2.0000      -8.070190      -219.6010
  91   2.0000      -8.065451      -219.4721
  92   2.0000      -6.633610      -180.5097
  93   2.0000      -6.628293      -180.3650
  94   2.0000      -6.618957      -180.1110
  95   2.0000      -6.618695      -180.1038
  96   2.0000      -6.613781      -179.9701
  97   2.0000      -6.613557      -179.9640
  98   2.0000      -6.118590      -166.4953
  99   2.0000      -6.110850      -166.2847
 100   2.0000      -6.110506      -166.2753
 101   2.0000      -6.065083      -165.0393
 102   2.0000      -6.060674      -164.9193
 103   2.0000      -6.057016      -164.8198
 104   2.0000      -6.049240      -164.6082
 105   2.0000      -6.044989      -164.4925
 106   2.0000      -6.040872      -164.3805
 107   2.0000      -6.040276      -164.3643
 108   2.0000      -6.039590      -164.3456
 109   2.0000      -6.035960      -164.2468
 110   2.0000      -6.035644      -164.2382
 111   2.0000      -6.035143      -164.2246
 112   2.0000      -6.031805      -164.1338
 113   2.0000      -6.031802      -164.1337
 114   2.0000      -6.030800      -164.1064
 115   2.0000      -6.026879      -163.9997
 116   2.0000      -2.749473       -74.8170
 117   2.0000      -2.745357       -74.7050
 118   2.0000      -2.745177       -74.7001
 119   2.0000      -2.744212       -74.6738
 120   2.0000      -2.740070       -74.5611
 121   2.0000      -2.739935       -74.5574
 122   2.0000      -2.733523       -74.3829
 123   2.0000      -2.733508       -74.3825
 124   2.0000      -2.728393       -74.2433
 125   2.0000      -2.728371       -74.2428
 126   2.0000      -1.329552       -36.1789
 127   2.0000      -1.158718       -31.5303
 128   2.0000      -1.154045       -31.4032
 129   2.0000      -1.149005       -31.2660
 130   2.0000      -1.133348       -30.8400
 131   2.0000      -1.131768       -30.7970
 132   2.0000      -1.113698       -30.3053
 133   2.0000      -1.058977       -28.8162
 134   2.0000      -1.033622       -28.1263
 135   2.0000      -1.027928       -27.9713
 136   2.0000      -1.025240       -27.8982
 137   2.0000      -1.023368       -27.8473
 138   2.0000      -1.023029       -27.8380
 139   2.0000      -1.020252       -27.7625
 140   2.0000      -1.015766       -27.6404
 141   2.0000      -1.013745       -27.5854
 142   2.0000      -1.008191       -27.4343
 143   2.0000      -1.004912       -27.3450
 144   2.0000      -1.000244       -27.2180
 145   2.0000      -0.999405       -27.1952
 146   2.0000      -0.993371       -27.0310
 147   2.0000      -0.988884       -26.9089
 148   2.0000      -0.964604       -26.2482
 149   2.0000      -0.951747       -25.8984
 150   2.0000      -0.943563       -25.6757
 151   2.0000      -0.933978       -25.4148
 152   2.0000      -0.919218       -25.0132
 153   2.0000      -0.918947       -25.0058
 154   2.0000      -0.916388       -24.9362
 155   2.0000      -0.909914       -24.7600
 156   2.0000      -0.908591       -24.7240
 157   2.0000      -0.895798       -24.3759
 158   2.0000      -0.891754       -24.2659
 159   2.0000      -0.886582       -24.1251
 160   2.0000      -0.885925       -24.1073
 161   2.0000      -0.877714       -23.8838
 162   2.0000      -0.869383       -23.6571
 163   2.0000      -0.859878       -23.3985
 164   2.0000      -0.851914       -23.1818
 165   2.0000      -0.839116       -22.8335
 166   2.0000      -0.837827       -22.7984
 167   2.0000      -0.829517       -22.5723
 168   2.0000      -0.826873       -22.5003
 169   2.0000      -0.812415       -22.1069
 170   2.0000      -0.807268       -21.9669
 171   2.0000      -0.799491       -21.7553
 172   2.0000      -0.781649       -21.2697
 173   2.0000      -0.773592       -21.0505
 174   2.0000      -0.766615       -20.8607
 175   2.0000      -0.758609       -20.6428
 176   2.0000      -0.748141       -20.3579
 177   2.0000      -0.742612       -20.2075
 178   2.0000      -0.739354       -20.1188
 179   2.0000      -0.719398       -19.5758
 180   2.0000      -0.713592       -19.4178
 181   2.0000      -0.710922       -19.3452
 182   2.0000      -0.708904       -19.2903
 183   2.0000      -0.700972       -19.0744
 184   2.0000      -0.696829       -18.9617
 185   2.0000      -0.689451       -18.7609
 186   2.0000      -0.687205       -18.6998
 187   2.0000      -0.677862       -18.4456
 188   2.0000      -0.669725       -18.2241
 189   2.0000      -0.668123       -18.1805
 190   2.0000      -0.665027       -18.0963
 191   2.0000      -0.660911       -17.9843
 192   2.0000      -0.651165       -17.7191
 193   2.0000      -0.650206       -17.6930
 194   2.0000      -0.643082       -17.4991
 195   2.0000      -0.640541       -17.4300
 196   2.0000      -0.640436       -17.4272
 197   2.0000      -0.636109       -17.3094
 198   2.0000      -0.630117       -17.1463
 199   2.0000      -0.625490       -17.0204
 200   2.0000      -0.620150       -16.8751
 201   2.0000      -0.614747       -16.7281
 202   2.0000      -0.609325       -16.5806
 203   2.0000      -0.603292       -16.4164
 204   2.0000      -0.601240       -16.3606
 205   2.0000      -0.597402       -16.2561
 206   2.0000      -0.593860       -16.1598
 207   2.0000      -0.592215       -16.1150
 208   2.0000      -0.587746       -15.9934
 209   2.0000      -0.582360       -15.8468
 210   2.0000      -0.577120       -15.7042
 211   2.0000      -0.573197       -15.5975
 212   2.0000      -0.569743       -15.5035
 213   2.0000      -0.569517       -15.4973
 214   2.0000      -0.565387       -15.3850
 215   2.0000      -0.557579       -15.1725
 216   2.0000      -0.552390       -15.0313
 217   2.0000      -0.549659       -14.9570
 218   2.0000      -0.545947       -14.8560
 219   2.0000      -0.543561       -14.7910
 220   2.0000      -0.543414       -14.7871
 221   2.0000      -0.539302       -14.6752
 222   2.0000      -0.538094       -14.6423
 223   2.0000      -0.532842       -14.4994
 224   2.0000      -0.531912       -14.4741
 225   2.0000      -0.526805       -14.3351
 226   2.0000      -0.526046       -14.3144
 227   2.0000      -0.523819       -14.2538
 228   2.0000      -0.517610       -14.0849
 229   2.0000      -0.516177       -14.0459
 230   2.0000      -0.511393       -13.9157
 231   2.0000      -0.509604       -13.8670
 232   2.0000      -0.508224       -13.8295
 233   2.0000      -0.506209       -13.7747
 234   2.0000      -0.505603       -13.7582
 235   2.0000      -0.502643       -13.6776
 236   2.0000      -0.502096       -13.6627
 237   2.0000      -0.495080       -13.4718
 238   2.0000      -0.494368       -13.4524
 239   2.0000      -0.490731       -13.3535
 240   2.0000      -0.486255       -13.2317
 241   2.0000      -0.484053       -13.1718
 242   2.0000      -0.482346       -13.1253
 243   2.0000      -0.479953       -13.0602
 244   2.0000      -0.473682       -12.8895
 245   2.0000      -0.472687       -12.8625
 246   2.0000      -0.468103       -12.7377
 247   2.0000      -0.467751       -12.7282
 248   2.0000      -0.467301       -12.7159
 249   2.0000      -0.462973       -12.5981
 250   2.0000      -0.460619       -12.5341
 251   2.0000      -0.459593       -12.5062
 252   2.0000      -0.458954       -12.4888
 253   2.0000      -0.458479       -12.4758
 254   2.0000      -0.456498       -12.4219
 255   2.0000      -0.454600       -12.3703
 256   2.0000      -0.453382       -12.3372
 257   2.0000      -0.452857       -12.3229
 258   2.0000      -0.449780       -12.2391
 259   2.0000      -0.448446       -12.2028
 260   2.0000      -0.447825       -12.1859
 261   2.0000      -0.445161       -12.1134
 262   2.0000      -0.443311       -12.0631
 263   2.0000      -0.440118       -11.9762
 264   2.0000      -0.439757       -11.9664
 265   2.0000      -0.437395       -11.9021
 266   2.0000      -0.436810       -11.8862
 267   2.0000      -0.433728       -11.8023
 268   2.0000      -0.430697       -11.7199
 269   2.0000      -0.429206       -11.6793
 270   2.0000      -0.423583       -11.5263
 271   2.0000      -0.421787       -11.4774
 272   2.0000      -0.421594       -11.4721
 273   2.0000      -0.419998       -11.4287
 274   2.0000      -0.417827       -11.3696
 275   2.0000      -0.414110       -11.2685
 276   2.0000      -0.404416       -11.0047
 277   2.0000      -0.401270       -10.9191
 278   2.0000      -0.397260       -10.8100
 279   2.0000      -0.394086       -10.7236
 280   2.0000      -0.387829       -10.5534
 281   2.0000      -0.386602       -10.5200
 282   2.0000      -0.381747       -10.3879
 283   2.0000      -0.380403       -10.3513
 284   2.0000      -0.379324       -10.3219
 285   2.0000      -0.377675       -10.2771
 286   2.0000      -0.376164       -10.2359
 287   2.0000      -0.374509       -10.1909
 288   2.0000      -0.374139       -10.1808
 289   2.0000      -0.367574       -10.0022
 290   2.0000      -0.366100        -9.9621
 291   2.0000      -0.357497        -9.7280
 292   2.0000      -0.355049        -9.6614
 293   2.0000      -0.348854        -9.4928
 294   2.0000      -0.344966        -9.3870
 295   2.0000      -0.331859        -9.0303
 296   2.0000      -0.327010        -8.8984
 297   2.0000      -0.316185        -8.6038
 298   2.0000      -0.314219        -8.5503
 299   2.0000      -0.309476        -8.4213
 300   2.0000      -0.302529        -8.2322
 301   2.0000      -0.293387        -7.9835
 302   2.0000      -0.289261        -7.8712
 303   2.0000      -0.256363        -6.9760
 304   0.0000      -0.138950        -3.7810
 305   0.0000      -0.097965        -2.6658
 306   0.0000      -0.082324        -2.2402
 307   0.0000      -0.079563        -2.1650
 308   0.0000      -0.065739        -1.7888

MULLIKEN ATOMIC CHARGES
-----------------------
   0 C :    0.323780
   1 C :   -0.339903
   2 C :   -0.183533
   3 N :    0.156206
   4 C :   -0.194184
   5 N :    0.145147
   6 C :    0.011046
   7 C :   -0.010253
   8 C :   -0.061228
   9 C :    0.113358
  10 C :   -0.093351
  11 C :   -0.016351
  12 S :    0.194790
  13 C :   -0.123926
  14 C :    0.040746
  15 Br:    0.035352
  16 C :    0.168570
  17 O :   -0.221997
  18 C :   -0.124184
  19 C :    0.025532
  20 N :   -0.011812
  21 C :   -0.121940
  22 S :    0.182520
  23 C :    0.010207
  24 N :    0.273961
  25 O :   -0.244410
  26 O :   -0.252503
  27 C :    0.005298
  28 C :    0.124528
  29 C :   -0.024517
  30 C :    0.062693
  31 C :   -0.092188
  32 C :   -0.035659
  33 C :    0.020407
  34 C :   -0.007816
  35 S :    0.168415
  36 C :   -0.015180
  37 C :   -0.196111
  38 S :    0.172660
  39 C :    0.229025
  40 C :   -0.039362
  41 C :   -0.092667
  42 N :    0.029189
  43 C :   -0.118229
  44 C :   -0.103318
  45 N :    0.042687
  46 C :   -0.237609
  47 N :    0.238493
  48 C :   -0.201571
  49 N :    0.241389
  50 C :    0.070608
  51 C :    0.031391
  52 C :   -0.026032
  53 N :   -0.319788
  54 S :    0.567366
  55 N :   -0.264716
  56 C :   -0.020387
  57 C :   -0.100757
  58 C :    0.306271
  59 C :   -0.364047
  60 C :   -0.199431
  61 N :    0.170987
  62 C :   -0.178754
  63 N :    0.153202
  64 C :   -0.001977
  65 C :    0.015183
  66 C :    0.126869
  67 O :   -0.135538
  68 C :   -0.078708
  69 C :    0.113806
  70 C :   -0.090236
  71 C :   -0.008781
  72 S :    0.197600
  73 C :   -0.125285
  74 C :    0.040210
  75 Br:    0.024842
  76 H :   -0.006500
  77 H :   -0.003385
  78 H :    0.004263
  79 H :    0.048302
  80 H :    0.178384
  81 H :    0.014025
  82 H :   -0.000849
  83 H :   -0.008078
  84 H :   -0.011822
  85 H :    0.009303
  86 H :    0.030036
  87 H :   -0.008770
  88 H :    0.002294
  89 H :   -0.003301
Sum of atomic charges:    0.0000000

LOEWDIN ATOMIC CHARGES
----------------------
   0 C :    0.078329
   1 C :   -0.144405
   2 C :   -0.020216
   3 N :   -0.048750
   4 C :   -0.020078
   5 N :   -0.050520
   6 C :   -0.019015
   7 C :   -0.054174
   8 C :    0.027544
   9 C :   -0.032241
  10 C :   -0.142710
  11 C :   -0.006306
  12 S :    0.440219
  13 C :   -0.269204
  14 C :   -0.067973
  15 Br:    0.145554
  16 C :    0.097960
  17 O :   -0.177687
  18 C :   -0.140507
  19 C :    0.109814
  20 N :    0.076184
  21 C :   -0.106905
  22 S :    0.479822
  23 C :   -0.202053
  24 N :    0.272826
  25 O :   -0.210108
  26 O :   -0.218945
  27 C :    0.001531
  28 C :   -0.088776
  29 C :   -0.009674
  30 C :   -0.044295
  31 C :   -0.138274
  32 C :   -0.069890
  33 C :   -0.179681
  34 C :   -0.206437
  35 S :    0.443532
  36 C :   -0.020110
  37 C :   -0.164137
  38 S :    0.461763
  39 C :    0.003276
  40 C :   -0.006613
  41 C :    0.010287
  42 N :    0.006596
  43 C :   -0.019613
  44 C :   -0.034871
  45 N :    0.010624
  46 C :   -0.038653
  47 N :   -0.010148
  48 C :   -0.031882
  49 N :   -0.003403
  50 C :   -0.055015
  51 C :   -0.024613
  52 C :   -0.048385
  53 N :   -0.291642
  54 S :    0.694363
  55 N :   -0.280524
  56 C :    0.067816
  57 C :   -0.067844
  58 C :    0.081331
  59 C :   -0.153948
  60 C :   -0.026564
  61 N :   -0.049622
  62 C :   -0.014604
  63 N :   -0.061105
  64 C :   -0.018630
  65 C :   -0.051162
  66 C :    0.084975
  67 O :   -0.136138
  68 C :    0.021799
  69 C :   -0.030870
  70 C :   -0.140604
  71 C :   -0.002263
  72 S :    0.441751
  73 C :   -0.270835
  74 C :   -0.071086
  75 Br:    0.138466
  76 H :    0.042932
  77 H :    0.042509
  78 H :    0.041945
  79 H :    0.036181
  80 H :    0.085191
  81 H :    0.047525
  82 H :    0.034810
  83 H :    0.023863
  84 H :    0.032925
  85 H :    0.035737
  86 H :    0.051470
  87 H :    0.041481
  88 H :    0.041963
  89 H :    0.038816

  Mayer bond orders larger than 0.100000
B(  0-C ,  1-C ) :   1.6356 B(  0-C ,  6-C ) :   1.0074 B(  0-C , 18-C ) :   1.0918
B(  1-C ,  2-C ) :   1.1400 B(  1-C ,  4-C ) :   1.1460 B(  2-C ,  3-N ) :   2.9706
B(  4-C ,  5-N ) :   2.9529 B(  6-C ,  7-C ) :   1.2690 B(  6-C , 11-C ) :   1.4222
B(  7-C ,  8-C ) :   1.4198 B(  7-C , 16-C ) :   0.9860 B(  8-C ,  9-C ) :   1.2443
B(  8-C , 76-H ) :   1.0178 B(  9-C , 10-C ) :   1.3033 B(  9-C , 14-C ) :   1.1660
B( 10-C , 11-C ) :   1.3225 B( 10-C , 12-S ) :   1.0943 B( 11-C , 77-H ) :   0.9795
B( 12-S , 13-C ) :   1.0870 B( 13-C , 14-C ) :   1.6159 B( 13-C , 15-Br) :   1.0252
B( 14-C , 78-H ) :   1.0002 B( 16-C , 17-O ) :   2.0267 B( 16-C , 18-C ) :   0.9976
B( 17-O , 80-H ) :   0.1376 B( 18-C , 19-C ) :   1.4738 B( 19-C , 20-N ) :   1.3205
B( 19-C , 79-H ) :   0.9292 B( 20-N , 21-C ) :   1.1884 B( 20-N , 80-H ) :   0.8279
B( 21-C , 22-S ) :   1.1463 B( 21-C , 28-C ) :   1.3809 B( 22-S , 23-C ) :   1.0849
B( 23-C , 24-N ) :   0.9590 B( 23-C , 27-C ) :   1.5024 B( 24-N , 25-O ) :   1.5411
B( 24-N , 26-O ) :   1.5191 B( 25-O , 26-O ) :   0.2642 B( 27-C , 28-C ) :   1.2065
B( 27-C , 81-H ) :   1.0067 B( 28-C , 29-C ) :   1.0919 B( 29-C , 30-C ) :   1.7083
B( 29-C , 82-H ) :   0.9637 B( 30-C , 31-C ) :   1.1371 B( 30-C , 83-H ) :   0.9407
B( 31-C , 32-C ) :   1.4903 B( 31-C , 35-S ) :   1.1219 B( 32-C , 33-C ) :   1.2804
B( 32-C , 84-H ) :   0.9983 B( 33-C , 34-C ) :   1.3586 B( 33-C , 38-S ) :   1.0573
B( 34-C , 35-S ) :   1.0578 B( 34-C , 36-C ) :   1.2844 B( 36-C , 37-C ) :   1.4098
B( 36-C , 85-H ) :   0.9903 B( 37-C , 38-S ) :   1.0805 B( 37-C , 39-C ) :   1.2599
B( 39-C , 40-C ) :   1.2134 B( 39-C , 50-C ) :   0.1182 B( 39-C , 52-C ) :   1.1794
B( 40-C , 41-C ) :   1.1077 B( 40-C , 45-N ) :   1.4738 B( 41-C , 42-N ) :   1.4384
B( 41-C , 50-C ) :   1.2575 B( 42-N , 43-C ) :   1.6923 B( 43-C , 44-C ) :   1.2137
B( 43-C , 48-C ) :   1.1746 B( 44-C , 45-N ) :   1.6971 B( 44-C , 46-C ) :   1.1626
B( 46-C , 47-N ) :   3.0433 B( 48-C , 49-N ) :   3.0034 B( 50-C , 51-C ) :   1.2081
B( 50-C , 56-C ) :   1.1104 B( 51-C , 52-C ) :   1.1155 B( 51-C , 55-N ) :   1.5487
B( 52-C , 53-N ) :   1.4775 B( 53-N , 54-S ) :   1.2879 B( 53-N , 55-N ) :   0.1509
B( 54-S , 55-N ) :   1.2838 B( 56-C , 57-C ) :   1.6705 B( 56-C , 86-H ) :   0.9454
B( 57-C , 58-C ) :   1.0220 B( 57-C , 66-C ) :   0.9366 B( 58-C , 59-C ) :   1.6284
B( 58-C , 64-C ) :   1.0318 B( 59-C , 60-C ) :   1.1376 B( 59-C , 62-C ) :   1.1748
B( 60-C , 61-N ) :   2.9983 B( 62-C , 63-N ) :   2.9833 B( 64-C , 65-C ) :   1.2694
B( 64-C , 71-C ) :   1.4119 B( 65-C , 66-C ) :   0.9183 B( 65-C , 68-C ) :   1.4210
B( 66-C , 67-O ) :   2.2785 B( 68-C , 69-C ) :   1.2523 B( 68-C , 87-H ) :   1.0157
B( 69-C , 70-C ) :   1.3017 B( 69-C , 74-C ) :   1.1666 B( 70-C , 71-C ) :   1.3330
B( 70-C , 72-S ) :   1.0886 B( 71-C , 88-H ) :   0.9799 B( 72-S , 73-C ) :   1.0900
B( 73-C , 74-C ) :   1.6157 B( 73-C , 75-Br) :   1.0203 B( 74-C , 89-H ) :   0.9996

-----------------------------------------------------------------------------
         ABSORPTION SPECTRUM VIA TRANSITION ELECTRIC DIPOLE MOMENTS
-----------------------------------------------------------------------------
State   Energy  Wavelength   fosc         T2         TX        TY        TZ
        (cm-1)    (nm)                  (au**2)     (au)      (au)      (au)
-----------------------------------------------------------------------------
   0   10425.0    959.2   0.710238561  22.42869   2.03537   3.83844  -1.88476
   1   18340.3    545.2   0.103742986   1.86221   0.33307   1.16406  -0.62948
   2   19492.1    513.0   0.008582051   0.14495   0.13767   0.28204   0.21552
   3   19889.1    502.8   0.232504661   3.84851  -0.44795   0.46796  -1.85172
   4   21173.9    472.3   0.261695640   4.06885   0.54722   0.13955   1.93647
   5   21684.6    461.2   0.179450930   2.72440  -1.26013  -1.05900   0.12248
   6   23705.3    421.8   0.011073299   0.15378  -0.22844  -0.31552  -0.04521
   7   24276.3    411.9   0.000912923   0.01238   0.09056  -0.06299  -0.01455
   8   24413.9    409.6   0.019192848   0.25881   0.16375   0.41571   0.24328
   9   25082.2    398.7   0.089880664   1.17971  -0.56218  -0.92934   0.00018
  10   25280.3    395.6   0.110443112   1.43824  -0.75779  -0.83298  -0.41249
  11   25961.2    385.2   0.107989423   1.36941  -0.47690  -1.02692  -0.29564
  12   26444.2    378.2   0.091872941   1.14375   0.60061   0.78732   0.40393
  13   27019.3    370.1   0.326485298   3.97801   1.11201   1.42014   0.85126
  14   27209.2    367.5   0.188432360   2.27990  -0.21951  -0.82785   1.24354
  15   28621.8    349.4   0.045237347   0.52033   0.21329   0.07507  -0.68498
  16   28747.2    347.9   0.179692536   2.05783   0.96512   1.04287   0.19696
  17   29192.6    342.6   0.080676185   0.90980   0.43468   0.51464  -0.67528
  18   29360.9    340.6   0.452436999   5.07300   0.32802   2.14758   0.59440
  19   29471.8    339.3   0.679264508   7.58766  -1.21389  -2.43954  -0.40345
  20   29559.7    338.3   0.051447060   0.57298  -0.16199   0.25224  -0.69506
  21   30000.1    333.3   0.065474749   0.71850  -0.58061  -0.30849  -0.53500
  22   30497.6    327.9   0.232100188   2.50544  -0.93831  -1.11781  -0.61281
  23   31074.4    321.8   0.115916727   1.22806  -0.02054   0.00831   1.10796
  24   31431.7    318.2   0.178868479   1.87345  -0.51814  -0.65387  -1.08510
  25   31572.3    316.7   0.223035295   2.32564   0.83101   1.06728   0.70426
  26   32528.5    307.4   0.206549349   2.09043  -0.40417  -0.05465  -1.38711
  27   32745.6    305.4   0.026704378   0.26848  -0.12853  -0.46998  -0.17629
  28   32914.6    303.8   0.008024851   0.08026   0.18175   0.20722  -0.06552
  29   33108.9    302.0   0.097031716   0.96482   0.43221   0.86936  -0.14904
  30   33414.0    299.3   0.104247498   1.02710  -0.06517   0.97776  -0.25852
  31   33581.1    297.8   0.003473755   0.03405   0.00227  -0.15602  -0.09852
  32   33650.5    297.2   0.586387174   5.73679   1.20190   1.93219  -0.74756
  33   33846.8    295.4   0.070172382   0.68253  -0.28918   0.59530   0.49450
  34   34234.3    292.1   0.110935372   1.06680   0.08571   1.01742   0.15591
  35   34596.2    289.0   0.131109593   1.24762  -0.13548   1.10138  -0.12734
  36   34744.1    287.8   0.072331326   0.68536  -0.16503  -0.73425   0.34498
  37   34923.6    286.3   0.004993324   0.04707   0.00857   0.19343   0.09788
  38   35193.3    284.1   0.086514801   0.80929  -0.23767  -0.86192   0.09952
  39   35478.4    281.9   0.016811120   0.15599  -0.15781  -0.30853  -0.18947
  40   35828.5    279.1   0.050144484   0.46076   0.35425   0.57770   0.03911
  41   36103.1    277.0   0.003558925   0.03245   0.02116   0.16166   0.07662
  42   36122.3    276.8   0.004527438   0.04126   0.14713   0.03102  -0.13658
  43   36441.1    274.4   0.073295639   0.66216   0.45221   0.50688   0.44803
  44   36496.5    274.0   0.008437394   0.07611   0.04311  -0.21960  -0.16133
  45   36661.7    272.8   0.002684032   0.02410  -0.11255  -0.10667  -0.00754
  46   37085.0    269.7   0.080561453   0.71516  -0.67098  -0.25759  -0.44564
  47   37195.3    268.9   0.200762214   1.77693  -0.38146  -0.25886  -1.25076
  48   37412.8    267.3   0.209416875   1.84275  -0.08738  -0.18076  -1.34255
  49   37987.1    263.2   0.006207039   0.05379  -0.15301  -0.10768  -0.13706
  50   38117.2    262.3   0.050019729   0.43201  -0.08356  -0.11826  -0.64113
  51   38186.8    261.9   0.025185821   0.21713   0.03212   0.09010   0.45605
  52   38340.2    260.8   0.031249590   0.26833   0.09204   0.02847  -0.50897
  53   38408.1    260.4   0.092773576   0.79520   0.39793   0.79796   0.01078
  54   38535.5    259.5   0.001013482   0.00866   0.00639  -0.06478   0.06649
  55   38946.8    256.8   0.040444255   0.34187   0.00257   0.53613   0.23329
  56   39117.5    255.6   0.084391515   0.71024  -0.65767  -0.27088  -0.45203
  57   39359.4    254.1   0.027817404   0.23267  -0.37316  -0.00518  -0.30561
  58   39437.5    253.6   0.017161430   0.14326   0.14570  -0.33253   0.10703
  59   39692.1    251.9   0.068240740   0.56600   0.14959   0.63737   0.37065
  60   40141.6    249.1   0.022112327   0.18135  -0.19290  -0.22941  -0.30250
  61   40166.9    249.0   0.005188895   0.04253   0.02241  -0.09206   0.18317
  62   40244.1    248.5   0.021029770   0.17203   0.35302   0.16053   0.14711

FINAL SINGLE POINT ENERGY    -10480.315703583732

DIPOLE MOMENT
-------------
                                X             Y             Z
Electronic contribution:     85.38142     123.89017      61.81686
Nuclear contribution   :    -85.63839    -121.97492     -63.64070
                        -----------------------------------------
Total Dipole Moment    :     -0.25697       1.91525      -1.82384
                        -----------------------------------------
Magnitude (a.u.)       :      2.65718
Magnitude (Debye)      :      6.75401

Rotational constants in cm-1:     0.000811     0.000238     0.000187
Rotational constants in MHz :    24.308233     7.123157     5.592594

                             ****ORCA TERMINATED NORMALLY****
TOTAL RUN TIME: 0 days 0 hours 9 minutes 32 seconds 964 msec
