                         Program Version 4.2.0 -  RELEASE  -
|  1> # ORCA input file
|  2> # SCF done       -178.893901756875          0.000913797232
|  3> ! CAM-B3LYP def2-SVP def2/J RIJCOSX Grid4 TightSCF
|  4> %maxcore 5000
|  5> %tddft
|  6>     Mode sTDDFT
|  7>     Ethresh 5.0
|  8>     maxcore 5000
|  9> end
| 10>
| 11> %pal
| 12>   nprocs 6
| 13>   end
| 14> * xyz 0 1
| 15>    C       -8.48536        -2.45200        -0.72988
| 16>    C       -8.43660        -2.31874         0.63351
| 17>    C       -9.10830        -3.16840         1.53787
| 18>    N       -9.61895        -3.83176         2.32316
| 19>    C       -7.71586        -1.32381         1.32699
| 20>    N       -7.16752        -0.53806         1.95990
| 21>    C       -9.26187        -3.44591        -1.46020
| 22>    C       -9.07683        -3.24408        -2.85039
| 23>    C       -9.69040        -4.02229        -3.80168
| 24>    C      -10.53794        -5.04353        -3.36127
| 25>    C      -10.71611        -5.24037        -1.97011
| 26>    C      -10.08902        -4.45863        -1.00843
| 27>    S      -11.80025        -6.55824        -1.64537
| 28>    C      -12.00018        -6.82126        -3.35758
| 29>    C      -11.29095        -5.96834        -4.13473
| 30>   Br      -13.12352        -8.19692        -3.95679
| 31>    C       -8.15381        -2.11764        -3.06836
| 32>    O       -7.65213        -1.78706        -4.11767
| 33>    C       -7.83901        -1.59326        -1.70514
| 34>    C       -6.97692        -0.56960        -1.46001
| 35>    C       -6.59606         0.38567        -2.43759
| 36>    O       -5.42354         1.06615        -2.29882
| 37>    C       -7.25892         0.89429        -3.53769
| 38>    C       -8.53242         0.86614        -4.27553
| 39>    O       -9.54567         0.24793        -4.08715
| 40>    N       -8.34620         1.81585        -5.27466
| 41>    C       -7.12919         2.49165        -5.23648
| 42>    O       -6.79813         3.36321        -5.99935
| 43>    C       -6.43589         1.89903        -4.09170
| 44>    C       -5.29798         1.96984        -3.30001
| 45>    C       -4.12910         2.77410        -3.36960
| 46>    C       -3.88546         3.62342        -4.39199
| 47>    C       -2.74597         4.50673        -4.42892
| 48>    C       -2.31361         5.12028        -3.28427
| 49>    S       -1.06475         6.26765        -3.51534
| 50>    C       -1.04948         5.91094        -5.21683
| 51>    C       -1.98856         4.93503        -5.58343
| 52>    C       -1.98532         4.44190        -6.91062
| 53>    C       -2.88130         3.28517        -7.26639
| 54>    C       -4.19502         3.75635        -7.89394
| 55>    C       -1.14691         5.00911        -7.85988
| 56>    C       -1.03755         4.43506        -9.24830
| 57>    C        0.14328         3.46353        -9.32294
| 58>    C       -0.28895         6.07763        -7.50577
| 59>    C        0.64823         6.82790        -8.30270
| 60>    C        1.39272         7.68744        -7.55815
| 61>    S        0.99803         7.69080        -5.88159
| 62>    C       -0.21410         6.48141        -6.16250
| 63>    C        0.81780         6.79748        -9.75634
| 64>    C        1.98527         6.51457       -10.32394
| 65>    S        2.26490         6.65590       -12.06112
| 66>    C        3.87059         5.93077       -12.15576
| 67>    C        4.18633         4.70381       -11.66130
| 68>    S        5.84093         4.31249       -11.91475
| 69>    C        6.10849         5.80578       -12.71912
| 70>    C        4.98563         6.56724       -12.77061
| 71>    S        4.95677         8.21517       -13.44987
| 72>    C        5.59257         9.02335       -12.02517
| 73>    S        7.25916         9.51260       -11.87030
| 74>    C        7.06275        10.09707       -10.24278
| 75>    C        5.74960         9.90738        -9.83877
| 76>    C        4.93423         9.31411       -10.85815
| 77>    N        3.69215         9.18281       -10.33296
| 78>    N        3.65668         9.63854        -9.06652
| 79>    C        4.84834        10.06917        -8.74929
| 80>    C        8.18929        10.66719        -9.56829
| 81>    C        8.17221        11.15952        -8.32961
| 82>    H       -9.52846        -3.84008        -4.85218
| 83>    H      -10.25460        -4.65173         0.03826
| 84>    H      -11.29768        -5.98865        -5.20918
| 85>    H       -6.54418        -0.42809        -0.47858
| 86>    H       -9.05796         2.02457        -5.96051
| 87>    H       -3.42008         2.64422        -2.56474
| 88>    H       -4.60656         3.69694        -5.19303
| 89>    H       -2.73188         5.00310        -2.30343
| 90>    H       -3.09276         2.70662        -6.36578
| 91>    H       -2.36958         2.61589        -7.95863
| 92>    H       -4.72678         4.43377        -7.23196
| 93>    H       -4.84168         2.90601        -8.09540
| 94>    H       -4.01265         4.28221        -8.82820
| 95>    H       -0.87866         5.23367        -9.96859
| 96>    H       -1.94944         3.91782        -9.53562
| 97>    H        1.06981         3.97551        -9.07280
| 98>    H        0.23122         3.05484       -10.32724
| 99>    H        0.01032         2.64121        -8.62321
|100>    H        2.14222         8.37088        -7.91526
|101>    H       -0.02425         7.09872       -10.36550
|102>    H        2.85168         6.21777        -9.75361
|103>    H        3.54176         4.01244       -11.15562
|104>    H        7.08160         6.05110       -13.09468
|105>    H        2.85676         8.83797       -10.77698
|106>    H        5.02899        10.46897        -7.77246
|107>    H        9.10492        10.68222       -10.14511
|108>    H        7.27942        11.16235        -7.73071
|109>    H        9.05796        11.57516        -7.88364
|110> *
|111>
|112>                          ****END OF INPUT****

CARTESIAN COORDINATES (ANGSTROEM)
---------------------------------
  C     -8.485360   -2.452000   -0.729880
  C     -8.436600   -2.318740    0.633510
  C     -9.108300   -3.168400    1.537870
  N     -9.618950   -3.831760    2.323160
  C     -7.715860   -1.323810    1.326990
  N     -7.167520   -0.538060    1.959900
  C     -9.261870   -3.445910   -1.460200
  C     -9.076830   -3.244080   -2.850390
  C     -9.690400   -4.022290   -3.801680
  C    -10.537940   -5.043530   -3.361270
  C    -10.716110   -5.240370   -1.970110
  C    -10.089020   -4.458630   -1.008430
  S    -11.800250   -6.558240   -1.645370
  C    -12.000180   -6.821260   -3.357580
  C    -11.290950   -5.968340   -4.134730
  Br   -13.123520   -8.196920   -3.956790
  C     -8.153810   -2.117640   -3.068360
  O     -7.652130   -1.787060   -4.117670
  C     -7.839010   -1.593260   -1.705140
  C     -6.976920   -0.569600   -1.460010
  C     -6.596060    0.385670   -2.437590
  O     -5.423540    1.066150   -2.298820
  C     -7.258920    0.894290   -3.537690
  C     -8.532420    0.866140   -4.275530
  O     -9.545670    0.247930   -4.087150
  N     -8.346200    1.815850   -5.274660
  C     -7.129190    2.491650   -5.236480
  O     -6.798130    3.363210   -5.999350
  C     -6.435890    1.899030   -4.091700
  C     -5.297980    1.969840   -3.300010
  C     -4.129100    2.774100   -3.369600
  C     -3.885460    3.623420   -4.391990
  C     -2.745970    4.506730   -4.428920
  C     -2.313610    5.120280   -3.284270
  S     -1.064750    6.267650   -3.515340
  C     -1.049480    5.910940   -5.216830
  C     -1.988560    4.935030   -5.583430
  C     -1.985320    4.441900   -6.910620
  C     -2.881300    3.285170   -7.266390
  C     -4.195020    3.756350   -7.893940
  C     -1.146910    5.009110   -7.859880
  C     -1.037550    4.435060   -9.248300
  C      0.143280    3.463530   -9.322940
  C     -0.288950    6.077630   -7.505770
  C      0.648230    6.827900   -8.302700
  C      1.392720    7.687440   -7.558150
  S      0.998030    7.690800   -5.881590
  C     -0.214100    6.481410   -6.162500
  C      0.817800    6.797480   -9.756340
  C      1.985270    6.514570  -10.323940
  S      2.264900    6.655900  -12.061120
  C      3.870590    5.930770  -12.155760
  C      4.186330    4.703810  -11.661300
  S      5.840930    4.312490  -11.914750
  C      6.108490    5.805780  -12.719120
  C      4.985630    6.567240  -12.770610
  S      4.956770    8.215170  -13.449870
  C      5.592570    9.023350  -12.025170
  S      7.259160    9.512600  -11.870300
  C      7.062750   10.097070  -10.242780
  C      5.749600    9.907380   -9.838770
  C      4.934230    9.314110  -10.858150
  N      3.692150    9.182810  -10.332960
  N      3.656680    9.638540   -9.066520
  C      4.848340   10.069170   -8.749290
  C      8.189290   10.667190   -9.568290
  C      8.172210   11.159520   -8.329610
  H     -9.528460   -3.840080   -4.852180
  H    -10.254600   -4.651730    0.038260
  H    -11.297680   -5.988650   -5.209180
  H     -6.544180   -0.428090   -0.478580
  H     -9.057960    2.024570   -5.960510
  H     -3.420080    2.644220   -2.564740
  H     -4.606560    3.696940   -5.193030
  H     -2.731880    5.003100   -2.303430
  H     -3.092760    2.706620   -6.365780
  H     -2.369580    2.615890   -7.958630
  H     -4.726780    4.433770   -7.231960
  H     -4.841680    2.906010   -8.095400
  H     -4.012650    4.282210   -8.828200
  H     -0.878660    5.233670   -9.968590
  H     -1.949440    3.917820   -9.535620
  H      1.069810    3.975510   -9.072800
  H      0.231220    3.054840  -10.327240
  H      0.010320    2.641210   -8.623210
  H      2.142220    8.370880   -7.915260
  H     -0.024250    7.098720  -10.365500
  H      2.851680    6.217770   -9.753610
  H      3.541760    4.012440  -11.155620
  H      7.081600    6.051100  -13.094680
  H      2.856760    8.837970  -10.776980
  H      5.028990   10.468970   -7.772460
  H      9.104920   10.682220  -10.145110
  H      7.279420   11.162350   -7.730710
  H      9.057960   11.575160   -7.883640

 Total Charge           Charge          ....    0
 Multiplicity           Mult            ....    1
 Number of Electrons    NEL             ....  542
 Basis Dimension        Dim             .... 1124

ORBITAL ENERGIES
----------------

  NO   OCC          E(Eh)            E(eV)
   0   2.0000    -482.886004    -13139.9962
   1   2.0000     -88.976062     -2421.1617
   2   2.0000     -88.968526     -2420.9567
   3   2.0000     -88.964704     -2420.8527
   4   2.0000     -88.955073     -2420.5906
   5   2.0000     -88.944248     -2420.2960
   6   2.0000     -88.944189     -2420.2944
   7   2.0000     -88.941238     -2420.2141
   8   2.0000     -62.563745     -1702.4461
   9   2.0000     -56.397697     -1534.6594
  10   2.0000     -56.394974     -1534.5853
  11   2.0000     -56.394948     -1534.5845
  12   2.0000     -19.317207      -525.6479
  13   2.0000     -19.218681      -522.9669
  14   2.0000     -19.216719      -522.9135
  15   2.0000     -19.216326      -522.9028
  16   2.0000     -14.472585      -393.8191
  17   2.0000     -14.459472      -393.4622
  18   2.0000     -14.440535      -392.9469
  19   2.0000     -14.418119      -392.3370
  20   2.0000     -14.416867      -392.3029
  21   2.0000     -10.406496      -283.1751
  22   2.0000     -10.404412      -283.1184
  23   2.0000     -10.372712      -282.2558
  24   2.0000     -10.369046      -282.1561
  25   2.0000     -10.361729      -281.9570
  26   2.0000     -10.359526      -281.8970
  27   2.0000     -10.345101      -281.5045
  28   2.0000     -10.343813      -281.4695
  29   2.0000     -10.326318      -280.9934
  30   2.0000     -10.324480      -280.9434
  31   2.0000     -10.320567      -280.8369
  32   2.0000     -10.319494      -280.8077
  33   2.0000     -10.312891      -280.6280
  34   2.0000     -10.311295      -280.5846
  35   2.0000     -10.310034      -280.5503
  36   2.0000     -10.309471      -280.5350
  37   2.0000     -10.308624      -280.5119
  38   2.0000     -10.308301      -280.5031
  39   2.0000     -10.306447      -280.4527
  40   2.0000     -10.306243      -280.4471
  41   2.0000     -10.305205      -280.4189
  42   2.0000     -10.305056      -280.4148
  43   2.0000     -10.304409      -280.3972
  44   2.0000     -10.303354      -280.3685
  45   2.0000     -10.300996      -280.3043
  46   2.0000     -10.300895      -280.3016
  47   2.0000     -10.300028      -280.2780
  48   2.0000     -10.299681      -280.2686
  49   2.0000     -10.297495      -280.2091
  50   2.0000     -10.297457      -280.2080
  51   2.0000     -10.296950      -280.1942
  52   2.0000     -10.293859      -280.1102
  53   2.0000     -10.293424      -280.0983
  54   2.0000     -10.292589      -280.0756
  55   2.0000     -10.291443      -280.0444
  56   2.0000     -10.286597      -279.9125
  57   2.0000     -10.285540      -279.8838
  58   2.0000     -10.282248      -279.7942
  59   2.0000     -10.280191      -279.7382
  60   2.0000     -10.278082      -279.6808
  61   2.0000     -10.277483      -279.6645
  62   2.0000     -10.275737      -279.6170
  63   2.0000     -10.273962      -279.5687
  64   2.0000     -10.271124      -279.4915
  65   2.0000     -10.270806      -279.4828
  66   2.0000     -10.270697      -279.4799
  67   2.0000     -10.260913      -279.2136
  68   2.0000     -10.260639      -279.2062
  69   2.0000     -10.253577      -279.0140
  70   2.0000     -10.246442      -278.8199
  71   2.0000      -8.793195      -239.2750
  72   2.0000      -8.072013      -219.6507
  73   2.0000      -8.064683      -219.4512
  74   2.0000      -8.059485      -219.3097
  75   2.0000      -8.051236      -219.0853
  76   2.0000      -8.040438      -218.7914
  77   2.0000      -8.039347      -218.7618
  78   2.0000      -8.035299      -218.6516
  79   2.0000      -6.629520      -180.3984
  80   2.0000      -6.614932      -180.0014
  81   2.0000      -6.614703      -179.9952
  82   2.0000      -6.041714      -164.4034
  83   2.0000      -6.037421      -164.2866
  84   2.0000      -6.033845      -164.1893
  85   2.0000      -6.033240      -164.1728
  86   2.0000      -6.029577      -164.0731
  87   2.0000      -6.028710      -164.0496
  88   2.0000      -6.027096      -164.0056
  89   2.0000      -6.024493      -163.9348
  90   2.0000      -6.021974      -163.8663
  91   2.0000      -6.020652      -163.8303
  92   2.0000      -6.016447      -163.7158
  93   2.0000      -6.013052      -163.6235
  94   2.0000      -6.009943      -163.5389
  95   2.0000      -6.009633      -163.5304
  96   2.0000      -6.006104      -163.4344
  97   2.0000      -6.005696      -163.4233
  98   2.0000      -6.005573      -163.4200
  99   2.0000      -6.002133      -163.3263
 100   2.0000      -6.002053      -163.3242
 101   2.0000      -5.999364      -163.2510
 102   2.0000      -5.994448      -163.1172
 103   2.0000      -2.745342       -74.7046
 104   2.0000      -2.741295       -74.5944
 105   2.0000      -2.741174       -74.5911
 106   2.0000      -2.729546       -74.2747
 107   2.0000      -2.729530       -74.2743
 108   2.0000      -1.233704       -33.5708
 109   2.0000      -1.162086       -31.6220
 110   2.0000      -1.142539       -31.0901
 111   2.0000      -1.139557       -31.0089
 112   2.0000      -1.131906       -30.8007
 113   2.0000      -1.048606       -28.5340
 114   2.0000      -1.024053       -27.8659
 115   2.0000      -1.014797       -27.6140
 116   2.0000      -1.001238       -27.2451
 117   2.0000      -1.000420       -27.2228
 118   2.0000      -0.996028       -27.1033
 119   2.0000      -0.991217       -26.9724
 120   2.0000      -0.983199       -26.7542
 121   2.0000      -0.970795       -26.4167
 122   2.0000      -0.947577       -25.7849
 123   2.0000      -0.933274       -25.3957
 124   2.0000      -0.929557       -25.2945
 125   2.0000      -0.925200       -25.1760
 126   2.0000      -0.922440       -25.1009
 127   2.0000      -0.918887       -25.0042
 128   2.0000      -0.909630       -24.7523
 129   2.0000      -0.903594       -24.5880
 130   2.0000      -0.894653       -24.3447
 131   2.0000      -0.886551       -24.1243
 132   2.0000      -0.880733       -23.9660
 133   2.0000      -0.874925       -23.8079
 134   2.0000      -0.870812       -23.6960
 135   2.0000      -0.860434       -23.4136
 136   2.0000      -0.851429       -23.1686
 137   2.0000      -0.845196       -22.9990
 138   2.0000      -0.843102       -22.9420
 139   2.0000      -0.830010       -22.5857
 140   2.0000      -0.821242       -22.3471
 141   2.0000      -0.813569       -22.1383
 142   2.0000      -0.810158       -22.0455
 143   2.0000      -0.794120       -21.6091
 144   2.0000      -0.784586       -21.3497
 145   2.0000      -0.777490       -21.1566
 146   2.0000      -0.768912       -20.9232
 147   2.0000      -0.765949       -20.8425
 148   2.0000      -0.762841       -20.7580
 149   2.0000      -0.759746       -20.6737
 150   2.0000      -0.755627       -20.5616
 151   2.0000      -0.721711       -19.6387
 152   2.0000      -0.717390       -19.5212
 153   2.0000      -0.708947       -19.2914
 154   2.0000      -0.703173       -19.1343
 155   2.0000      -0.700788       -19.0694
 156   2.0000      -0.696091       -18.9416
 157   2.0000      -0.691402       -18.8140
 158   2.0000      -0.690790       -18.7974
 159   2.0000      -0.689160       -18.7530
 160   2.0000      -0.686903       -18.6916
 161   2.0000      -0.675263       -18.3748
 162   2.0000      -0.671347       -18.2683
 163   2.0000      -0.659053       -17.9337
 164   2.0000      -0.657206       -17.8835
 165   2.0000      -0.643094       -17.4995
 166   2.0000      -0.630878       -17.1671
 167   2.0000      -0.630195       -17.1485
 168   2.0000      -0.625920       -17.0322
 169   2.0000      -0.622996       -16.9526
 170   2.0000      -0.615653       -16.7528
 171   2.0000      -0.611401       -16.6371
 172   2.0000      -0.606000       -16.4901
 173   2.0000      -0.605413       -16.4741
 174   2.0000      -0.600652       -16.3446
 175   2.0000      -0.595378       -16.2011
 176   2.0000      -0.593341       -16.1456
 177   2.0000      -0.590656       -16.0726
 178   2.0000      -0.585464       -15.9313
 179   2.0000      -0.576046       -15.6750
 180   2.0000      -0.572674       -15.5832
 181   2.0000      -0.566232       -15.4080
 182   2.0000      -0.553756       -15.0685
 183   2.0000      -0.549722       -14.9587
 184   2.0000      -0.549289       -14.9469
 185   2.0000      -0.546112       -14.8605
 186   2.0000      -0.545141       -14.8341
 187   2.0000      -0.542504       -14.7623
 188   2.0000      -0.540557       -14.7093
 189   2.0000      -0.539044       -14.6681
 190   2.0000      -0.536207       -14.5909
 191   2.0000      -0.531143       -14.4531
 192   2.0000      -0.528223       -14.3737
 193   2.0000      -0.525507       -14.2998
 194   2.0000      -0.524329       -14.2677
 195   2.0000      -0.522729       -14.2242
 196   2.0000      -0.520966       -14.1762
 197   2.0000      -0.518845       -14.1185
 198   2.0000      -0.514445       -13.9988
 199   2.0000      -0.511165       -13.9095
 200   2.0000      -0.510377       -13.8881
 201   2.0000      -0.507363       -13.8060
 202   2.0000      -0.504127       -13.7180
 203   2.0000      -0.501051       -13.6343
 204   2.0000      -0.495762       -13.4904
 205   2.0000      -0.494969       -13.4688
 206   2.0000      -0.494581       -13.4582
 207   2.0000      -0.490341       -13.3429
 208   2.0000      -0.487076       -13.2540
 209   2.0000      -0.486365       -13.2347
 210   2.0000      -0.484447       -13.1825
 211   2.0000      -0.481138       -13.0924
 212   2.0000      -0.481036       -13.0897
 213   2.0000      -0.478270       -13.0144
 214   2.0000      -0.474626       -12.9152
 215   2.0000      -0.469819       -12.7844
 216   2.0000      -0.467361       -12.7175
 217   2.0000      -0.460407       -12.5283
 218   2.0000      -0.458729       -12.4826
 219   2.0000      -0.456978       -12.4350
 220   2.0000      -0.453320       -12.3355
 221   2.0000      -0.450628       -12.2622
 222   2.0000      -0.450513       -12.2591
 223   2.0000      -0.448192       -12.1959
 224   2.0000      -0.446915       -12.1612
 225   2.0000      -0.445502       -12.1227
 226   2.0000      -0.441711       -12.0196
 227   2.0000      -0.440523       -11.9872
 228   2.0000      -0.440031       -11.9739
 229   2.0000      -0.439254       -11.9527
 230   2.0000      -0.434552       -11.8248
 231   2.0000      -0.430410       -11.7121
 232   2.0000      -0.429221       -11.6797
 233   2.0000      -0.427044       -11.6205
 234   2.0000      -0.426239       -11.5986
 235   2.0000      -0.424463       -11.5502
 236   2.0000      -0.419715       -11.4210
 237   2.0000      -0.419541       -11.4163
 238   2.0000      -0.417369       -11.3572
 239   2.0000      -0.411252       -11.1907
 240   2.0000      -0.409785       -11.1508
 241   2.0000      -0.405752       -11.0411
 242   2.0000      -0.401006       -10.9119
 243   2.0000      -0.395292       -10.7564
 244   2.0000      -0.388941       -10.5836
 245   2.0000      -0.385629       -10.4935
 246   2.0000      -0.383177       -10.4268
 247   2.0000      -0.382140       -10.3985
 248   2.0000      -0.376817       -10.2537
 249   2.0000      -0.375535       -10.2188
 250   2.0000      -0.375316       -10.2129
 251   2.0000      -0.371812       -10.1175
 252   2.0000      -0.366680        -9.9779
 253   2.0000      -0.364474        -9.9178
 254   2.0000      -0.354995        -9.6599
 255   2.0000      -0.350985        -9.5508
 256   2.0000      -0.345171        -9.3926
 257   2.0000      -0.343676        -9.3519
 258   2.0000      -0.339747        -9.2450
 259   2.0000      -0.330927        -9.0050
 260   2.0000      -0.323805        -8.8112
 261   2.0000      -0.320767        -8.7285
 262   2.0000      -0.316175        -8.6036
 263   2.0000      -0.315355        -8.5812
 264   2.0000      -0.314183        -8.5494
 265   2.0000      -0.294967        -8.0265
 266   2.0000      -0.286133        -7.7861
 267   2.0000      -0.282180        -7.6785
 268   2.0000      -0.261683        -7.1208
 269   2.0000      -0.257300        -7.0015
 270   2.0000      -0.255279        -6.9465
 271   0.0000      -0.099883        -2.7179
 272   0.0000      -0.062937        -1.7126
 273   0.0000      -0.049375        -1.3436
 274   0.0000      -0.037607        -1.0233
 275   0.0000      -0.016463        -0.4480

MULLIKEN ATOMIC CHARGES
-----------------------
   0 C :    0.305282
   1 C :   -0.345780
   2 C :   -0.184482
   3 N :    0.152384
   4 C :   -0.191624
   5 N :    0.156976
   6 C :    0.023512
   7 C :   -0.013432
   8 C :   -0.062779
   9 C :    0.118168
  10 C :   -0.088926
  11 C :   -0.024239
  12 S :    0.187507
  13 C :   -0.123406
  14 C :    0.037872
  15 Br:    0.024847
  16 C :    0.157136
  17 O :   -0.146929
  18 C :   -0.077043
  19 C :   -0.033451
  20 C :    0.108927
  21 O :   -0.189848
  22 C :   -0.010071
  23 C :    0.181086
  24 O :   -0.140797
  25 N :   -0.155929
  26 C :    0.189904
  27 O :   -0.152604
  28 C :   -0.101643
  29 C :    0.144645
  30 C :   -0.025237
  31 C :   -0.014674
  32 C :    0.049459
  33 C :   -0.107613
  34 S :    0.139442
  35 C :   -0.152959
  36 C :    0.125464
  37 C :   -0.129668
  38 C :    0.012269
  39 C :    0.050805
  40 C :   -0.128791
  41 C :    0.065432
  42 C :    0.043650
  43 C :    0.104892
  44 C :    0.029598
  45 C :   -0.098485
  46 S :    0.115880
  47 C :   -0.136989
  48 C :   -0.002182
  49 C :   -0.119904
  50 S :    0.050776
  51 C :   -0.021622
  52 C :   -0.111058
  53 S :    0.133202
  54 C :   -0.082926
  55 C :   -0.038979
  56 S :    0.084434
  57 C :   -0.343028
  58 S :    0.155095
  59 C :   -0.146747
  60 C :    0.012937
  61 C :    0.211721
  62 N :   -0.043957
  63 N :   -0.056873
  64 C :    0.007285
  65 C :    0.045436
  66 C :   -0.018369
  67 H :   -0.008593
  68 H :   -0.006202
  69 H :   -0.001245
  70 H :    0.034501
  71 H :    0.139872
  72 H :   -0.006727
  73 H :    0.037564
  74 H :    0.024391
  75 H :    0.004538
  76 H :   -0.000308
  77 H :    0.029981
  78 H :    0.014225
  79 H :    0.000895
  80 H :   -0.009304
  81 H :   -0.002185
  82 H :    0.008620
  83 H :    0.011766
  84 H :    0.005723
  85 H :    0.002623
  86 H :    0.031115
  87 H :    0.052454
  88 H :    0.032826
  89 H :    0.028637
  90 H :    0.145018
  91 H :   -0.000340
  92 H :   -0.014129
  93 H :    0.012442
  94 H :    0.028861
Sum of atomic charges:   -0.0000000

LOEWDIN ATOMIC CHARGES
----------------------
   0 C :    0.074361
   1 C :   -0.135490
   2 C :   -0.017915
   3 N :   -0.050250
   4 C :   -0.021272
   5 N :   -0.048294
   6 C :   -0.019254
   7 C :   -0.044929
   8 C :    0.026234
   9 C :   -0.030770
  10 C :   -0.142577
  11 C :   -0.009798
  12 S :    0.433438
  13 C :   -0.270840
  14 C :   -0.070028
  15 Br:    0.138249
  16 C :    0.088833
  17 O :   -0.133940
  18 C :   -0.071907
  19 C :    0.047716
  20 C :    0.040739
  21 O :    0.025629
  22 C :   -0.049227
  23 C :    0.090485
  24 O :   -0.146632
  25 N :    0.001648
  26 C :    0.091478
  27 O :   -0.156206
  28 C :   -0.111836
  29 C :    0.091116
  30 C :   -0.061767
  31 C :    0.039360
  32 C :   -0.068407
  33 C :   -0.158931
  34 S :    0.426659
  35 C :   -0.177517
  36 C :   -0.042410
  37 C :   -0.021103
  38 C :   -0.032705
  39 C :   -0.048472
  40 C :   -0.018510
  41 C :   -0.028536
  42 C :   -0.047500
  43 C :   -0.041020
  44 C :   -0.072146
  45 C :   -0.158135
  46 S :    0.405931
  47 C :   -0.180616
  48 C :   -0.053669
  49 C :   -0.163416
  50 S :    0.334207
  51 C :   -0.219372
  52 C :   -0.197951
  53 S :    0.459068
  54 C :   -0.182989
  55 C :   -0.219260
  56 S :    0.309695
  57 C :   -0.396020
  58 S :    0.456560
  59 C :   -0.170290
  60 C :   -0.093877
  61 C :   -0.028634
  62 N :    0.086089
  63 N :   -0.043023
  64 C :   -0.036652
  65 C :   -0.042254
  66 C :   -0.038128
  67 H :    0.042004
  68 H :    0.040981
  69 H :    0.039455
  70 H :    0.052045
  71 H :    0.096287
  72 H :    0.037899
  73 H :    0.039095
  74 H :    0.024480
  75 H :    0.027346
  76 H :    0.025867
  77 H :    0.024384
  78 H :    0.024019
  79 H :    0.020267
  80 H :    0.027883
  81 H :    0.024692
  82 H :    0.021510
  83 H :    0.022863
  84 H :    0.022011
  85 H :    0.014882
  86 H :    0.029415
  87 H :    0.026997
  88 H :    0.027139
  89 H :    0.026427
  90 H :    0.068144
  91 H :    0.020577
  92 H :    0.029318
  93 H :    0.022764
  94 H :    0.028231

  Mayer bond orders larger than 0.100000
B(  0-C ,  1-C ) :   1.6380 B(  0-C ,  6-C ) :   1.0115 B(  0-C , 18-C ) :   1.0766
B(  1-C ,  2-C ) :   1.1415 B(  1-C ,  4-C ) :   1.1417 B(  2-C ,  3-N ) :   2.9696
B(  4-C ,  5-N ) :   2.9775 B(  6-C ,  7-C ) :   1.2737 B(  6-C , 11-C ) :   1.4035
B(  7-C ,  8-C ) :   1.4248 B(  7-C , 16-C ) :   0.9414 B(  8-C ,  9-C ) :   1.2498
B(  8-C , 67-H ) :   1.0158 B(  9-C , 10-C ) :   1.3007 B(  9-C , 14-C ) :   1.1630
B( 10-C , 11-C ) :   1.3377 B( 10-C , 12-S ) :   1.0860 B( 11-C , 68-H ) :   0.9794
B( 12-S , 13-C ) :   1.0860 B( 13-C , 14-C ) :   1.6175 B( 13-C , 15-Br) :   1.0193
B( 14-C , 69-H ) :   1.0001 B( 16-C , 17-O ) :   2.2234 B( 16-C , 18-C ) :   0.9275
B( 18-C , 19-C ) :   1.6108 B( 19-C , 20-C ) :   1.1589 B( 19-C , 70-H ) :   0.9348
B( 20-C , 21-O ) :   1.1189 B( 20-C , 22-C ) :   1.4382 B( 21-O , 29-C ) :   1.1741
B( 22-C , 23-C ) :   0.8650 B( 22-C , 28-C ) :   1.3230 B( 23-C , 24-O ) :   2.2387
B( 23-C , 25-N ) :   1.0889 B( 25-N , 26-C ) :   1.0941 B( 25-N , 71-H ) :   0.9156
B( 26-C , 27-O ) :   2.1744 B( 26-C , 28-C ) :   0.8907 B( 28-C , 29-C ) :   1.3726
B( 29-C , 30-C ) :   1.1512 B( 30-C , 31-C ) :   1.6823 B( 30-C , 72-H ) :   0.9682
B( 31-C , 32-C ) :   1.0380 B( 31-C , 73-H ) :   0.9390 B( 32-C , 33-C ) :   1.5895
B( 32-C , 36-C ) :   1.1416 B( 33-C , 34-S ) :   1.1372 B( 33-C , 74-H ) :   0.9630
B( 34-S , 35-C ) :   1.0695 B( 35-C , 36-C ) :   1.3743 B( 35-C , 47-C ) :   1.3781
B( 36-C , 37-C ) :   1.2719 B( 37-C , 38-C ) :   1.0617 B( 37-C , 40-C ) :   1.5042
B( 38-C , 39-C ) :   1.1147 B( 38-C , 75-H ) :   0.9164 B( 38-C , 76-H ) :   0.9086
B( 39-C , 77-H ) :   0.9549 B( 39-C , 78-H ) :   0.9658 B( 39-C , 79-H ) :   0.9570
B( 40-C , 41-C ) :   1.0850 B( 40-C , 43-C ) :   1.2615 B( 41-C , 42-C ) :   1.1137
B( 41-C , 80-H ) :   0.9046 B( 41-C , 81-H ) :   0.9074 B( 42-C , 82-H ) :   0.9640
B( 42-C , 83-H ) :   0.9672 B( 42-C , 84-H ) :   0.9593 B( 43-C , 44-C ) :   1.1570
B( 43-C , 47-C ) :   1.3701 B( 44-C , 45-C ) :   1.6377 B( 44-C , 48-C ) :   1.0096
B( 45-C , 46-S ) :   1.1107 B( 45-C , 85-H ) :   0.9439 B( 46-S , 47-C ) :   1.0785
B( 48-C , 49-C ) :   1.8601 B( 48-C , 86-H ) :   0.9379 B( 49-C , 50-S ) :   1.0062
B( 49-C , 87-H ) :   0.9446 B( 50-S , 51-C ) :   1.0020 B( 51-C , 52-C ) :   1.5739
B( 51-C , 55-C ) :   1.2753 B( 52-C , 53-S ) :   1.1839 B( 52-C , 88-H ) :   0.9713
B( 53-S , 54-C ) :   1.1949 B( 54-C , 55-C ) :   1.5839 B( 54-C , 89-H ) :   0.9677
B( 55-C , 56-S ) :   0.9922 B( 56-S , 57-C ) :   1.0452 B( 57-C , 58-S ) :   1.0968
B( 57-C , 59-C ) :   0.1062 B( 57-C , 61-C ) :   1.4259 B( 58-S , 59-C ) :   1.1877
B( 59-C , 60-C ) :   1.3563 B( 59-C , 65-C ) :   1.1221 B( 60-C , 61-C ) :   1.2519
B( 60-C , 64-C ) :   1.1366 B( 61-C , 62-N ) :   1.1514 B( 62-N , 63-N ) :   1.1361
B( 62-N , 90-H ) :   0.9274 B( 63-N , 64-C ) :   1.7168 B( 63-N , 85-H ) :   0.1162
B( 64-C , 91-H ) :   0.9976 B( 65-C , 66-C ) :   1.9261 B( 65-C , 92-H ) :   0.9516
B( 66-C , 93-H ) :   0.9547 B( 66-C , 94-H ) :   0.9477

-----------------------------------------------------------------------------
         ABSORPTION SPECTRUM VIA TRANSITION ELECTRIC DIPOLE MOMENTS
-----------------------------------------------------------------------------
State   Energy  Wavelength   fosc         T2         TX        TY        TZ
        (cm-1)    (nm)                  (au**2)     (au)      (au)      (au)
-----------------------------------------------------------------------------
   0   19382.3    515.9   0.864091892  14.67677  -1.95071  -2.85118   1.65598
   1   25128.2    398.0   0.068200695   0.89352  -0.79889  -0.46150  -0.20568
   2   25454.9    392.9   0.032914541   0.42569   0.40085   0.36211   0.36590
   3   25951.6    385.3   0.080673480   1.02339  -0.43387  -0.68423  -0.60578
   4   27031.2    369.9   0.085782164   1.04474  -0.26836  -0.22340  -0.96063
   5   27843.4    359.2   0.278634770   3.29449   1.61485   0.82300  -0.09709
   6   28216.6    354.4   0.002399891   0.02800   0.13563   0.09522   0.02320
   7   28533.2    350.5   0.023440993   0.27046   0.02947  -0.00207   0.51922
   8   29037.5    344.4   0.637114729   7.22327  -1.60593  -2.14633   0.19369
   9   30487.5    328.0   0.473871285   5.11699  -1.38284  -1.18038  -1.34590
  10   31430.5    318.2   0.005641496   0.05909  -0.06145  -0.07888  -0.22157
  11   32143.7    311.1   0.000810295   0.00830  -0.00660  -0.07206   0.05534
  12   32208.8    310.5   0.059921580   0.61247  -0.43802  -0.33437  -0.55570
  13   32610.1    306.7   0.475455064   4.79991  -0.92912  -1.33813  -1.46494
  14   32954.9    303.4   0.094568379   0.94472  -0.48822  -0.58873  -0.59980
  15   34039.4    293.8   0.046464121   0.44938   0.44049   0.39271   0.31800
  16   34433.8    290.4   0.148105079   1.41599   1.04169   0.54885  -0.17217
  17   35017.6    285.6   0.000238227   0.00224   0.03349   0.03311  -0.00465
  18   35517.5    281.6   0.002534551   0.02349  -0.09433   0.00269   0.12078
  19   36007.1    277.7   0.032114986   0.29363  -0.09971  -0.48478  -0.22062
  20   36702.0    272.5   0.000144944   0.00130   0.00761   0.03265   0.01327
  21   37153.2    269.2   0.183007419   1.62161  -0.35603  -0.70189   1.00110
  22   37187.0    268.9   0.017025167   0.15072   0.37827   0.06231   0.06122
  23   37390.3    267.4   0.000528797   0.00466   0.02859   0.04887  -0.03808
  24   37981.3    263.3   0.011048491   0.09577   0.03267  -0.05886  -0.30205
  25   38391.3    260.5   0.003839728   0.03293   0.15317   0.09530   0.01957
  26   38606.3    259.0   0.124458914   1.06131   0.41611   0.53175   0.77808
  27   38787.5    257.8   0.144339581   1.22509   0.37090   0.62357  -0.83588
  28   39260.9    254.7   0.179414574   1.50443  -0.17664  -0.28039  -1.18094
  29   39542.1    252.9   0.121373869   1.01051   0.71966   0.61516  -0.33791
  30   40146.5    249.1   0.005252095   0.04307   0.01529   0.09380   0.18449
  31   40261.4    248.4   0.028771599   0.23526   0.45392   0.08749  -0.14684

FINAL SINGLE POINT ENERGY     -7854.068176663652

DIPOLE MOMENT
-------------
                                X             Y             Z
Electronic contribution:   -143.00240    -145.77017      52.83829
Nuclear contribution   :    144.46511     145.51222     -55.10985
                        -----------------------------------------
Total Dipole Moment    :      1.46271      -0.25795      -2.27155
                        -----------------------------------------
Magnitude (a.u.)       :      2.71404
Magnitude (Debye)      :      6.89854

Rotational constants in cm-1:     0.002034     0.000186     0.000177
Rotational constants in MHz :    60.970596     5.582170     5.294137

                             ****ORCA TERMINATED NORMALLY****
TOTAL RUN TIME: 0 days 0 hours 9 minutes 18 seconds 514 msec
