                         Program Version 4.2.0 -  RELEASE  -
|  1> # ORCA input file
|  2> # SCF done       -192.050977442403          0.000629246873
|  3> ! CAM-B3LYP def2-SVP def2/J RIJCOSX Grid4 TightSCF
|  4> %maxcore 5000
|  5> %tddft
|  6>     Mode sTDDFT
|  7>     Ethresh 5.0
|  8>     maxcore 5000
|  9> end
| 10>
| 11> %pal
| 12>   nprocs 6
| 13>   end
| 14> * xyz 0 1
| 15>    C       -8.63372         0.30392        -0.89063
| 16>    C       -8.10535        -0.89945        -1.26078
| 17>    C       -8.86913        -2.06389        -1.49820
| 18>    N       -9.43895        -3.03753        -1.70677
| 19>    C       -6.72927        -1.14903        -1.46175
| 20>    N       -5.63156        -1.42934        -1.64294
| 21>    C      -10.04346         0.59676        -0.67792
| 22>    C      -10.19111         1.96099        -0.31862
| 23>    C      -11.41482         2.52914        -0.05570
| 24>    C      -12.54791         1.71562        -0.14857
| 25>    C      -12.39213         0.35390        -0.50825
| 26>    C      -11.15724        -0.22075        -0.77522
| 27>    S      -13.92077        -0.46967        -0.56754
| 28>    C      -14.73678         1.00350        -0.11544
| 29>    C      -13.90916         2.05975         0.07133
| 30>   Br      -16.60234         1.00926         0.06583
| 31>    C       -8.86905         2.61170        -0.29297
| 32>    O       -8.62633         3.77533        -0.07973
| 33>    C       -7.88794         1.53424        -0.62722
| 34>    C       -6.56618         1.75471        -0.65915
| 35>    C       -6.00570         3.06911        -0.29184
| 36>    N       -5.90050         3.32150         1.00845
| 37>    C       -5.42927         4.51491         1.33450
| 38>    C       -5.06832         5.45820         0.39174
| 39>    C       -5.17768         5.08160        -0.95286
| 40>    N       -5.63457         3.86615        -1.27553
| 41>    C       -4.81874         5.92311        -2.07402
| 42>    C       -4.59842         7.24634        -1.99735
| 43>    C       -4.27054         8.12184        -3.09608
| 44>    C       -4.42675         9.51929        -2.92688
| 45>    O       -4.88193         9.93462        -1.71277
| 46>    C       -5.06287        11.31202        -1.49115
| 47>    C       -4.13601        10.36016        -3.97937
| 48>    C       -3.65778         9.89486        -5.21654
| 49>    C       -3.47600         8.49370        -5.37227
| 50>    C       -3.79455         7.65111        -4.31972
| 51>    O       -3.00478         8.05520        -6.56012
| 52>    C       -2.82264         6.66928        -6.79561
| 53>    C       -2.29576         6.51990        -8.21483
| 54>    C       -3.40323        10.87201        -6.22737
| 55>    C       -2.84434        10.69306        -7.45764
| 56>    C       -2.66989        11.74088        -8.37492
| 57>    C       -2.07652        11.58942        -9.60460
| 58>    C       -1.88507        12.58179       -10.59424
| 59>    C       -1.25230        12.13772       -11.71659
| 60>    C       -0.90195        10.76989       -11.66997
| 61>    S       -1.41580        10.05866       -10.16407
| 62>    C       -0.22977        10.03749       -12.63587
| 63>    C        0.23974        10.48308       -13.88687
| 64>    C        0.88800         9.51923       -14.60490
| 65>    C        0.96648         8.26988       -13.95353
| 66>    S        0.16798         8.34838       -12.40342
| 67>    C        1.57857         7.12851       -14.44083
| 68>    C        1.67603         5.94261       -13.72744
| 69>    C        2.26328         4.75757       -14.12509
| 70>    C        2.69395         4.28488       -15.40956
| 71>    C        2.19901         4.65000       -16.64211
| 72>    C        2.65492         4.11590       -17.86165
| 73>    N        3.00441         3.73328       -18.88736
| 74>    C        1.10314         5.51248       -16.83519
| 75>    N        0.18659         6.16892       -17.05707
| 76>    C        3.61541         3.17089       -15.17851
| 77>    C        3.58847         2.84189       -13.80067
| 78>    C        2.68967         3.78510       -13.09872
| 79>    O        2.39812         3.78662       -11.92059
| 80>    C        4.33010         1.81504       -13.27263
| 81>    C        5.14853         1.08550       -14.14329
| 82>    C        5.17718         1.42986       -15.51372
| 83>    C        4.41733         2.46338       -16.05110
| 84>    S        6.26609         0.41079       -16.40675
| 85>    C        6.66040        -0.45379       -14.94475
| 86>    C        6.01215        -0.00477       -13.84474
| 87>   Br        7.89466        -1.86583       -15.00916
| 88>    H      -11.49319         3.57061         0.21423
| 89>    H      -11.09120        -1.26156        -1.04478
| 90>    H      -14.24375         3.04159         0.35234
| 91>    H       -5.85454         0.99058        -0.93759
| 92>    H       -5.34509         4.70747         2.39653
| 93>    H       -4.70055         6.42710         0.68340
| 94>    H       -4.79833         5.40030        -3.01919
| 95>    H       -4.71189         7.75259        -1.04945
| 96>    H       -5.41917        11.39874        -0.46586
| 97>    H       -5.81171        11.73310        -2.16918
| 98>    H       -4.12300        11.86348        -1.59493
| 99>    H       -4.26532        11.42572        -3.87200
|100>    H       -3.65626         6.58850        -4.42693
|101>    H       -3.77868         6.14033        -6.68580
|102>    H       -2.10233         6.25637        -6.07707
|103>    H       -3.00686         6.93573        -8.92338
|104>    H       -2.14082         5.46966        -8.44184
|105>    H       -1.35222         7.04790        -8.32288
|106>    H       -3.69136        11.88339        -5.96052
|107>    H       -2.51032         9.71483        -7.76356
|108>    H       -3.02371        12.73017        -8.11244
|109>    H       -2.22214        13.59274       -10.44632
|110>    H       -1.02557        12.75432       -12.56738
|111>    H        0.09311        11.49228       -14.22699
|112>    H        1.30980         9.66736       -15.58282
|113>    H        2.03123         7.20980       -15.41813
|114>    H        1.34346         5.95596       -12.69328
|115>    H        4.28483         1.58120       -12.22051
|116>    H        4.47615         2.69097       -17.10247
|117>    H        6.13675        -0.42188       -12.86207
|118> *
|119>
|120>                          ****END OF INPUT****

CARTESIAN COORDINATES (ANGSTROEM)
---------------------------------
  C     -8.633720    0.303920   -0.890630
  C     -8.105350   -0.899450   -1.260780
  C     -8.869130   -2.063890   -1.498200
  N     -9.438950   -3.037530   -1.706770
  C     -6.729270   -1.149030   -1.461750
  N     -5.631560   -1.429340   -1.642940
  C    -10.043460    0.596760   -0.677920
  C    -10.191110    1.960990   -0.318620
  C    -11.414820    2.529140   -0.055700
  C    -12.547910    1.715620   -0.148570
  C    -12.392130    0.353900   -0.508250
  C    -11.157240   -0.220750   -0.775220
  S    -13.920770   -0.469670   -0.567540
  C    -14.736780    1.003500   -0.115440
  C    -13.909160    2.059750    0.071330
  Br   -16.602340    1.009260    0.065830
  C     -8.869050    2.611700   -0.292970
  O     -8.626330    3.775330   -0.079730
  C     -7.887940    1.534240   -0.627220
  C     -6.566180    1.754710   -0.659150
  C     -6.005700    3.069110   -0.291840
  N     -5.900500    3.321500    1.008450
  C     -5.429270    4.514910    1.334500
  C     -5.068320    5.458200    0.391740
  C     -5.177680    5.081600   -0.952860
  N     -5.634570    3.866150   -1.275530
  C     -4.818740    5.923110   -2.074020
  C     -4.598420    7.246340   -1.997350
  C     -4.270540    8.121840   -3.096080
  C     -4.426750    9.519290   -2.926880
  O     -4.881930    9.934620   -1.712770
  C     -5.062870   11.312020   -1.491150
  C     -4.136010   10.360160   -3.979370
  C     -3.657780    9.894860   -5.216540
  C     -3.476000    8.493700   -5.372270
  C     -3.794550    7.651110   -4.319720
  O     -3.004780    8.055200   -6.560120
  C     -2.822640    6.669280   -6.795610
  C     -2.295760    6.519900   -8.214830
  C     -3.403230   10.872010   -6.227370
  C     -2.844340   10.693060   -7.457640
  C     -2.669890   11.740880   -8.374920
  C     -2.076520   11.589420   -9.604600
  C     -1.885070   12.581790  -10.594240
  C     -1.252300   12.137720  -11.716590
  C     -0.901950   10.769890  -11.669970
  S     -1.415800   10.058660  -10.164070
  C     -0.229770   10.037490  -12.635870
  C      0.239740   10.483080  -13.886870
  C      0.888000    9.519230  -14.604900
  C      0.966480    8.269880  -13.953530
  S      0.167980    8.348380  -12.403420
  C      1.578570    7.128510  -14.440830
  C      1.676030    5.942610  -13.727440
  C      2.263280    4.757570  -14.125090
  C      2.693950    4.284880  -15.409560
  C      2.199010    4.650000  -16.642110
  C      2.654920    4.115900  -17.861650
  N      3.004410    3.733280  -18.887360
  C      1.103140    5.512480  -16.835190
  N      0.186590    6.168920  -17.057070
  C      3.615410    3.170890  -15.178510
  C      3.588470    2.841890  -13.800670
  C      2.689670    3.785100  -13.098720
  O      2.398120    3.786620  -11.920590
  C      4.330100    1.815040  -13.272630
  C      5.148530    1.085500  -14.143290
  C      5.177180    1.429860  -15.513720
  C      4.417330    2.463380  -16.051100
  S      6.266090    0.410790  -16.406750
  C      6.660400   -0.453790  -14.944750
  C      6.012150   -0.004770  -13.844740
  Br     7.894660   -1.865830  -15.009160
  H    -11.493190    3.570610    0.214230
  H    -11.091200   -1.261560   -1.044780
  H    -14.243750    3.041590    0.352340
  H     -5.854540    0.990580   -0.937590
  H     -5.345090    4.707470    2.396530
  H     -4.700550    6.427100    0.683400
  H     -4.798330    5.400300   -3.019190
  H     -4.711890    7.752590   -1.049450
  H     -5.419170   11.398740   -0.465860
  H     -5.811710   11.733100   -2.169180
  H     -4.123000   11.863480   -1.594930
  H     -4.265320   11.425720   -3.872000
  H     -3.656260    6.588500   -4.426930
  H     -3.778680    6.140330   -6.685800
  H     -2.102330    6.256370   -6.077070
  H     -3.006860    6.935730   -8.923380
  H     -2.140820    5.469660   -8.441840
  H     -1.352220    7.047900   -8.322880
  H     -3.691360   11.883390   -5.960520
  H     -2.510320    9.714830   -7.763560
  H     -3.023710   12.730170   -8.112440
  H     -2.222140   13.592740  -10.446320
  H     -1.025570   12.754320  -12.567380
  H      0.093110   11.492280  -14.226990
  H      1.309800    9.667360  -15.582820
  H      2.031230    7.209800  -15.418130
  H      1.343460    5.955960  -12.693280
  H      4.284830    1.581200  -12.220510
  H      4.476150    2.690970  -17.102470
  H      6.136750   -0.421880  -12.862070

 Total Charge           Charge          ....    0
 Multiplicity           Mult            ....    1
 Number of Electrons    NEL             ....  580
 Basis Dimension        Dim             .... 1224

ORBITAL ENERGIES
----------------

  NO   OCC          E(Eh)            E(eV)
   0   2.0000    -482.889885    -13140.1018
   1   2.0000    -482.874112    -13139.6726
   2   2.0000     -88.980175     -2421.2737
   3   2.0000     -88.962643     -2420.7966
   4   2.0000     -88.961412     -2420.7631
   5   2.0000     -88.957377     -2420.6533
   6   2.0000     -62.567584     -1702.5505
   7   2.0000     -62.551811     -1702.1213
   8   2.0000     -56.401541     -1534.7639
   9   2.0000     -56.398814     -1534.6897
  10   2.0000     -56.398786     -1534.6890
  11   2.0000     -56.385743     -1534.3341
  12   2.0000     -56.383061     -1534.2611
  13   2.0000     -56.383022     -1534.2600
  14   2.0000     -19.257068      -524.0115
  15   2.0000     -19.256944      -524.0081
  16   2.0000     -19.221898      -523.0544
  17   2.0000     -19.192532      -522.2554
  18   2.0000     -14.421576      -392.4310
  19   2.0000     -14.420843      -392.4111
  20   2.0000     -14.407637      -392.0517
  21   2.0000     -14.405492      -391.9934
  22   2.0000     -14.395879      -391.7318
  23   2.0000     -14.393345      -391.6628
  24   2.0000     -10.371160      -282.2136
  25   2.0000     -10.364065      -282.0205
  26   2.0000     -10.350437      -281.6497
  27   2.0000     -10.347172      -281.5609
  28   2.0000     -10.346445      -281.5411
  29   2.0000     -10.344786      -281.4959
  30   2.0000     -10.344784      -281.4959
  31   2.0000     -10.343510      -281.4612
  32   2.0000     -10.340409      -281.3768
  33   2.0000     -10.334671      -281.2207
  34   2.0000     -10.334468      -281.2152
  35   2.0000     -10.332990      -281.1749
  36   2.0000     -10.331141      -281.1246
  37   2.0000     -10.327881      -281.0359
  38   2.0000     -10.324079      -280.9325
  39   2.0000     -10.323649      -280.9208
  40   2.0000     -10.322620      -280.8928
  41   2.0000     -10.320209      -280.8272
  42   2.0000     -10.319398      -280.8051
  43   2.0000     -10.319087      -280.7966
  44   2.0000     -10.318280      -280.7747
  45   2.0000     -10.318123      -280.7704
  46   2.0000     -10.314893      -280.6825
  47   2.0000     -10.314366      -280.6682
  48   2.0000     -10.313372      -280.6411
  49   2.0000     -10.311177      -280.5814
  50   2.0000     -10.309696      -280.5411
  51   2.0000     -10.306279      -280.4481
  52   2.0000     -10.304990      -280.4130
  53   2.0000     -10.304368      -280.3961
  54   2.0000     -10.301665      -280.3226
  55   2.0000     -10.301411      -280.3156
  56   2.0000     -10.301338      -280.3136
  57   2.0000     -10.300908      -280.3019
  58   2.0000     -10.299897      -280.2744
  59   2.0000     -10.297917      -280.2206
  60   2.0000     -10.297022      -280.1962
  61   2.0000     -10.294864      -280.1375
  62   2.0000     -10.294280      -280.1216
  63   2.0000     -10.294019      -280.1145
  64   2.0000     -10.292103      -280.0624
  65   2.0000     -10.291043      -280.0335
  66   2.0000     -10.290353      -280.0147
  67   2.0000     -10.288050      -279.9521
  68   2.0000     -10.287812      -279.9456
  69   2.0000     -10.286618      -279.9131
  70   2.0000     -10.284370      -279.8519
  71   2.0000     -10.284265      -279.8491
  72   2.0000     -10.283347      -279.8241
  73   2.0000     -10.283276      -279.8222
  74   2.0000     -10.281833      -279.7829
  75   2.0000     -10.280902      -279.7576
  76   2.0000     -10.277975      -279.6779
  77   2.0000     -10.275226      -279.6031
  78   2.0000     -10.274226      -279.5759
  79   2.0000     -10.270087      -279.4633
  80   2.0000     -10.265591      -279.3409
  81   2.0000      -8.797008      -239.3788
  82   2.0000      -8.781232      -238.9495
  83   2.0000      -8.076246      -219.7658
  84   2.0000      -8.058623      -219.2863
  85   2.0000      -8.057401      -219.2530
  86   2.0000      -8.053675      -219.1517
  87   2.0000      -6.633331      -180.5021
  88   2.0000      -6.618747      -180.1053
  89   2.0000      -6.618515      -180.0990
  90   2.0000      -6.617433      -180.0695
  91   2.0000      -6.602991      -179.6765
  92   2.0000      -6.602844      -179.6725
  93   2.0000      -6.045915      -164.5177
  94   2.0000      -6.041666      -164.4021
  95   2.0000      -6.037445      -164.2872
  96   2.0000      -6.028267      -164.0375
  97   2.0000      -6.027087      -164.0054
  98   2.0000      -6.024271      -163.9288
  99   2.0000      -6.023255      -163.9011
 100   2.0000      -6.022844      -163.8899
 101   2.0000      -6.019721      -163.8049
 102   2.0000      -6.019270      -163.7927
 103   2.0000      -6.018628      -163.7752
 104   2.0000      -6.014816      -163.6715
 105   2.0000      -2.749187       -74.8092
 106   2.0000      -2.745101       -74.6980
 107   2.0000      -2.744959       -74.6941
 108   2.0000      -2.733364       -74.3786
 109   2.0000      -2.733351       -74.3783
 110   2.0000      -2.733325       -74.3776
 111   2.0000      -2.729242       -74.2665
 112   2.0000      -2.729136       -74.2636
 113   2.0000      -2.717649       -73.9510
 114   2.0000      -2.717638       -73.9507
 115   2.0000      -1.163187       -31.6519
 116   2.0000      -1.161170       -31.5970
 117   2.0000      -1.137935       -30.9648
 118   2.0000      -1.106500       -30.1094
 119   2.0000      -1.082055       -29.4442
 120   2.0000      -1.027898       -27.9705
 121   2.0000      -1.018534       -27.7157
 122   2.0000      -1.010156       -27.4877
 123   2.0000      -1.005728       -27.3672
 124   2.0000      -0.999585       -27.2001
 125   2.0000      -0.994503       -27.0618
 126   2.0000      -0.994116       -27.0513
 127   2.0000      -0.987117       -26.8608
 128   2.0000      -0.979439       -26.6519
 129   2.0000      -0.973635       -26.4940
 130   2.0000      -0.970394       -26.4058
 131   2.0000      -0.966396       -26.2970
 132   2.0000      -0.947931       -25.7945
 133   2.0000      -0.928133       -25.2558
 134   2.0000      -0.925917       -25.1955
 135   2.0000      -0.918060       -24.9817
 136   2.0000      -0.913694       -24.8629
 137   2.0000      -0.906868       -24.6771
 138   2.0000      -0.897368       -24.4186
 139   2.0000      -0.891269       -24.2527
 140   2.0000      -0.891080       -24.2475
 141   2.0000      -0.885577       -24.0978
 142   2.0000      -0.873199       -23.7610
 143   2.0000      -0.869992       -23.6737
 144   2.0000      -0.869194       -23.6520
 145   2.0000      -0.860239       -23.4083
 146   2.0000      -0.859020       -23.3751
 147   2.0000      -0.846614       -23.0375
 148   2.0000      -0.837908       -22.8006
 149   2.0000      -0.835690       -22.7403
 150   2.0000      -0.834756       -22.7149
 151   2.0000      -0.833194       -22.6724
 152   2.0000      -0.818712       -22.2783
 153   2.0000      -0.812843       -22.1186
 154   2.0000      -0.793395       -21.5894
 155   2.0000      -0.784823       -21.3561
 156   2.0000      -0.782952       -21.3052
 157   2.0000      -0.768070       -20.9002
 158   2.0000      -0.763786       -20.7837
 159   2.0000      -0.750781       -20.4298
 160   2.0000      -0.741341       -20.1729
 161   2.0000      -0.736268       -20.0349
 162   2.0000      -0.734484       -19.9863
 163   2.0000      -0.723857       -19.6971
 164   2.0000      -0.710551       -19.3351
 165   2.0000      -0.703709       -19.1489
 166   2.0000      -0.697050       -18.9677
 167   2.0000      -0.695649       -18.9296
 168   2.0000      -0.683962       -18.6115
 169   2.0000      -0.681594       -18.5471
 170   2.0000      -0.678680       -18.4678
 171   2.0000      -0.670926       -18.2568
 172   2.0000      -0.664315       -18.0769
 173   2.0000      -0.662729       -18.0338
 174   2.0000      -0.656325       -17.8595
 175   2.0000      -0.651362       -17.7245
 176   2.0000      -0.644159       -17.5285
 177   2.0000      -0.636417       -17.3178
 178   2.0000      -0.635622       -17.2962
 179   2.0000      -0.628788       -17.1102
 180   2.0000      -0.627136       -17.0652
 181   2.0000      -0.621621       -16.9152
 182   2.0000      -0.615791       -16.7565
 183   2.0000      -0.612492       -16.6667
 184   2.0000      -0.611263       -16.6333
 185   2.0000      -0.608976       -16.5711
 186   2.0000      -0.605556       -16.4780
 187   2.0000      -0.600287       -16.3347
 188   2.0000      -0.594540       -16.1783
 189   2.0000      -0.586981       -15.9726
 190   2.0000      -0.583597       -15.8805
 191   2.0000      -0.578679       -15.7467
 192   2.0000      -0.578031       -15.7290
 193   2.0000      -0.572758       -15.5855
 194   2.0000      -0.567697       -15.4478
 195   2.0000      -0.565511       -15.3883
 196   2.0000      -0.554898       -15.0995
 197   2.0000      -0.552585       -15.0366
 198   2.0000      -0.545553       -14.8453
 199   2.0000      -0.544019       -14.8035
 200   2.0000      -0.541911       -14.7462
 201   2.0000      -0.540358       -14.7039
 202   2.0000      -0.534229       -14.5371
 203   2.0000      -0.531816       -14.4714
 204   2.0000      -0.531000       -14.4492
 205   2.0000      -0.527333       -14.3495
 206   2.0000      -0.525416       -14.2973
 207   2.0000      -0.524557       -14.2739
 208   2.0000      -0.519792       -14.1443
 209   2.0000      -0.515316       -14.0225
 210   2.0000      -0.514995       -14.0137
 211   2.0000      -0.513310       -13.9679
 212   2.0000      -0.511815       -13.9272
 213   2.0000      -0.510841       -13.9007
 214   2.0000      -0.510116       -13.8810
 215   2.0000      -0.506521       -13.7831
 216   2.0000      -0.505822       -13.7641
 217   2.0000      -0.501228       -13.6391
 218   2.0000      -0.499550       -13.5934
 219   2.0000      -0.498842       -13.5742
 220   2.0000      -0.497939       -13.5496
 221   2.0000      -0.492105       -13.3909
 222   2.0000      -0.490987       -13.3604
 223   2.0000      -0.488998       -13.3063
 224   2.0000      -0.487284       -13.2597
 225   2.0000      -0.482979       -13.1425
 226   2.0000      -0.480599       -13.0778
 227   2.0000      -0.478776       -13.0282
 228   2.0000      -0.476924       -12.9778
 229   2.0000      -0.475899       -12.9499
 230   2.0000      -0.473630       -12.8881
 231   2.0000      -0.470249       -12.7961
 232   2.0000      -0.466837       -12.7033
 233   2.0000      -0.465327       -12.6622
 234   2.0000      -0.463699       -12.6179
 235   2.0000      -0.462065       -12.5734
 236   2.0000      -0.455394       -12.3919
 237   2.0000      -0.453650       -12.3444
 238   2.0000      -0.453333       -12.3358
 239   2.0000      -0.452207       -12.3052
 240   2.0000      -0.448728       -12.2105
 241   2.0000      -0.446061       -12.1379
 242   2.0000      -0.444199       -12.0873
 243   2.0000      -0.443471       -12.0675
 244   2.0000      -0.442327       -12.0363
 245   2.0000      -0.437848       -11.9145
 246   2.0000      -0.432973       -11.7818
 247   2.0000      -0.432375       -11.7655
 248   2.0000      -0.430403       -11.7119
 249   2.0000      -0.429742       -11.6939
 250   2.0000      -0.428886       -11.6706
 251   2.0000      -0.425471       -11.5777
 252   2.0000      -0.424526       -11.5519
 253   2.0000      -0.421389       -11.4666
 254   2.0000      -0.419870       -11.4252
 255   2.0000      -0.418064       -11.3761
 256   2.0000      -0.416879       -11.3438
 257   2.0000      -0.414381       -11.2759
 258   2.0000      -0.411635       -11.2012
 259   2.0000      -0.408531       -11.1167
 260   2.0000      -0.404264       -11.0006
 261   2.0000      -0.401430       -10.9235
 262   2.0000      -0.398488       -10.8434
 263   2.0000      -0.393114       -10.6972
 264   2.0000      -0.390722       -10.6321
 265   2.0000      -0.387912       -10.5556
 266   2.0000      -0.383767       -10.4428
 267   2.0000      -0.379252       -10.3200
 268   2.0000      -0.378538       -10.3005
 269   2.0000      -0.376862       -10.2549
 270   2.0000      -0.374733       -10.1970
 271   2.0000      -0.369323       -10.0498
 272   2.0000      -0.363667        -9.8959
 273   2.0000      -0.363419        -9.8891
 274   2.0000      -0.352701        -9.5975
 275   2.0000      -0.346822        -9.4375
 276   2.0000      -0.337987        -9.1971
 277   2.0000      -0.336957        -9.1691
 278   2.0000      -0.333328        -9.0703
 279   2.0000      -0.327188        -8.9032
 280   2.0000      -0.321824        -8.7573
 281   2.0000      -0.320000        -8.7076
 282   2.0000      -0.316158        -8.6031
 283   2.0000      -0.305762        -8.3202
 284   2.0000      -0.299596        -8.1524
 285   2.0000      -0.298179        -8.1139
 286   2.0000      -0.293295        -7.9810
 287   2.0000      -0.278488        -7.5781
 288   2.0000      -0.264653        -7.2016
 289   2.0000      -0.220342        -5.9958
 290   0.0000      -0.107326        -2.9205
 291   0.0000      -0.088150        -2.3987
 292   0.0000      -0.061860        -1.6833
 293   0.0000      -0.055392        -1.5073
 294   0.0000      -0.045692        -1.2433

MULLIKEN ATOMIC CHARGES
-----------------------
   0 C :    0.330176
   1 C :   -0.341246
   2 C :   -0.189128
   3 N :    0.159171
   4 C :   -0.190993
   5 N :    0.166745
   6 C :    0.007769
   7 C :   -0.015642
   8 C :   -0.063478
   9 C :    0.117800
  10 C :   -0.089360
  11 C :   -0.016446
  12 S :    0.190328
  13 C :   -0.123024
  14 C :    0.039336
  15 Br:    0.028356
  16 C :    0.156909
  17 O :   -0.131379
  18 C :   -0.060810
  19 C :    0.009607
  20 C :   -0.036811
  21 N :   -0.083317
  22 C :    0.081263
  23 C :   -0.042995
  24 C :    0.040676
  25 N :   -0.065947
  26 C :    0.045206
  27 C :    0.029756
  28 C :    0.053024
  29 C :    0.247954
  30 O :   -0.317536
  31 C :    0.179955
  32 C :   -0.172146
  33 C :    0.097130
  34 C :    0.237279
  35 C :   -0.160035
  36 O :   -0.315373
  37 C :    0.127414
  38 C :    0.016217
  39 C :   -0.022806
  40 C :    0.008952
  41 C :    0.017498
  42 C :   -0.035430
  43 C :    0.055082
  44 C :    0.015808
  45 C :   -0.024040
  46 S :    0.095272
  47 C :   -0.062215
  48 C :    0.039882
  49 C :    0.032957
  50 C :   -0.015604
  51 S :    0.106506
  52 C :   -0.002025
  53 C :    0.022939
  54 C :   -0.131057
  55 C :    0.286272
  56 C :   -0.352705
  57 C :   -0.181630
  58 N :    0.138344
  59 C :   -0.222348
  60 N :    0.157272
  61 C :    0.005361
  62 C :   -0.003855
  63 C :    0.136546
  64 O :   -0.161813
  65 C :   -0.077862
  66 C :    0.111974
  67 C :   -0.090720
  68 C :   -0.026284
  69 S :    0.176762
  70 C :   -0.124451
  71 C :    0.038597
  72 Br:    0.012516
  73 H :   -0.009020
  74 H :   -0.006115
  75 H :   -0.002146
  76 H :    0.052266
  77 H :    0.005214
  78 H :   -0.005703
  79 H :   -0.012693
  80 H :   -0.002738
  81 H :    0.038610
  82 H :    0.025549
  83 H :    0.024510
  84 H :   -0.039987
  85 H :   -0.026890
  86 H :    0.022486
  87 H :    0.025825
  88 H :    0.030330
  89 H :    0.028889
  90 H :    0.031618
  91 H :   -0.025540
  92 H :    0.020278
  93 H :   -0.011928
  94 H :   -0.004930
  95 H :   -0.006759
  96 H :   -0.006947
  97 H :   -0.000428
  98 H :    0.005821
  99 H :    0.009809
 100 H :   -0.015058
 101 H :   -0.007317
 102 H :   -0.007108
Sum of atomic charges:   -0.0000000

LOEWDIN ATOMIC CHARGES
----------------------
   0 C :    0.075931
   1 C :   -0.126786
   2 C :   -0.017374
   3 N :   -0.045274
   4 C :   -0.019020
   5 N :   -0.040531
   6 C :   -0.021574
   7 C :   -0.050983
   8 C :    0.024231
   9 C :   -0.030120
  10 C :   -0.142382
  11 C :   -0.007431
  12 S :    0.435423
  13 C :   -0.269566
  14 C :   -0.070257
  15 Br:    0.140764
  16 C :    0.088446
  17 O :   -0.125049
  18 C :   -0.069014
  19 C :    0.087749
  20 C :    0.022047
  21 N :   -0.089332
  22 C :    0.053919
  23 C :   -0.055674
  24 C :    0.042874
  25 N :   -0.087293
  26 C :   -0.027207
  27 C :    0.010100
  28 C :   -0.033767
  29 C :    0.048594
  30 O :   -0.104130
  31 C :    0.077571
  32 C :   -0.055975
  33 C :   -0.040884
  34 C :    0.060760
  35 C :   -0.050210
  36 O :   -0.087723
  37 C :    0.084115
  38 C :   -0.059888
  39 C :    0.007675
  40 C :   -0.039952
  41 C :   -0.016662
  42 C :   -0.158418
  43 C :   -0.011156
  44 C :   -0.041310
  45 C :   -0.146449
  46 S :    0.395991
  47 C :   -0.197500
  48 C :   -0.007513
  49 C :   -0.041175
  50 C :   -0.099932
  51 S :    0.401047
  52 C :   -0.072954
  53 C :    0.050553
  54 C :   -0.111944
  55 C :    0.068468
  56 C :   -0.157990
  57 C :   -0.020264
  58 N :   -0.068697
  59 C :   -0.024571
  60 N :   -0.065386
  61 C :   -0.015234
  62 C :   -0.050321
  63 C :    0.077791
  64 O :   -0.162308
  65 C :    0.016924
  66 C :   -0.037791
  67 C :   -0.145592
  68 C :   -0.017141
  69 S :    0.425340
  70 C :   -0.276049
  71 C :   -0.070826
  72 Br:    0.127882
  73 H :    0.041859
  74 H :    0.041478
  75 H :    0.039350
  76 H :    0.051836
  77 H :    0.026504
  78 H :    0.032511
  79 H :    0.030594
  80 H :    0.029892
  81 H :    0.030217
  82 H :    0.016100
  83 H :    0.015539
  84 H :    0.027785
  85 H :    0.031307
  86 H :    0.016292
  87 H :    0.016822
  88 H :    0.029863
  89 H :    0.036127
  90 H :    0.029201
  91 H :    0.028100
  92 H :    0.022728
  93 H :    0.034293
  94 H :    0.037216
  95 H :    0.034258
  96 H :    0.034935
  97 H :    0.039310
  98 H :    0.037568
  99 H :    0.033061
 100 H :    0.038832
 101 H :    0.039596
 102 H :    0.037206

  Mayer bond orders larger than 0.100000
B(  0-C ,  1-C ) :   1.6725 B(  0-C ,  6-C ) :   1.0185 B(  0-C , 18-C ) :   1.0037
B(  1-C ,  2-C ) :   1.1350 B(  1-C ,  4-C ) :   1.1467 B(  2-C ,  3-N ) :   2.9749
B(  4-C ,  5-N ) :   2.9781 B(  6-C ,  7-C ) :   1.2710 B(  6-C , 11-C ) :   1.4002
B(  7-C ,  8-C ) :   1.4206 B(  7-C , 16-C ) :   0.9449 B(  8-C ,  9-C ) :   1.2535
B(  8-C , 73-H ) :   1.0157 B(  9-C , 10-C ) :   1.2951 B(  9-C , 14-C ) :   1.1633
B( 10-C , 11-C ) :   1.3431 B( 10-C , 12-S ) :   1.0868 B( 11-C , 74-H ) :   0.9788
B( 12-S , 13-C ) :   1.0871 B( 13-C , 14-C ) :   1.6163 B( 13-C , 15-Br) :   1.0214
B( 14-C , 75-H ) :   1.0005 B( 16-C , 17-O ) :   2.2347 B( 16-C , 18-C ) :   0.9150
B( 18-C , 19-C ) :   1.8830 B( 19-C , 20-C ) :   0.9116 B( 19-C , 76-H ) :   0.9301
B( 20-C , 21-N ) :   1.5088 B( 20-C , 25-N ) :   1.5246 B( 21-N , 22-C ) :   1.5234
B( 22-C , 23-C ) :   1.3988 B( 22-C , 77-H ) :   0.9789 B( 23-C , 24-C ) :   1.3543
B( 23-C , 78-H ) :   0.9663 B( 24-C , 25-N ) :   1.4944 B( 24-C , 26-C ) :   1.0600
B( 26-C , 27-C ) :   1.6819 B( 26-C , 79-H ) :   0.9703 B( 27-C , 28-C ) :   1.1042
B( 27-C , 80-H ) :   0.9635 B( 28-C , 29-C ) :   1.3101 B( 28-C , 35-C ) :   1.3075
B( 29-C , 30-O ) :   1.1509 B( 29-C , 32-C ) :   1.3033 B( 30-O , 31-C ) :   0.9637
B( 31-C , 81-H ) :   0.9783 B( 31-C , 82-H ) :   0.9682 B( 31-C , 83-H ) :   0.9684
B( 32-C , 33-C ) :   1.2689 B( 32-C , 84-H ) :   1.0060 B( 33-C , 34-C ) :   1.2947
B( 33-C , 39-C ) :   1.1247 B( 34-C , 35-C ) :   1.3092 B( 34-C , 36-O ) :   1.1512
B( 35-C , 85-H ) :   0.9958 B( 36-O , 37-C ) :   0.9352 B( 37-C , 38-C ) :   1.0968
B( 37-C , 86-H ) :   0.9515 B( 37-C , 87-H ) :   0.9510 B( 38-C , 88-H ) :   0.9678
B( 38-C , 89-H ) :   0.9600 B( 38-C , 90-H ) :   0.9676 B( 39-C , 40-C ) :   1.6121
B( 39-C , 91-H ) :   0.9793 B( 40-C , 41-C ) :   1.1477 B( 40-C , 92-H ) :   0.9603
B( 41-C , 42-C ) :   1.5438 B( 41-C , 93-H ) :   0.9846 B( 42-C , 43-C ) :   1.1532
B( 42-C , 46-S ) :   1.0246 B( 43-C , 44-C ) :   1.5723 B( 43-C , 94-H ) :   0.9994
B( 44-C , 45-C ) :   1.2032 B( 44-C , 95-H ) :   0.9946 B( 45-C , 46-S ) :   1.0843
B( 45-C , 47-C ) :   1.4542 B( 47-C , 48-C ) :   1.2292 B( 47-C , 51-S ) :   1.0406
B( 48-C , 49-C ) :   1.5327 B( 48-C , 96-H ) :   0.9942 B( 49-C , 50-C ) :   1.1926
B( 49-C , 97-H ) :   1.0006 B( 50-C , 51-S ) :   1.0887 B( 50-C , 52-C ) :   1.4808
B( 52-C , 53-C ) :   1.2417 B( 52-C , 98-H ) :   0.9620 B( 53-C , 54-C ) :   1.5074
B( 53-C , 99-H ) :   0.9405 B( 54-C , 55-C ) :   1.0977 B( 54-C , 63-C ) :   0.9722
B( 55-C , 56-C ) :   1.5912 B( 55-C , 61-C ) :   1.0023 B( 56-C , 57-C ) :   1.1358
B( 56-C , 59-C ) :   1.1706 B( 57-C , 58-N ) :   2.9760 B( 59-C , 60-N ) :   3.0107
B( 61-C , 62-C ) :   1.2758 B( 61-C , 68-C ) :   1.4265 B( 62-C , 63-C ) :   0.9174
B( 62-C , 65-C ) :   1.4369 B( 63-C , 64-O ) :   2.2403 B( 65-C , 66-C ) :   1.2425
B( 65-C ,100-H ) :   1.0157 B( 66-C , 67-C ) :   1.3200 B( 66-C , 71-C ) :   1.1615
B( 67-C , 68-C ) :   1.3157 B( 67-C , 69-S ) :   1.0815 B( 68-C ,101-H ) :   0.9813
B( 69-S , 70-C ) :   1.0848 B( 70-C , 71-C ) :   1.6215 B( 70-C , 72-Br) :   1.0127
B( 71-C ,102-H ) :   0.9999

-----------------------------------------------------------------------------
         ABSORPTION SPECTRUM VIA TRANSITION ELECTRIC DIPOLE MOMENTS
-----------------------------------------------------------------------------
State   Energy  Wavelength   fosc         T2         TX        TY        TZ
        (cm-1)    (nm)                  (au**2)     (au)      (au)      (au)
-----------------------------------------------------------------------------
   0   11315.3    883.8   1.487807978  43.28675   3.34638  -2.69576  -4.98210
   1   20447.7    489.1   0.013966013   0.22486   0.28070  -0.03413  -0.38066
   2   21016.3    475.8   0.687552635  10.77026   0.34008   2.97078  -1.35243
   3   21554.9    463.9   0.000370583   0.00566   0.04227   0.06223   0.00017
   4   23598.8    423.8   0.326994018   4.56169  -0.20052  -1.81480   1.10815
   5   24831.1    402.7   0.185852467   2.46404   0.88196  -1.25103   0.34800
   6   26692.6    374.6   0.308421647   3.80390  -0.03289   1.51097  -1.23279
   7   27669.1    361.4   0.073404802   0.87338   0.28505   0.56351  -0.68890
   8   27975.9    357.5   0.013685297   0.16104  -0.09221  -0.12653   0.36950
   9   28219.2    354.4   0.026321863   0.30708  -0.09943  -0.23397  -0.49239
  10   28712.7    348.3   0.022561288   0.25868   0.50315  -0.04789  -0.05685
  11   28812.7    347.1   0.423114454   4.83447   2.06697  -0.61261  -0.43222
  12   28839.0    346.8   0.025552168   0.29169   0.38954  -0.36691   0.07295
  13   30368.4    329.3   0.207907025   2.25384   0.73873   1.01414  -0.82441
  14   30695.9    325.8   0.060069220   0.64424  -0.78854   0.13620  -0.06236
  15   30832.3    324.3   0.043655704   0.46613   0.36465  -0.56777  -0.10394
  16   31032.8    322.2   0.153898866   1.63264   0.05149   1.21625  -0.38823
  17   31154.5    321.0   0.025989367   0.27463   0.12390  -0.31120   0.40303
  18   31486.5    317.6   0.108814920   1.13773  -0.15985  -0.44051   0.95819
  19   32139.4    311.1   0.453591353   4.64625  -1.26044   1.57766  -0.75400
  20   32713.0    305.7   0.007014094   0.07059  -0.15175  -0.13158  -0.17391
  21   33250.2    300.7   0.103559808   1.02535   0.80803  -0.50823   0.33786
  22   33283.8    300.4   0.061044958   0.60380   0.52269  -0.54835   0.17293
  23   34368.5    291.0   0.048777494   0.46723   0.33271  -0.29291   0.52033
  24   34400.2    290.7   0.053907724   0.51590  -0.22521   0.63896   0.23857
  25   34560.7    289.3   0.508607517   4.84480  -1.71388   1.28137   0.51527
  26   34608.8    288.9   0.051284383   0.48784  -0.39886   0.57334  -0.00543
  27   34744.1    287.8   0.014184395   0.13440  -0.27121   0.23350   0.07951
  28   35271.1    283.5   0.010393333   0.09701   0.05366  -0.28982  -0.10068
  29   35331.2    283.0   0.006401324   0.05965  -0.14225  -0.18693  -0.06685
  30   35599.5    280.9   0.012120302   0.11208  -0.12446  -0.30904  -0.03298
  31   35854.8    278.9   0.015173426   0.13932   0.00241  -0.30100  -0.22071
  32   35866.6    278.8   0.052045157   0.47771   0.40759  -0.33127   0.44927
  33   35984.0    277.9   0.016870138   0.15434  -0.26365   0.29094   0.01353
  34   36205.0    276.2   0.026006153   0.23647   0.23821   0.04317  -0.42174
  35   37196.3    268.8   0.027119267   0.24002  -0.48759  -0.01278   0.04597
  36   37364.4    267.6   0.033377428   0.29408  -0.42500  -0.32743   0.07905
  37   37593.1    266.0   0.043238146   0.37865   0.51522  -0.05096  -0.33257
  38   37881.8    264.0   0.043781454   0.38048   0.07336   0.58933   0.16672
  39   38139.1    262.2   0.004167367   0.03597  -0.09670  -0.15200   0.05930
  40   38821.7    257.6   0.420068800   3.56223   0.02025  -0.69518   1.75458
  41   39071.4    255.9   0.029998059   0.25276   0.07118   0.20050  -0.45552
  42   39517.9    253.0   0.033508002   0.27915  -0.19033  -0.48865  -0.06438
  43   39743.0    251.6   0.072120278   0.59741  -0.22251  -0.67876   0.29527
  44   39908.8    250.6   0.004273089   0.03525  -0.11616  -0.12025  -0.08542
  45   40266.9    248.3   0.076120047   0.62234   0.46205   0.62821   0.11917

FINAL SINGLE POINT ENERGY     -9556.040539713304

DIPOLE MOMENT
-------------
                                X             Y             Z
Electronic contribution:    -28.62982    -163.17645     -19.77524
Nuclear contribution   :     26.57190     168.77019      23.92743
                        -----------------------------------------
Total Dipole Moment    :     -2.05792       5.59374       4.15219
                        -----------------------------------------
Magnitude (a.u.)       :      7.26400
Magnitude (Debye)      :     18.46361

Rotational constants in cm-1:     0.000629     0.000162     0.000141
Rotational constants in MHz :    18.854079     4.856156     4.236663

                             ****ORCA TERMINATED NORMALLY****
TOTAL RUN TIME: 0 days 0 hours 9 minutes 52 seconds 240 msec
