                         Program Version 4.2.0 -  RELEASE  -
|  1> # ORCA input file
|  2> # SCF done       -186.702477953847          0.000916180005
|  3> ! CAM-B3LYP def2-SVP def2/J RIJCOSX Grid4 TightSCF
|  4> %maxcore 5000
|  5> %tddft
|  6>     Mode sTDDFT
|  7>     Ethresh 5.0
|  8>     maxcore 5000
|  9> end
| 10>
| 11> %pal
| 12>   nprocs 6
| 13>   end
| 14> * xyz 0 1
| 15>    C       -4.86273         1.10251         4.34827
| 16>    C       -5.73460         0.55433         5.25588
| 17>    C       -5.36696         0.12668         6.54896
| 18>    N       -5.14024        -0.24094         7.61307
| 19>    C       -7.11522         0.34667         5.06383
| 20>    N       -8.24698         0.15355         5.00142
| 21>    C       -3.44047         1.31608         4.58472
| 22>    C       -2.87463         1.91983         3.43667
| 23>    C       -1.54555         2.25557         3.35056
| 24>    C       -0.72936         1.97285         4.45038
| 25>    C       -1.30154         1.36556         5.59366
| 26>    C       -2.64695         1.03259         5.68195
| 27>    S       -0.11629         1.10188         6.83739
| 28>    C        1.11439         1.79845         5.81679
| 29>    C        0.66343         2.21056         4.60851
| 30>   Br        2.87733         1.92055         6.44584
| 31>    C       -3.91647         2.09462         2.40535
| 32>    O       -3.75855         2.61690         1.32205
| 33>    C       -5.16478         1.55816         2.99996
| 34>    C       -6.42000         1.60178         2.46577
| 35>    C       -6.82623         1.89945         1.12977
| 36>    C       -6.02089         1.60255         0.05572
| 37>    S       -6.75154         1.80515        -1.46400
| 38>    C       -8.21270         2.35525        -0.69408
| 39>    C       -8.13739         2.36848         0.70593
| 40>    C       -9.26712         2.81661         1.43753
| 41>    C       -9.17673         2.97637         2.93510
| 42>    C       -8.15189         4.04420         3.32462
| 43>    C      -10.44237         3.15295         0.76727
| 44>    C      -11.70219         3.49244         1.52208
| 45>    C      -11.78206         4.98031         1.87410
| 46>    C      -10.49768         3.15286        -0.64689
| 47>    C      -11.57822         3.45935        -1.56275
| 48>    C      -11.21019         3.22680        -2.86339
| 49>    S       -9.59947         2.69789        -3.07955
| 50>    C       -9.36312         2.73567        -1.36068
| 51>    C      -12.89168         3.98254        -1.27918
| 52>    C      -13.96752         3.67465        -2.04885
| 53>    C      -15.27129         4.17633        -1.87873
| 54>    C      -16.29392         3.82224        -2.72742
| 55>    C      -17.65697         4.19847        -2.70133
| 56>    C      -18.40627         3.65981        -3.71060
| 57>    C      -17.66897         2.83991        -4.58560
| 58>    S      -15.99900         2.75945        -4.09421
| 59>    C      -18.05794         2.13086        -5.71598
| 60>    C      -19.31331         1.97068        -6.32508
| 61>    C      -19.28146         1.16276        -7.43031
| 62>    C      -18.00115         0.65730        -7.74574
| 63>    S      -16.83387         1.24521        -6.58764
| 64>    C      -17.69815        -0.19187        -8.79453
| 65>    C      -16.44973        -0.69354        -9.15616
| 66>    S      -16.33404        -1.83406       -10.50276
| 67>    C      -14.58458        -2.02489       -10.41432
| 68>    C      -14.12764        -1.23119        -9.33678
| 69>    C      -15.15498        -0.51495        -8.66989
| 70>    O      -14.65205         0.17945        -7.63225
| 71>    C      -13.32488        -0.11240        -7.59663
| 72>    N      -12.53728         0.47752        -6.59699
| 73>    O      -11.35139         0.18023        -6.58912
| 74>    O      -13.06758         1.24234        -5.81024
| 75>    C      -12.95091        -0.97641        -8.60128
| 76>    C      -13.86068        -2.81724       -11.29660
| 77>    C      -12.50294        -2.67367       -11.66273
| 78>    C      -11.56677        -1.65603       -11.42710
| 79>    C      -10.31410        -1.75493       -11.97213
| 80>    C       -9.94084        -2.85775       -12.77362
| 81>    C      -10.83744        -3.83647       -13.08176
| 82>    C      -12.14925        -3.75535       -12.55744
| 83>    C      -13.25756        -4.54415       -12.77085
| 84>    C      -14.36351        -4.00361       -12.02586
| 85>    C      -15.58358        -4.56310       -11.95878
| 86>    H       -1.14827         2.71759         2.46045
| 87>    H       -3.03198         0.57328         6.57661
| 88>    H        1.28541         2.66316         3.85806
| 89>    H       -7.22560         1.33269         3.12947
| 90>    H       -5.02738         1.20438         0.09690
| 91>    H       -8.94478         2.02307         3.41186
| 92>    H      -10.13301         3.28787         3.34388
| 93>    H       -7.15752         3.81102         2.95289
| 94>    H       -8.10167         4.13135         4.40791
| 95>    H       -8.44466         5.00812         2.91301
| 96>    H      -11.77334         2.89582         2.43210
| 97>    H      -12.55568         3.21029         0.90547
| 98>    H      -11.01856         5.24866         2.59972
| 99>    H      -12.75540         5.21754         2.29894
|100>    H      -11.62549         5.59496         0.98997
|101>    H      -11.81350         3.38434        -3.73611
|102>    H      -13.01350         4.68099        -0.46644
|103>    H      -13.83738         2.96310        -2.85444
|104>    H      -15.48218         4.85557        -1.06375
|105>    H      -18.04627         4.85115        -1.93950
|106>    H      -19.45912         3.83501        -3.84516
|107>    H      -20.20253         2.43961        -5.94275
|108>    H      -20.14340         0.91792        -8.02608
|109>    H      -18.52817        -0.51080        -9.41158
|110>    H      -11.96620        -1.37196        -8.73930
|111>    H      -11.83996        -0.78319       -10.85618
|112>    H       -9.59045        -0.97259       -11.79746
|113>    H       -8.93417        -2.89757       -13.16325
|114>    H      -10.57454        -4.66088       -13.72769
|115>    H      -13.31486        -5.42649       -13.37936
|116>    H      -16.38204        -4.16180       -11.36126
|117>    H      -15.79944        -5.45817       -12.51806
|118> *
|119>
|120>                          ****END OF INPUT****

CARTESIAN COORDINATES (ANGSTROEM)
---------------------------------
  C     -4.862730    1.102510    4.348270
  C     -5.734600    0.554330    5.255880
  C     -5.366960    0.126680    6.548960
  N     -5.140240   -0.240940    7.613070
  C     -7.115220    0.346670    5.063830
  N     -8.246980    0.153550    5.001420
  C     -3.440470    1.316080    4.584720
  C     -2.874630    1.919830    3.436670
  C     -1.545550    2.255570    3.350560
  C     -0.729360    1.972850    4.450380
  C     -1.301540    1.365560    5.593660
  C     -2.646950    1.032590    5.681950
  S     -0.116290    1.101880    6.837390
  C      1.114390    1.798450    5.816790
  C      0.663430    2.210560    4.608510
  Br     2.877330    1.920550    6.445840
  C     -3.916470    2.094620    2.405350
  O     -3.758550    2.616900    1.322050
  C     -5.164780    1.558160    2.999960
  C     -6.420000    1.601780    2.465770
  C     -6.826230    1.899450    1.129770
  C     -6.020890    1.602550    0.055720
  S     -6.751540    1.805150   -1.464000
  C     -8.212700    2.355250   -0.694080
  C     -8.137390    2.368480    0.705930
  C     -9.267120    2.816610    1.437530
  C     -9.176730    2.976370    2.935100
  C     -8.151890    4.044200    3.324620
  C    -10.442370    3.152950    0.767270
  C    -11.702190    3.492440    1.522080
  C    -11.782060    4.980310    1.874100
  C    -10.497680    3.152860   -0.646890
  C    -11.578220    3.459350   -1.562750
  C    -11.210190    3.226800   -2.863390
  S     -9.599470    2.697890   -3.079550
  C     -9.363120    2.735670   -1.360680
  C    -12.891680    3.982540   -1.279180
  C    -13.967520    3.674650   -2.048850
  C    -15.271290    4.176330   -1.878730
  C    -16.293920    3.822240   -2.727420
  C    -17.656970    4.198470   -2.701330
  C    -18.406270    3.659810   -3.710600
  C    -17.668970    2.839910   -4.585600
  S    -15.999000    2.759450   -4.094210
  C    -18.057940    2.130860   -5.715980
  C    -19.313310    1.970680   -6.325080
  C    -19.281460    1.162760   -7.430310
  C    -18.001150    0.657300   -7.745740
  S    -16.833870    1.245210   -6.587640
  C    -17.698150   -0.191870   -8.794530
  C    -16.449730   -0.693540   -9.156160
  S    -16.334040   -1.834060  -10.502760
  C    -14.584580   -2.024890  -10.414320
  C    -14.127640   -1.231190   -9.336780
  C    -15.154980   -0.514950   -8.669890
  O    -14.652050    0.179450   -7.632250
  C    -13.324880   -0.112400   -7.596630
  N    -12.537280    0.477520   -6.596990
  O    -11.351390    0.180230   -6.589120
  O    -13.067580    1.242340   -5.810240
  C    -12.950910   -0.976410   -8.601280
  C    -13.860680   -2.817240  -11.296600
  C    -12.502940   -2.673670  -11.662730
  C    -11.566770   -1.656030  -11.427100
  C    -10.314100   -1.754930  -11.972130
  C     -9.940840   -2.857750  -12.773620
  C    -10.837440   -3.836470  -13.081760
  C    -12.149250   -3.755350  -12.557440
  C    -13.257560   -4.544150  -12.770850
  C    -14.363510   -4.003610  -12.025860
  C    -15.583580   -4.563100  -11.958780
  H     -1.148270    2.717590    2.460450
  H     -3.031980    0.573280    6.576610
  H      1.285410    2.663160    3.858060
  H     -7.225600    1.332690    3.129470
  H     -5.027380    1.204380    0.096900
  H     -8.944780    2.023070    3.411860
  H    -10.133010    3.287870    3.343880
  H     -7.157520    3.811020    2.952890
  H     -8.101670    4.131350    4.407910
  H     -8.444660    5.008120    2.913010
  H    -11.773340    2.895820    2.432100
  H    -12.555680    3.210290    0.905470
  H    -11.018560    5.248660    2.599720
  H    -12.755400    5.217540    2.298940
  H    -11.625490    5.594960    0.989970
  H    -11.813500    3.384340   -3.736110
  H    -13.013500    4.680990   -0.466440
  H    -13.837380    2.963100   -2.854440
  H    -15.482180    4.855570   -1.063750
  H    -18.046270    4.851150   -1.939500
  H    -19.459120    3.835010   -3.845160
  H    -20.202530    2.439610   -5.942750
  H    -20.143400    0.917920   -8.026080
  H    -18.528170   -0.510800   -9.411580
  H    -11.966200   -1.371960   -8.739300
  H    -11.839960   -0.783190  -10.856180
  H     -9.590450   -0.972590  -11.797460
  H     -8.934170   -2.897570  -13.163250
  H    -10.574540   -4.660880  -13.727690
  H    -13.314860   -5.426490  -13.379360
  H    -16.382040   -4.161800  -11.361260
  H    -15.799440   -5.458170  -12.518060

 Total Charge           Charge          ....    0
 Multiplicity           Mult            ....    1
 Number of Electrons    NEL             ....  558
 Basis Dimension        Dim             .... 1196

ORBITAL ENERGIES
----------------

  NO   OCC          E(Eh)            E(eV)
   0   2.0000    -482.884288    -13139.9495
   1   2.0000     -88.973937     -2421.1039
   2   2.0000     -88.964553     -2420.8486
   3   2.0000     -88.960738     -2420.7448
   4   2.0000     -88.945020     -2420.3170
   5   2.0000     -88.931946     -2419.9613
   6   2.0000     -88.931777     -2419.9567
   7   2.0000     -62.562034     -1702.3995
   8   2.0000     -56.395984     -1534.6128
   9   2.0000     -56.393266     -1534.5388
  10   2.0000     -56.393233     -1534.5379
  11   2.0000     -19.304058      -525.2901
  12   2.0000     -19.238923      -523.5177
  13   2.0000     -19.235635      -523.4282
  14   2.0000     -19.212894      -522.8094
  15   2.0000     -14.649708      -398.6388
  16   2.0000     -14.415311      -392.2606
  17   2.0000     -14.411300      -392.1514
  18   2.0000     -10.379993      -282.4540
  19   2.0000     -10.365071      -282.0479
  20   2.0000     -10.357528      -281.8427
  21   2.0000     -10.344628      -281.4916
  22   2.0000     -10.338986      -281.3381
  23   2.0000     -10.337659      -281.3020
  24   2.0000     -10.323764      -280.9239
  25   2.0000     -10.319235      -280.8007
  26   2.0000     -10.318671      -280.7853
  27   2.0000     -10.314968      -280.6845
  28   2.0000     -10.314777      -280.6793
  29   2.0000     -10.312989      -280.6307
  30   2.0000     -10.308444      -280.5070
  31   2.0000     -10.307492      -280.4811
  32   2.0000     -10.306019      -280.4410
  33   2.0000     -10.305554      -280.4284
  34   2.0000     -10.303404      -280.3699
  35   2.0000     -10.302625      -280.3487
  36   2.0000     -10.302485      -280.3449
  37   2.0000     -10.302109      -280.3346
  38   2.0000     -10.298870      -280.2465
  39   2.0000     -10.297411      -280.2068
  40   2.0000     -10.296613      -280.1851
  41   2.0000     -10.296437      -280.1803
  42   2.0000     -10.295206      -280.1468
  43   2.0000     -10.293555      -280.1019
  44   2.0000     -10.292853      -280.0828
  45   2.0000     -10.292786      -280.0809
  46   2.0000     -10.291882      -280.0564
  47   2.0000     -10.289503      -279.9916
  48   2.0000     -10.289231      -279.9842
  49   2.0000     -10.284829      -279.8644
  50   2.0000     -10.283863      -279.8382
  51   2.0000     -10.283797      -279.8364
  52   2.0000     -10.281133      -279.7638
  53   2.0000     -10.280805      -279.7549
  54   2.0000     -10.280433      -279.7448
  55   2.0000     -10.279015      -279.7062
  56   2.0000     -10.278109      -279.6816
  57   2.0000     -10.276766      -279.6450
  58   2.0000     -10.274614      -279.5865
  59   2.0000     -10.273948      -279.5683
  60   2.0000     -10.273923      -279.5677
  61   2.0000     -10.273583      -279.5584
  62   2.0000     -10.273425      -279.5541
  63   2.0000     -10.273029      -279.5433
  64   2.0000     -10.272883      -279.5394
  65   2.0000     -10.272717      -279.5348
  66   2.0000     -10.272460      -279.5278
  67   2.0000     -10.271357      -279.4978
  68   2.0000     -10.271240      -279.4947
  69   2.0000     -10.266113      -279.3551
  70   2.0000     -10.264490      -279.3110
  71   2.0000     -10.258419      -279.1458
  72   2.0000     -10.257652      -279.1249
  73   2.0000     -10.254614      -279.0422
  74   2.0000     -10.251190      -278.9491
  75   2.0000      -8.791484      -239.2284
  76   2.0000      -8.069889      -219.5929
  77   2.0000      -8.059074      -219.2986
  78   2.0000      -8.057061      -219.2438
  79   2.0000      -8.041327      -218.8156
  80   2.0000      -8.028495      -218.4665
  81   2.0000      -8.028261      -218.4601
  82   2.0000      -6.627800      -180.3516
  83   2.0000      -6.613209      -179.9546
  84   2.0000      -6.613015      -179.9493
  85   2.0000      -6.039599      -164.3459
  86   2.0000      -6.035306      -164.2290
  87   2.0000      -6.031100      -164.1146
  88   2.0000      -6.028596      -164.0464
  89   2.0000      -6.026338      -163.9850
  90   2.0000      -6.024537      -163.9360
  91   2.0000      -6.022070      -163.8688
  92   2.0000      -6.020777      -163.8337
  93   2.0000      -6.019153      -163.7895
  94   2.0000      -6.010753      -163.5609
  95   2.0000      -6.006547      -163.4465
  96   2.0000      -6.003089      -163.3524
  97   2.0000      -5.998193      -163.2191
  98   2.0000      -5.997973      -163.2131
  99   2.0000      -5.994095      -163.1076
 100   2.0000      -5.993745      -163.0981
 101   2.0000      -5.989399      -162.9798
 102   2.0000      -5.989119      -162.9722
 103   2.0000      -2.743637       -74.6581
 104   2.0000      -2.739599       -74.5483
 105   2.0000      -2.739429       -74.5437
 106   2.0000      -2.727843       -74.2284
 107   2.0000      -2.727824       -74.2279
 108   2.0000      -1.317786       -35.8588
 109   2.0000      -1.226702       -33.3803
 110   2.0000      -1.132923       -30.8284
 111   2.0000      -1.128460       -30.7070
 112   2.0000      -1.020880       -27.7796
 113   2.0000      -1.011879       -27.5346
 114   2.0000      -1.002060       -27.2674
 115   2.0000      -0.995010       -27.0756
 116   2.0000      -0.992201       -26.9992
 117   2.0000      -0.987843       -26.8806
 118   2.0000      -0.986793       -26.8520
 119   2.0000      -0.975425       -26.5427
 120   2.0000      -0.971013       -26.4226
 121   2.0000      -0.964744       -26.2520
 122   2.0000      -0.940496       -25.5922
 123   2.0000      -0.932124       -25.3644
 124   2.0000      -0.922213       -25.0947
 125   2.0000      -0.921485       -25.0749
 126   2.0000      -0.906523       -24.6678
 127   2.0000      -0.905979       -24.6529
 128   2.0000      -0.899885       -24.4871
 129   2.0000      -0.893912       -24.3246
 130   2.0000      -0.883936       -24.0531
 131   2.0000      -0.877039       -23.8654
 132   2.0000      -0.871215       -23.7070
 133   2.0000      -0.867965       -23.6185
 134   2.0000      -0.858373       -23.3575
 135   2.0000      -0.850927       -23.1549
 136   2.0000      -0.849584       -23.1183
 137   2.0000      -0.845776       -23.0147
 138   2.0000      -0.840685       -22.8762
 139   2.0000      -0.827876       -22.5277
 140   2.0000      -0.826061       -22.4783
 141   2.0000      -0.820009       -22.3136
 142   2.0000      -0.813718       -22.1424
 143   2.0000      -0.808573       -22.0024
 144   2.0000      -0.791399       -21.5351
 145   2.0000      -0.788017       -21.4430
 146   2.0000      -0.785748       -21.3813
 147   2.0000      -0.771698       -20.9990
 148   2.0000      -0.760237       -20.6871
 149   2.0000      -0.758966       -20.6525
 150   2.0000      -0.754411       -20.5286
 151   2.0000      -0.746077       -20.3018
 152   2.0000      -0.725435       -19.7401
 153   2.0000      -0.716087       -19.4857
 154   2.0000      -0.707675       -19.2568
 155   2.0000      -0.707135       -19.2421
 156   2.0000      -0.697077       -18.9684
 157   2.0000      -0.693085       -18.8598
 158   2.0000      -0.689977       -18.7752
 159   2.0000      -0.684424       -18.6241
 160   2.0000      -0.675259       -18.3747
 161   2.0000      -0.672790       -18.3076
 162   2.0000      -0.665877       -18.1194
 163   2.0000      -0.662043       -18.0151
 164   2.0000      -0.658173       -17.9098
 165   2.0000      -0.655669       -17.8417
 166   2.0000      -0.645436       -17.5632
 167   2.0000      -0.643241       -17.5035
 168   2.0000      -0.634391       -17.2627
 169   2.0000      -0.633343       -17.2341
 170   2.0000      -0.631661       -17.1884
 171   2.0000      -0.624288       -16.9877
 172   2.0000      -0.621740       -16.9184
 173   2.0000      -0.617270       -16.7968
 174   2.0000      -0.614426       -16.7194
 175   2.0000      -0.612465       -16.6660
 176   2.0000      -0.610096       -16.6016
 177   2.0000      -0.603785       -16.4298
 178   2.0000      -0.596485       -16.2312
 179   2.0000      -0.585597       -15.9349
 180   2.0000      -0.584927       -15.9167
 181   2.0000      -0.580964       -15.8088
 182   2.0000      -0.573091       -15.5946
 183   2.0000      -0.567415       -15.4401
 184   2.0000      -0.565446       -15.3866
 185   2.0000      -0.562503       -15.3065
 186   2.0000      -0.562121       -15.2961
 187   2.0000      -0.556147       -15.1335
 188   2.0000      -0.552609       -15.0373
 189   2.0000      -0.547382       -14.8950
 190   2.0000      -0.541630       -14.7385
 191   2.0000      -0.539112       -14.6700
 192   2.0000      -0.534986       -14.5577
 193   2.0000      -0.533107       -14.5066
 194   2.0000      -0.530131       -14.4256
 195   2.0000      -0.526858       -14.3365
 196   2.0000      -0.524266       -14.2660
 197   2.0000      -0.524062       -14.2605
 198   2.0000      -0.518029       -14.0963
 199   2.0000      -0.516123       -14.0444
 200   2.0000      -0.513666       -13.9776
 201   2.0000      -0.511260       -13.9121
 202   2.0000      -0.506606       -13.7855
 203   2.0000      -0.504984       -13.7413
 204   2.0000      -0.501469       -13.6457
 205   2.0000      -0.499124       -13.5819
 206   2.0000      -0.497295       -13.5321
 207   2.0000      -0.495798       -13.4913
 208   2.0000      -0.493688       -13.4339
 209   2.0000      -0.492266       -13.3952
 210   2.0000      -0.489947       -13.3321
 211   2.0000      -0.489455       -13.3188
 212   2.0000      -0.488966       -13.3054
 213   2.0000      -0.484496       -13.1838
 214   2.0000      -0.481688       -13.1074
 215   2.0000      -0.479455       -13.0466
 216   2.0000      -0.476672       -12.9709
 217   2.0000      -0.475793       -12.9470
 218   2.0000      -0.472956       -12.8698
 219   2.0000      -0.467428       -12.7194
 220   2.0000      -0.465830       -12.6759
 221   2.0000      -0.459767       -12.5109
 222   2.0000      -0.458083       -12.4651
 223   2.0000      -0.456568       -12.4238
 224   2.0000      -0.454195       -12.3593
 225   2.0000      -0.452536       -12.3141
 226   2.0000      -0.450579       -12.2609
 227   2.0000      -0.448727       -12.2105
 228   2.0000      -0.448071       -12.1926
 229   2.0000      -0.446998       -12.1634
 230   2.0000      -0.444669       -12.1001
 231   2.0000      -0.442616       -12.0442
 232   2.0000      -0.441502       -12.0139
 233   2.0000      -0.437622       -11.9083
 234   2.0000      -0.434653       -11.8275
 235   2.0000      -0.433987       -11.8094
 236   2.0000      -0.433503       -11.7962
 237   2.0000      -0.427857       -11.6426
 238   2.0000      -0.424904       -11.5622
 239   2.0000      -0.423783       -11.5317
 240   2.0000      -0.419767       -11.4224
 241   2.0000      -0.419555       -11.4167
 242   2.0000      -0.416969       -11.3463
 243   2.0000      -0.415422       -11.3042
 244   2.0000      -0.412769       -11.2320
 245   2.0000      -0.412005       -11.2112
 246   2.0000      -0.408009       -11.1025
 247   2.0000      -0.407184       -11.0800
 248   2.0000      -0.404585       -11.0093
 249   2.0000      -0.403032       -10.9671
 250   2.0000      -0.401829       -10.9343
 251   2.0000      -0.391455       -10.6520
 252   2.0000      -0.387017       -10.5313
 253   2.0000      -0.386119       -10.5068
 254   2.0000      -0.384377       -10.4594
 255   2.0000      -0.377694       -10.2776
 256   2.0000      -0.376577       -10.2472
 257   2.0000      -0.374513       -10.1910
 258   2.0000      -0.373719       -10.1694
 259   2.0000      -0.372111       -10.1257
 260   2.0000      -0.364843        -9.9279
 261   2.0000      -0.363201        -9.8832
 262   2.0000      -0.357086        -9.7168
 263   2.0000      -0.350237        -9.5304
 264   2.0000      -0.335439        -9.1278
 265   2.0000      -0.333541        -9.0761
 266   2.0000      -0.329451        -8.9648
 267   2.0000      -0.323642        -8.8067
 268   2.0000      -0.318147        -8.6572
 269   2.0000      -0.313686        -8.5358
 270   2.0000      -0.312265        -8.4972
 271   2.0000      -0.310716        -8.4550
 272   2.0000      -0.309005        -8.4085
 273   2.0000      -0.291518        -7.9326
 274   2.0000      -0.285397        -7.7661
 275   2.0000      -0.263686        -7.1752
 276   2.0000      -0.260359        -7.0847
 277   2.0000      -0.233904        -6.3649
 278   2.0000      -0.188675        -5.1341
 279   0.0000      -0.098171        -2.6714
 280   0.0000      -0.083441        -2.2705
 281   0.0000      -0.064697        -1.7605
 282   0.0000      -0.054993        -1.4964
 283   0.0000      -0.053400        -1.4531

MULLIKEN ATOMIC CHARGES
-----------------------
   0 C :    0.322086
   1 C :   -0.370637
   2 C :   -0.183665
   3 N :    0.148340
   4 C :   -0.170411
   5 N :    0.144177
   6 C :    0.014173
   7 C :   -0.014229
   8 C :   -0.075375
   9 C :    0.120179
  10 C :   -0.091858
  11 C :   -0.020818
  12 S :    0.186358
  13 C :   -0.123256
  14 C :    0.039005
  15 Br:    0.023201
  16 C :    0.127461
  17 O :   -0.149634
  18 C :   -0.076972
  19 C :   -0.050406
  20 C :    0.049950
  21 C :   -0.045291
  22 S :    0.164318
  23 C :   -0.161343
  24 C :    0.130927
  25 C :   -0.103291
  26 C :    0.029020
  27 C :    0.009314
  28 C :   -0.124409
  29 C :    0.006286
  30 C :    0.034856
  31 C :    0.113764
  32 C :    0.069036
  33 C :   -0.111986
  34 S :    0.143654
  35 C :   -0.145485
  36 C :   -0.023317
  37 C :   -0.021581
  38 C :   -0.002606
  39 C :   -0.020951
  40 C :    0.036062
  41 C :    0.023551
  42 C :   -0.038769
  43 S :    0.069862
  44 C :   -0.037633
  45 C :    0.035591
  46 C :    0.022221
  47 C :   -0.033732
  48 S :    0.083855
  49 C :    0.046532
  50 C :   -0.198080
  51 S :    0.123583
  52 C :   -0.185418
  53 C :    0.131955
  54 C :    0.179386
  55 O :   -0.190137
  56 C :    0.237452
  57 N :    0.282835
  58 O :   -0.258188
  59 O :   -0.245149
  60 C :   -0.124319
  61 C :    0.103121
  62 C :    0.025688
  63 C :   -0.037024
  64 C :    0.016822
  65 C :    0.028614
  66 C :    0.006209
  67 C :    0.081727
  68 C :   -0.067023
  69 C :    0.018231
  70 C :   -0.010484
  71 H :   -0.010800
  72 H :   -0.006554
  73 H :   -0.003069
  74 H :    0.005717
  75 H :    0.034889
  76 H :    0.025273
  77 H :   -0.007523
  78 H :    0.025870
  79 H :    0.017560
  80 H :    0.012565
  81 H :    0.017423
  82 H :    0.011269
  83 H :    0.007100
  84 H :    0.014732
  85 H :    0.018191
  86 H :    0.034544
  87 H :   -0.011055
  88 H :    0.025378
  89 H :   -0.019539
  90 H :   -0.014768
  91 H :   -0.015671
  92 H :   -0.018156
  93 H :   -0.018383
  94 H :   -0.027603
  95 H :    0.018971
  96 H :   -0.021437
  97 H :   -0.008857
  98 H :   -0.011485
  99 H :   -0.027288
 100 H :   -0.033628
 101 H :    0.036042
 102 H :    0.034364
Sum of atomic charges:   -0.0000000

LOEWDIN ATOMIC CHARGES
----------------------
   0 C :    0.080160
   1 C :   -0.147380
   2 C :   -0.017909
   3 N :   -0.057390
   4 C :   -0.017199
   5 N :   -0.054219
   6 C :   -0.021969
   7 C :   -0.050156
   8 C :    0.021037
   9 C :   -0.032339
  10 C :   -0.143847
  11 C :   -0.009558
  12 S :    0.431964
  13 C :   -0.271144
  14 C :   -0.070614
  15 Br:    0.136290
  16 C :    0.080473
  17 O :   -0.143184
  18 C :   -0.106339
  19 C :    0.086975
  20 C :   -0.084501
  21 C :   -0.108457
  22 S :    0.456741
  23 C :   -0.178484
  24 C :   -0.035894
  25 C :   -0.018985
  26 C :   -0.033439
  27 C :   -0.050762
  28 C :   -0.014741
  29 C :   -0.032244
  30 C :   -0.053185
  31 C :   -0.039351
  32 C :   -0.065430
  33 C :   -0.155070
  34 S :    0.429205
  35 C :   -0.179510
  36 C :   -0.016654
  37 C :   -0.036279
  38 C :   -0.048765
  39 C :   -0.148242
  40 C :   -0.033314
  41 C :   -0.036479
  42 C :   -0.174737
  43 S :    0.388974
  44 C :   -0.190294
  45 C :   -0.033475
  46 C :   -0.043195
  47 C :   -0.147720
  48 S :    0.407887
  49 C :   -0.091947
  50 C :   -0.197122
  51 S :    0.444407
  52 C :   -0.149309
  53 C :   -0.080961
  54 C :    0.013737
  55 O :    0.003813
  56 C :    0.015983
  57 N :    0.276122
  58 O :   -0.219754
  59 O :   -0.209279
  60 C :   -0.005087
  61 C :   -0.062692
  62 C :   -0.012238
  63 C :   -0.023479
  64 C :   -0.018869
  65 C :   -0.022722
  66 C :   -0.011261
  67 C :   -0.016355
  68 C :   -0.034403
  69 C :   -0.015921
  70 C :    0.044081
  71 H :    0.040587
  72 H :    0.040944
  73 H :    0.038924
  74 H :    0.042006
  75 H :    0.028410
  76 H :    0.027397
  77 H :    0.028118
  78 H :    0.022561
  79 H :    0.026773
  80 H :    0.024577
  81 H :    0.029407
  82 H :    0.030165
  83 H :    0.023668
  84 H :    0.024783
  85 H :    0.022662
  86 H :    0.027553
  87 H :    0.028478
  88 H :    0.024143
  89 H :    0.030484
  90 H :    0.032128
  91 H :    0.031072
  92 H :    0.030299
  93 H :    0.030188
  94 H :    0.032265
  95 H :    0.046710
  96 H :    0.030185
  97 H :    0.030375
  98 H :    0.029626
  99 H :    0.029486
 100 H :    0.021703
 101 H :    0.015303
 102 H :    0.035024

  Mayer bond orders larger than 0.100000
B(  0-C ,  1-C ) :   1.6224 B(  0-C ,  6-C ) :   1.0039 B(  0-C , 18-C ) :   1.0632
B(  1-C ,  2-C ) :   1.1422 B(  1-C ,  4-C ) :   1.1582 B(  2-C ,  3-N ) :   2.9667
B(  4-C ,  5-N ) :   2.9298 B(  6-C ,  7-C ) :   1.2711 B(  6-C , 11-C ) :   1.4057
B(  7-C ,  8-C ) :   1.4227 B(  7-C , 16-C ) :   0.9409 B(  8-C ,  9-C ) :   1.2449
B(  8-C , 71-H ) :   1.0165 B(  9-C , 10-C ) :   1.3053 B(  9-C , 14-C ) :   1.1632
B( 10-C , 11-C ) :   1.3345 B( 10-C , 12-S ) :   1.0856 B( 11-C , 72-H ) :   0.9782
B( 12-S , 13-C ) :   1.0863 B( 13-C , 14-C ) :   1.6182 B( 13-C , 15-Br) :   1.0188
B( 14-C , 73-H ) :   0.9998 B( 16-C , 17-O ) :   2.2249 B( 16-C , 18-C ) :   0.9313
B( 18-C , 19-C ) :   1.6100 B( 19-C , 20-C ) :   1.0964 B( 19-C , 74-H ) :   0.9300
B( 20-C , 21-C ) :   1.5416 B( 20-C , 24-C ) :   1.1172 B( 21-C , 22-S ) :   1.1897
B( 21-C , 75-H ) :   0.9511 B( 22-S , 23-C ) :   1.0617 B( 23-C , 24-C ) :   1.3844
B( 23-C , 35-C ) :   1.3854 B( 24-C , 25-C ) :   1.2531 B( 25-C , 26-C ) :   1.0607
B( 25-C , 28-C ) :   1.5129 B( 26-C , 27-C ) :   1.1010 B( 26-C , 76-H ) :   0.9171
B( 26-C , 77-H ) :   0.9040 B( 27-C , 78-H ) :   0.9639 B( 27-C , 79-H ) :   0.9660
B( 27-C , 80-H ) :   0.9571 B( 28-C , 29-C ) :   1.0533 B( 28-C , 31-C ) :   1.2741
B( 29-C , 30-C ) :   1.1007 B( 29-C , 81-H ) :   0.9212 B( 29-C , 82-H ) :   0.9218
B( 30-C , 83-H ) :   0.9613 B( 30-C , 84-H ) :   0.9652 B( 30-C , 85-H ) :   0.9593
B( 31-C , 32-C ) :   1.1370 B( 31-C , 35-C ) :   1.3680 B( 32-C , 33-C ) :   1.5933
B( 32-C , 36-C ) :   1.0268 B( 33-C , 34-S ) :   1.1269 B( 33-C , 86-H ) :   0.9595
B( 34-S , 35-C ) :   1.0810 B( 36-C , 37-C ) :   1.6864 B( 36-C , 87-H ) :   0.9675
B( 37-C , 38-C ) :   1.1348 B( 37-C , 88-H ) :   0.9692 B( 38-C , 39-C ) :   1.5610
B( 38-C , 89-H ) :   0.9870 B( 39-C , 40-C ) :   1.1492 B( 39-C , 43-S ) :   1.0316
B( 40-C , 41-C ) :   1.5691 B( 40-C , 90-H ) :   0.9989 B( 41-C , 42-C ) :   1.2094
B( 41-C , 91-H ) :   0.9954 B( 42-C , 43-S ) :   1.0633 B( 42-C , 44-C ) :   1.4532
B( 44-C , 45-C ) :   1.2181 B( 44-C , 48-S ) :   1.0435 B( 45-C , 46-C ) :   1.5509
B( 45-C , 92-H ) :   0.9945 B( 46-C , 47-C ) :   1.1777 B( 46-C , 93-H ) :   0.9994
B( 47-C , 48-S ) :   1.0587 B( 47-C , 49-C ) :   1.5295 B( 49-C , 50-C ) :   1.2176
B( 49-C , 94-H ) :   0.9402 B( 50-C , 51-S ) :   1.0724 B( 50-C , 54-C ) :   1.3728
B( 51-S , 52-C ) :   1.1207 B( 52-C , 53-C ) :   1.3057 B( 52-C , 61-C ) :   1.2374
B( 53-C , 54-C ) :   1.2549 B( 53-C , 60-C ) :   1.1109 B( 54-C , 55-O ) :   1.1023
B( 55-O , 56-C ) :   1.1147 B( 56-C , 57-N ) :   0.9380 B( 56-C , 60-C ) :   1.5245
B( 57-N , 58-O ) :   1.5173 B( 57-N , 59-O ) :   1.4855 B( 58-O , 59-O ) :   0.2703
B( 60-C , 95-H ) :   1.0206 B( 61-C , 62-C ) :   1.3830 B( 61-C , 69-C ) :   1.0262
B( 62-C , 63-C ) :   1.1881 B( 62-C , 67-C ) :   1.1301 B( 63-C , 64-C ) :   1.5686
B( 63-C , 96-H ) :   0.9926 B( 64-C , 65-C ) :   1.1680 B( 64-C , 97-H ) :   0.9831
B( 65-C , 66-C ) :   1.5965 B( 65-C , 98-H ) :   0.9862 B( 66-C , 67-C ) :   1.1277
B( 66-C , 99-H ) :   0.9987 B( 67-C , 68-C ) :   1.4812 B( 68-C , 69-C ) :   1.0623
B( 68-C ,100-H ) :   1.0172 B( 69-C , 70-C ) :   1.8378 B( 70-C ,101-H ) :   0.9257
B( 70-C ,102-H ) :   0.9387

-----------------------------------------------------------------------------
         ABSORPTION SPECTRUM VIA TRANSITION ELECTRIC DIPOLE MOMENTS
-----------------------------------------------------------------------------
State   Energy  Wavelength   fosc         T2         TX        TY        TZ
        (cm-1)    (nm)                  (au**2)     (au)      (au)      (au)
-----------------------------------------------------------------------------
   0    6335.6   1578.4   0.371342428  19.29587  -0.80988   2.55268   3.48192
   1   12115.0    825.4   0.092336070   2.50914   0.12093   0.87527   1.31469
   2   13411.8    745.6   0.407685189  10.00721   0.88480   1.46109   2.66262
   3   14754.5    677.8   0.057011065   1.27207   1.05915  -0.04791   0.38466
   4   15172.4    659.1   0.001553627   0.03371   0.06595  -0.09409  -0.14320
   5   21360.0    468.2   0.151636800   2.33711  -1.30572   0.05984  -0.79285
   6   21615.2    462.6   0.007916554   0.12057  -0.25316   0.12479  -0.20226
   7   22142.7    451.6   0.580137386   8.62535   1.78795  -0.57731   2.25728
   8   22231.0    449.8   0.054163573   0.80209   0.40690  -0.58690  -0.54043
   9   23292.4    429.3   0.012129741   0.17144   0.34317  -0.09386  -0.21181
  10   23625.1    423.3   0.311827028   4.34527   1.98007  -0.51044  -0.40502
  11   24548.7    407.4   0.613403552   8.22609   2.83866  -0.40141   0.08344
  12   26447.9    378.1   0.004311899   0.05367   0.22017   0.05472  -0.04693
  13   26536.0    376.8   0.004451244   0.05522   0.14821   0.11844   0.13866
  14   26725.2    374.2   0.000695174   0.00856  -0.04045  -0.06305   0.05433
  15   27403.7    364.9   0.006078598   0.07302  -0.25665   0.01468   0.08331
  16   28597.5    349.7   0.072407631   0.83355  -0.76108   0.43838   0.24926
  17   28692.3    348.5   0.383826874   4.40398  -2.05401  -0.42795  -0.04340
  18   29342.3    340.8   0.011218289   0.12587  -0.32162   0.05728   0.13836
  19   29499.6    339.0   0.147273618   1.64356  -0.69925  -0.28861  -1.03504
  20   29952.1    333.9   0.023495776   0.25825  -0.45117   0.01890  -0.23311
  21   30372.1    329.2   0.083855374   0.90893  -0.86925  -0.01361  -0.39134
  22   30414.9    328.8   0.019164084   0.20743  -0.39245  -0.21357   0.08835
  23   30490.7    328.0   0.015887325   0.17154  -0.01822   0.11333  -0.39795
  24   31302.0    319.5   0.035298069   0.37124   0.60118  -0.09146   0.03814
  25   31507.0    317.4   0.008253163   0.08624   0.18312   0.16881   0.15558
  26   31922.9    313.3   0.001853940   0.01912  -0.12318   0.00910  -0.06215
  27   32045.5    312.1   0.008888721   0.09132  -0.24052   0.08330  -0.16287
  28   32129.8    311.2   0.002104890   0.02157  -0.11464  -0.07116  -0.05797
  29   32594.1    306.8   0.149317412   1.50816  -1.01401  -0.02226  -0.69243
  30   32758.9    305.3   0.271819417   2.73166  -1.31214  -0.14685  -0.99418
  31   32873.4    304.2   0.175537445   1.75792   0.56315  -0.45273   1.11168
  32   32997.4    303.1   0.052965992   0.52844   0.62917   0.35931   0.05902
  33   33392.9    299.5   0.121348582   1.19635  -1.09236   0.04567   0.03189
  34   33666.7    297.0   0.013532838   0.13233  -0.26259  -0.14588  -0.20518
  35   33881.2    295.1   0.633710059   6.15753  -2.36997  -0.69784   0.23190
  36   34052.9    293.7   0.042489515   0.41077  -0.33625  -0.19723  -0.50873
  37   34139.9    292.9   0.023940021   0.23085   0.09225  -0.04526   0.46936
  38   34607.4    289.0   0.092165228   0.87675   0.84967   0.29131  -0.26448
  39   34690.4    288.3   0.009871145   0.09368   0.21254  -0.02695   0.21858
  40   34977.2    285.9   0.028618009   0.26936  -0.29937   0.30124  -0.29831
  41   35190.1    284.2   0.014063256   0.13157   0.24314  -0.06156  -0.26203
  42   35299.2    283.3   0.006665388   0.06216   0.24420  -0.02809  -0.04172
  43   35784.8    279.4   0.040325769   0.37099   0.60441  -0.03966   0.06402
  44   36147.4    276.6   0.004032399   0.03672   0.16589  -0.02607  -0.09233
  45   36295.7    275.5   0.008893882   0.08067  -0.27742  -0.02888   0.05359
  46   36445.5    274.4   0.025887030   0.23384  -0.35628  -0.08868  -0.31470
  47   37300.6    268.1   0.171981950   1.51790   0.81777   0.45699   0.80019
  48   37568.0    266.2   0.200188133   1.75427   0.08585   0.38057   1.26573
  49   37859.9    264.1   0.176235188   1.53246   0.76665   0.39253   0.88917
  50   37901.1    263.8   0.080232110   0.69690  -0.68778  -0.31434  -0.35363
  51   38083.4    262.6   0.217858624   1.88328   1.25972  -0.29656   0.45654
  52   38453.0    260.1   0.012504808   0.10706  -0.23181  -0.14411  -0.18044
  53   38844.0    257.4   0.057530637   0.48759  -0.33491  -0.29730  -0.53576
  54   39261.8    254.7   0.134169202   1.12501  -0.94429   0.43724  -0.20531
  55   39310.8    254.4   0.147089380   1.23181   0.26354  -0.58454   0.90591
  56   39517.0    253.1   0.002696175   0.02246  -0.11175  -0.04810  -0.08752
  57   39929.3    250.4   0.086592584   0.71394  -0.05831  -0.14337  -0.83066

FINAL SINGLE POINT ENERGY     -7615.240364462892

DIPOLE MOMENT
-------------
                                X             Y             Z
Electronic contribution:    171.59776      -6.46136      98.75291
Nuclear contribution   :   -172.29738       6.52170    -101.38765
                        -----------------------------------------
Total Dipole Moment    :     -0.69962       0.06035      -2.63474
                        -----------------------------------------
Magnitude (a.u.)       :      2.72671
Magnitude (Debye)      :      6.93075

Rotational constants in cm-1:     0.001244     0.000212     0.000187
Rotational constants in MHz :    37.294343     6.359872     5.618189

                             ****ORCA TERMINATED NORMALLY****
TOTAL RUN TIME: 0 days 0 hours 12 minutes 20 seconds 730 msec
