                         Program Version 4.2.0 -  RELEASE  -
|  1> # ORCA input file
|  2> # SCF done       -195.339763587147          0.000593801140
|  3> ! CAM-B3LYP def2-SVP def2/J RIJCOSX Grid4 TightSCF
|  4> %maxcore 5000
|  5> %tddft
|  6>     Mode sTDDFT
|  7>     Ethresh 5.0
|  8>     maxcore 5000
|  9> end
| 10>
| 11> %pal
| 12>   nprocs 6
| 13>   end
| 14> * xyz 0 1
| 15>    C      -15.48229         7.60623        -2.16118
| 16>    C      -16.33794         7.61910        -1.09061
| 17>    C      -17.73037         7.41832        -1.18333
| 18>    N      -18.86727         7.26077        -1.19580
| 19>    C      -15.93073         7.85127         0.23868
| 20>    N      -15.63875         8.04326         1.33220
| 21>    C      -15.85373         7.38814        -3.55533
| 22>    C      -14.69417         7.50695        -4.36840
| 23>    C      -14.72575         7.34563        -5.73373
| 24>    C      -15.95672         7.04147        -6.32129
| 25>    C      -17.10752         6.92454        -5.50574
| 26>    C      -17.07709         7.09601        -4.12622
| 27>    S      -18.51614         6.54126        -6.44455
| 28>    C      -17.55203         6.53928        -7.89962
| 29>    C      -16.24242         6.81462        -7.69493
| 30>   Br      -18.37144         6.17864        -9.54581
| 31>    C      -13.54607         7.78521        -3.51033
| 32>    O      -12.37627         7.95655        -3.85591
| 33>    C      -14.05153         7.81751        -2.13055
| 34>    C      -13.21279         7.98298        -1.05593
| 35>    N      -11.89854         8.11913        -1.27657
| 36>    C      -10.87533         8.22076        -0.39785
| 37>    S      -11.10290         8.42649         1.30558
| 38>    C       -9.37821         8.41464         1.51212
| 39>    N       -8.87726         8.56067         2.81286
| 40>    O       -7.66926         8.55077         2.95584
| 41>    O       -9.69737         8.68684         3.70440
| 42>    C       -8.67946         8.25440         0.34495
| 43>    C       -9.52278         8.14324        -0.77388
| 44>    C       -9.14528         7.91380        -2.13841
| 45>    C       -7.93872         7.59273        -2.63896
| 46>    C       -7.81023         7.28911        -4.03663
| 47>    S       -6.38971         7.71283        -4.93486
| 48>    C       -7.09024         7.20282        -6.44294
| 49>    C       -8.36261         6.70771        -6.23168
| 50>    C       -8.75663         6.73197        -4.87680
| 51>    S      -10.16086         5.87145        -4.23898
| 52>    C      -11.36723         5.83498        -5.50869
| 53>    O      -12.41537         5.28321        -5.29349
| 54>    C      -11.09702         6.41964        -6.87423
| 55>    O      -12.00316         6.75736        -7.58593
| 56>    S       -9.46331         6.34214        -7.56472
| 57>    C       -6.34007         7.35059        -7.66715
| 58>    C       -5.33964         8.33168        -7.74323
| 59>    C       -4.62871         8.48302        -8.90587
| 60>    C       -4.89489         7.66561       -10.01874
| 61>    C       -5.86988         6.68086        -9.94566
| 62>    C       -6.58063         6.52654        -8.77253
| 63>    C       -3.99237         8.03521       -11.08437
| 64>    C       -3.16111         9.07710       -10.63095
| 65>    C       -3.54932         9.49297        -9.22922
| 66>    C       -4.22006        10.88752        -9.20957
| 67>    C       -3.35880        12.04655        -9.69310
| 68>    C       -2.37241         9.41507        -8.24621
| 69>    C       -1.78600         8.01085        -8.15564
| 70>    C       -2.15312         9.55942       -11.42779
| 71>    C       -1.98252         9.04977       -12.72728
| 72>    C       -2.84813         8.03591       -13.17229
| 73>    C       -3.83548         7.51742       -12.36328
| 74>    C       -0.97180         9.52683       -13.63074
| 75>    C       -0.00847        10.44284       -13.35541
| 76>    C        0.97387        10.93584       -14.24533
| 77>    C        1.15421        10.69538       -15.58186
| 78>    C        2.18903        11.27990       -16.36598
| 79>    C        2.17856        10.93293       -17.67733
| 80>    C        1.13102        10.04433       -18.02820
| 81>    S        0.16772         9.66832       -16.61065
| 82>    C        0.84736         9.51635       -19.26302
| 83>    C        1.54922         9.74202       -20.48137
| 84>    C        1.03853         9.09012       -21.54813
| 85>    C       -0.11688         8.28923       -21.25783
| 86>    S       -0.50050         8.42808       -19.53443
| 87>    C       -0.83009         7.54005       -22.10890
| 88>    H      -13.83704         7.43229        -6.33756
| 89>    H      -17.97900         6.99318        -3.54620
| 90>    H      -15.50049         6.85097        -8.47159
| 91>    H      -13.55782         7.98915        -0.03030
| 92>    H      -11.66804         8.08754        -2.28836
| 93>    H       -7.60598         8.22672         0.31423
| 94>    H       -9.94971         7.98389        -2.85479
| 95>    H       -7.04093         7.58350        -2.04000
| 96>    H       -5.14887         8.96028        -6.88514
| 97>    H       -6.06669         6.03545       -10.78777
| 98>    H       -7.31240         5.73763        -8.69717
| 99>    H       -4.54181        11.08531        -8.18444
|100>    H       -5.11692        10.83570        -9.83259
|101>    H       -2.44388        12.13099        -9.11262
|102>    H       -3.91373        12.97578        -9.58241
|103>    H       -3.10506        11.92965       -10.74300
|104>    H       -2.71523         9.73117        -7.25865
|105>    H       -1.59175        10.10533        -8.56782
|106>    H       -2.53414         7.30227        -7.80713
|107>    H       -0.94969         7.99765        -7.46056
|108>    H       -1.43023         7.68163        -9.12951
|109>    H       -1.48727        10.32376       -11.06116
|110>    H       -2.71885         7.64929       -14.17294
|111>    H       -4.47459         6.72223       -12.71697
|112>    H       -1.00510         9.08777       -14.61749
|113>    H        0.05007        10.85511       -12.35676
|114>    H        1.69124        11.62403       -13.81367
|115>    H        2.90839        11.94579       -15.92170
|116>    H        2.88727        11.28902       -18.40329
|117>    H        2.41123        10.38438       -20.51864
|118>    H        1.43321         9.13966       -22.54748
|119>    H       -0.56183         7.48547       -23.14918
|120>    H       -1.68522         6.97529       -21.78595
|121> *
|122>
|123>                          ****END OF INPUT****

CARTESIAN COORDINATES (ANGSTROEM)
---------------------------------
  C    -15.482290    7.606230   -2.161180
  C    -16.337940    7.619100   -1.090610
  C    -17.730370    7.418320   -1.183330
  N    -18.867270    7.260770   -1.195800
  C    -15.930730    7.851270    0.238680
  N    -15.638750    8.043260    1.332200
  C    -15.853730    7.388140   -3.555330
  C    -14.694170    7.506950   -4.368400
  C    -14.725750    7.345630   -5.733730
  C    -15.956720    7.041470   -6.321290
  C    -17.107520    6.924540   -5.505740
  C    -17.077090    7.096010   -4.126220
  S    -18.516140    6.541260   -6.444550
  C    -17.552030    6.539280   -7.899620
  C    -16.242420    6.814620   -7.694930
  Br   -18.371440    6.178640   -9.545810
  C    -13.546070    7.785210   -3.510330
  O    -12.376270    7.956550   -3.855910
  C    -14.051530    7.817510   -2.130550
  C    -13.212790    7.982980   -1.055930
  N    -11.898540    8.119130   -1.276570
  C    -10.875330    8.220760   -0.397850
  S    -11.102900    8.426490    1.305580
  C     -9.378210    8.414640    1.512120
  N     -8.877260    8.560670    2.812860
  O     -7.669260    8.550770    2.955840
  O     -9.697370    8.686840    3.704400
  C     -8.679460    8.254400    0.344950
  C     -9.522780    8.143240   -0.773880
  C     -9.145280    7.913800   -2.138410
  C     -7.938720    7.592730   -2.638960
  C     -7.810230    7.289110   -4.036630
  S     -6.389710    7.712830   -4.934860
  C     -7.090240    7.202820   -6.442940
  C     -8.362610    6.707710   -6.231680
  C     -8.756630    6.731970   -4.876800
  S    -10.160860    5.871450   -4.238980
  C    -11.367230    5.834980   -5.508690
  O    -12.415370    5.283210   -5.293490
  C    -11.097020    6.419640   -6.874230
  O    -12.003160    6.757360   -7.585930
  S     -9.463310    6.342140   -7.564720
  C     -6.340070    7.350590   -7.667150
  C     -5.339640    8.331680   -7.743230
  C     -4.628710    8.483020   -8.905870
  C     -4.894890    7.665610  -10.018740
  C     -5.869880    6.680860   -9.945660
  C     -6.580630    6.526540   -8.772530
  C     -3.992370    8.035210  -11.084370
  C     -3.161110    9.077100  -10.630950
  C     -3.549320    9.492970   -9.229220
  C     -4.220060   10.887520   -9.209570
  C     -3.358800   12.046550   -9.693100
  C     -2.372410    9.415070   -8.246210
  C     -1.786000    8.010850   -8.155640
  C     -2.153120    9.559420  -11.427790
  C     -1.982520    9.049770  -12.727280
  C     -2.848130    8.035910  -13.172290
  C     -3.835480    7.517420  -12.363280
  C     -0.971800    9.526830  -13.630740
  C     -0.008470   10.442840  -13.355410
  C      0.973870   10.935840  -14.245330
  C      1.154210   10.695380  -15.581860
  C      2.189030   11.279900  -16.365980
  C      2.178560   10.932930  -17.677330
  C      1.131020   10.044330  -18.028200
  S      0.167720    9.668320  -16.610650
  C      0.847360    9.516350  -19.263020
  C      1.549220    9.742020  -20.481370
  C      1.038530    9.090120  -21.548130
  C     -0.116880    8.289230  -21.257830
  S     -0.500500    8.428080  -19.534430
  C     -0.830090    7.540050  -22.108900
  H    -13.837040    7.432290   -6.337560
  H    -17.979000    6.993180   -3.546200
  H    -15.500490    6.850970   -8.471590
  H    -13.557820    7.989150   -0.030300
  H    -11.668040    8.087540   -2.288360
  H     -7.605980    8.226720    0.314230
  H     -9.949710    7.983890   -2.854790
  H     -7.040930    7.583500   -2.040000
  H     -5.148870    8.960280   -6.885140
  H     -6.066690    6.035450  -10.787770
  H     -7.312400    5.737630   -8.697170
  H     -4.541810   11.085310   -8.184440
  H     -5.116920   10.835700   -9.832590
  H     -2.443880   12.130990   -9.112620
  H     -3.913730   12.975780   -9.582410
  H     -3.105060   11.929650  -10.743000
  H     -2.715230    9.731170   -7.258650
  H     -1.591750   10.105330   -8.567820
  H     -2.534140    7.302270   -7.807130
  H     -0.949690    7.997650   -7.460560
  H     -1.430230    7.681630   -9.129510
  H     -1.487270   10.323760  -11.061160
  H     -2.718850    7.649290  -14.172940
  H     -4.474590    6.722230  -12.716970
  H     -1.005100    9.087770  -14.617490
  H      0.050070   10.855110  -12.356760
  H      1.691240   11.624030  -13.813670
  H      2.908390   11.945790  -15.921700
  H      2.887270   11.289020  -18.403290
  H      2.411230   10.384380  -20.518640
  H      1.433210    9.139660  -22.547480
  H     -0.561830    7.485470  -23.149180
  H     -1.685220    6.975290  -21.785950

 Total Charge           Charge          ....    0
 Multiplicity           Mult            ....    1
 Number of Electrons    NEL             ....  584
 Basis Dimension        Dim             .... 1233

ORBITAL ENERGIES
----------------

  NO   OCC          E(Eh)            E(eV)
   0   2.0000    -482.882294    -13139.8952
   1   2.0000     -88.996137     -2421.7080
   2   2.0000     -88.978281     -2421.2221
   3   2.0000     -88.973300     -2421.0866
   4   2.0000     -88.971009     -2421.0243
   5   2.0000     -88.969495     -2420.9830
   6   2.0000     -88.943890     -2420.2863
   7   2.0000     -88.938368     -2420.1360
   8   2.0000     -62.560013     -1702.3445
   9   2.0000     -56.393961     -1534.5577
  10   2.0000     -56.391248     -1534.4839
  11   2.0000     -56.391217     -1534.4830
  12   2.0000     -19.254922      -523.9531
  13   2.0000     -19.243001      -523.6287
  14   2.0000     -19.242062      -523.6031
  15   2.0000     -19.240954      -523.5730
  16   2.0000     -19.237294      -523.4734
  17   2.0000     -14.654461      -398.7682
  18   2.0000     -14.496525      -394.4705
  19   2.0000     -14.420092      -392.3907
  20   2.0000     -14.414706      -392.2441
  21   2.0000     -10.412217      -283.3308
  22   2.0000     -10.405751      -283.1549
  23   2.0000     -10.382149      -282.5126
  24   2.0000     -10.379496      -282.4404
  25   2.0000     -10.372676      -282.2549
  26   2.0000     -10.355206      -281.7795
  27   2.0000     -10.352619      -281.7091
  28   2.0000     -10.346375      -281.5392
  29   2.0000     -10.342417      -281.4315
  30   2.0000     -10.330211      -281.0993
  31   2.0000     -10.329743      -281.0866
  32   2.0000     -10.328040      -281.0402
  33   2.0000     -10.326519      -280.9989
  34   2.0000     -10.323867      -280.9267
  35   2.0000     -10.322599      -280.8922
  36   2.0000     -10.318374      -280.7772
  37   2.0000     -10.317840      -280.7627
  38   2.0000     -10.312373      -280.6139
  39   2.0000     -10.310219      -280.5553
  40   2.0000     -10.308655      -280.5128
  41   2.0000     -10.306721      -280.4601
  42   2.0000     -10.306679      -280.4590
  43   2.0000     -10.306109      -280.4435
  44   2.0000     -10.304895      -280.4104
  45   2.0000     -10.304426      -280.3977
  46   2.0000     -10.304014      -280.3865
  47   2.0000     -10.303193      -280.3641
  48   2.0000     -10.302061      -280.3333
  49   2.0000     -10.297106      -280.1985
  50   2.0000     -10.296772      -280.1894
  51   2.0000     -10.293109      -280.0897
  52   2.0000     -10.292349      -280.0690
  53   2.0000     -10.289861      -280.0013
  54   2.0000     -10.285273      -279.8765
  55   2.0000     -10.284383      -279.8523
  56   2.0000     -10.283525      -279.8289
  57   2.0000     -10.282274      -279.7949
  58   2.0000     -10.282156      -279.7917
  59   2.0000     -10.281381      -279.7706
  60   2.0000     -10.279450      -279.7180
  61   2.0000     -10.278691      -279.6974
  62   2.0000     -10.277957      -279.6774
  63   2.0000     -10.276167      -279.6287
  64   2.0000     -10.274442      -279.5818
  65   2.0000     -10.272399      -279.5262
  66   2.0000     -10.271956      -279.5141
  67   2.0000     -10.271482      -279.5012
  68   2.0000     -10.271283      -279.4958
  69   2.0000     -10.270416      -279.4722
  70   2.0000     -10.269281      -279.4413
  71   2.0000     -10.269026      -279.4344
  72   2.0000     -10.268771      -279.4275
  73   2.0000     -10.267891      -279.4035
  74   2.0000     -10.267789      -279.4007
  75   2.0000     -10.254868      -279.0491
  76   2.0000     -10.250872      -278.9404
  77   2.0000      -8.789448      -239.1731
  78   2.0000      -8.091398      -220.1781
  79   2.0000      -8.073803      -219.6994
  80   2.0000      -8.069306      -219.5770
  81   2.0000      -8.067418      -219.5256
  82   2.0000      -8.065900      -219.4843
  83   2.0000      -8.039456      -218.7647
  84   2.0000      -8.035086      -218.6458
  85   2.0000      -6.625741      -180.2956
  86   2.0000      -6.611192      -179.8997
  87   2.0000      -6.610990      -179.8942
  88   2.0000      -6.060987      -164.9278
  89   2.0000      -6.056650      -164.8098
  90   2.0000      -6.052932      -164.7086
  91   2.0000      -6.043049      -164.4397
  92   2.0000      -6.039032      -164.3304
  93   2.0000      -6.038950      -164.3282
  94   2.0000      -6.037305      -164.2834
  95   2.0000      -6.035837      -164.2435
  96   2.0000      -6.035785      -164.2421
  97   2.0000      -6.034722      -164.2131
  98   2.0000      -6.032939      -164.1646
  99   2.0000      -6.031488      -164.1251
 100   2.0000      -6.030563      -164.1000
 101   2.0000      -6.027980      -164.0297
 102   2.0000      -6.026469      -163.9886
 103   2.0000      -6.009253      -163.5201
 104   2.0000      -6.005189      -163.4095
 105   2.0000      -6.004930      -163.4025
 106   2.0000      -6.000999      -163.2955
 107   2.0000      -6.000401      -163.2792
 108   2.0000      -5.995580      -163.1480
 109   2.0000      -2.741617       -74.6032
 110   2.0000      -2.737524       -74.4918
 111   2.0000      -2.737389       -74.4881
 112   2.0000      -2.725816       -74.1732
 113   2.0000      -2.725804       -74.1729
 114   2.0000      -1.324276       -36.0354
 115   2.0000      -1.184173       -32.2230
 116   2.0000      -1.153072       -31.3767
 117   2.0000      -1.149428       -31.2775
 118   2.0000      -1.143461       -31.1152
 119   2.0000      -1.106510       -30.1097
 120   2.0000      -1.024251       -27.8713
 121   2.0000      -1.023044       -27.8384
 122   2.0000      -1.015874       -27.6433
 123   2.0000      -1.013043       -27.5663
 124   2.0000      -0.996573       -27.1181
 125   2.0000      -0.992265       -27.0009
 126   2.0000      -0.990942       -26.9649
 127   2.0000      -0.990870       -26.9629
 128   2.0000      -0.968080       -26.3428
 129   2.0000      -0.954246       -25.9664
 130   2.0000      -0.942816       -25.6553
 131   2.0000      -0.939825       -25.5739
 132   2.0000      -0.934679       -25.4339
 133   2.0000      -0.923527       -25.1304
 134   2.0000      -0.912802       -24.8386
 135   2.0000      -0.909189       -24.7403
 136   2.0000      -0.900475       -24.5032
 137   2.0000      -0.898908       -24.4605
 138   2.0000      -0.883934       -24.0531
 139   2.0000      -0.883476       -24.0406
 140   2.0000      -0.883074       -24.0297
 141   2.0000      -0.869842       -23.6696
 142   2.0000      -0.863589       -23.4995
 143   2.0000      -0.853161       -23.2157
 144   2.0000      -0.847002       -23.0481
 145   2.0000      -0.844823       -22.9888
 146   2.0000      -0.840925       -22.8827
 147   2.0000      -0.839324       -22.8392
 148   2.0000      -0.834113       -22.6974
 149   2.0000      -0.833025       -22.6678
 150   2.0000      -0.828051       -22.5324
 151   2.0000      -0.821093       -22.3431
 152   2.0000      -0.814286       -22.1578
 153   2.0000      -0.801710       -21.8156
 154   2.0000      -0.791418       -21.5356
 155   2.0000      -0.772729       -21.0270
 156   2.0000      -0.769308       -20.9339
 157   2.0000      -0.764624       -20.8065
 158   2.0000      -0.757056       -20.6006
 159   2.0000      -0.752359       -20.4727
 160   2.0000      -0.742604       -20.2073
 161   2.0000      -0.735844       -20.0233
 162   2.0000      -0.720539       -19.6069
 163   2.0000      -0.716795       -19.5050
 164   2.0000      -0.706158       -19.2155
 165   2.0000      -0.700176       -19.0528
 166   2.0000      -0.694258       -18.8917
 167   2.0000      -0.691559       -18.8183
 168   2.0000      -0.686311       -18.6755
 169   2.0000      -0.681587       -18.5469
 170   2.0000      -0.675693       -18.3865
 171   2.0000      -0.672620       -18.3029
 172   2.0000      -0.662729       -18.0338
 173   2.0000      -0.657816       -17.9001
 174   2.0000      -0.654719       -17.8158
 175   2.0000      -0.652292       -17.7498
 176   2.0000      -0.643839       -17.5197
 177   2.0000      -0.638463       -17.3734
 178   2.0000      -0.635880       -17.3032
 179   2.0000      -0.634576       -17.2677
 180   2.0000      -0.631944       -17.1961
 181   2.0000      -0.628684       -17.1074
 182   2.0000      -0.625011       -17.0074
 183   2.0000      -0.620729       -16.8909
 184   2.0000      -0.617440       -16.8014
 185   2.0000      -0.606784       -16.5114
 186   2.0000      -0.599669       -16.3178
 187   2.0000      -0.597864       -16.2687
 188   2.0000      -0.595909       -16.2155
 189   2.0000      -0.594491       -16.1769
 190   2.0000      -0.589200       -16.0330
 191   2.0000      -0.581174       -15.8146
 192   2.0000      -0.577809       -15.7230
 193   2.0000      -0.574389       -15.6299
 194   2.0000      -0.570319       -15.5192
 195   2.0000      -0.566711       -15.4210
 196   2.0000      -0.562542       -15.3076
 197   2.0000      -0.557929       -15.1820
 198   2.0000      -0.555443       -15.1144
 199   2.0000      -0.552557       -15.0358
 200   2.0000      -0.551505       -15.0072
 201   2.0000      -0.546837       -14.8802
 202   2.0000      -0.545867       -14.8538
 203   2.0000      -0.543231       -14.7821
 204   2.0000      -0.539825       -14.6894
 205   2.0000      -0.537257       -14.6195
 206   2.0000      -0.534946       -14.5566
 207   2.0000      -0.533860       -14.5271
 208   2.0000      -0.529768       -14.4157
 209   2.0000      -0.526491       -14.3266
 210   2.0000      -0.524781       -14.2800
 211   2.0000      -0.523050       -14.2329
 212   2.0000      -0.520285       -14.1577
 213   2.0000      -0.519719       -14.1423
 214   2.0000      -0.516097       -14.0437
 215   2.0000      -0.513611       -13.9761
 216   2.0000      -0.508860       -13.8468
 217   2.0000      -0.507694       -13.8150
 218   2.0000      -0.505308       -13.7501
 219   2.0000      -0.504769       -13.7355
 220   2.0000      -0.502543       -13.6749
 221   2.0000      -0.495177       -13.4745
 222   2.0000      -0.493827       -13.4377
 223   2.0000      -0.493379       -13.4255
 224   2.0000      -0.489820       -13.3287
 225   2.0000      -0.488464       -13.2918
 226   2.0000      -0.485183       -13.2025
 227   2.0000      -0.481681       -13.1072
 228   2.0000      -0.479537       -13.0489
 229   2.0000      -0.478021       -13.0076
 230   2.0000      -0.475977       -12.9520
 231   2.0000      -0.473689       -12.8897
 232   2.0000      -0.472185       -12.8488
 233   2.0000      -0.467512       -12.7217
 234   2.0000      -0.462217       -12.5776
 235   2.0000      -0.460907       -12.5419
 236   2.0000      -0.458994       -12.4899
 237   2.0000      -0.457578       -12.4513
 238   2.0000      -0.454834       -12.3767
 239   2.0000      -0.453593       -12.3429
 240   2.0000      -0.451648       -12.2900
 241   2.0000      -0.450806       -12.2670
 242   2.0000      -0.449320       -12.2266
 243   2.0000      -0.447056       -12.1650
 244   2.0000      -0.445075       -12.1111
 245   2.0000      -0.444814       -12.1040
 246   2.0000      -0.440370       -11.9831
 247   2.0000      -0.437937       -11.9169
 248   2.0000      -0.437223       -11.8974
 249   2.0000      -0.434918       -11.8347
 250   2.0000      -0.429473       -11.6865
 251   2.0000      -0.428301       -11.6547
 252   2.0000      -0.427975       -11.6458
 253   2.0000      -0.423798       -11.5321
 254   2.0000      -0.419201       -11.4070
 255   2.0000      -0.418769       -11.3953
 256   2.0000      -0.416857       -11.3433
 257   2.0000      -0.415543       -11.3075
 258   2.0000      -0.412729       -11.2309
 259   2.0000      -0.411561       -11.1991
 260   2.0000      -0.410053       -11.1581
 261   2.0000      -0.403225       -10.9723
 262   2.0000      -0.398592       -10.8462
 263   2.0000      -0.394337       -10.7305
 264   2.0000      -0.392352       -10.6764
 265   2.0000      -0.389895       -10.6096
 266   2.0000      -0.389740       -10.6054
 267   2.0000      -0.387717       -10.5503
 268   2.0000      -0.385388       -10.4869
 269   2.0000      -0.382386       -10.4053
 270   2.0000      -0.381571       -10.3831
 271   2.0000      -0.373740       -10.1700
 272   2.0000      -0.372040       -10.1237
 273   2.0000      -0.371260       -10.1025
 274   2.0000      -0.371136       -10.0991
 275   2.0000      -0.359908        -9.7936
 276   2.0000      -0.353490        -9.6190
 277   2.0000      -0.346627        -9.4322
 278   2.0000      -0.342772        -9.3273
 279   2.0000      -0.337687        -9.1889
 280   2.0000      -0.337065        -9.1720
 281   2.0000      -0.327254        -8.9050
 282   2.0000      -0.323895        -8.8136
 283   2.0000      -0.317758        -8.6466
 284   2.0000      -0.317557        -8.6412
 285   2.0000      -0.313502        -8.5308
 286   2.0000      -0.305418        -8.3109
 287   2.0000      -0.295117        -8.0305
 288   2.0000      -0.290538        -7.9059
 289   2.0000      -0.274460        -7.4684
 290   2.0000      -0.257016        -6.9938
 291   2.0000      -0.215408        -5.8616
 292   0.0000      -0.089890        -2.4460
 293   0.0000      -0.072433        -1.9710
 294   0.0000      -0.070625        -1.9218
 295   0.0000      -0.059410        -1.6166
 296   0.0000      -0.054228        -1.4756

MULLIKEN ATOMIC CHARGES
-----------------------
   0 C :    0.321353
   1 C :   -0.339434
   2 C :   -0.187125
   3 N :    0.152229
   4 C :   -0.197453
   5 N :    0.145163
   6 C :    0.005692
   7 C :    0.018420
   8 C :   -0.028546
   9 C :    0.095918
  10 C :   -0.089717
  11 C :   -0.022697
  12 S :    0.186369
  13 C :   -0.124523
  14 C :    0.045000
  15 Br:    0.022963
  16 C :    0.182081
  17 O :   -0.249241
  18 C :   -0.127713
  19 C :    0.035532
  20 N :   -0.012475
  21 C :   -0.109538
  22 S :    0.193495
  23 C :   -0.006188
  24 N :    0.275602
  25 O :   -0.246971
  26 O :   -0.255538
  27 C :    0.009578
  28 C :    0.123462
  29 C :   -0.040502
  30 C :    0.024760
  31 C :   -0.127920
  32 S :    0.156650
  33 C :   -0.130027
  34 C :   -0.011070
  35 C :   -0.071463
  36 S :    0.092277
  37 C :    0.112252
  38 O :   -0.169562
  39 C :    0.083468
  40 O :   -0.143557
  41 S :    0.083059
  42 C :    0.113932
  43 C :   -0.112618
  44 C :    0.018570
  45 C :    0.103140
  46 C :   -0.048888
  47 C :   -0.031836
  48 C :    0.099723
  49 C :    0.018585
  50 C :   -0.133279
  51 C :    0.079759
  52 C :    0.028854
  53 C :    0.051428
  54 C :    0.025031
  55 C :   -0.097118
  56 C :    0.132073
  57 C :   -0.021064
  58 C :   -0.047735
  59 C :   -0.022327
  60 C :    0.026543
  61 C :   -0.011694
  62 C :   -0.016129
  63 C :    0.035509
  64 C :    0.025858
  65 C :   -0.034086
  66 S :    0.051384
  67 C :   -0.064276
  68 C :    0.027995
  69 C :    0.052995
  70 C :   -0.062156
  71 S :    0.078438
  72 C :   -0.031793
  73 H :   -0.033290
  74 H :   -0.006933
  75 H :    0.007185
  76 H :    0.043368
  77 H :    0.187814
  78 H :    0.014031
  79 H :    0.021231
  80 H :   -0.000955
  81 H :   -0.027232
  82 H :   -0.030194
  83 H :   -0.009181
  84 H :   -0.005419
  85 H :    0.006758
  86 H :    0.002357
  87 H :    0.013185
  88 H :    0.024732
  89 H :   -0.004046
  90 H :    0.007314
  91 H :    0.017602
  92 H :    0.010806
  93 H :    0.023200
  94 H :   -0.044040
  95 H :   -0.022337
  96 H :   -0.036068
  97 H :   -0.013986
  98 H :   -0.024360
  99 H :   -0.021050
 100 H :   -0.014285
 101 H :   -0.015918
 102 H :   -0.010632
 103 H :   -0.011487
 104 H :    0.020596
 105 H :    0.022353
Sum of atomic charges:   -0.0000000

LOEWDIN ATOMIC CHARGES
----------------------
   0 C :    0.080398
   1 C :   -0.147860
   2 C :   -0.019732
   3 N :   -0.052558
   4 C :   -0.019686
   5 N :   -0.055483
   6 C :   -0.017936
   7 C :   -0.053650
   8 C :    0.041233
   9 C :   -0.031859
  10 C :   -0.141973
  11 C :   -0.010398
  12 S :    0.433682
  13 C :   -0.272934
  14 C :   -0.062648
  15 Br:    0.136342
  16 C :    0.106505
  17 O :   -0.184595
  18 C :   -0.139179
  19 C :    0.113376
  20 N :    0.074895
  21 C :   -0.106610
  22 S :    0.478728
  23 C :   -0.200887
  24 N :    0.273032
  25 O :   -0.213367
  26 O :   -0.222090
  27 C :    0.004819
  28 C :   -0.091632
  29 C :   -0.018858
  30 C :   -0.045637
  31 C :   -0.189123
  32 S :    0.465748
  33 C :   -0.168719
  34 C :   -0.216035
  35 C :   -0.221551
  36 S :    0.404523
  37 C :   -0.114453
  38 O :   -0.126039
  39 C :   -0.096866
  40 O :   -0.105171
  41 S :    0.383873
  42 C :   -0.051146
  43 C :   -0.026684
  44 C :    0.009352
  45 C :   -0.008695
  46 C :   -0.014755
  47 C :   -0.023368
  48 C :   -0.022382
  49 C :    0.004881
  50 C :   -0.034646
  51 C :   -0.008902
  52 C :   -0.059117
  53 C :   -0.015583
  54 C :   -0.056491
  55 C :   -0.019142
  56 C :   -0.018798
  57 C :   -0.015745
  58 C :   -0.017674
  59 C :   -0.026186
  60 C :   -0.036348
  61 C :   -0.065656
  62 C :   -0.141021
  63 C :   -0.030902
  64 C :   -0.038563
  65 C :   -0.181788
  66 S :    0.379289
  67 C :   -0.174650
  68 C :   -0.026375
  69 C :   -0.030185
  70 C :   -0.139388
  71 S :    0.349308
  72 C :   -0.076103
  73 H :    0.034627
  74 H :    0.041208
  75 H :    0.043430
  76 H :    0.038119
  77 H :    0.079805
  78 H :    0.046577
  79 H :    0.024170
  80 H :    0.030465
  81 H :    0.016953
  82 H :    0.029673
  83 H :    0.018041
  84 H :    0.019123
  85 H :    0.027310
  86 H :    0.019491
  87 H :    0.028139
  88 H :    0.025871
  89 H :    0.019304
  90 H :    0.020385
  91 H :    0.023862
  92 H :    0.024352
  93 H :    0.026746
  94 H :    0.021550
  95 H :    0.028279
  96 H :    0.026967
  97 H :    0.010334
  98 H :    0.025815
  99 H :    0.032506
 100 H :    0.032648
 101 H :    0.030650
 102 H :    0.032581
 103 H :    0.033520
 104 H :    0.028866
 105 H :    0.026469

  Mayer bond orders larger than 0.100000
B(  0-C ,  1-C ) :   1.6307 B(  0-C ,  6-C ) :   1.0127 B(  0-C , 18-C ) :   1.0844
B(  1-C ,  2-C ) :   1.1433 B(  1-C ,  4-C ) :   1.1464 B(  2-C ,  3-N ) :   2.9713
B(  4-C ,  5-N ) :   2.9575 B(  6-C ,  7-C ) :   1.2598 B(  6-C , 11-C ) :   1.4240
B(  7-C ,  8-C ) :   1.4002 B(  7-C , 16-C ) :   1.0005 B(  8-C ,  9-C ) :   1.2706
B(  8-C , 73-H ) :   1.0022 B(  9-C , 10-C ) :   1.3013 B(  9-C , 14-C ) :   1.1667
B( 10-C , 11-C ) :   1.3175 B( 10-C , 12-S ) :   1.0908 B( 11-C , 74-H ) :   0.9814
B( 12-S , 13-C ) :   1.0833 B( 13-C , 14-C ) :   1.6130 B( 13-C , 15-Br) :   1.0183
B( 14-C , 75-H ) :   1.0018 B( 16-C , 17-O ) :   1.9449 B( 16-C , 18-C ) :   1.0138
B( 17-O , 77-H ) :   0.1459 B( 18-C , 19-C ) :   1.4775 B( 19-C , 20-N ) :   1.3187
B( 19-C , 76-H ) :   0.9332 B( 20-N , 21-C ) :   1.2063 B( 20-N , 77-H ) :   0.8187
B( 21-C , 22-S ) :   1.1421 B( 21-C , 28-C ) :   1.3654 B( 22-S , 23-C ) :   1.0833
B( 23-C , 24-N ) :   0.9650 B( 23-C , 27-C ) :   1.5008 B( 24-N , 25-O ) :   1.5370
B( 24-N , 26-O ) :   1.5166 B( 25-O , 26-O ) :   0.2621 B( 27-C , 28-C ) :   1.2245
B( 27-C , 78-H ) :   1.0020 B( 28-C , 29-C ) :   1.0930 B( 29-C , 30-C ) :   1.7606
B( 29-C , 79-H ) :   0.9520 B( 30-C , 31-C ) :   1.0673 B( 30-C , 80-H ) :   0.9629
B( 31-C , 32-S ) :   1.1246 B( 31-C , 33-C ) :   0.1054 B( 31-C , 35-C ) :   1.5850
B( 32-S , 33-C ) :   1.1436 B( 33-C , 34-C ) :   1.5967 B( 33-C , 42-C ) :   1.0467
B( 34-C , 35-C ) :   1.2482 B( 34-C , 41-S ) :   0.9750 B( 35-C , 36-S ) :   0.9758
B( 36-S , 37-C ) :   1.0582 B( 36-S , 38-O ) :   0.1356 B( 37-C , 38-O ) :   2.0916
B( 37-C , 39-C ) :   0.7777 B( 39-C , 40-O ) :   2.1043 B( 39-C , 41-S ) :   1.0599
B( 40-O , 41-S ) :   0.1204 B( 42-C , 43-C ) :   1.2858 B( 42-C , 47-C ) :   1.3548
B( 43-C , 44-C ) :   1.4187 B( 43-C , 81-H ) :   0.9892 B( 44-C , 45-C ) :   1.3671
B( 44-C , 50-C ) :   0.9228 B( 45-C , 46-C ) :   1.3426 B( 45-C , 48-C ) :   0.9995
B( 46-C , 47-C ) :   1.3952 B( 46-C , 82-H ) :   0.9909 B( 47-C , 83-H ) :   0.9749
B( 48-C , 49-C ) :   1.3661 B( 48-C , 58-C ) :   1.3337 B( 49-C , 50-C ) :   0.9174
B( 49-C , 55-C ) :   1.4232 B( 50-C , 51-C ) :   1.0143 B( 50-C , 53-C ) :   1.0322
B( 51-C , 52-C ) :   1.1170 B( 51-C , 84-H ) :   0.9364 B( 51-C , 85-H ) :   0.9385
B( 52-C , 86-H ) :   0.9626 B( 52-C , 87-H ) :   0.9593 B( 52-C , 88-H ) :   0.9602
B( 53-C , 54-C ) :   1.1050 B( 53-C , 89-H ) :   0.9388 B( 53-C , 90-H ) :   0.9382
B( 54-C , 91-H ) :   0.9627 B( 54-C , 92-H ) :   0.9646 B( 54-C , 93-H ) :   0.9650
B( 55-C , 56-C ) :   1.2838 B( 55-C , 94-H ) :   0.9933 B( 56-C , 57-C ) :   1.3248
B( 56-C , 59-C ) :   1.1093 B( 57-C , 58-C ) :   1.3798 B( 57-C , 95-H ) :   0.9938
B( 58-C , 96-H ) :   0.9922 B( 59-C , 60-C ) :   1.6296 B( 59-C , 97-H ) :   0.9614
B( 60-C , 61-C ) :   1.1870 B( 60-C , 98-H ) :   0.9629 B( 61-C , 62-C ) :   1.5952
B( 61-C , 99-H ) :   0.9595 B( 62-C , 63-C ) :   1.1345 B( 62-C , 66-S ) :   1.0380
B( 63-C , 64-C ) :   1.6125 B( 63-C ,100-H ) :   0.9983 B( 64-C , 65-C ) :   1.1653
B( 64-C ,101-H ) :   0.9918 B( 65-C , 66-S ) :   1.0269 B( 65-C , 67-C ) :   1.5634
B( 67-C , 68-C ) :   1.1496 B( 67-C , 71-S ) :   1.0430 B( 68-C , 69-C ) :   1.6629
B( 68-C ,102-H ) :   0.9921 B( 69-C , 70-C ) :   1.0795 B( 69-C ,103-H ) :   0.9931
B( 70-C , 71-S ) :   1.0072 B( 70-C , 72-C ) :   1.8640 B( 72-C ,104-H ) :   0.9509
B( 72-C ,105-H ) :   0.9422

-----------------------------------------------------------------------------
         ABSORPTION SPECTRUM VIA TRANSITION ELECTRIC DIPOLE MOMENTS
-----------------------------------------------------------------------------
State   Energy  Wavelength   fosc         T2         TX        TY        TZ
        (cm-1)    (nm)                  (au**2)     (au)      (au)      (au)
-----------------------------------------------------------------------------
   0   18160.1    550.7   1.783496304  32.33180   2.13239  -0.14117  -5.26923
   1   20702.2    483.0   0.358451881   5.70020   2.20594   0.21570   0.88740
   2   22354.6    447.3   0.280268066   4.12746  -1.97676  -0.05601  -0.46556
   3   23786.3    420.4   0.005667986   0.07845   0.04868   0.10530  -0.25493
   4   24604.7    406.4   0.025898330   0.34652   0.52561   0.06266  -0.25753
   5   25368.5    394.2   0.065636994   0.85179  -0.75035  -0.38981   0.36988
   6   25901.4    386.1   0.081689237   1.03829   0.80109   0.25321  -0.57656
   7   26770.2    373.6   0.475932356   5.85288  -1.22808  -0.30799   2.06152
   8   27455.7    364.2   0.033762387   0.40483   0.60013  -0.11564   0.17692
   9   27622.9    362.0   0.047704438   0.56855   0.71240   0.06423   0.23857
  10   28507.9    350.8   0.401565434   4.63731  -0.38996   0.01773  -2.11776
  11   29095.6    343.7   0.561219110   6.35011   1.11717   0.91361   2.06576
  12   29283.4    341.5   0.083267225   0.93611  -0.08660   0.18289   0.94613
  13   29427.6    339.8   0.042822295   0.47906  -0.56611  -0.14325  -0.37157
  14   29869.5    334.8   0.624208361   6.87982  -2.22366  -1.38535   0.12630
  15   31015.2    322.4   0.116797298   1.23975   0.63287   0.12807   0.90710
  16   31413.9    318.3   0.211177424   2.21310  -0.71114  -0.21760  -1.28842
  17   32255.4    310.0   0.165429553   1.68844   0.80868   0.58885   0.82930
  18   32610.4    306.7   0.193660870   1.95506  -1.29478  -0.01197   0.52770
  19   32942.1    303.6   0.163774216   1.63670   0.48992   0.84126   0.83004
  20   33307.3    300.2   0.336786383   3.32882  -0.41092   0.14553   1.77166
  21   33434.4    299.1   0.081654691   0.80401   0.85936   0.09820   0.23635
  22   33807.6    295.8   0.015995036   0.15576   0.12484  -0.02138  -0.37378
  23   34207.4    292.3   0.013617467   0.13105   0.17848   0.23538   0.20927
  24   34502.2    289.8   0.095063042   0.90707   0.75417   0.15647   0.56019
  25   34551.4    289.4   0.086516083   0.82434   0.42638   0.04401  -0.80038
  26   34741.2    287.8   0.003849688   0.03648  -0.04317   0.02976   0.18366
  27   35015.5    285.6   0.075467056   0.70953  -0.47149  -0.13756  -0.68433
  28   35083.4    285.0   0.006053088   0.05680   0.11635   0.03892   0.20432
  29   35378.2    282.7   0.015161458   0.14108  -0.28722  -0.21365   0.11377
  30   35522.4    281.5   0.045163019   0.41856   0.33332   0.15840  -0.53138
  31   35884.2    278.7   0.000150247   0.00138  -0.03523  -0.00502  -0.01060
  32   36885.1    271.1   0.002723624   0.02431   0.07310  -0.13752  -0.00740
  33   36962.4    270.5   0.020948662   0.18658   0.31109   0.27229  -0.12517
  34   37408.2    267.3   0.123719518   1.08880   0.76926   0.18672  -0.67983
  35   37631.4    265.7   0.146915946   1.28527  -1.11143  -0.20513   0.08901
  36   37931.9    263.6   0.041360679   0.35897   0.13896  -0.11468  -0.57141
  37   38008.7    263.1   0.006877695   0.05957  -0.18517   0.10358   0.12064
  38   38432.7    260.2   0.001584598   0.01357  -0.07986   0.07922  -0.03034
  39   38597.6    259.1   0.008070116   0.06883  -0.02023  -0.03642   0.25903
  40   38887.1    257.2   0.009691916   0.08205  -0.17799   0.04113  -0.22063
  41   39128.2    255.6   0.051996343   0.43748  -0.57886  -0.30774  -0.08775
  42   39319.3    254.3   0.046014789   0.38527   0.42975   0.13644  -0.42658
  43   39552.1    252.8   0.011444513   0.09526   0.14894   0.26895   0.02726
  44   39973.1    250.2   0.152314183   1.25443  -0.87015  -0.57462  -0.40876
  45   40179.3    248.9   0.006733442   0.05517  -0.16335  -0.14103  -0.09273
  46   40230.8    248.6   0.009615449   0.07868   0.17058   0.19829   0.10133
  47   40303.6    248.1   0.009015045   0.07364  -0.23873  -0.08860  -0.09378

FINAL SINGLE POINT ENERGY     -8105.779688340000

DIPOLE MOMENT
-------------
                                X             Y             Z
Electronic contribution:   -217.96347     -48.53850      58.61932
Nuclear contribution   :    221.61990      49.26827     -63.01285
                        -----------------------------------------
Total Dipole Moment    :      3.65643       0.72977      -4.39353
                        -----------------------------------------
Magnitude (a.u.)       :      5.76239
Magnitude (Debye)      :     14.64684

Rotational constants in cm-1:     0.000938     0.000214     0.000178
Rotational constants in MHz :    28.119397     6.407558     5.337771

                             ****ORCA TERMINATED NORMALLY****
TOTAL RUN TIME: 0 days 0 hours 10 minutes 54 seconds 12 msec
