                         Program Version 4.2.0 -  RELEASE  -
|  1> # ORCA input file
|  2> # SCF done       -164.141413264496          0.000759976484
|  3> ! CAM-B3LYP def2-SVP def2/J RIJCOSX Grid4 TightSCF
|  4> %maxcore 5000
|  5> %tddft
|  6>     Mode sTDDFT
|  7>     Ethresh 5.0
|  8>     maxcore 5000
|  9> end
| 10>
| 11> %pal
| 12>   nprocs 6
| 13>   end
| 14> * xyz 0 1
| 15>    C       -2.89836         1.56996        -5.15881
| 16>    C       -1.61854         1.35553        -4.70783
| 17>    C       -0.71433         0.45296        -5.30068
| 18>    N        0.06562        -0.26216        -5.74789
| 19>    C       -1.05595         1.96725        -3.56860
| 20>    N       -0.53920         2.38980        -2.63397
| 21>    C       -3.55012         0.84406        -6.24502
| 22>    C       -4.90247         1.25627        -6.31323
| 23>    C       -5.78817         0.73844        -7.22502
| 24>    C       -5.31899        -0.24043        -8.10838
| 25>    C       -3.96475        -0.63999        -8.03756
| 26>    C       -3.06618        -0.11120        -7.11815
| 27>    S       -3.59312        -1.85357        -9.22607
| 28>    C       -5.24274        -1.81121        -9.78863
| 29>    C       -6.03169        -0.93355        -9.12567
| 30>   Br       -5.77154        -2.93334       -11.19705
| 31>    C       -5.15023         2.30260        -5.29656
| 32>    O       -6.16212         2.96512        -5.19194
| 33>    C       -3.87119         2.45749        -4.57058
| 34>    C       -3.62209         3.42211        -3.62601
| 35>    C       -4.59700         4.07547        -2.84350
| 36>    C       -4.34261         5.37038        -2.31665
| 37>    C       -5.31005         6.09944        -1.53925
| 38>    N       -5.02142         7.32543        -1.10580
| 39>    C       -3.85048         7.86138        -1.39623
| 40>    C       -2.89727         7.14285        -2.17316
| 41>    N       -3.16134         5.93473        -2.61337
| 42>    C       -1.64759         7.73774        -2.48443
| 43>    N       -0.65509         8.25968        -2.71695
| 44>    C       -3.56574         9.16283        -0.91997
| 45>    N       -3.31939        10.21575        -0.53954
| 46>    C       -6.59108         5.53621        -1.22265
| 47>    C       -6.79510         4.19959        -1.68117
| 48>    C       -5.82311         3.47885        -2.45814
| 49>    N       -6.20158         2.22620        -2.68846
| 50>    S       -7.65955         1.99594        -2.05017
| 51>    N       -7.86788         3.46225        -1.41441
| 52>    C       -7.62407         6.13886        -0.50734
| 53>    C       -7.65516         7.39947         0.07424
| 54>    C       -8.70871         7.92868         0.79932
| 55>    C       -9.96084         7.37654         1.09048
| 56>    C      -10.94723         7.99438         1.87897
| 57>    C      -12.10259         7.26356         2.02814
| 58>    C      -12.07244         6.03988         1.35263
| 59>    S      -10.54582         5.83501         0.53260
| 60>    C      -13.03910         5.03655         1.25380
| 61>    C      -14.31834         4.96121         1.82617
| 62>    C      -14.99546         3.81596         1.49838
| 63>    C      -14.28572         2.93880         0.65122
| 64>    S      -12.71302         3.62556         0.29436
| 65>    C      -14.74789         1.73414         0.15955
| 66>    C      -14.10272         0.83648        -0.70113
| 67>    C      -14.68997        -0.36182        -1.17536
| 68>    C      -13.78500        -1.00537        -2.02817
| 69>    C      -13.87072        -2.19040        -2.75193
| 70>    C      -12.77512        -2.55472        -3.52654
| 71>    C      -12.54983        -3.66107        -4.35546
| 72>    C      -11.25753        -3.55536        -4.92568
| 73>    C      -10.67033        -2.38046        -4.45361
| 74>    C      -11.57797        -1.72864        -3.57996
| 75>    C      -11.48181        -0.55784        -2.86603
| 76>    C      -12.58724        -0.18260        -2.08259
| 77>    C      -12.79406         0.92392        -1.27585
| 78>    C      -10.62462        -4.47845        -5.83740
| 79>    C      -11.15894        -5.61283        -6.28211
| 80>    H       -6.81294         1.07448        -7.25543
| 81>    H       -2.04151        -0.44340        -7.10731
| 82>    H       -7.07241        -0.77781        -9.34465
| 83>    H       -2.60414         3.75637        -3.46740
| 84>    H       -8.48512         5.49395        -0.40394
| 85>    H       -6.77652         8.01861        -0.03208
| 86>    H       -8.55847         8.91743         1.21585
| 87>    H      -10.78849         8.96088         2.32394
| 88>    H      -12.95268         7.58901         2.60031
| 89>    H      -14.71043         5.73736         2.45816
| 90>    H      -15.98799         3.58365         1.84260
| 91>    H      -15.74698         1.45541         0.47397
| 92>    H      -15.67404        -0.71077        -0.92118
| 93>    H      -14.75823        -2.80587        -2.71482
| 94>    H      -13.24847        -4.45826        -4.52917
| 95>    H       -9.68886        -2.02280        -4.70672
| 96>    H      -10.59673         0.06142        -2.90043
| 97>    H      -12.08136         1.70954        -1.11507
| 98>    H       -9.63350        -4.18929        -6.16357
| 99>    H      -12.14110        -5.94076        -5.98706
|100>    H      -10.62829        -6.25378        -6.96419
|101> *
|102>
|103>                          ****END OF INPUT****

CARTESIAN COORDINATES (ANGSTROEM)
---------------------------------
  C     -2.898360    1.569960   -5.158810
  C     -1.618540    1.355530   -4.707830
  C     -0.714330    0.452960   -5.300680
  N      0.065620   -0.262160   -5.747890
  C     -1.055950    1.967250   -3.568600
  N     -0.539200    2.389800   -2.633970
  C     -3.550120    0.844060   -6.245020
  C     -4.902470    1.256270   -6.313230
  C     -5.788170    0.738440   -7.225020
  C     -5.318990   -0.240430   -8.108380
  C     -3.964750   -0.639990   -8.037560
  C     -3.066180   -0.111200   -7.118150
  S     -3.593120   -1.853570   -9.226070
  C     -5.242740   -1.811210   -9.788630
  C     -6.031690   -0.933550   -9.125670
  Br    -5.771540   -2.933340  -11.197050
  C     -5.150230    2.302600   -5.296560
  O     -6.162120    2.965120   -5.191940
  C     -3.871190    2.457490   -4.570580
  C     -3.622090    3.422110   -3.626010
  C     -4.597000    4.075470   -2.843500
  C     -4.342610    5.370380   -2.316650
  C     -5.310050    6.099440   -1.539250
  N     -5.021420    7.325430   -1.105800
  C     -3.850480    7.861380   -1.396230
  C     -2.897270    7.142850   -2.173160
  N     -3.161340    5.934730   -2.613370
  C     -1.647590    7.737740   -2.484430
  N     -0.655090    8.259680   -2.716950
  C     -3.565740    9.162830   -0.919970
  N     -3.319390   10.215750   -0.539540
  C     -6.591080    5.536210   -1.222650
  C     -6.795100    4.199590   -1.681170
  C     -5.823110    3.478850   -2.458140
  N     -6.201580    2.226200   -2.688460
  S     -7.659550    1.995940   -2.050170
  N     -7.867880    3.462250   -1.414410
  C     -7.624070    6.138860   -0.507340
  C     -7.655160    7.399470    0.074240
  C     -8.708710    7.928680    0.799320
  C     -9.960840    7.376540    1.090480
  C    -10.947230    7.994380    1.878970
  C    -12.102590    7.263560    2.028140
  C    -12.072440    6.039880    1.352630
  S    -10.545820    5.835010    0.532600
  C    -13.039100    5.036550    1.253800
  C    -14.318340    4.961210    1.826170
  C    -14.995460    3.815960    1.498380
  C    -14.285720    2.938800    0.651220
  S    -12.713020    3.625560    0.294360
  C    -14.747890    1.734140    0.159550
  C    -14.102720    0.836480   -0.701130
  C    -14.689970   -0.361820   -1.175360
  C    -13.785000   -1.005370   -2.028170
  C    -13.870720   -2.190400   -2.751930
  C    -12.775120   -2.554720   -3.526540
  C    -12.549830   -3.661070   -4.355460
  C    -11.257530   -3.555360   -4.925680
  C    -10.670330   -2.380460   -4.453610
  C    -11.577970   -1.728640   -3.579960
  C    -11.481810   -0.557840   -2.866030
  C    -12.587240   -0.182600   -2.082590
  C    -12.794060    0.923920   -1.275850
  C    -10.624620   -4.478450   -5.837400
  C    -11.158940   -5.612830   -6.282110
  H     -6.812940    1.074480   -7.255430
  H     -2.041510   -0.443400   -7.107310
  H     -7.072410   -0.777810   -9.344650
  H     -2.604140    3.756370   -3.467400
  H     -8.485120    5.493950   -0.403940
  H     -6.776520    8.018610   -0.032080
  H     -8.558470    8.917430    1.215850
  H    -10.788490    8.960880    2.323940
  H    -12.952680    7.589010    2.600310
  H    -14.710430    5.737360    2.458160
  H    -15.987990    3.583650    1.842600
  H    -15.746980    1.455410    0.473970
  H    -15.674040   -0.710770   -0.921180
  H    -14.758230   -2.805870   -2.714820
  H    -13.248470   -4.458260   -4.529170
  H     -9.688860   -2.022800   -4.706720
  H    -10.596730    0.061420   -2.900430
  H    -12.081360    1.709540   -1.115070
  H     -9.633500   -4.189290   -6.163570
  H    -12.141100   -5.940760   -5.987060
  H    -10.628290   -6.253780   -6.964190

 Total Charge           Charge          ....    0
 Multiplicity           Mult            ....    1
 Number of Electrons    NEL             ....  490
 Basis Dimension        Dim             .... 1049

ORBITAL ENERGIES
----------------

  NO   OCC          E(Eh)            E(eV)
   0   2.0000    -482.876709    -13139.7433
   1   2.0000     -89.015853     -2422.2445
   2   2.0000     -88.982149     -2421.3274
   3   2.0000     -88.973508     -2421.0922
   4   2.0000     -88.961972     -2420.7783
   5   2.0000     -62.554432     -1702.1926
   6   2.0000     -56.388361     -1534.4053
   7   2.0000     -56.385683     -1534.3324
   8   2.0000     -56.385645     -1534.3314
   9   2.0000     -19.187200      -522.1103
  10   2.0000     -14.443623      -393.0310
  11   2.0000     -14.435634      -392.8136
  12   2.0000     -14.434825      -392.7916
  13   2.0000     -14.422635      -392.4599
  14   2.0000     -14.411361      -392.1531
  15   2.0000     -14.408476      -392.0746
  16   2.0000     -14.391139      -391.6028
  17   2.0000     -14.387263      -391.4973
  18   2.0000     -10.363140      -281.9954
  19   2.0000     -10.353957      -281.7455
  20   2.0000     -10.352890      -281.7165
  21   2.0000     -10.346395      -281.5397
  22   2.0000     -10.340263      -281.3729
  23   2.0000     -10.338362      -281.3211
  24   2.0000     -10.334023      -281.2031
  25   2.0000     -10.333637      -281.1926
  26   2.0000     -10.332917      -281.1730
  27   2.0000     -10.332280      -281.1556
  28   2.0000     -10.331452      -281.1331
  29   2.0000     -10.330693      -281.1124
  30   2.0000     -10.327177      -281.0168
  31   2.0000     -10.323307      -280.9115
  32   2.0000     -10.321434      -280.8605
  33   2.0000     -10.319566      -280.8097
  34   2.0000     -10.318245      -280.7737
  35   2.0000     -10.316794      -280.7342
  36   2.0000     -10.314732      -280.6781
  37   2.0000     -10.313817      -280.6532
  38   2.0000     -10.313179      -280.6359
  39   2.0000     -10.312266      -280.6110
  40   2.0000     -10.312011      -280.6041
  41   2.0000     -10.310181      -280.5543
  42   2.0000     -10.309051      -280.5235
  43   2.0000     -10.308280      -280.5026
  44   2.0000     -10.305730      -280.4332
  45   2.0000     -10.304488      -280.3994
  46   2.0000     -10.303957      -280.3849
  47   2.0000     -10.299866      -280.2736
  48   2.0000     -10.299146      -280.2540
  49   2.0000     -10.297665      -280.2137
  50   2.0000     -10.297428      -280.2073
  51   2.0000     -10.297185      -280.2006
  52   2.0000     -10.296595      -280.1846
  53   2.0000     -10.295202      -280.1467
  54   2.0000     -10.291492      -280.0457
  55   2.0000     -10.291048      -280.0337
  56   2.0000     -10.290632      -280.0223
  57   2.0000     -10.287555      -279.9386
  58   2.0000     -10.287173      -279.9282
  59   2.0000     -10.286640      -279.9137
  60   2.0000     -10.285876      -279.8929
  61   2.0000     -10.285757      -279.8897
  62   2.0000     -10.285308      -279.8775
  63   2.0000     -10.283037      -279.8157
  64   2.0000     -10.280452      -279.7453
  65   2.0000     -10.277745      -279.6717
  66   2.0000     -10.272645      -279.5329
  67   2.0000     -10.271679      -279.5066
  68   2.0000     -10.263688      -279.2892
  69   2.0000      -8.783856      -239.0209
  70   2.0000      -8.107556      -220.6178
  71   2.0000      -8.078074      -219.8156
  72   2.0000      -8.068753      -219.5619
  73   2.0000      -8.057974      -219.2686
  74   2.0000      -6.620072      -180.1413
  75   2.0000      -6.605621      -179.7481
  76   2.0000      -6.605464      -179.7438
  77   2.0000      -6.078868      -165.4144
  78   2.0000      -6.071213      -165.2061
  79   2.0000      -6.069756      -165.1664
  80   2.0000      -6.047638      -164.5646
  81   2.0000      -6.043494      -164.4518
  82   2.0000      -6.039438      -164.3415
  83   2.0000      -6.038221      -164.3084
  84   2.0000      -6.034046      -164.1947
  85   2.0000      -6.030469      -164.0974
  86   2.0000      -6.027691      -164.0218
  87   2.0000      -6.023400      -163.9050
  88   2.0000      -6.019170      -163.7899
  89   2.0000      -2.735919       -74.4481
  90   2.0000      -2.731890       -74.3385
  91   2.0000      -2.731822       -74.3367
  92   2.0000      -2.720304       -74.0232
  93   2.0000      -2.720294       -74.0230
  94   2.0000      -1.117028       -30.3959
  95   2.0000      -1.101124       -29.9631
  96   2.0000      -1.099325       -29.9142
  97   2.0000      -1.027139       -27.9499
  98   2.0000      -1.025361       -27.9015
  99   2.0000      -1.020220       -27.7616
 100   2.0000      -1.005041       -27.3486
 101   2.0000      -1.001204       -27.2442
 102   2.0000      -0.994516       -27.0622
 103   2.0000      -0.993496       -27.0344
 104   2.0000      -0.990084       -26.9415
 105   2.0000      -0.984620       -26.7929
 106   2.0000      -0.972905       -26.4741
 107   2.0000      -0.968576       -26.3563
 108   2.0000      -0.966553       -26.3012
 109   2.0000      -0.956167       -26.0186
 110   2.0000      -0.935665       -25.4607
 111   2.0000      -0.924170       -25.1479
 112   2.0000      -0.917783       -24.9741
 113   2.0000      -0.903131       -24.5755
 114   2.0000      -0.898196       -24.4412
 115   2.0000      -0.891333       -24.2544
 116   2.0000      -0.886989       -24.1362
 117   2.0000      -0.885923       -24.1072
 118   2.0000      -0.877626       -23.8814
 119   2.0000      -0.870348       -23.6834
 120   2.0000      -0.868901       -23.6440
 121   2.0000      -0.861716       -23.4485
 122   2.0000      -0.847884       -23.0721
 123   2.0000      -0.846469       -23.0336
 124   2.0000      -0.832383       -22.6503
 125   2.0000      -0.828182       -22.5360
 126   2.0000      -0.813157       -22.1271
 127   2.0000      -0.810863       -22.0647
 128   2.0000      -0.808128       -21.9903
 129   2.0000      -0.792450       -21.5637
 130   2.0000      -0.781184       -21.2571
 131   2.0000      -0.775811       -21.1109
 132   2.0000      -0.766156       -20.8482
 133   2.0000      -0.746661       -20.3177
 134   2.0000      -0.735247       -20.0071
 135   2.0000      -0.727675       -19.8011
 136   2.0000      -0.717088       -19.5130
 137   2.0000      -0.707858       -19.2618
 138   2.0000      -0.700059       -19.0496
 139   2.0000      -0.697344       -18.9757
 140   2.0000      -0.686136       -18.6707
 141   2.0000      -0.679825       -18.4990
 142   2.0000      -0.675905       -18.3923
 143   2.0000      -0.674839       -18.3633
 144   2.0000      -0.672534       -18.3006
 145   2.0000      -0.666769       -18.1437
 146   2.0000      -0.658822       -17.9275
 147   2.0000      -0.652282       -17.7495
 148   2.0000      -0.647771       -17.6267
 149   2.0000      -0.644728       -17.5440
 150   2.0000      -0.639770       -17.4090
 151   2.0000      -0.638483       -17.3740
 152   2.0000      -0.629305       -17.1243
 153   2.0000      -0.623657       -16.9706
 154   2.0000      -0.611383       -16.6366
 155   2.0000      -0.610767       -16.6198
 156   2.0000      -0.606618       -16.5069
 157   2.0000      -0.603687       -16.4272
 158   2.0000      -0.596982       -16.2447
 159   2.0000      -0.589883       -16.0515
 160   2.0000      -0.580061       -15.7843
 161   2.0000      -0.576235       -15.6801
 162   2.0000      -0.574583       -15.6352
 163   2.0000      -0.564799       -15.3690
 164   2.0000      -0.561059       -15.2672
 165   2.0000      -0.557140       -15.1605
 166   2.0000      -0.554546       -15.0900
 167   2.0000      -0.551575       -15.0091
 168   2.0000      -0.548562       -14.9271
 169   2.0000      -0.537874       -14.6363
 170   2.0000      -0.536442       -14.5973
 171   2.0000      -0.530334       -14.4311
 172   2.0000      -0.529598       -14.4111
 173   2.0000      -0.528172       -14.3723
 174   2.0000      -0.523297       -14.2396
 175   2.0000      -0.522109       -14.2073
 176   2.0000      -0.520875       -14.1737
 177   2.0000      -0.517745       -14.0886
 178   2.0000      -0.515858       -14.0372
 179   2.0000      -0.513757       -13.9800
 180   2.0000      -0.507046       -13.7974
 181   2.0000      -0.504342       -13.7238
 182   2.0000      -0.501580       -13.6487
 183   2.0000      -0.499286       -13.5863
 184   2.0000      -0.496457       -13.5093
 185   2.0000      -0.492931       -13.4133
 186   2.0000      -0.491290       -13.3687
 187   2.0000      -0.488259       -13.2862
 188   2.0000      -0.485012       -13.1978
 189   2.0000      -0.482777       -13.1370
 190   2.0000      -0.481873       -13.1124
 191   2.0000      -0.478537       -13.0217
 192   2.0000      -0.474358       -12.9079
 193   2.0000      -0.472377       -12.8540
 194   2.0000      -0.468168       -12.7395
 195   2.0000      -0.465367       -12.6633
 196   2.0000      -0.464294       -12.6341
 197   2.0000      -0.460006       -12.5174
 198   2.0000      -0.459372       -12.5001
 199   2.0000      -0.454892       -12.3782
 200   2.0000      -0.451440       -12.2843
 201   2.0000      -0.445665       -12.1272
 202   2.0000      -0.442826       -12.0499
 203   2.0000      -0.442173       -12.0321
 204   2.0000      -0.437330       -11.9004
 205   2.0000      -0.436693       -11.8830
 206   2.0000      -0.436549       -11.8791
 207   2.0000      -0.435106       -11.8398
 208   2.0000      -0.431106       -11.7310
 209   2.0000      -0.427123       -11.6226
 210   2.0000      -0.425291       -11.5728
 211   2.0000      -0.424745       -11.5579
 212   2.0000      -0.423587       -11.5264
 213   2.0000      -0.418555       -11.3895
 214   2.0000      -0.417995       -11.3742
 215   2.0000      -0.411844       -11.2068
 216   2.0000      -0.411176       -11.1887
 217   2.0000      -0.403390       -10.9768
 218   2.0000      -0.401928       -10.9370
 219   2.0000      -0.399669       -10.8756
 220   2.0000      -0.399112       -10.8604
 221   2.0000      -0.397226       -10.8091
 222   2.0000      -0.394049       -10.7226
 223   2.0000      -0.388769       -10.5789
 224   2.0000      -0.386130       -10.5071
 225   2.0000      -0.383443       -10.4340
 226   2.0000      -0.381295       -10.3756
 227   2.0000      -0.373727       -10.1696
 228   2.0000      -0.366489        -9.9727
 229   2.0000      -0.365548        -9.9471
 230   2.0000      -0.356751        -9.7077
 231   2.0000      -0.353423        -9.6171
 232   2.0000      -0.350039        -9.5250
 233   2.0000      -0.345703        -9.4070
 234   2.0000      -0.338259        -9.2045
 235   2.0000      -0.331558        -9.0221
 236   2.0000      -0.326773        -8.8920
 237   2.0000      -0.313445        -8.5293
 238   2.0000      -0.306546        -8.3416
 239   2.0000      -0.300681        -8.1819
 240   2.0000      -0.297286        -8.0896
 241   2.0000      -0.285677        -7.7737
 242   2.0000      -0.276594        -7.5265
 243   2.0000      -0.258430        -7.0322
 244   2.0000      -0.216803        -5.8995
 245   0.0000      -0.132919        -3.6169
 246   0.0000      -0.127365        -3.4658
 247   0.0000      -0.084829        -2.3083
 248   0.0000      -0.060359        -1.6425
 249   0.0000      -0.041028        -1.1164

MULLIKEN ATOMIC CHARGES
-----------------------
   0 C :    0.305020
   1 C :   -0.354796
   2 C :   -0.188388
   3 N :    0.132372
   4 C :   -0.206250
   5 N :    0.157676
   6 C :    0.020186
   7 C :   -0.015826
   8 C :   -0.086309
   9 C :    0.122815
  10 C :   -0.093857
  11 C :   -0.026492
  12 S :    0.176466
  13 C :   -0.123391
  14 C :    0.030014
  15 Br:    0.006961
  16 C :    0.153624
  17 O :   -0.167194
  18 C :   -0.084687
  19 C :   -0.078509
  20 C :    0.039801
  21 C :   -0.015241
  22 C :   -0.070894
  23 N :    0.034891
  24 C :   -0.142535
  25 C :   -0.122253
  26 N :    0.044407
  27 C :   -0.210551
  28 N :    0.235782
  29 C :   -0.225664
  30 N :    0.227745
  31 C :    0.146698
  32 C :    0.003428
  33 C :    0.043067
  34 N :   -0.277518
  35 S :    0.475382
  36 N :   -0.290728
  37 C :   -0.153916
  38 C :    0.072563
  39 C :    0.000652
  40 C :   -0.009648
  41 C :    0.021053
  42 C :    0.038610
  43 C :   -0.043499
  44 S :    0.089368
  45 C :    0.006902
  46 C :    0.011160
  47 C :    0.059686
  48 C :   -0.053607
  49 S :    0.085037
  50 C :    0.038393
  51 C :    0.030363
  52 C :   -0.010486
  53 C :    0.051954
  54 C :    0.023737
  55 C :    0.035822
  56 C :    0.006394
  57 C :    0.053922
  58 C :    0.000530
  59 C :    0.052950
  60 C :    0.025052
  61 C :    0.032832
  62 C :   -0.014678
  63 C :    0.010823
  64 C :   -0.017310
  65 H :   -0.024927
  66 H :   -0.010094
  67 H :   -0.011840
  68 H :    0.039150
  69 H :    0.011646
  70 H :    0.016768
  71 H :   -0.007569
  72 H :   -0.004947
  73 H :   -0.006828
  74 H :   -0.003925
  75 H :    0.000691
  76 H :   -0.005622
  77 H :   -0.014537
  78 H :   -0.011486
  79 H :   -0.009682
  80 H :   -0.004516
  81 H :   -0.015973
  82 H :    0.007554
  83 H :   -0.007927
  84 H :    0.010925
  85 H :    0.033233
Sum of atomic charges:    0.0000000

LOEWDIN ATOMIC CHARGES
----------------------
   0 C :    0.074874
   1 C :   -0.151356
   2 C :   -0.018047
   3 N :   -0.070510
   4 C :   -0.024368
   5 N :   -0.059118
   6 C :   -0.016727
   7 C :   -0.043682
   8 C :    0.009258
   9 C :   -0.038695
  10 C :   -0.147669
  11 C :   -0.014042
  12 S :    0.424595
  13 C :   -0.277441
  14 C :   -0.074582
  15 Br:    0.124048
  16 C :    0.078602
  17 O :   -0.161276
  18 C :   -0.108068
  19 C :    0.083794
  20 C :   -0.093970
  21 C :    0.029057
  22 C :   -0.016530
  23 N :    0.002532
  24 C :   -0.053935
  25 C :   -0.015423
  26 N :   -0.014825
  27 C :   -0.031261
  28 N :   -0.006839
  29 C :   -0.040102
  30 N :   -0.026512
  31 C :    0.004884
  32 C :   -0.048620
  33 C :   -0.022813
  34 N :   -0.277466
  35 S :    0.612516
  36 N :   -0.284718
  37 C :   -0.042074
  38 C :    0.019236
  39 C :   -0.068569
  40 C :   -0.117275
  41 C :   -0.047849
  42 C :   -0.015767
  43 C :   -0.209425
  44 S :    0.448399
  45 C :   -0.130705
  46 C :   -0.055352
  47 C :    0.005008
  48 C :   -0.180931
  49 S :    0.425674
  50 C :    0.018837
  51 C :   -0.083614
  52 C :    0.051564
  53 C :   -0.072074
  54 C :    0.100228
  55 C :   -0.067001
  56 C :    0.073563
  57 C :   -0.055601
  58 C :    0.053141
  59 C :   -0.061702
  60 C :    0.092557
  61 C :   -0.062324
  62 C :    0.035355
  63 C :   -0.024532
  64 C :   -0.037095
  65 H :    0.034742
  66 H :    0.039846
  67 H :    0.034939
  68 H :    0.044218
  69 H :    0.009809
  70 H :    0.035563
  71 H :    0.039019
  72 H :    0.036329
  73 H :    0.035118
  74 H :    0.036228
  75 H :    0.039007
  76 H :    0.043089
  77 H :    0.029498
  78 H :    0.040552
  79 H :    0.031208
  80 H :    0.033708
  81 H :    0.039240
  82 H :    0.017661
  83 H :    0.033550
  84 H :    0.019310
  85 H :    0.030128

  Mayer bond orders larger than 0.100000
B(  0-C ,  1-C ) :   1.6088 B(  0-C ,  6-C ) :   0.9897 B(  0-C , 18-C ) :   1.1094
B(  1-C ,  2-C ) :   1.1460 B(  1-C ,  4-C ) :   1.1488 B(  2-C ,  3-N ) :   2.9647
B(  4-C ,  5-N ) :   2.9910 B(  6-C ,  7-C ) :   1.2804 B(  6-C , 11-C ) :   1.4181
B(  7-C ,  8-C ) :   1.4327 B(  7-C , 16-C ) :   0.9327 B(  8-C ,  9-C ) :   1.2375
B(  8-C , 65-H ) :   1.0159 B(  9-C , 10-C ) :   1.3174 B(  9-C , 14-C ) :   1.1580
B( 10-C , 11-C ) :   1.3216 B( 10-C , 12-S ) :   1.0793 B( 11-C , 66-H ) :   0.9800
B( 12-S , 13-C ) :   1.0858 B( 13-C , 14-C ) :   1.6217 B( 13-C , 15-Br) :   1.0084
B( 14-C , 67-H ) :   1.0000 B( 16-C , 17-O ) :   2.2110 B( 16-C , 18-C ) :   0.9747
B( 18-C , 19-C ) :   1.4697 B( 19-C , 20-C ) :   1.2763 B( 19-C , 68-H ) :   0.9302
B( 20-C , 21-C ) :   1.2064 B( 20-C , 33-C ) :   1.1530 B( 21-C , 22-C ) :   1.1300
B( 21-C , 26-N ) :   1.4704 B( 22-C , 23-N ) :   1.5278 B( 22-C , 31-C ) :   1.0753
B( 23-N , 24-C ) :   1.6403 B( 24-C , 25-C ) :   1.2633 B( 24-C , 29-C ) :   1.1559
B( 25-C , 26-N ) :   1.7054 B( 25-C , 27-C ) :   1.1572 B( 27-C , 28-N ) :   3.0485
B( 29-C , 30-N ) :   3.0470 B( 31-C , 32-C ) :   1.1100 B( 31-C , 37-C ) :   1.5060
B( 32-C , 33-C ) :   1.1259 B( 32-C , 36-N ) :   1.5604 B( 33-C , 34-N ) :   1.5417
B( 34-N , 35-S ) :   1.2351 B( 34-N , 36-N ) :   0.1371 B( 35-S , 36-N ) :   1.2508
B( 37-C , 38-C ) :   1.2798 B( 37-C , 69-H ) :   0.9243 B( 38-C , 39-C ) :   1.4257
B( 38-C , 70-H ) :   0.9528 B( 39-C , 40-C ) :   1.3160 B( 39-C , 71-H ) :   0.9660
B( 40-C , 41-C ) :   1.2710 B( 40-C , 44-S ) :   1.1180 B( 41-C , 42-C ) :   1.4571
B( 41-C , 72-H ) :   1.0004 B( 42-C , 43-C ) :   1.2989 B( 42-C , 73-H ) :   0.9946
B( 43-C , 44-S ) :   1.0576 B( 43-C , 45-C ) :   1.3452 B( 45-C , 46-C ) :   1.2634
B( 45-C , 49-S ) :   1.1170 B( 46-C , 47-C ) :   1.5052 B( 46-C , 74-H ) :   0.9961
B( 47-C , 48-C ) :   1.2032 B( 47-C , 75-H ) :   0.9992 B( 48-C , 49-S ) :   1.0274
B( 48-C , 50-C ) :   1.4776 B( 50-C , 51-C ) :   1.2077 B( 50-C , 76-H ) :   0.9710
B( 51-C , 52-C ) :   1.2952 B( 51-C , 62-C ) :   1.1719 B( 52-C , 53-C ) :   1.2376
B( 52-C , 77-H ) :   1.0178 B( 53-C , 54-C ) :   1.2847 B( 53-C , 61-C ) :   1.1387
B( 54-C , 55-C ) :   1.2584 B( 54-C , 78-H ) :   1.0045 B( 55-C , 56-C ) :   1.3024
B( 55-C , 59-C ) :   1.1184 B( 56-C , 57-C ) :   1.2447 B( 56-C , 79-H ) :   1.0090
B( 57-C , 58-C ) :   1.4027 B( 57-C , 63-C ) :   1.0773 B( 58-C , 59-C ) :   1.1446
B( 58-C , 80-H ) :   1.0173 B( 59-C , 60-C ) :   1.4042 B( 60-C , 61-C ) :   1.1614
B( 60-C , 81-H ) :   1.0026 B( 61-C , 62-C ) :   1.4181 B( 62-C , 82-H ) :   0.9886
B( 63-C , 64-C ) :   1.9421 B( 63-C , 83-H ) :   0.9674 B( 64-C , 84-H ) :   0.9537
B( 64-C , 85-H ) :   0.9495

-----------------------------------------------------------------------------
         ABSORPTION SPECTRUM VIA TRANSITION ELECTRIC DIPOLE MOMENTS
-----------------------------------------------------------------------------
State   Energy  Wavelength   fosc         T2         TX        TY        TZ
        (cm-1)    (nm)                  (au**2)     (au)      (au)      (au)
-----------------------------------------------------------------------------
   0    4561.6   2192.2   0.019496841   1.40710  -1.05696  -0.51537   0.15595
   1    5628.3   1776.7   0.356661344  20.86208  -4.26693  -1.07773   1.22226
   2   10572.7    945.8   0.009315476   0.29006   0.43962  -0.13127  -0.28208
   3   14704.0    680.1   0.073836280   1.65314   0.21668   1.11519   0.60212
   4   15417.4    648.6   0.774560624  16.53936   0.32760   3.57439   1.91200
   5   18671.5    535.6   0.195074464   3.43952   0.94344  -1.16523  -1.09164
   6   18827.7    531.1   0.613316506  10.72418   0.63443  -2.67620  -1.77753
   7   20285.0    493.0   0.042531121   0.69025   0.37686  -0.49904  -0.54698
   8   21162.8    472.5   0.037527758   0.58379   0.13124   0.61330   0.43638
   9   21568.7    463.6   0.144845703   2.21084  -0.48384   1.06349   0.91964
  10   22105.6    452.4   0.021659426   0.32257  -0.54166   0.10970   0.13092
  11   22917.0    436.4   0.076224192   1.09499   0.39961  -0.87810  -0.40526
  12   23104.1    432.8   0.072422427   1.03195  -0.03728  -0.80277  -0.62139
  13   23573.5    424.2   0.194199283   2.71206   0.32679   1.25204   1.01865
  14   23934.5    417.8   0.092506171   1.27240  -0.01312   0.81643   0.77824
  15   24382.3    410.1   0.871021778  11.76059  -2.00831   1.96258   1.96865
  16   24825.6    402.8   0.071211354   0.94433  -0.44665   0.66376   0.55160
  17   25609.4    390.5   0.060650619   0.77967   0.00452   0.81822   0.33192
  18   25899.9    386.1   0.005030185   0.06394  -0.17708  -0.16306  -0.07743
  19   26233.1    381.2   0.053742069   0.67443   0.68704   0.02255  -0.44933
  20   26709.8    374.4   0.005576933   0.06874  -0.11135  -0.13077   0.19809
  21   26930.5    371.3   0.027809078   0.33995   0.47934   0.25602  -0.21127
  22   27205.1    367.6   0.052309963   0.63301  -0.09698  -0.53533  -0.58054
  23   27795.3    359.8   0.148133574   1.75452  -0.66346   0.76698   0.85211
  24   28649.9    349.0   0.113515029   1.30438  -0.48940  -0.94902  -0.40526
  25   29291.5    341.4   0.025920736   0.29133   0.44257  -0.29057  -0.10500
  26   29580.2    338.1   0.016766228   0.18660  -0.40894  -0.13583  -0.03029
  27   29987.7    333.5   0.138418768   1.51960  -0.24601   1.17175   0.29338
  28   30246.4    330.6   0.279556972   3.04279   1.21292   1.15836  -0.47938
  29   30618.2    326.6   0.089459345   0.96188  -0.70077  -0.40388  -0.55469
  30   30892.6    323.7   0.060521904   0.64496   0.47164   0.54593   0.35282
  31   31174.1    320.8   0.370159450   3.90905  -0.35721  -1.10333  -1.60129
  32   31644.5    316.0   0.137334392   1.42875   0.69890   0.57396   0.78157
  33   31716.6    315.3   0.009226579   0.09577  -0.14784  -0.25252  -0.10073
  34   31762.3    314.8   0.017220552   0.17849  -0.39124  -0.15452   0.03934
  35   32026.9    312.2   0.049882350   0.51275   0.26268   0.56740   0.34900
  36   32208.8    310.5   0.035903283   0.36697   0.50113  -0.10350   0.32424
  37   32494.6    307.7   0.001115102   0.01130   0.03853  -0.03608   0.09226
  38   32654.9    306.2   0.015904743   0.16034   0.23860  -0.14547   0.28680
  39   33106.3    302.1   0.111731610   1.11107   0.66174  -0.47679  -0.66771
  40   33137.0    301.8   0.005929723   0.05891   0.10597  -0.14034  -0.16729
  41   33805.4    295.8   0.032140463   0.31300   0.01174  -0.43825  -0.34756
  42   34125.4    293.0   0.004961186   0.04786   0.12493   0.17936  -0.00919
  43   34188.2    292.5   0.001788343   0.01722   0.03168  -0.12225  -0.03567
  44   34311.0    291.5   0.325517585   3.12332   0.24643   1.37780   1.07900
  45   34551.4    289.4   0.163457858   1.55746   1.12399   0.29794   0.45313
  46   35229.9    283.8   0.042915440   0.40103  -0.43869   0.12592   0.43901
  47   35256.0    283.6   0.053510895   0.49967   0.58071  -0.04147  -0.40091
  48   35530.1    281.5   0.040406067   0.37439   0.60895  -0.03654  -0.04732
  49   35840.3    279.0   0.002595685   0.02384  -0.01047  -0.14164   0.06059
  50   35974.0    278.0   0.011962340   0.10947  -0.18354   0.01773   0.27472
  51   36409.7    274.7   0.028237104   0.25532   0.33603  -0.18992  -0.32609
  52   36513.2    273.9   0.024232886   0.21849   0.25718   0.01183  -0.39014
  53   36590.6    273.3   0.113950481   1.02523   0.92121  -0.41051   0.08989
  54   36653.3    272.8   0.057363591   0.51523   0.60945   0.00588   0.37916
  55   36762.8    272.0   0.088447086   0.79205   0.71776  -0.11449   0.51357
  56   36917.0    270.9   0.107987599   0.96299   0.95606   0.20216   0.08984
  57   37312.2    268.0   0.013258683   0.11698  -0.29961  -0.16091  -0.03640
  58   37558.1    266.3   0.030780084   0.26980  -0.48577  -0.03157   0.18120
  59   37736.4    265.0   0.007301685   0.06370  -0.20877  -0.07585  -0.11985
  60   37999.9    263.2   0.148877167   1.28980   0.49261   0.92421   0.43928
  61   38231.0    261.6   0.114193114   0.98333  -0.78135  -0.49843   0.35268
  62   38832.2    257.5   0.007448999   0.06315   0.16913  -0.05969  -0.17602
  63   39080.0    255.9   0.041390637   0.34868  -0.55965  -0.15696   0.10410
  64   39131.4    255.5   0.015361319   0.12923   0.26588   0.20848  -0.12280
  65   39296.0    254.5   0.030800058   0.25804   0.11235  -0.33459  -0.36532
  66   39637.4    252.3   0.064582383   0.53639   0.13491   0.62081   0.36440
  67   39710.9    251.8   0.089005381   0.73787  -0.35392  -0.74201  -0.24905
  68   39826.6    251.1   0.014110927   0.11664  -0.08716   0.07051  -0.32261
  69   39998.5    250.0   0.009071922   0.07467  -0.22862  -0.04083   0.14400
  70   40057.1    249.6   0.030013247   0.24667   0.01056  -0.46506  -0.17398

FINAL SINGLE POINT ENERGY     -6632.182629075272

DIPOLE MOMENT
-------------
                                X             Y             Z
Electronic contribution:     64.25773     -35.09209     -89.23390
Nuclear contribution   :    -75.36082      31.87239      90.99658
                        -----------------------------------------
Total Dipole Moment    :    -11.10309      -3.21970       1.76268
                        -----------------------------------------
Magnitude (a.u.)       :     11.69411
Magnitude (Debye)      :     29.72406

Rotational constants in cm-1:     0.000877     0.000625     0.000383
Rotational constants in MHz :    26.287112    18.748422    11.480166

                             ****ORCA TERMINATED NORMALLY****
TOTAL RUN TIME: 0 days 0 hours 9 minutes 44 seconds 144 msec
