                         Program Version 4.2.0 -  RELEASE  -
|  1> # ORCA input file
|  2> # SCF done       -211.842639061821          0.000940707683
|  3> ! CAM-B3LYP def2-SVP def2/J RIJCOSX Grid4 TightSCF
|  4> %maxcore 5000
|  5> %tddft
|  6>     Mode sTDDFT
|  7>     Ethresh 5.0
|  8>     maxcore 5000
|  9> end
| 10>
| 11> %pal
| 12>   nprocs 6
| 13>   end
| 14> * xyz 0 1
| 15>    C       -6.03719         0.69571         5.06182
| 16>    C       -6.56513        -0.55837         5.23975
| 17>    C       -6.53926        -1.25439         6.46563
| 18>    N       -6.53977        -1.86691         7.43670
| 19>    C       -7.26151        -1.29702         4.25915
| 20>    N       -7.87889        -1.94376         3.53873
| 21>    C       -5.47436         1.53519         6.11579
| 22>    C       -5.20709         2.81729         5.57474
| 23>    C       -4.69433         3.84809         6.32352
| 24>    C       -4.42750         3.60068         7.67433
| 25>    C       -4.69004         2.31557         8.20529
| 26>    C       -5.21218         1.27385         7.44664
| 27>    S       -4.28559         2.22656         9.89213
| 28>    C       -3.77968         3.89507         9.86314
| 29>    C       -3.90430         4.48955         8.65276
| 30>   Br       -3.13472         4.69442        11.43225
| 31>    C       -5.57165         2.82387         4.14775
| 32>    O       -5.48830         3.77446         3.38757
| 33>    C       -6.02296         1.46545         3.83593
| 34>    C       -6.26056         0.95469         2.57774
| 35>    C       -6.33475         1.61204         1.34862
| 36>    S       -6.34697         3.33664         1.13804
| 37>    C       -6.68063         3.22226        -0.55694
| 38>    C       -6.72995         1.86751        -0.97915
| 39>    C       -6.51853         0.95844         0.09444
| 40>    C       -6.49227        -0.41546        -0.19842
| 41>    F       -6.22715        -1.31479         0.76498
| 42>    C       -6.70063        -0.88325        -1.47293
| 43>    C       -6.92881         0.00907        -2.51984
| 44>    C       -6.93021         1.35937        -2.27274
| 45>    F       -7.11393         2.20010        -3.30432
| 46>    C       -6.86675         4.36077        -1.35085
| 47>    C       -6.64895         5.63369        -0.88833
| 48>    C       -6.83386         6.83666        -1.59536
| 49>    C       -7.43965         6.97979        -2.87849
| 50>    C       -7.55019         8.25863        -3.52578
| 51>    N       -8.12042         8.34886        -4.72995
| 52>    C       -8.58462         7.26531        -5.31581
| 53>    C       -8.49758         6.00022        -4.66545
| 54>    N       -7.93874         5.89329        -3.48218
| 55>    C       -9.02640         4.83921        -5.28529
| 56>    N       -9.46668         3.92622        -5.81791
| 57>    C       -9.17963         7.38161        -6.59611
| 58>    N       -9.66508         7.45138        -7.63145
| 59>    C       -7.05940         9.47593        -2.93942
| 60>    C       -6.48096         9.32752        -1.65191
| 61>    C       -6.38735         8.04757        -1.00082
| 62>    N       -5.82154         8.14525         0.19964
| 63>    S       -5.44407         9.67662         0.49334
| 64>    N       -5.98037        10.29702        -0.89624
| 65>    C       -7.19870        10.66103        -3.66173
| 66>    C       -6.76850        11.95360        -3.41523
| 67>    C       -7.02642        13.01578        -4.31383
| 68>    C       -6.48381        14.21412        -3.94711
| 69>    C       -5.76338        14.14126        -2.74123
| 70>    S       -5.82235        12.53269        -2.06854
| 71>    C       -5.05693        15.16038        -2.10746
| 72>    C       -4.94404        16.50928        -2.49237
| 73>    C       -4.15315        17.25228        -1.66041
| 74>    C       -3.60415        16.51924        -0.58763
| 75>    S       -4.13220        14.85494        -0.66151
| 76>    C       -2.73439        16.99631         0.37683
| 77>    C       -2.21810        16.21082         1.40122
| 78>    C       -1.27965        16.55970         2.34780
| 79>    C       -0.37851        17.67506         2.44609
| 80>    C        0.13879        18.41766         1.40934
| 81>    C        1.05063        19.47736         1.58177
| 82>    N        1.77809        20.36273         1.66101
| 83>    C       -0.08219        18.14247         0.04555
| 84>    N       -0.18968        17.94182        -1.08029
| 85>    C        0.08110        17.74263         3.83328
| 86>    C       -0.35756        16.57816         4.51297
| 87>    C       -1.17424        15.76116         3.59215
| 88>    O       -1.68809        14.68550         3.81038
| 89>    C       -0.04574        16.32928         5.82668
| 90>    C        0.72355        17.28034         6.50682
| 91>    C        1.14142        18.44694         5.82438
| 92>    C        0.83471        18.69427         4.49076
| 93>    S        2.06776        19.49380         6.85550
| 94>    C        1.88833        18.36321         8.17100
| 95>    C        1.17041        17.25897         7.85647
| 96>   Br        2.66305        18.74932         9.83493
| 97>    H       -4.50698         4.81471         5.88300
| 98>    H       -5.39318         0.31283         7.89797
| 99>    H       -3.63926         5.51234         8.45635
|100>    H       -6.41050        -0.11472         2.52949
|101>    H       -6.67498        -1.94578        -1.65167
|102>    H       -7.09081        -0.34734        -3.52376
|103>    H       -7.19021         4.22691        -2.37115
|104>    H       -6.25546         5.76162         0.11359
|105>    H       -7.72773        10.53358        -4.59986
|106>    H       -7.60216        12.86129        -5.20936
|107>    H       -6.57803        15.12085        -4.51664
|108>    H       -5.44253        16.90060        -3.36056
|109>    H       -3.93822        18.29709        -1.79493
|110>    H       -2.47226        18.04236         0.31448
|111>    H       -2.64706        15.22157         1.53413
|112>    H       -0.38393        15.42976         6.31659
|113>    H        1.17297        19.59954         4.01455
|114>    H        0.96301        16.46150         8.54638
|115> *
|116>
|117>                          ****END OF INPUT****

CARTESIAN COORDINATES (ANGSTROEM)
---------------------------------
  C     -6.037190    0.695710    5.061820
  C     -6.565130   -0.558370    5.239750
  C     -6.539260   -1.254390    6.465630
  N     -6.539770   -1.866910    7.436700
  C     -7.261510   -1.297020    4.259150
  N     -7.878890   -1.943760    3.538730
  C     -5.474360    1.535190    6.115790
  C     -5.207090    2.817290    5.574740
  C     -4.694330    3.848090    6.323520
  C     -4.427500    3.600680    7.674330
  C     -4.690040    2.315570    8.205290
  C     -5.212180    1.273850    7.446640
  S     -4.285590    2.226560    9.892130
  C     -3.779680    3.895070    9.863140
  C     -3.904300    4.489550    8.652760
  Br    -3.134720    4.694420   11.432250
  C     -5.571650    2.823870    4.147750
  O     -5.488300    3.774460    3.387570
  C     -6.022960    1.465450    3.835930
  C     -6.260560    0.954690    2.577740
  C     -6.334750    1.612040    1.348620
  S     -6.346970    3.336640    1.138040
  C     -6.680630    3.222260   -0.556940
  C     -6.729950    1.867510   -0.979150
  C     -6.518530    0.958440    0.094440
  C     -6.492270   -0.415460   -0.198420
  F     -6.227150   -1.314790    0.764980
  C     -6.700630   -0.883250   -1.472930
  C     -6.928810    0.009070   -2.519840
  C     -6.930210    1.359370   -2.272740
  F     -7.113930    2.200100   -3.304320
  C     -6.866750    4.360770   -1.350850
  C     -6.648950    5.633690   -0.888330
  C     -6.833860    6.836660   -1.595360
  C     -7.439650    6.979790   -2.878490
  C     -7.550190    8.258630   -3.525780
  N     -8.120420    8.348860   -4.729950
  C     -8.584620    7.265310   -5.315810
  C     -8.497580    6.000220   -4.665450
  N     -7.938740    5.893290   -3.482180
  C     -9.026400    4.839210   -5.285290
  N     -9.466680    3.926220   -5.817910
  C     -9.179630    7.381610   -6.596110
  N     -9.665080    7.451380   -7.631450
  C     -7.059400    9.475930   -2.939420
  C     -6.480960    9.327520   -1.651910
  C     -6.387350    8.047570   -1.000820
  N     -5.821540    8.145250    0.199640
  S     -5.444070    9.676620    0.493340
  N     -5.980370   10.297020   -0.896240
  C     -7.198700   10.661030   -3.661730
  C     -6.768500   11.953600   -3.415230
  C     -7.026420   13.015780   -4.313830
  C     -6.483810   14.214120   -3.947110
  C     -5.763380   14.141260   -2.741230
  S     -5.822350   12.532690   -2.068540
  C     -5.056930   15.160380   -2.107460
  C     -4.944040   16.509280   -2.492370
  C     -4.153150   17.252280   -1.660410
  C     -3.604150   16.519240   -0.587630
  S     -4.132200   14.854940   -0.661510
  C     -2.734390   16.996310    0.376830
  C     -2.218100   16.210820    1.401220
  C     -1.279650   16.559700    2.347800
  C     -0.378510   17.675060    2.446090
  C      0.138790   18.417660    1.409340
  C      1.050630   19.477360    1.581770
  N      1.778090   20.362730    1.661010
  C     -0.082190   18.142470    0.045550
  N     -0.189680   17.941820   -1.080290
  C      0.081100   17.742630    3.833280
  C     -0.357560   16.578160    4.512970
  C     -1.174240   15.761160    3.592150
  O     -1.688090   14.685500    3.810380
  C     -0.045740   16.329280    5.826680
  C      0.723550   17.280340    6.506820
  C      1.141420   18.446940    5.824380
  C      0.834710   18.694270    4.490760
  S      2.067760   19.493800    6.855500
  C      1.888330   18.363210    8.171000
  C      1.170410   17.258970    7.856470
  Br     2.663050   18.749320    9.834930
  H     -4.506980    4.814710    5.883000
  H     -5.393180    0.312830    7.897970
  H     -3.639260    5.512340    8.456350
  H     -6.410500   -0.114720    2.529490
  H     -6.674980   -1.945780   -1.651670
  H     -7.090810   -0.347340   -3.523760
  H     -7.190210    4.226910   -2.371150
  H     -6.255460    5.761620    0.113590
  H     -7.727730   10.533580   -4.599860
  H     -7.602160   12.861290   -5.209360
  H     -6.578030   15.120850   -4.516640
  H     -5.442530   16.900600   -3.360560
  H     -3.938220   18.297090   -1.794930
  H     -2.472260   18.042360    0.314480
  H     -2.647060   15.221570    1.534130
  H     -0.383930   15.429760    6.316590
  H      1.172970   19.599540    4.014550
  H      0.963010   16.461500    8.546380

 Total Charge           Charge          ....    0
 Multiplicity           Mult            ....    1
 Number of Electrons    NEL             ....  648
 Basis Dimension        Dim             .... 1298

ORBITAL ENERGIES
----------------

  NO   OCC          E(Eh)            E(eV)
   0   2.0000    -482.886210    -13140.0018
   1   2.0000    -482.884812    -13139.9637
   2   2.0000     -89.051869     -2423.2245
   3   2.0000     -88.982400     -2421.3342
   4   2.0000     -88.977327     -2421.1962
   5   2.0000     -88.976264     -2421.1672
   6   2.0000     -88.976185     -2421.1651
   7   2.0000     -88.974043     -2421.1068
   8   2.0000     -62.563924     -1702.4509
   9   2.0000     -62.562536     -1702.4132
  10   2.0000     -56.397872     -1534.6641
  11   2.0000     -56.396479     -1534.6262
  12   2.0000     -56.395161     -1534.5903
  13   2.0000     -56.395125     -1534.5894
  14   2.0000     -56.393775     -1534.5526
  15   2.0000     -56.393739     -1534.5516
  16   2.0000     -24.796934      -674.7589
  17   2.0000     -24.793693      -674.6707
  18   2.0000     -19.219522      -522.9898
  19   2.0000     -19.214245      -522.8462
  20   2.0000     -14.470494      -393.7622
  21   2.0000     -14.466695      -393.6588
  22   2.0000     -14.465547      -393.6275
  23   2.0000     -14.460334      -393.4857
  24   2.0000     -14.434766      -392.7900
  25   2.0000     -14.434169      -392.7737
  26   2.0000     -14.415336      -392.2612
  27   2.0000     -14.414119      -392.2281
  28   2.0000     -14.409513      -392.1028
  29   2.0000     -14.408704      -392.0808
  30   2.0000     -10.388815      -282.6940
  31   2.0000     -10.386263      -282.6246
  32   2.0000     -10.374519      -282.3050
  33   2.0000     -10.371798      -282.2310
  34   2.0000     -10.367498      -282.1140
  35   2.0000     -10.364733      -282.0387
  36   2.0000     -10.360026      -281.9107
  37   2.0000     -10.359147      -281.8867
  38   2.0000     -10.358420      -281.8669
  39   2.0000     -10.357407      -281.8394
  40   2.0000     -10.355562      -281.7892
  41   2.0000     -10.350835      -281.6605
  42   2.0000     -10.343385      -281.4578
  43   2.0000     -10.342634      -281.4374
  44   2.0000     -10.342410      -281.4313
  45   2.0000     -10.342111      -281.4231
  46   2.0000     -10.341311      -281.4014
  47   2.0000     -10.336640      -281.2743
  48   2.0000     -10.336155      -281.2611
  49   2.0000     -10.335564      -281.2450
  50   2.0000     -10.330540      -281.1083
  51   2.0000     -10.329422      -281.0779
  52   2.0000     -10.328007      -281.0394
  53   2.0000     -10.327830      -281.0346
  54   2.0000     -10.327483      -281.0251
  55   2.0000     -10.325940      -280.9831
  56   2.0000     -10.323490      -280.9164
  57   2.0000     -10.318625      -280.7841
  58   2.0000     -10.318516      -280.7811
  59   2.0000     -10.318289      -280.7749
  60   2.0000     -10.317190      -280.7450
  61   2.0000     -10.317131      -280.7434
  62   2.0000     -10.315832      -280.7081
  63   2.0000     -10.315822      -280.7078
  64   2.0000     -10.313938      -280.6565
  65   2.0000     -10.313225      -280.6371
  66   2.0000     -10.312818      -280.6260
  67   2.0000     -10.312717      -280.6233
  68   2.0000     -10.311382      -280.5870
  69   2.0000     -10.311300      -280.5847
  70   2.0000     -10.310663      -280.5674
  71   2.0000     -10.308766      -280.5158
  72   2.0000     -10.307409      -280.4789
  73   2.0000     -10.305428      -280.4250
  74   2.0000     -10.305364      -280.4232
  75   2.0000     -10.305274      -280.4208
  76   2.0000     -10.303962      -280.3851
  77   2.0000     -10.302614      -280.3484
  78   2.0000     -10.301459      -280.3170
  79   2.0000     -10.300858      -280.3006
  80   2.0000     -10.299726      -280.2698
  81   2.0000     -10.297261      -280.2027
  82   2.0000     -10.297112      -280.1987
  83   2.0000     -10.297088      -280.1980
  84   2.0000     -10.295648      -280.1588
  85   2.0000     -10.294540      -280.1287
  86   2.0000     -10.294278      -280.1216
  87   2.0000     -10.293310      -280.0952
  88   2.0000     -10.292531      -280.0740
  89   2.0000     -10.290352      -280.0147
  90   2.0000      -8.793352      -239.2793
  91   2.0000      -8.791975      -239.2418
  92   2.0000      -8.143037      -221.5833
  93   2.0000      -8.075390      -219.7425
  94   2.0000      -8.073685      -219.6961
  95   2.0000      -8.072140      -219.6541
  96   2.0000      -8.070690      -219.6146
  97   2.0000      -8.070056      -219.5974
  98   2.0000      -6.629642      -180.4017
  99   2.0000      -6.628249      -180.3638
 100   2.0000      -6.615082      -180.0055
 101   2.0000      -6.614908      -180.0008
 102   2.0000      -6.613723      -179.9686
 103   2.0000      -6.613527      -179.9632
 104   2.0000      -6.114212      -166.3762
 105   2.0000      -6.106553      -166.1678
 106   2.0000      -6.105505      -166.1392
 107   2.0000      -6.044428      -164.4772
 108   2.0000      -6.043246      -164.4451
 109   2.0000      -6.041842      -164.4069
 110   2.0000      -6.040417      -164.3681
 111   2.0000      -6.039974      -164.3560
 112   2.0000      -6.039731      -164.3494
 113   2.0000      -6.039183      -164.3345
 114   2.0000      -6.038321      -164.3111
 115   2.0000      -6.037552      -164.2901
 116   2.0000      -6.035964      -164.2469
 117   2.0000      -6.035473      -164.2336
 118   2.0000      -6.034897      -164.2179
 119   2.0000      -6.033407      -164.1774
 120   2.0000      -6.031981      -164.1385
 121   2.0000      -6.031274      -164.1193
 122   2.0000      -2.745521       -74.7094
 123   2.0000      -2.744142       -74.6719
 124   2.0000      -2.741435       -74.5982
 125   2.0000      -2.741273       -74.5938
 126   2.0000      -2.740027       -74.5599
 127   2.0000      -2.739914       -74.5569
 128   2.0000      -2.729712       -74.2792
 129   2.0000      -2.729705       -74.2791
 130   2.0000      -2.728358       -74.2424
 131   2.0000      -2.728331       -74.2417
 132   2.0000      -1.311733       -35.6941
 133   2.0000      -1.308559       -35.6077
 134   2.0000      -1.151569       -31.3358
 135   2.0000      -1.134700       -30.8768
 136   2.0000      -1.128560       -30.7097
 137   2.0000      -1.128379       -30.7048
 138   2.0000      -1.054049       -28.6821
 139   2.0000      -1.026815       -27.9411
 140   2.0000      -1.022929       -27.8353
 141   2.0000      -1.020388       -27.7662
 142   2.0000      -1.019343       -27.7377
 143   2.0000      -1.017533       -27.6885
 144   2.0000      -1.013216       -27.5710
 145   2.0000      -1.011021       -27.5113
 146   2.0000      -1.008705       -27.4483
 147   2.0000      -1.007737       -27.4219
 148   2.0000      -1.001256       -27.2456
 149   2.0000      -0.993393       -27.0316
 150   2.0000      -0.989521       -26.9262
 151   2.0000      -0.987963       -26.8838
 152   2.0000      -0.986611       -26.8470
 153   2.0000      -0.985381       -26.8136
 154   2.0000      -0.956089       -26.0165
 155   2.0000      -0.944919       -25.7125
 156   2.0000      -0.941488       -25.6192
 157   2.0000      -0.931335       -25.3429
 158   2.0000      -0.924456       -25.1557
 159   2.0000      -0.916865       -24.9492
 160   2.0000      -0.912763       -24.8375
 161   2.0000      -0.908370       -24.7180
 162   2.0000      -0.905730       -24.6462
 163   2.0000      -0.896004       -24.3815
 164   2.0000      -0.886048       -24.1106
 165   2.0000      -0.885694       -24.1009
 166   2.0000      -0.883432       -24.0394
 167   2.0000      -0.877779       -23.8856
 168   2.0000      -0.873528       -23.7699
 169   2.0000      -0.863967       -23.5097
 170   2.0000      -0.856324       -23.3018
 171   2.0000      -0.852543       -23.1989
 172   2.0000      -0.848270       -23.0826
 173   2.0000      -0.842492       -22.9254
 174   2.0000      -0.838740       -22.8233
 175   2.0000      -0.829428       -22.5699
 176   2.0000      -0.827322       -22.5126
 177   2.0000      -0.814605       -22.1665
 178   2.0000      -0.812940       -22.1212
 179   2.0000      -0.796778       -21.6814
 180   2.0000      -0.783419       -21.3179
 181   2.0000      -0.768130       -20.9019
 182   2.0000      -0.761289       -20.7157
 183   2.0000      -0.756761       -20.5925
 184   2.0000      -0.751573       -20.4513
 185   2.0000      -0.741951       -20.1895
 186   2.0000      -0.734782       -19.9944
 187   2.0000      -0.728054       -19.8114
 188   2.0000      -0.717235       -19.5169
 189   2.0000      -0.715468       -19.4689
 190   2.0000      -0.708956       -19.2917
 191   2.0000      -0.704183       -19.1618
 192   2.0000      -0.701929       -19.1005
 193   2.0000      -0.691568       -18.8185
 194   2.0000      -0.689716       -18.7681
 195   2.0000      -0.687348       -18.7037
 196   2.0000      -0.684277       -18.6201
 197   2.0000      -0.674690       -18.3593
 198   2.0000      -0.667557       -18.1652
 199   2.0000      -0.666360       -18.1326
 200   2.0000      -0.662024       -18.0146
 201   2.0000      -0.658508       -17.9189
 202   2.0000      -0.655035       -17.8244
 203   2.0000      -0.646318       -17.5872
 204   2.0000      -0.644944       -17.5498
 205   2.0000      -0.637074       -17.3357
 206   2.0000      -0.633849       -17.2479
 207   2.0000      -0.633002       -17.2249
 208   2.0000      -0.632249       -17.2044
 209   2.0000      -0.624908       -17.0046
 210   2.0000      -0.623542       -16.9674
 211   2.0000      -0.621435       -16.9101
 212   2.0000      -0.612801       -16.6752
 213   2.0000      -0.604416       -16.4470
 214   2.0000      -0.600402       -16.3378
 215   2.0000      -0.596493       -16.2314
 216   2.0000      -0.596313       -16.2265
 217   2.0000      -0.588355       -16.0100
 218   2.0000      -0.587449       -15.9853
 219   2.0000      -0.586245       -15.9525
 220   2.0000      -0.578062       -15.7299
 221   2.0000      -0.574113       -15.6224
 222   2.0000      -0.569253       -15.4902
 223   2.0000      -0.566214       -15.4075
 224   2.0000      -0.563451       -15.3323
 225   2.0000      -0.560095       -15.2410
 226   2.0000      -0.559690       -15.2299
 227   2.0000      -0.552777       -15.0418
 228   2.0000      -0.549866       -14.9626
 229   2.0000      -0.544283       -14.8107
 230   2.0000      -0.542798       -14.7703
 231   2.0000      -0.539662       -14.6850
 232   2.0000      -0.538782       -14.6610
 233   2.0000      -0.537850       -14.6356
 234   2.0000      -0.536312       -14.5938
 235   2.0000      -0.533994       -14.5307
 236   2.0000      -0.529690       -14.4136
 237   2.0000      -0.526492       -14.3266
 238   2.0000      -0.526084       -14.3155
 239   2.0000      -0.523864       -14.2551
 240   2.0000      -0.519888       -14.1469
 241   2.0000      -0.516800       -14.0629
 242   2.0000      -0.515605       -14.0303
 243   2.0000      -0.512676       -13.9506
 244   2.0000      -0.510337       -13.8870
 245   2.0000      -0.508251       -13.8302
 246   2.0000      -0.505591       -13.7578
 247   2.0000      -0.504316       -13.7231
 248   2.0000      -0.502568       -13.6756
 249   2.0000      -0.500967       -13.6320
 250   2.0000      -0.498849       -13.5744
 251   2.0000      -0.497313       -13.5326
 252   2.0000      -0.494220       -13.4484
 253   2.0000      -0.493958       -13.4413
 254   2.0000      -0.491921       -13.3859
 255   2.0000      -0.491738       -13.3809
 256   2.0000      -0.490272       -13.3410
 257   2.0000      -0.488273       -13.2866
 258   2.0000      -0.486515       -13.2387
 259   2.0000      -0.485345       -13.2069
 260   2.0000      -0.481695       -13.1076
 261   2.0000      -0.475421       -12.9369
 262   2.0000      -0.473342       -12.8803
 263   2.0000      -0.469991       -12.7891
 264   2.0000      -0.467045       -12.7090
 265   2.0000      -0.461514       -12.5584
 266   2.0000      -0.460218       -12.5232
 267   2.0000      -0.458878       -12.4867
 268   2.0000      -0.458445       -12.4749
 269   2.0000      -0.457871       -12.4593
 270   2.0000      -0.457349       -12.4451
 271   2.0000      -0.449259       -12.2250
 272   2.0000      -0.448396       -12.2015
 273   2.0000      -0.447733       -12.1834
 274   2.0000      -0.446873       -12.1600
 275   2.0000      -0.446599       -12.1526
 276   2.0000      -0.444462       -12.0944
 277   2.0000      -0.443087       -12.0570
 278   2.0000      -0.441814       -12.0224
 279   2.0000      -0.439451       -11.9581
 280   2.0000      -0.438520       -11.9327
 281   2.0000      -0.437956       -11.9174
 282   2.0000      -0.436463       -11.8768
 283   2.0000      -0.435473       -11.8498
 284   2.0000      -0.432439       -11.7673
 285   2.0000      -0.430556       -11.7160
 286   2.0000      -0.425545       -11.5797
 287   2.0000      -0.424921       -11.5627
 288   2.0000      -0.423345       -11.5198
 289   2.0000      -0.422932       -11.5086
 290   2.0000      -0.420848       -11.4519
 291   2.0000      -0.419854       -11.4248
 292   2.0000      -0.416735       -11.3399
 293   2.0000      -0.413832       -11.2609
 294   2.0000      -0.409521       -11.1436
 295   2.0000      -0.409240       -11.1360
 296   2.0000      -0.405589       -11.0367
 297   2.0000      -0.402849       -10.9621
 298   2.0000      -0.402144       -10.9429
 299   2.0000      -0.389360       -10.5950
 300   2.0000      -0.385913       -10.5012
 301   2.0000      -0.382921       -10.4198
 302   2.0000      -0.375629       -10.2214
 303   2.0000      -0.374265       -10.1843
 304   2.0000      -0.373586       -10.1658
 305   2.0000      -0.370669       -10.0864
 306   2.0000      -0.364814        -9.9271
 307   2.0000      -0.362789        -9.8720
 308   2.0000      -0.361214        -9.8291
 309   2.0000      -0.358841        -9.7645
 310   2.0000      -0.353971        -9.6320
 311   2.0000      -0.348001        -9.4696
 312   2.0000      -0.342541        -9.3210
 313   2.0000      -0.339001        -9.2247
 314   2.0000      -0.333118        -9.0646
 315   2.0000      -0.326802        -8.8927
 316   2.0000      -0.324277        -8.8240
 317   2.0000      -0.315638        -8.5889
 318   2.0000      -0.314185        -8.5494
 319   2.0000      -0.296953        -8.0805
 320   2.0000      -0.293807        -7.9949
 321   2.0000      -0.291123        -7.9219
 322   2.0000      -0.261869        -7.1258
 323   2.0000      -0.225766        -6.1434
 324   0.0000      -0.152798        -4.1578
 325   0.0000      -0.105088        -2.8596
 326   0.0000      -0.094849        -2.5810
 327   0.0000      -0.070196        -1.9101
 328   0.0000      -0.064643        -1.7590

MULLIKEN ATOMIC CHARGES
-----------------------
   0 C :    0.301228
   1 C :   -0.343194
   2 C :   -0.184727
   3 N :    0.141957
   4 C :   -0.209011
   5 N :    0.161026
   6 C :    0.015517
   7 C :   -0.006189
   8 C :   -0.077320
   9 C :    0.120298
  10 C :   -0.092174
  11 C :   -0.024718
  12 S :    0.186624
  13 C :   -0.124864
  14 C :    0.039288
  15 Br:    0.020875
  16 C :    0.156662
  17 O :   -0.188292
  18 C :   -0.105304
  19 C :   -0.049280
  20 C :   -0.095010
  21 S :    0.222254
  22 C :   -0.068876
  23 C :    0.079668
  24 C :    0.089666
  25 C :    0.215939
  26 F :   -0.174812
  27 C :   -0.033024
  28 C :   -0.049482
  29 C :    0.223691
  30 F :   -0.176593
  31 C :   -0.005370
  32 C :   -0.090888
  33 C :    0.103618
  34 C :   -0.052315
  35 C :   -0.034302
  36 N :    0.045493
  37 C :   -0.143462
  38 C :   -0.111482
  39 N :    0.039707
  40 C :   -0.220701
  41 N :    0.249268
  42 C :   -0.219116
  43 N :    0.242405
  44 C :    0.107254
  45 C :    0.049289
  46 C :    0.010176
  47 N :   -0.276373
  48 S :    0.550820
  49 N :   -0.331157
  50 C :   -0.123733
  51 C :    0.012758
  52 C :    0.031118
  53 C :    0.037913
  54 C :   -0.018820
  55 S :    0.148692
  56 C :   -0.050553
  57 C :    0.034606
  58 C :    0.047989
  59 C :   -0.023936
  60 S :    0.117352
  61 C :    0.009838
  62 C :    0.019745
  63 C :   -0.116041
  64 C :    0.280641
  65 C :   -0.338717
  66 C :   -0.177507
  67 N :    0.144969
  68 C :   -0.219338
  69 N :    0.160860
  70 C :    0.010412
  71 C :   -0.006591
  72 C :    0.137699
  73 O :   -0.150988
  74 C :   -0.073537
  75 C :    0.114463
  76 C :   -0.090479
  77 C :   -0.024890
  78 S :    0.185231
  79 C :   -0.125169
  80 C :    0.039287
  81 Br:    0.022346
  82 H :   -0.014552
  83 H :   -0.006338
  84 H :   -0.006110
  85 H :    0.029419
  86 H :    0.011978
  87 H :    0.008394
  88 H :    0.023089
  89 H :    0.017321
  90 H :    0.012359
  91 H :    0.005362
  92 H :   -0.003421
  93 H :    0.000728
  94 H :    0.009200
  95 H :    0.016673
  96 H :    0.015553
  97 H :   -0.011949
  98 H :   -0.004275
  99 H :   -0.003737
Sum of atomic charges:   -0.0000000

LOEWDIN ATOMIC CHARGES
----------------------
   0 C :    0.072782
   1 C :   -0.144028
   2 C :   -0.017831
   3 N :   -0.058702
   4 C :   -0.028222
   5 N :   -0.049607
   6 C :   -0.017795
   7 C :   -0.050265
   8 C :    0.019732
   9 C :   -0.034921
  10 C :   -0.144455
  11 C :   -0.011068
  12 S :    0.432878
  13 C :   -0.273257
  14 C :   -0.070773
  15 Br:    0.134598
  16 C :    0.080569
  17 O :   -0.176923
  18 C :   -0.109970
  19 C :    0.040835
  20 C :   -0.183048
  21 S :    0.569825
  22 C :   -0.141290
  23 C :   -0.066273
  24 C :   -0.039535
  25 C :    0.081853
  26 F :   -0.049554
  27 C :   -0.028275
  28 C :   -0.043308
  29 C :    0.090461
  30 F :   -0.051401
  31 C :   -0.025997
  32 C :    0.001133
  33 C :   -0.041983
  34 C :    0.000141
  35 C :    0.001865
  36 N :   -0.000740
  37 C :   -0.033651
  38 C :   -0.021163
  39 N :    0.003619
  40 C :   -0.036871
  41 N :   -0.000913
  42 C :   -0.038367
  43 N :   -0.007052
  44 C :   -0.035685
  45 C :   -0.040286
  46 C :   -0.037390
  47 N :   -0.277722
  48 S :    0.670318
  49 N :   -0.294182
  50 C :   -0.022351
  51 C :   -0.135047
  52 C :   -0.016423
  53 C :   -0.026060
  54 C :   -0.173531
  55 S :    0.458300
  56 C :   -0.167833
  57 C :   -0.012518
  58 C :   -0.020165
  59 C :   -0.109966
  60 S :    0.412646
  61 C :   -0.046634
  62 C :    0.044050
  63 C :   -0.090424
  64 C :    0.066762
  65 C :   -0.146359
  66 C :   -0.020280
  67 N :   -0.055996
  68 C :   -0.024468
  69 N :   -0.057409
  70 C :   -0.016672
  71 C :   -0.052317
  72 C :    0.079231
  73 O :   -0.151504
  74 C :    0.020875
  75 C :   -0.034799
  76 C :   -0.143823
  77 C :   -0.014339
  78 S :    0.432048
  79 C :   -0.272767
  80 C :   -0.070501
  81 Br:    0.135648
  82 H :    0.039405
  83 H :    0.041029
  84 H :    0.037807
  85 H :    0.046914
  86 H :    0.046667
  87 H :    0.045250
  88 H :    0.030274
  89 H :    0.031187
  90 H :    0.044076
  91 H :    0.040088
  92 H :    0.035081
  93 H :    0.038123
  94 H :    0.043063
  95 H :    0.040824
  96 H :    0.035128
  97 H :    0.040421
  98 H :    0.040625
  99 H :    0.038562

  Mayer bond orders larger than 0.100000
B(  0-C ,  1-C ) :   1.6178 B(  0-C ,  6-C ) :   0.9962 B(  0-C , 18-C ) :   1.0916
B(  1-C ,  2-C ) :   1.1462 B(  1-C ,  4-C ) :   1.1411 B(  2-C ,  3-N ) :   2.9671
B(  4-C ,  5-N ) :   2.9938 B(  6-C ,  7-C ) :   1.2768 B(  6-C , 11-C ) :   1.4190
B(  7-C ,  8-C ) :   1.4253 B(  7-C , 16-C ) :   0.9584 B(  8-C ,  9-C ) :   1.2395
B(  8-C , 82-H ) :   1.0172 B(  9-C , 10-C ) :   1.3118 B(  9-C , 14-C ) :   1.1626
B( 10-C , 11-C ) :   1.3210 B( 10-C , 12-S ) :   1.0869 B( 11-C , 83-H ) :   0.9803
B( 12-S , 13-C ) :   1.0870 B( 13-C , 14-C ) :   1.6188 B( 13-C , 15-Br) :   1.0176
B( 14-C , 84-H ) :   0.9996 B( 16-C , 17-O ) :   2.1198 B( 16-C , 18-C ) :   0.9865
B( 18-C , 19-C ) :   1.4635 B( 19-C , 20-C ) :   1.3220 B( 19-C , 85-H ) :   0.9359
B( 20-C , 21-S ) :   1.1145 B( 20-C , 24-C ) :   1.2194 B( 21-S , 22-C ) :   1.1616
B( 22-C , 23-C ) :   1.2221 B( 22-C , 31-C ) :   1.2354 B( 23-C , 24-C ) :   1.2441
B( 23-C , 29-C ) :   1.1805 B( 24-C , 25-C ) :   1.1901 B( 25-C , 26-F ) :   1.0912
B( 25-C , 27-C ) :   1.4884 B( 27-C , 28-C ) :   1.2129 B( 27-C , 86-H ) :   0.9897
B( 28-C , 29-C ) :   1.4873 B( 28-C , 87-H ) :   0.9907 B( 29-C , 30-F ) :   1.1036
B( 31-C , 32-C ) :   1.4774 B( 31-C , 88-H ) :   0.9527 B( 32-C , 33-C ) :   1.2773
B( 32-C , 89-H ) :   0.9582 B( 33-C , 34-C ) :   1.1803 B( 33-C , 44-C ) :   0.1119
B( 33-C , 46-C ) :   1.1527 B( 34-C , 35-C ) :   1.1339 B( 34-C , 39-N ) :   1.4548
B( 35-C , 36-N ) :   1.4934 B( 35-C , 44-C ) :   1.1647 B( 36-N , 37-C ) :   1.6891
B( 37-C , 38-C ) :   1.2429 B( 37-C , 42-C ) :   1.1634 B( 38-C , 39-N ) :   1.7035
B( 38-C , 40-C ) :   1.1519 B( 40-C , 41-N ) :   3.0463 B( 42-C , 43-N ) :   3.0483
B( 44-C , 45-C ) :   1.1363 B( 44-C , 50-C ) :   1.3238 B( 45-C , 46-C ) :   1.1190
B( 45-C , 49-N ) :   1.4890 B( 46-C , 47-N ) :   1.5529 B( 47-N , 48-S ) :   1.2716
B( 47-N , 49-N ) :   0.1394 B( 48-S , 49-N ) :   1.2470 B( 50-C , 51-C ) :   1.4079
B( 50-C , 90-H ) :   0.9415 B( 51-C , 52-C ) :   1.1869 B( 51-C , 55-S ) :   1.0767
B( 52-C , 53-C ) :   1.5323 B( 52-C , 91-H ) :   1.0032 B( 53-C , 54-C ) :   1.2208
B( 53-C , 92-H ) :   0.9948 B( 54-C , 55-S ) :   1.0456 B( 54-C , 56-C ) :   1.4196
B( 56-C , 57-C ) :   1.2322 B( 56-C , 60-S ) :   1.0682 B( 57-C , 58-C ) :   1.5301
B( 57-C , 93-H ) :   0.9960 B( 58-C , 59-C ) :   1.1865 B( 58-C , 94-H ) :   1.0003
B( 59-C , 60-S ) :   1.0732 B( 59-C , 61-C ) :   1.5038 B( 61-C , 62-C ) :   1.2070
B( 61-C , 95-H ) :   0.9616 B( 62-C , 63-C ) :   1.5520 B( 62-C , 96-H ) :   0.9386
B( 63-C , 64-C ) :   1.0775 B( 63-C , 72-C ) :   0.9558 B( 64-C , 65-C ) :   1.6051
B( 64-C , 70-C ) :   1.0081 B( 65-C , 66-C ) :   1.1340 B( 65-C , 68-C ) :   1.1668
B( 66-C , 67-N ) :   2.9768 B( 68-C , 69-N ) :   3.0097 B( 70-C , 71-C ) :   1.2722
B( 70-C , 77-C ) :   1.4203 B( 71-C , 72-C ) :   0.9219 B( 71-C , 74-C ) :   1.4311
B( 72-C , 73-O ) :   2.2500 B( 74-C , 75-C ) :   1.2458 B( 74-C , 97-H ) :   1.0165
B( 75-C , 76-C ) :   1.3117 B( 75-C , 80-C ) :   1.1636 B( 76-C , 77-C ) :   1.3203
B( 76-C , 78-S ) :   1.0862 B( 77-C , 98-H ) :   0.9816 B( 78-S , 79-C ) :   1.0863
B( 79-C , 80-C ) :   1.6204 B( 79-C , 81-Br) :   1.0176 B( 80-C , 99-H ) :   0.9996

-----------------------------------------------------------------------------
         ABSORPTION SPECTRUM VIA TRANSITION ELECTRIC DIPOLE MOMENTS
-----------------------------------------------------------------------------
State   Energy  Wavelength   fosc         T2         TX        TY        TZ
        (cm-1)    (nm)                  (au**2)     (au)      (au)      (au)
-----------------------------------------------------------------------------
   0    3409.7   2932.8   0.330130084  31.87442   1.61116   5.40069  -0.33334
   1   11327.4    882.8   0.143351761   4.16628  -1.01955   0.12548  -1.76382
   2   13458.0    743.1   0.719347791  17.59681  -2.52789  -1.74889  -2.85446
   3   14835.9    674.0   0.748722658  16.61435   0.89350  -1.69618   3.59708
   4   18254.8    547.8   0.169248259   3.05227   1.25943   0.70946   0.98120
   5   20054.3    498.6   0.049059792   0.80537  -0.39589   0.07583  -0.80180
   6   20351.0    491.4   0.010631312   0.17198   0.08323   0.37343   0.16000
   7   21190.3    471.9   0.059599510   0.92594  -0.48769   0.79663   0.23125
   8   21997.0    454.6   0.026865260   0.40207  -0.49522   0.27269   0.28717
   9   22637.0    441.8   0.074344789   1.08120   0.10682  -1.02519  -0.13705
  10   23074.0    433.4   0.168515819   2.40433  -0.66306   0.22651  -1.38325
  11   23260.4    429.9   0.008765199   0.12406  -0.04086  -0.07492   0.34172
  12   23357.8    428.1   0.004829359   0.06807  -0.13360  -0.15489  -0.16195
  13   23540.3    424.8   0.011969806   0.16740  -0.13572  -0.15122  -0.35512
  14   24010.0    416.5   0.007935064   0.10880  -0.06794  -0.01322   0.32251
  15   24740.5    404.2   0.008164227   0.10864  -0.16261  -0.28638   0.01358
  16   24899.5    401.6   0.011389892   0.15059   0.14704  -0.26197   0.24565
  17   25107.9    398.3   0.013992431   0.18347   0.09451  -0.13093   0.39673
  18   25398.8    393.7   0.052989525   0.68684   0.18533  -0.80565  -0.05846
  19   26062.8    383.7   0.053382565   0.67430   0.06398  -0.10458  -0.81196
  20   26467.2    377.8   0.005472895   0.06807  -0.18829   0.17651   0.03829
  21   26720.5    374.2   0.126377133   1.55704  -0.59672   0.44887  -0.99974
  22   27930.2    358.0   0.012036089   0.14187  -0.21185  -0.22013  -0.22030
  23   28180.1    354.9   0.003915553   0.04574   0.04861  -0.15706  -0.13679
  24   28288.2    353.5   0.018481246   0.21508   0.19676  -0.08222  -0.41183
  25   28723.0    348.2   0.034467396   0.39505   0.23299  -0.57583   0.09583
  26   28929.6    345.7   0.232527225   2.64610  -0.72132  -0.79274  -1.22367
  27   29343.6    340.8   0.008019690   0.08997   0.18009   0.17127  -0.16795
  28   29760.1    336.0   0.415741149   4.59901   0.61021   0.06346   2.05490
  29   29980.6    333.5   0.090809070   0.99716   0.30062   0.47104   0.82759
  30   30198.8    331.1   0.262590690   2.86263   0.60512   1.31752   0.87212
  31   30412.9    328.8   0.056384879   0.61035   0.36482  -0.54608   0.42315
  32   30476.9    328.1   0.012931006   0.13968  -0.01619  -0.15648   0.33902
  33   30854.4    324.1   0.106665278   1.13810  -0.28094  -0.19679  -1.01017
  34   31101.9    321.5   0.175080248   1.85321  -0.55392  -0.77998  -0.96852
  35   31563.3    316.8   0.093018024   0.97020   0.23407   0.29246   0.91098
  36   31887.9    313.6   0.032331651   0.33379   0.27838   0.19479   0.46728
  37   32045.1    312.1   0.058359331   0.59955  -0.27397  -0.65322  -0.31272
  38   32553.3    307.2   0.190375308   1.92527  -0.57339  -0.33301  -1.21885
  39   32606.3    306.7   0.105104803   1.06120  -0.25735  -0.62176  -0.77999
  40   33083.0    302.3   0.028388851   0.28250   0.13888   0.36270  -0.36285
  41   33228.6    300.9   0.071130001   0.70472   0.36790   0.73227   0.18209
  42   33359.0    299.8   0.234826726   2.31745  -0.62960  -1.20643  -0.68233
  43   33815.3    295.7   0.014977142   0.14581  -0.00521  -0.32212  -0.20499
  44   33830.7    295.6   0.070831642   0.68927   0.51366   0.43877   0.48261
  45   34099.2    293.3   0.058103419   0.56096  -0.00347  -0.07399   0.74530
  46   34352.6    291.1   0.411960373   3.94795  -0.20578   0.63825  -1.87036
  47   34532.0    289.6   0.035061667   0.33426   0.03275  -0.19443  -0.54349
  48   34723.7    288.0   0.005566623   0.05278  -0.07612  -0.20994   0.05393
  49   35752.9    279.7   0.049735204   0.45796  -0.05445  -0.04422  -0.67308
  50   35769.2    279.6   0.060559781   0.55738   0.11311   0.73377   0.07855
  51   36062.5    277.3   0.080728713   0.73697   0.37833   0.53630   0.55336
  52   36504.7    273.9   0.002747736   0.02478   0.11847   0.08655  -0.05704
  53   36853.8    271.3   0.002610401   0.02332  -0.02782   0.08169   0.12598
  54   36958.0    270.6   0.062421522   0.55603   0.00275  -0.29130  -0.68642
  55   37068.3    269.8   0.005210562   0.04628  -0.13455   0.02207  -0.16639
  56   37122.8    269.4   0.012495745   0.11081   0.10232  -0.08555  -0.30500
  57   37328.5    267.9   0.032023023   0.28242   0.06624  -0.49143   0.19114
  58   37379.0    267.5   0.116337841   1.02463   0.27194   0.97036   0.09537
  59   37706.5    265.2   0.264681113   2.31091  -0.56760  -1.35327   0.39673
  60   37805.1    264.5   0.028356525   0.24693   0.13534   0.41564  -0.23633
  61   37928.0    263.7   0.010939778   0.09496   0.20588  -0.14819  -0.17496
  62   38017.8    263.0   0.004351448   0.03768  -0.03965   0.08134  -0.17173
  63   38288.4    261.2   0.006449234   0.05545   0.15359  -0.13758   0.11372
  64   38553.2    259.4   0.003344357   0.02856   0.04865   0.15921  -0.02903
  65   38820.7    257.6   0.102492206   0.86917  -0.17254  -0.15564  -0.90287
  66   38909.8    257.0   0.015323087   0.12965   0.13038   0.32366   0.08886
  67   38956.6    256.7   0.002013047   0.01701   0.07084   0.10540  -0.02974
  68   39403.2    253.8   0.250915289   2.09639   0.46551   0.97149   0.96742
  69   39492.5    253.2   0.152331470   1.26984   0.22820   0.03165   1.10307
  70   39608.9    252.5   0.069405384   0.57687  -0.05289  -0.43420   0.62092
  71   39910.3    250.6   0.034556743   0.28505   0.09611   0.43614  -0.29257
  72   40018.1    249.9   0.027417613   0.22555   0.05685   0.41972  -0.21483
  73   40090.6    249.4   0.084416660   0.69320   0.33222   0.36438   0.67087
  74   40111.0    249.3   0.052446176   0.43045   0.46223   0.41622  -0.20870

FINAL SINGLE POINT ENERGY    -10727.051215231793

DIPOLE MOMENT
-------------
                                X             Y             Z
Electronic contribution:     74.98379      24.41895     169.74568
Nuclear contribution   :    -74.89192     -20.95012    -169.37919
                        -----------------------------------------
Total Dipole Moment    :      0.09187       3.46882       0.36649
                        -----------------------------------------
Magnitude (a.u.)       :      3.48934
Magnitude (Debye)      :      8.86920

Rotational constants in cm-1:     0.000438     0.000227     0.000152
Rotational constants in MHz :    13.133681     6.797025     4.559974

                             ****ORCA TERMINATED NORMALLY****
TOTAL RUN TIME: 0 days 0 hours 28 minutes 1 seconds 520 msec
