                         Program Version 4.2.0 -  RELEASE  -
|  1> # ORCA input file
|  2> # SCF done       -195.013428620327          0.000526856973
|  3> ! CAM-B3LYP def2-SVP def2/J RIJCOSX Grid4 TightSCF
|  4> %maxcore 5000
|  5> %tddft
|  6>     Mode sTDDFT
|  7>     Ethresh 5.0
|  8>     maxcore 5000
|  9> end
| 10>
| 11> %pal
| 12>   nprocs 6
| 13>   end
| 14> * xyz 0 1
| 15>    C       -1.84869        -0.22885        -0.51032
| 16>    C       -1.92564        -1.38004         0.23355
| 17>    C       -1.05965        -2.47971         0.07600
| 18>    N       -0.37919        -3.40095        -0.01129
| 19>    C       -2.90847        -1.62998         1.21378
| 20>    N       -3.69384        -1.92209         1.99904
| 21>    C       -0.93607         0.01283        -1.62235
| 22>    C       -1.27488         1.25008        -2.22167
| 23>    C       -0.59543         1.75924        -3.30054
| 24>    C        0.46693         1.00890        -3.81679
| 25>    C        0.79895        -0.22439        -3.20977
| 26>    C        0.11326        -0.73872        -2.11558
| 27>    S        2.15002        -0.98185        -3.99913
| 28>    C        2.24709         0.35121        -5.11857
| 29>    C        1.31769         1.31403        -4.91496
| 30>   Br        3.56684         0.34659        -6.45194
| 31>    C       -2.40037         1.86455        -1.48493
| 32>    O       -2.85294         2.97497        -1.67416
| 33>    C       -2.72886         0.91021        -0.40182
| 34>    C       -3.56612         1.19215         0.64505
| 35>    C       -4.56758         2.19036         0.63080
| 36>    C       -4.94191         2.85703         1.82396
| 37>    C       -5.86722         3.96084         1.83187
| 38>    N       -6.26819         4.47626         2.99268
| 39>    C       -5.75718         4.02232         4.12055
| 40>    C       -4.72813         3.03527         4.09939
| 41>    N       -4.35863         2.47590         2.97086
| 42>    C       -4.09475         2.64833         5.30757
| 43>    N       -3.60656         2.37194         6.30614
| 44>    C       -6.23874         4.54599         5.34332
| 45>    N       -6.61073         4.96001         6.34527
| 46>    C       -6.44533         4.45894         0.62088
| 47>    C       -6.24178         3.63144        -0.51576
| 48>    C       -5.30744         2.53849        -0.52426
| 49>    N       -5.30201         1.90607        -1.69278
| 50>    S       -6.32678         2.63160        -2.69431
| 51>    N       -6.85483         3.77707        -1.68458
| 52>    C       -7.25259         5.59976         0.51063
| 53>    S       -8.38806         5.69702        -0.79612
| 54>    C       -9.08438         7.19789        -0.22405
| 55>    C       -8.38581         7.64833         0.93837
| 56>    C       -7.32938         6.77146         1.31499
| 57>    C       -6.43040         7.15526         2.31746
| 58>    C       -6.64168         8.32189         3.00589
| 59>    F       -5.77150         8.70731         3.95082
| 60>    C       -7.75731         9.12098         2.72345
| 61>    F       -7.97668        10.23909         3.43737
| 62>    C       -8.61481         8.80033         1.70074
| 63>    C      -10.12832         7.72634        -0.96599
| 64>    C      -10.73843         8.96492        -0.81869
| 65>    C      -11.80240         9.41784        -1.56791
| 66>    C      -12.34808        10.69155        -1.38751
| 67>    C      -13.42530        11.28585        -2.05433
| 68>    C      -13.71042        12.56654        -1.63394
| 69>    C      -12.86347        13.02414        -0.62132
| 70>    S      -11.69582        11.79783        -0.20345
| 71>    C      -12.84036        14.25752         0.03639
| 72>    C      -13.67260        15.37279        -0.13664
| 73>    C      -13.35062        16.42581         0.68015
| 74>    C      -12.25241        16.19085         1.53178
| 75>    S      -11.64490        14.56976         1.25870
| 76>    C      -11.71964        17.09284         2.43330
| 77>    C      -10.63002        16.92926         3.29574
| 78>    C      -10.14516        17.95072         4.15526
| 79>    C       -9.04547        17.46279         4.86366
| 80>    C       -8.21161        18.05442         5.81238
| 81>    C       -7.18195        17.28565         6.33402
| 82>    C       -6.18731        17.57866         7.28131
| 83>    C       -5.37531        16.43761         7.46304
| 84>    C       -5.85904        15.42179         6.63016
| 85>    C       -6.97784        15.90695         5.91286
| 86>    C       -7.79606        15.31207         4.97843
| 87>    C       -8.83661        16.08630         4.44149
| 88>    C       -9.80244        15.78107         3.49406
| 89>    C       -4.23722        16.29929         8.34022
| 90>    C       -3.75829        17.24951         9.13898
| 91>    H       -0.87346         2.70713        -3.73412
| 92>    H        0.40866        -1.67952        -1.68174
| 93>    H        1.23454         2.20421        -5.51144
| 94>    H       -3.43627         0.67377         1.58701
| 95>    H       -5.56402         6.56358         2.55138
| 96>    H       -9.44890         9.45510         1.52412
| 97>    H      -10.48430         7.09898        -1.77464
| 98>    H      -10.34796         9.65717        -0.08980
| 99>    H      -12.24973         8.78269        -2.31992
|100>    H      -13.97027        10.77020        -2.82506
|101>    H      -14.50371        13.16984        -2.03752
|102>    H      -14.47931        15.38260        -0.84704
|103>    H      -13.87614        17.36460         0.68748
|104>    H      -12.21041        18.05877         2.46598
|105>    H      -10.56188        18.93815         4.23577
|106>    H       -8.36334        19.07704         6.12773
|107>    H       -6.06881        18.52130         7.78261
|108>    H       -5.44934        14.43170         6.54642
|109>    H       -7.65001        14.28899         4.66335
|110>    H       -9.90414        14.83331         3.00157
|111>    H       -3.76086        15.32740         8.31852
|112>    H       -4.19939        18.22990         9.19564
|113>    H       -2.90420        17.07520         9.76969
|114> *
|115>
|116>                          ****END OF INPUT****

CARTESIAN COORDINATES (ANGSTROEM)
---------------------------------
  C     -1.848690   -0.228850   -0.510320
  C     -1.925640   -1.380040    0.233550
  C     -1.059650   -2.479710    0.076000
  N     -0.379190   -3.400950   -0.011290
  C     -2.908470   -1.629980    1.213780
  N     -3.693840   -1.922090    1.999040
  C     -0.936070    0.012830   -1.622350
  C     -1.274880    1.250080   -2.221670
  C     -0.595430    1.759240   -3.300540
  C      0.466930    1.008900   -3.816790
  C      0.798950   -0.224390   -3.209770
  C      0.113260   -0.738720   -2.115580
  S      2.150020   -0.981850   -3.999130
  C      2.247090    0.351210   -5.118570
  C      1.317690    1.314030   -4.914960
  Br     3.566840    0.346590   -6.451940
  C     -2.400370    1.864550   -1.484930
  O     -2.852940    2.974970   -1.674160
  C     -2.728860    0.910210   -0.401820
  C     -3.566120    1.192150    0.645050
  C     -4.567580    2.190360    0.630800
  C     -4.941910    2.857030    1.823960
  C     -5.867220    3.960840    1.831870
  N     -6.268190    4.476260    2.992680
  C     -5.757180    4.022320    4.120550
  C     -4.728130    3.035270    4.099390
  N     -4.358630    2.475900    2.970860
  C     -4.094750    2.648330    5.307570
  N     -3.606560    2.371940    6.306140
  C     -6.238740    4.545990    5.343320
  N     -6.610730    4.960010    6.345270
  C     -6.445330    4.458940    0.620880
  C     -6.241780    3.631440   -0.515760
  C     -5.307440    2.538490   -0.524260
  N     -5.302010    1.906070   -1.692780
  S     -6.326780    2.631600   -2.694310
  N     -6.854830    3.777070   -1.684580
  C     -7.252590    5.599760    0.510630
  S     -8.388060    5.697020   -0.796120
  C     -9.084380    7.197890   -0.224050
  C     -8.385810    7.648330    0.938370
  C     -7.329380    6.771460    1.314990
  C     -6.430400    7.155260    2.317460
  C     -6.641680    8.321890    3.005890
  F     -5.771500    8.707310    3.950820
  C     -7.757310    9.120980    2.723450
  F     -7.976680   10.239090    3.437370
  C     -8.614810    8.800330    1.700740
  C    -10.128320    7.726340   -0.965990
  C    -10.738430    8.964920   -0.818690
  C    -11.802400    9.417840   -1.567910
  C    -12.348080   10.691550   -1.387510
  C    -13.425300   11.285850   -2.054330
  C    -13.710420   12.566540   -1.633940
  C    -12.863470   13.024140   -0.621320
  S    -11.695820   11.797830   -0.203450
  C    -12.840360   14.257520    0.036390
  C    -13.672600   15.372790   -0.136640
  C    -13.350620   16.425810    0.680150
  C    -12.252410   16.190850    1.531780
  S    -11.644900   14.569760    1.258700
  C    -11.719640   17.092840    2.433300
  C    -10.630020   16.929260    3.295740
  C    -10.145160   17.950720    4.155260
  C     -9.045470   17.462790    4.863660
  C     -8.211610   18.054420    5.812380
  C     -7.181950   17.285650    6.334020
  C     -6.187310   17.578660    7.281310
  C     -5.375310   16.437610    7.463040
  C     -5.859040   15.421790    6.630160
  C     -6.977840   15.906950    5.912860
  C     -7.796060   15.312070    4.978430
  C     -8.836610   16.086300    4.441490
  C     -9.802440   15.781070    3.494060
  C     -4.237220   16.299290    8.340220
  C     -3.758290   17.249510    9.138980
  H     -0.873460    2.707130   -3.734120
  H      0.408660   -1.679520   -1.681740
  H      1.234540    2.204210   -5.511440
  H     -3.436270    0.673770    1.587010
  H     -5.564020    6.563580    2.551380
  H     -9.448900    9.455100    1.524120
  H    -10.484300    7.098980   -1.774640
  H    -10.347960    9.657170   -0.089800
  H    -12.249730    8.782690   -2.319920
  H    -13.970270   10.770200   -2.825060
  H    -14.503710   13.169840   -2.037520
  H    -14.479310   15.382600   -0.847040
  H    -13.876140   17.364600    0.687480
  H    -12.210410   18.058770    2.465980
  H    -10.561880   18.938150    4.235770
  H     -8.363340   19.077040    6.127730
  H     -6.068810   18.521300    7.782610
  H     -5.449340   14.431700    6.546420
  H     -7.650010   14.288990    4.663350
  H     -9.904140   14.833310    3.001570
  H     -3.760860   15.327400    8.318520
  H     -4.199390   18.229900    9.195640
  H     -2.904200   17.075200    9.769690

 Total Charge           Charge          ....    0
 Multiplicity           Mult            ....    1
 Number of Electrons    NEL             ....  574
 Basis Dimension        Dim             .... 1217

ORBITAL ENERGIES
----------------

  NO   OCC          E(Eh)            E(eV)
   0   2.0000    -482.871214    -13139.5937
   1   2.0000     -89.009886     -2422.0821
   2   2.0000     -88.979389     -2421.2523
   3   2.0000     -88.970931     -2421.0221
   4   2.0000     -88.961514     -2420.7659
   5   2.0000     -88.957154     -2420.6472
   6   2.0000     -62.548914     -1702.0425
   7   2.0000     -56.382839     -1534.2550
   8   2.0000     -56.380168     -1534.1824
   9   2.0000     -56.380128     -1534.1813
  10   2.0000     -24.792407      -674.6357
  11   2.0000     -24.788846      -674.5388
  12   2.0000     -19.185950      -522.0762
  13   2.0000     -14.439169      -392.9098
  14   2.0000     -14.432213      -392.7205
  15   2.0000     -14.430830      -392.6829
  16   2.0000     -14.418701      -392.3528
  17   2.0000     -14.408985      -392.0884
  18   2.0000     -14.404721      -391.9724
  19   2.0000     -14.389185      -391.5496
  20   2.0000     -14.385140      -391.4396
  21   2.0000     -10.370462      -282.1946
  22   2.0000     -10.370091      -282.1845
  23   2.0000     -10.359681      -281.9013
  24   2.0000     -10.349907      -281.6353
  25   2.0000     -10.348580      -281.5992
  26   2.0000     -10.341323      -281.4017
  27   2.0000     -10.337332      -281.2931
  28   2.0000     -10.337007      -281.2843
  29   2.0000     -10.333561      -281.1905
  30   2.0000     -10.331953      -281.1467
  31   2.0000     -10.330669      -281.1118
  32   2.0000     -10.329975      -281.0929
  33   2.0000     -10.329424      -281.0779
  34   2.0000     -10.328203      -281.0447
  35   2.0000     -10.326014      -280.9851
  36   2.0000     -10.325132      -280.9611
  37   2.0000     -10.318927      -280.7923
  38   2.0000     -10.318293      -280.7750
  39   2.0000     -10.317565      -280.7552
  40   2.0000     -10.314843      -280.6812
  41   2.0000     -10.313784      -280.6523
  42   2.0000     -10.313644      -280.6485
  43   2.0000     -10.312350      -280.6133
  44   2.0000     -10.312107      -280.6067
  45   2.0000     -10.311903      -280.6011
  46   2.0000     -10.311301      -280.5848
  47   2.0000     -10.311159      -280.5809
  48   2.0000     -10.310294      -280.5574
  49   2.0000     -10.309004      -280.5223
  50   2.0000     -10.304723      -280.4058
  51   2.0000     -10.303393      -280.3696
  52   2.0000     -10.302604      -280.3481
  53   2.0000     -10.302397      -280.3425
  54   2.0000     -10.301756      -280.3250
  55   2.0000     -10.300560      -280.2925
  56   2.0000     -10.300506      -280.2910
  57   2.0000     -10.298753      -280.2433
  58   2.0000     -10.297077      -280.1977
  59   2.0000     -10.296180      -280.1733
  60   2.0000     -10.295926      -280.1664
  61   2.0000     -10.294173      -280.1187
  62   2.0000     -10.294023      -280.1146
  63   2.0000     -10.293235      -280.0932
  64   2.0000     -10.293036      -280.0878
  65   2.0000     -10.291644      -280.0499
  66   2.0000     -10.290517      -280.0192
  67   2.0000     -10.289359      -279.9877
  68   2.0000     -10.288788      -279.9721
  69   2.0000     -10.288663      -279.9688
  70   2.0000     -10.286788      -279.9177
  71   2.0000     -10.284360      -279.8517
  72   2.0000     -10.283979      -279.8413
  73   2.0000     -10.283030      -279.8155
  74   2.0000     -10.279672      -279.7241
  75   2.0000     -10.278696      -279.6975
  76   2.0000     -10.278257      -279.6856
  77   2.0000     -10.270075      -279.4630
  78   2.0000     -10.268177      -279.4113
  79   2.0000     -10.262964      -279.2694
  80   2.0000      -8.778342      -238.8708
  81   2.0000      -8.101560      -220.4547
  82   2.0000      -8.075275      -219.7394
  83   2.0000      -8.067118      -219.5174
  84   2.0000      -8.055901      -219.2122
  85   2.0000      -8.053168      -219.1378
  86   2.0000      -6.614508      -179.9899
  87   2.0000      -6.600120      -179.5984
  88   2.0000      -6.599973      -179.5944
  89   2.0000      -6.072916      -165.2524
  90   2.0000      -6.065196      -165.0424
  91   2.0000      -6.063655      -165.0004
  92   2.0000      -6.044853      -164.4888
  93   2.0000      -6.040728      -164.3766
  94   2.0000      -6.036638      -164.2653
  95   2.0000      -6.036625      -164.2649
  96   2.0000      -6.032645      -164.1566
  97   2.0000      -6.028486      -164.0435
  98   2.0000      -6.025365      -163.9585
  99   2.0000      -6.022876      -163.8908
 100   2.0000      -6.020847      -163.8356
 101   2.0000      -6.018601      -163.7745
 102   2.0000      -6.017935      -163.7563
 103   2.0000      -6.014367      -163.6592
 104   2.0000      -2.730451       -74.2993
 105   2.0000      -2.726334       -74.1873
 106   2.0000      -2.726237       -74.1847
 107   2.0000      -2.714780       -73.8729
 108   2.0000      -2.714773       -73.8727
 109   2.0000      -1.312328       -35.7103
 110   2.0000      -1.297624       -35.3101
 111   2.0000      -1.113465       -30.2989
 112   2.0000      -1.099767       -29.9262
 113   2.0000      -1.096713       -29.8431
 114   2.0000      -1.024699       -27.8835
 115   2.0000      -1.023432       -27.8490
 116   2.0000      -1.017380       -27.6843
 117   2.0000      -1.007282       -27.4095
 118   2.0000      -1.000873       -27.2351
 119   2.0000      -1.000686       -27.2300
 120   2.0000      -0.991532       -26.9810
 121   2.0000      -0.990913       -26.9641
 122   2.0000      -0.987518       -26.8717
 123   2.0000      -0.981500       -26.7080
 124   2.0000      -0.971213       -26.4281
 125   2.0000      -0.966442       -26.2982
 126   2.0000      -0.963715       -26.2240
 127   2.0000      -0.954852       -25.9828
 128   2.0000      -0.944466       -25.7002
 129   2.0000      -0.933271       -25.3956
 130   2.0000      -0.924330       -25.1523
 131   2.0000      -0.920010       -25.0347
 132   2.0000      -0.905066       -24.6281
 133   2.0000      -0.895513       -24.3681
 134   2.0000      -0.892493       -24.2860
 135   2.0000      -0.887021       -24.1371
 136   2.0000      -0.883716       -24.0471
 137   2.0000      -0.878559       -23.9068
 138   2.0000      -0.873073       -23.7575
 139   2.0000      -0.867630       -23.6094
 140   2.0000      -0.864452       -23.5229
 141   2.0000      -0.856434       -23.3047
 142   2.0000      -0.854554       -23.2536
 143   2.0000      -0.846640       -23.0382
 144   2.0000      -0.839392       -22.8410
 145   2.0000      -0.831105       -22.6155
 146   2.0000      -0.829152       -22.5624
 147   2.0000      -0.820764       -22.3341
 148   2.0000      -0.808614       -22.0035
 149   2.0000      -0.804916       -21.9029
 150   2.0000      -0.803260       -21.8578
 151   2.0000      -0.783504       -21.3202
 152   2.0000      -0.777960       -21.1694
 153   2.0000      -0.770846       -20.9758
 154   2.0000      -0.762194       -20.7404
 155   2.0000      -0.745636       -20.2898
 156   2.0000      -0.739610       -20.1258
 157   2.0000      -0.732932       -19.9441
 158   2.0000      -0.730889       -19.8885
 159   2.0000      -0.715934       -19.4816
 160   2.0000      -0.711569       -19.3628
 161   2.0000      -0.702734       -19.1224
 162   2.0000      -0.698052       -18.9950
 163   2.0000      -0.695934       -18.9373
 164   2.0000      -0.683824       -18.6078
 165   2.0000      -0.675623       -18.3846
 166   2.0000      -0.673380       -18.3236
 167   2.0000      -0.672742       -18.3062
 168   2.0000      -0.669744       -18.2247
 169   2.0000      -0.665599       -18.1119
 170   2.0000      -0.664357       -18.0781
 171   2.0000      -0.656029       -17.8515
 172   2.0000      -0.651399       -17.7255
 173   2.0000      -0.646281       -17.5862
 174   2.0000      -0.644851       -17.5473
 175   2.0000      -0.639824       -17.4105
 176   2.0000      -0.636761       -17.3271
 177   2.0000      -0.634838       -17.2748
 178   2.0000      -0.627698       -17.0805
 179   2.0000      -0.621246       -16.9050
 180   2.0000      -0.614103       -16.7106
 181   2.0000      -0.613233       -16.6869
 182   2.0000      -0.608797       -16.5662
 183   2.0000      -0.606308       -16.4985
 184   2.0000      -0.603155       -16.4127
 185   2.0000      -0.599887       -16.3238
 186   2.0000      -0.597891       -16.2694
 187   2.0000      -0.584994       -15.9185
 188   2.0000      -0.582375       -15.8472
 189   2.0000      -0.577281       -15.7086
 190   2.0000      -0.572860       -15.5883
 191   2.0000      -0.570405       -15.5215
 192   2.0000      -0.568623       -15.4730
 193   2.0000      -0.562656       -15.3107
 194   2.0000      -0.557071       -15.1587
 195   2.0000      -0.556364       -15.1394
 196   2.0000      -0.552049       -15.0220
 197   2.0000      -0.550761       -14.9870
 198   2.0000      -0.543964       -14.8020
 199   2.0000      -0.540167       -14.6987
 200   2.0000      -0.539330       -14.6759
 201   2.0000      -0.535929       -14.5834
 202   2.0000      -0.532699       -14.4955
 203   2.0000      -0.529404       -14.4058
 204   2.0000      -0.527587       -14.3564
 205   2.0000      -0.524509       -14.2726
 206   2.0000      -0.521394       -14.1878
 207   2.0000      -0.520783       -14.1712
 208   2.0000      -0.519540       -14.1374
 209   2.0000      -0.518665       -14.1136
 210   2.0000      -0.513428       -13.9711
 211   2.0000      -0.511330       -13.9140
 212   2.0000      -0.510926       -13.9030
 213   2.0000      -0.506443       -13.7810
 214   2.0000      -0.503920       -13.7124
 215   2.0000      -0.501394       -13.6436
 216   2.0000      -0.499116       -13.5816
 217   2.0000      -0.496405       -13.5079
 218   2.0000      -0.494986       -13.4693
 219   2.0000      -0.491436       -13.3727
 220   2.0000      -0.488973       -13.3056
 221   2.0000      -0.487879       -13.2758
 222   2.0000      -0.484550       -13.1853
 223   2.0000      -0.483212       -13.1489
 224   2.0000      -0.481692       -13.1075
 225   2.0000      -0.479991       -13.0612
 226   2.0000      -0.477251       -12.9866
 227   2.0000      -0.474355       -12.9078
 228   2.0000      -0.470845       -12.8124
 229   2.0000      -0.467744       -12.7280
 230   2.0000      -0.465087       -12.6557
 231   2.0000      -0.460325       -12.5261
 232   2.0000      -0.459102       -12.4928
 233   2.0000      -0.457457       -12.4480
 234   2.0000      -0.456529       -12.4228
 235   2.0000      -0.453807       -12.3487
 236   2.0000      -0.452208       -12.3052
 237   2.0000      -0.449543       -12.2327
 238   2.0000      -0.443644       -12.0722
 239   2.0000      -0.440100       -11.9757
 240   2.0000      -0.439011       -11.9461
 241   2.0000      -0.438233       -11.9249
 242   2.0000      -0.435772       -11.8580
 243   2.0000      -0.434754       -11.8302
 244   2.0000      -0.433175       -11.7873
 245   2.0000      -0.432230       -11.7616
 246   2.0000      -0.427424       -11.6308
 247   2.0000      -0.424327       -11.5465
 248   2.0000      -0.423341       -11.5197
 249   2.0000      -0.423007       -11.5106
 250   2.0000      -0.421395       -11.4667
 251   2.0000      -0.419605       -11.4180
 252   2.0000      -0.419230       -11.4078
 253   2.0000      -0.415460       -11.3052
 254   2.0000      -0.414433       -11.2773
 255   2.0000      -0.405273       -11.0280
 256   2.0000      -0.401948       -10.9376
 257   2.0000      -0.399464       -10.8700
 258   2.0000      -0.397618       -10.8197
 259   2.0000      -0.396933       -10.8011
 260   2.0000      -0.392385       -10.6773
 261   2.0000      -0.388534       -10.5725
 262   2.0000      -0.387040       -10.5319
 263   2.0000      -0.384213       -10.4550
 264   2.0000      -0.381362       -10.3774
 265   2.0000      -0.379076       -10.3152
 266   2.0000      -0.369644       -10.0585
 267   2.0000      -0.366406        -9.9704
 268   2.0000      -0.362784        -9.8718
 269   2.0000      -0.360761        -9.8168
 270   2.0000      -0.351428        -9.5628
 271   2.0000      -0.348328        -9.4785
 272   2.0000      -0.346806        -9.4371
 273   2.0000      -0.346273        -9.4226
 274   2.0000      -0.335593        -9.1319
 275   2.0000      -0.327538        -8.9128
 276   2.0000      -0.320211        -8.7134
 277   2.0000      -0.316024        -8.5995
 278   2.0000      -0.314236        -8.5508
 279   2.0000      -0.306621        -8.3436
 280   2.0000      -0.297858        -8.1051
 281   2.0000      -0.293998        -8.0001
 282   2.0000      -0.291344        -7.9279
 283   2.0000      -0.275823        -7.5055
 284   2.0000      -0.270631        -7.3642
 285   2.0000      -0.246095        -6.6966
 286   2.0000      -0.204982        -5.5779
 287   0.0000      -0.130367        -3.5475
 288   0.0000      -0.127775        -3.4769
 289   0.0000      -0.090511        -2.4629
 290   0.0000      -0.057601        -1.5674
 291   0.0000      -0.052604        -1.4314

MULLIKEN ATOMIC CHARGES
-----------------------
   0 C :    0.295156
   1 C :   -0.345745
   2 C :   -0.188296
   3 N :    0.137350
   4 C :   -0.204513
   5 N :    0.153435
   6 C :    0.018478
   7 C :   -0.017131
   8 C :   -0.077050
   9 C :    0.117104
  10 C :   -0.090135
  11 C :   -0.025095
  12 S :    0.175898
  13 C :   -0.124615
  14 C :    0.036943
  15 Br:    0.009414
  16 C :    0.153027
  17 O :   -0.167370
  18 C :   -0.080332
  19 C :   -0.062225
  20 C :    0.032686
  21 C :   -0.012952
  22 C :   -0.112311
  23 N :    0.024980
  24 C :   -0.164655
  25 C :   -0.123992
  26 N :    0.044368
  27 C :   -0.205226
  28 N :    0.229852
  29 C :   -0.209881
  30 N :    0.222126
  31 C :    0.171423
  32 C :   -0.004772
  33 C :    0.039420
  34 N :   -0.275225
  35 S :    0.506760
  36 N :   -0.334298
  37 C :   -0.223062
  38 S :    0.191493
  39 C :   -0.044588
  40 C :    0.110393
  41 C :    0.159910
  42 C :   -0.074412
  43 C :    0.220214
  44 F :   -0.174606
  45 C :    0.215753
  46 F :   -0.185250
  47 C :   -0.127053
  48 C :    0.014785
  49 C :    0.006853
  50 C :   -0.004665
  51 C :   -0.008219
  52 C :    0.015801
  53 C :    0.038212
  54 C :   -0.050513
  55 S :    0.067768
  56 C :   -0.000646
  57 C :    0.008713
  58 C :    0.055452
  59 C :   -0.051612
  60 S :    0.075408
  61 C :    0.030757
  62 C :    0.031771
  63 C :   -0.012412
  64 C :    0.049673
  65 C :    0.026573
  66 C :    0.034539
  67 C :    0.007771
  68 C :    0.050919
  69 C :    0.003015
  70 C :    0.047449
  71 C :    0.026785
  72 C :    0.027764
  73 C :   -0.012327
  74 C :    0.011577
  75 C :   -0.016599
  76 H :   -0.020608
  77 H :   -0.010244
  78 H :   -0.009009
  79 H :    0.037667
  80 H :   -0.005177
  81 H :   -0.018696
  82 H :   -0.015013
  83 H :    0.006773
  84 H :   -0.011020
  85 H :   -0.007124
  86 H :   -0.006055
  87 H :   -0.005861
  88 H :   -0.001418
  89 H :   -0.007924
  90 H :   -0.015852
  91 H :   -0.013239
  92 H :   -0.011347
  93 H :   -0.004109
  94 H :   -0.003315
  95 H :    0.002736
  96 H :   -0.009212
  97 H :    0.010698
  98 H :    0.031362
Sum of atomic charges:   -0.0000000

LOEWDIN ATOMIC CHARGES
----------------------
   0 C :    0.075142
   1 C :   -0.148905
   2 C :   -0.017909
   3 N :   -0.068280
   4 C :   -0.023943
   5 N :   -0.058857
   6 C :   -0.017704
   7 C :   -0.044739
   8 C :    0.014444
   9 C :   -0.036909
  10 C :   -0.146731
  11 C :   -0.013661
  12 S :    0.424525
  13 C :   -0.276484
  14 C :   -0.071964
  15 Br:    0.126012
  16 C :    0.081295
  17 O :   -0.158803
  18 C :   -0.102327
  19 C :    0.084287
  20 C :   -0.092191
  21 C :    0.024826
  22 C :   -0.021171
  23 N :   -0.003903
  24 C :   -0.059741
  25 C :   -0.018309
  26 N :   -0.018562
  27 C :   -0.031468
  28 N :   -0.010060
  29 C :   -0.039797
  30 N :   -0.028917
  31 C :   -0.030799
  32 C :   -0.053820
  33 C :   -0.021994
  34 N :   -0.275109
  35 S :    0.634755
  36 N :   -0.305960
  37 C :   -0.162303
  38 S :    0.505248
  39 C :   -0.122195
  40 C :   -0.051383
  41 C :   -0.014512
  42 C :   -0.017870
  43 C :    0.065915
  44 F :   -0.052212
  45 C :    0.058118
  46 F :   -0.063709
  47 C :   -0.038442
  48 C :   -0.073063
  49 C :    0.002708
  50 C :   -0.074237
  51 C :   -0.117601
  52 C :   -0.056679
  53 C :   -0.010990
  54 C :   -0.206328
  55 S :    0.398337
  56 C :   -0.138933
  57 C :   -0.056331
  58 C :   -0.000397
  59 C :   -0.180036
  60 S :    0.414970
  61 C :    0.011696
  62 C :   -0.084927
  63 C :    0.050374
  64 C :   -0.073616
  65 C :    0.099900
  66 C :   -0.068356
  67 C :    0.072169
  68 C :   -0.058022
  69 C :    0.057985
  70 C :   -0.065365
  71 C :    0.096787
  72 C :   -0.065560
  73 C :    0.036225
  74 C :   -0.024722
  75 C :   -0.038519
  76 H :    0.036852
  77 H :    0.039603
  78 H :    0.036334
  79 H :    0.044562
  80 H :    0.041049
  81 H :    0.035685
  82 H :    0.030222
  83 H :    0.018033
  84 H :    0.035023
  85 H :    0.035582
  86 H :    0.035278
  87 H :    0.034986
  88 H :    0.038105
  89 H :    0.042054
  90 H :    0.028966
  91 H :    0.039982
  92 H :    0.030753
  93 H :    0.033988
  94 H :    0.044003
  95 H :    0.016948
  96 H :    0.032988
  97 H :    0.019211
  98 H :    0.029403

  Mayer bond orders larger than 0.100000
B(  0-C ,  1-C ) :   1.6218 B(  0-C ,  6-C ) :   0.9945 B(  0-C , 18-C ) :   1.0958
B(  1-C ,  2-C ) :   1.1435 B(  1-C ,  4-C ) :   1.1443 B(  2-C ,  3-N ) :   2.9688
B(  4-C ,  5-N ) :   2.9946 B(  6-C ,  7-C ) :   1.2788 B(  6-C , 11-C ) :   1.4195
B(  7-C ,  8-C ) :   1.4328 B(  7-C , 16-C ) :   0.9411 B(  8-C ,  9-C ) :   1.2413
B(  8-C , 76-H ) :   1.0156 B(  9-C , 10-C ) :   1.3174 B(  9-C , 14-C ) :   1.1586
B( 10-C , 11-C ) :   1.3209 B( 10-C , 12-S ) :   1.0793 B( 11-C , 77-H ) :   0.9803
B( 12-S , 13-C ) :   1.0854 B( 13-C , 14-C ) :   1.6221 B( 13-C , 15-Br) :   1.0112
B( 14-C , 78-H ) :   0.9996 B( 16-C , 17-O ) :   2.2018 B( 16-C , 18-C ) :   0.9699
B( 18-C , 19-C ) :   1.5034 B( 19-C , 20-C ) :   1.2515 B( 19-C , 79-H ) :   0.9310
B( 20-C , 21-C ) :   1.2294 B( 20-C , 33-C ) :   1.1532 B( 21-C , 22-C ) :   1.1130
B( 21-C , 26-N ) :   1.4622 B( 22-C , 23-N ) :   1.5350 B( 22-C , 31-C ) :   1.1346
B( 23-N , 24-C ) :   1.6284 B( 24-C , 25-C ) :   1.2548 B( 24-C , 29-C ) :   1.1607
B( 25-C , 26-N ) :   1.7087 B( 25-C , 27-C ) :   1.1489 B( 27-C , 28-N ) :   3.0505
B( 29-C , 30-N ) :   3.0490 B( 31-C , 32-C ) :   1.1475 B( 31-C , 37-C ) :   1.3922
B( 32-C , 33-C ) :   1.1267 B( 32-C , 36-N ) :   1.5145 B( 33-C , 34-N ) :   1.5481
B( 34-N , 35-S ) :   1.2473 B( 34-N , 36-N ) :   0.1327 B( 35-S , 36-N ) :   1.2333
B( 37-C , 38-S ) :   1.1144 B( 37-C , 41-C ) :   1.1826 B( 38-S , 39-C ) :   1.1053
B( 39-C , 40-C ) :   1.1724 B( 39-C , 48-C ) :   1.3617 B( 40-C , 41-C ) :   1.2845
B( 40-C , 47-C ) :   1.2121 B( 41-C , 42-C ) :   1.2467 B( 42-C , 43-C ) :   1.4412
B( 42-C , 47-C ) :   0.1030 B( 42-C , 80-H ) :   0.9843 B( 43-C , 44-F ) :   1.1339
B( 43-C , 45-C ) :   1.2121 B( 45-C , 46-F ) :   1.1293 B( 45-C , 47-C ) :   1.4479
B( 47-C , 81-H ) :   0.9922 B( 48-C , 49-C ) :   1.3891 B( 48-C , 82-H ) :   0.9543
B( 49-C , 50-C ) :   1.3692 B( 49-C , 83-H ) :   0.9641 B( 50-C , 51-C ) :   1.3372
B( 50-C , 84-H ) :   0.9907 B( 51-C , 52-C ) :   1.2644 B( 51-C , 55-S ) :   1.0945
B( 52-C , 53-C ) :   1.4511 B( 52-C , 85-H ) :   1.0015 B( 53-C , 54-C ) :   1.3026
B( 53-C , 86-H ) :   0.9956 B( 54-C , 55-S ) :   1.0564 B( 54-C , 56-C ) :   1.3567
B( 56-C , 57-C ) :   1.2600 B( 56-C , 60-S ) :   1.1060 B( 57-C , 58-C ) :   1.5089
B( 57-C , 87-H ) :   0.9964 B( 58-C , 59-C ) :   1.2011 B( 58-C , 88-H ) :   0.9993
B( 59-C , 60-S ) :   1.0263 B( 59-C , 61-C ) :   1.4838 B( 61-C , 62-C ) :   1.2029
B( 61-C , 89-H ) :   0.9705 B( 62-C , 63-C ) :   1.2782 B( 62-C , 73-C ) :   1.1926
B( 63-C , 64-C ) :   1.2556 B( 63-C , 90-H ) :   1.0174 B( 64-C , 65-C ) :   1.2669
B( 64-C , 72-C ) :   1.1411 B( 65-C , 66-C ) :   1.2779 B( 65-C , 91-H ) :   1.0036
B( 66-C , 67-C ) :   1.2771 B( 66-C , 70-C ) :   1.1214 B( 67-C , 68-C ) :   1.2707
B( 67-C , 92-H ) :   1.0086 B( 68-C , 69-C ) :   1.3769 B( 68-C , 74-C ) :   1.0771
B( 69-C , 70-C ) :   1.1640 B( 69-C , 93-H ) :   1.0171 B( 70-C , 71-C ) :   1.3812
B( 71-C , 72-C ) :   1.1796 B( 71-C , 94-H ) :   1.0045 B( 72-C , 73-C ) :   1.3912
B( 73-C , 95-H ) :   0.9892 B( 74-C , 75-C ) :   1.9423 B( 74-C , 96-H ) :   0.9672
B( 75-C , 97-H ) :   0.9537 B( 75-C , 98-H ) :   0.9496

-----------------------------------------------------------------------------
         ABSORPTION SPECTRUM VIA TRANSITION ELECTRIC DIPOLE MOMENTS
-----------------------------------------------------------------------------
State   Energy  Wavelength   fosc         T2         TX        TY        TZ
        (cm-1)    (nm)                  (au**2)     (au)      (au)      (au)
-----------------------------------------------------------------------------
   0    3986.8   2508.3   0.016775573   1.38526  -0.33901   1.08127   0.31809
   1    4650.5   2150.3   0.699515665  49.51943   2.78377  -6.33260  -1.29157
   2   10301.7    970.7   0.005822193   0.18606   0.31704  -0.27160   0.10854
   3   12660.9    789.8   0.234192485   6.08955   1.80119   0.85277   1.45535
   4   13082.1    764.4   0.146578727   3.68866  -1.13674  -1.01108  -1.17226
   5   17690.8    565.3   0.036676342   0.68252  -0.55459   0.61226   0.00953
   6   18025.0    554.8   0.472399085   8.62799  -2.40711   1.57142   0.60370
   7   19093.3    523.7   0.037391568   0.64471  -0.37626   0.02297  -0.70896
   8   19843.5    503.9   0.455784155   7.56166   1.57686   0.56139   2.18175
   9   21331.5    468.8   0.017426078   0.26894   0.04659   0.46010   0.23469
  10   21674.3    461.4   0.327795815   4.97891  -1.63350   0.33187  -1.48339
  11   22198.1    450.5   0.195693355   2.90226   1.33211  -0.02253   1.06172
  12   22588.1    442.7   0.014076888   0.20516  -0.33130  -0.18062   0.25057
  13   22819.9    438.2   0.145316161   2.09641  -0.24817   0.11663  -1.42170
  14   23265.2    429.8   0.268310803   3.79671   1.61299  -0.16047   1.08131
  15   23975.4    417.1   0.109207864   1.49956   0.02692  -0.32953  -1.17909
  16   24558.8    407.2   0.013879029   0.18605  -0.20161   0.38117   0.01071
  17   24915.9    401.3   0.228328916   3.01689   0.87395   0.27532   1.47557
  18   25112.3    398.2   0.168832899   2.21333   1.21258   0.28560   0.81327
  19   26034.2    384.1   0.140417441   1.77563  -1.09595   0.32636  -0.68411
  20   26191.5    381.8   0.025634676   0.32221  -0.13655   0.53392   0.13601
  21   26272.8    380.6   0.063557363   0.79641   0.71515  -0.17025   0.50595
  22   26582.7    376.2   0.037903553   0.46941   0.57679  -0.19743   0.31265
  23   27034.4    369.9   0.025796674   0.31414   0.32459  -0.26212  -0.37426
  24   27604.0    362.3   0.194779147   2.32298  -1.36567   0.00026  -0.67670
  25   27932.0    358.0   0.060027456   0.70750  -0.13700  -0.77425  -0.29878
  26   28145.7    355.3   0.147936514   1.73037  -1.08974   0.24851  -0.69359
  27   28668.5    348.8   0.092746484   1.06504  -0.39643  -0.10993  -0.94647
  28   28790.8    347.3   0.045186267   0.51669  -0.16362   0.45552   0.53143
  29   29377.8    340.4   0.054930250   0.61556   0.64087   0.09043   0.44347
  30   29644.3    337.3   0.000314682   0.00349  -0.05662   0.01307   0.01085
  31   30327.5    329.7   0.018995626   0.20620   0.30280   0.09859   0.32372
  32   30353.7    329.4   0.135828576   1.47318  -0.59897  -0.35336  -0.99476
  33   30436.1    328.6   0.302619440   3.27328   1.04119  -0.10826  -1.47563
  34   30810.9    324.6   0.014011222   0.14971  -0.25442  -0.25707  -0.13746
  35   31008.0    322.5   0.047934323   0.50892  -0.60905  -0.01187  -0.37127
  36   31215.8    320.4   0.159935888   1.68673   0.49253   0.62878  -1.02410
  37   31248.4    320.0   0.154265654   1.62524   0.73936   0.08470  -1.03509
  38   31558.6    316.9   0.006053218   0.06315  -0.12798  -0.21548  -0.01832
  39   31601.4    316.4   0.052165575   0.54344   0.37811  -0.46780  -0.42620
  40   31792.8    314.5   0.047228531   0.48905   0.35456  -0.46398   0.38479
  41   31979.2    312.7   0.005355793   0.05514   0.11277  -0.04845  -0.20018
  42   32104.7    311.5   0.087820275   0.90054  -0.69448   0.15539   0.62777
  43   32379.1    308.8   0.000656602   0.00668   0.03053   0.06799  -0.03349
  44   32678.1    306.0   0.009945022   0.10019  -0.05231  -0.31214  -0.00464
  45   33085.6    302.2   0.033481849   0.33315   0.32777  -0.45483  -0.13729
  46   33188.2    301.3   0.005043829   0.05003   0.17778  -0.10390   0.08735
  47   33292.0    300.4   0.066060952   0.65325   0.61409  -0.37832   0.36473
  48   33769.7    296.1   0.208931507   2.03682  -0.21499  -0.62892   1.26295
  49   33818.6    295.7   0.002441837   0.02377   0.06982   0.11620  -0.07345
  50   34176.2    292.6   0.072909955   0.70233  -0.77216   0.03206   0.32415
  51   34336.0    291.2   0.005684023   0.05450  -0.00866   0.18827   0.13775
  52   34429.1    290.5   0.007501712   0.07173   0.05387   0.24596   0.09128
  53   34535.2    289.6   0.290010110   2.76456  -0.77074   0.38230  -1.42280
  54   35197.1    284.1   0.037245291   0.34837   0.44459  -0.35163  -0.16453
  55   35466.2    282.0   0.122250095   1.13478  -0.42715  -0.77340   0.59512
  56   35871.4    278.8   0.010150862   0.09316  -0.00991   0.01253   0.30480
  57   35915.0    278.4   0.034384089   0.31518   0.01468   0.13667  -0.54432
  58   36061.8    277.3   0.072854017   0.66509   0.22127  -0.40706   0.67114
  59   36184.8    276.4   0.103470555   0.94138   0.05190   0.90535  -0.34501
  60   36372.2    274.9   0.078644920   0.71183  -0.31853   0.63414   0.45632
  61   36531.2    273.7   0.061399822   0.55332   0.20936   0.06176   0.71111
  62   36556.7    273.5   0.057024395   0.51353   0.58884   0.28622  -0.29135
  63   36728.0    272.3   0.000131113   0.00118   0.02454   0.01918   0.01433
  64   37154.2    269.1   0.028729757   0.25457   0.29016   0.00672   0.41270
  65   37307.5    268.0   0.050411072   0.44484  -0.53931   0.39110  -0.03200
  66   37521.5    266.5   0.000899729   0.00789  -0.00971   0.00289   0.08827
  67   37855.3    264.2   0.036844145   0.32042   0.43911   0.20737  -0.29086
  68   37862.8    264.1   0.007450960   0.06479  -0.21152   0.13492   0.04292
  69   38025.0    263.0   0.003074710   0.02662  -0.11576  -0.11381   0.01634
  70   38076.2    262.6   0.039123279   0.33827   0.12419  -0.23676   0.51652
  71   38366.8    260.6   0.000299204   0.00257  -0.03147  -0.03115   0.02464
  72   38413.0    260.3   0.027111363   0.23235  -0.25187   0.36110  -0.19627
  73   38678.9    258.5   0.257057795   2.18793   0.54469  -0.09417   1.37200
  74   38927.6    256.9   0.054715813   0.46273   0.55227   0.34575  -0.19542
  75   39331.0    254.3   0.002587924   0.02166  -0.09758   0.04481   0.10066
  76   39449.4    253.5   0.029736341   0.24815  -0.29247   0.14655  -0.37569
  77   39533.6    252.9   0.168668442   1.40457   0.46486   0.48415   0.97677
  78   39650.8    252.2   0.028376123   0.23560  -0.42491  -0.22525   0.06570
  79   40078.8    249.5   0.020609768   0.16929   0.31664  -0.16646   0.20328
  80   40165.1    249.0   0.034112797   0.27960  -0.18346  -0.23341  -0.43757
  81   40318.6    248.0   0.034279875   0.27990  -0.35945   0.26090  -0.28746

FINAL SINGLE POINT ENERGY     -7535.383943234785

DIPOLE MOMENT
-------------
                                X             Y             Z
Electronic contribution:    122.91533    -149.00299     -93.43973
Nuclear contribution   :   -128.33100     161.49715      91.49975
                        -----------------------------------------
Total Dipole Moment    :     -5.41568      12.49416      -1.93998
                        -----------------------------------------
Magnitude (a.u.)       :     13.75489
Magnitude (Debye)      :     34.96216

Rotational constants in cm-1:     0.000949     0.000217     0.000207
Rotational constants in MHz :    28.439441     6.500010     6.218083

                             ****ORCA TERMINATED NORMALLY****
TOTAL RUN TIME: 0 days 0 hours 14 minutes 57 seconds 608 msec
