                         Program Version 4.2.0 -  RELEASE  -
|  1> # ORCA input file
|  2> # SCF done       -194.874496308645          0.002405933293
|  3> ! CAM-B3LYP def2-SVP def2/J RIJCOSX Grid4 TightSCF
|  4> %maxcore 5000
|  5> %tddft
|  6>     Mode sTDDFT
|  7>     Ethresh 5.0
|  8>     maxcore 5000
|  9> end
| 10>
| 11> %pal
| 12>   nprocs 6
| 13>   end
| 14> * xyz 0 1
| 15>    C       -3.31667         9.52845         3.05940
| 16>    C       -3.33975         9.50916         4.42953
| 17>    C       -3.16426        10.65063         5.23781
| 18>    N       -3.05257        11.55151         5.94049
| 19>    C       -3.57038         8.34532         5.19184
| 20>    N       -3.76031         7.41970         5.84259
| 21>    C       -3.07733        10.70447         2.22319
| 22>    C       -3.11617        10.31358         0.86067
| 23>    C       -2.90564        11.19194        -0.17444
| 24>    C       -2.70202        12.53705         0.14537
| 25>    C       -2.71596        12.93051         1.50576
| 26>    C       -2.87722        12.03134         2.55441
| 27>    S       -2.53359        14.65033         1.66815
| 28>    C       -2.43333        14.81689        -0.06435
| 29>    C       -2.52550        13.64066        -0.73216
| 30>   Br       -2.22468        16.50934        -0.82471
| 31>    C       -3.48263         8.89556         0.78456
| 32>    O       -3.72480         8.24541        -0.22486
| 33>    C       -3.57307         8.41918         2.16901
| 34>    C       -3.92148         7.11966         2.44884
| 35>    N       -4.27314         6.29695         1.45577
| 36>    C       -4.59069         4.97874         1.54454
| 37>    S       -4.14094         4.00943         2.90945
| 38>    C       -4.76800         2.61473         2.09424
| 39>    N       -4.71157         1.39016         2.77741
| 40>    O       -5.15256         0.40882         2.21499
| 41>    O       -4.22030         1.41366         3.89065
| 42>    C       -5.27809         2.88195         0.85166
| 43>    C       -5.20775         4.24803         0.52406
| 44>    C       -5.76721         4.82785        -0.67651
| 45>    C       -6.36722         6.03007        -0.71033
| 46>    C       -6.90310         6.63393        -1.90325
| 47>    C       -7.72105         7.81051        -1.82258
| 48>    C       -8.34317         8.38830        -0.74498
| 49>    S       -9.27977         9.74214        -1.20158
| 50>    C       -8.84585         9.56944        -2.84845
| 51>    C       -8.01398         8.49626        -3.05490
| 52>    C       -7.47448         7.90404        -4.24799
| 53>    N       -6.91212         6.71171        -4.19478
| 54>    N       -6.62035         6.11312        -3.07592
| 55>    C       -7.48862         8.50563        -5.55318
| 56>    C       -7.63890         9.81564        -5.81957
| 57>    N       -7.61157        10.29926        -7.10027
| 58>    C       -7.69229        11.56504        -7.57879
| 59>    S       -8.11408        11.69541        -9.26286
| 60>    C       -7.98821        13.42153        -9.16600
| 61>    N       -8.27817        14.16222       -10.32020
| 62>    O       -8.20150        15.37256       -10.24913
| 63>    O       -8.59698        13.52380       -11.30744
| 64>    C       -7.61801        13.85959        -7.92890
| 65>    C       -7.43593        12.81794        -6.99080
| 66>    C       -6.94976        13.05545        -5.66240
| 67>    C       -6.26659        14.16676        -5.29290
| 68>    C       -5.78951        14.44788        -3.98713
| 69>    C       -5.59855        13.64973        -2.89707
| 70>    C       -5.56098        12.22104        -2.67191
| 71>    C       -5.14796        11.24366        -3.54209
| 72>    C       -5.01285         9.88436        -3.18997
| 73>    N       -4.90212         8.76430        -2.96719
| 74>    C       -4.75983        11.47063        -4.87599
| 75>    N       -4.44694        11.59490        -5.97332
| 76>    C       -5.79434        12.00247        -1.24669
| 77>    C       -5.71757        13.24520        -0.57312
| 78>    C       -5.48385        14.31245        -1.56626
| 79>    O       -5.27228        15.48398        -1.35533
| 80>    C       -5.85061        13.35629         0.78938
| 81>    C       -6.09775        12.18708         1.51663
| 82>    C       -6.21403        10.95839         0.82646
| 83>    C       -6.04985        10.84060        -0.54713
| 84>    S       -6.56297         9.65132         1.91555
| 85>    C       -6.50929        10.74987         3.27215
| 86>    C       -6.26144        12.03389         2.92116
| 87>   Br       -6.79072        10.08464         5.00530
| 88>    H       -2.91297        10.84912        -1.19769
| 89>    H       -2.85695        12.37869         3.57407
| 90>    H       -2.47154        13.55724        -1.80299
| 91>    H       -3.95339         6.72623         3.45716
| 92>    H       -4.24353         6.72794         0.51033
| 93>    H       -5.71010         2.12496         0.22283
| 94>    H       -5.74622         4.22962        -1.57561
| 95>    H       -6.48833         6.60945         0.19517
| 96>    H       -8.33598         8.07553         0.27914
| 97>    H       -9.30297        10.22104        -3.56497
| 98>    H       -7.26530         7.81665        -6.35601
| 99>    H       -7.80150        10.53690        -5.03976
|100>    H       -7.57552         9.57896        -7.81363
|101>    H       -7.51036        14.90479        -7.70594
|102>    H       -7.15579        12.31399        -4.90823
|103>    H       -6.09314        14.94427        -6.02240
|104>    H       -5.59367        15.49798        -3.78505
|105>    H       -5.77193        14.31297         1.28162
|106>    H       -6.11376         9.87692        -1.02314
|107>    H       -6.19587        12.84246         3.62592
|108> *
|109>
|110>                          ****END OF INPUT****

CARTESIAN COORDINATES (ANGSTROEM)
---------------------------------
  C     -3.316670    9.528450    3.059400
  C     -3.339750    9.509160    4.429530
  C     -3.164260   10.650630    5.237810
  N     -3.052570   11.551510    5.940490
  C     -3.570380    8.345320    5.191840
  N     -3.760310    7.419700    5.842590
  C     -3.077330   10.704470    2.223190
  C     -3.116170   10.313580    0.860670
  C     -2.905640   11.191940   -0.174440
  C     -2.702020   12.537050    0.145370
  C     -2.715960   12.930510    1.505760
  C     -2.877220   12.031340    2.554410
  S     -2.533590   14.650330    1.668150
  C     -2.433330   14.816890   -0.064350
  C     -2.525500   13.640660   -0.732160
  Br    -2.224680   16.509340   -0.824710
  C     -3.482630    8.895560    0.784560
  O     -3.724800    8.245410   -0.224860
  C     -3.573070    8.419180    2.169010
  C     -3.921480    7.119660    2.448840
  N     -4.273140    6.296950    1.455770
  C     -4.590690    4.978740    1.544540
  S     -4.140940    4.009430    2.909450
  C     -4.768000    2.614730    2.094240
  N     -4.711570    1.390160    2.777410
  O     -5.152560    0.408820    2.214990
  O     -4.220300    1.413660    3.890650
  C     -5.278090    2.881950    0.851660
  C     -5.207750    4.248030    0.524060
  C     -5.767210    4.827850   -0.676510
  C     -6.367220    6.030070   -0.710330
  C     -6.903100    6.633930   -1.903250
  C     -7.721050    7.810510   -1.822580
  C     -8.343170    8.388300   -0.744980
  S     -9.279770    9.742140   -1.201580
  C     -8.845850    9.569440   -2.848450
  C     -8.013980    8.496260   -3.054900
  C     -7.474480    7.904040   -4.247990
  N     -6.912120    6.711710   -4.194780
  N     -6.620350    6.113120   -3.075920
  C     -7.488620    8.505630   -5.553180
  C     -7.638900    9.815640   -5.819570
  N     -7.611570   10.299260   -7.100270
  C     -7.692290   11.565040   -7.578790
  S     -8.114080   11.695410   -9.262860
  C     -7.988210   13.421530   -9.166000
  N     -8.278170   14.162220  -10.320200
  O     -8.201500   15.372560  -10.249130
  O     -8.596980   13.523800  -11.307440
  C     -7.618010   13.859590   -7.928900
  C     -7.435930   12.817940   -6.990800
  C     -6.949760   13.055450   -5.662400
  C     -6.266590   14.166760   -5.292900
  C     -5.789510   14.447880   -3.987130
  C     -5.598550   13.649730   -2.897070
  C     -5.560980   12.221040   -2.671910
  C     -5.147960   11.243660   -3.542090
  C     -5.012850    9.884360   -3.189970
  N     -4.902120    8.764300   -2.967190
  C     -4.759830   11.470630   -4.875990
  N     -4.446940   11.594900   -5.973320
  C     -5.794340   12.002470   -1.246690
  C     -5.717570   13.245200   -0.573120
  C     -5.483850   14.312450   -1.566260
  O     -5.272280   15.483980   -1.355330
  C     -5.850610   13.356290    0.789380
  C     -6.097750   12.187080    1.516630
  C     -6.214030   10.958390    0.826460
  C     -6.049850   10.840600   -0.547130
  S     -6.562970    9.651320    1.915550
  C     -6.509290   10.749870    3.272150
  C     -6.261440   12.033890    2.921160
  Br    -6.790720   10.084640    5.005300
  H     -2.912970   10.849120   -1.197690
  H     -2.856950   12.378690    3.574070
  H     -2.471540   13.557240   -1.802990
  H     -3.953390    6.726230    3.457160
  H     -4.243530    6.727940    0.510330
  H     -5.710100    2.124960    0.222830
  H     -5.746220    4.229620   -1.575610
  H     -6.488330    6.609450    0.195170
  H     -8.335980    8.075530    0.279140
  H     -9.302970   10.221040   -3.564970
  H     -7.265300    7.816650   -6.356010
  H     -7.801500   10.536900   -5.039760
  H     -7.575520    9.578960   -7.813630
  H     -7.510360   14.904790   -7.705940
  H     -7.155790   12.313990   -4.908230
  H     -6.093140   14.944270   -6.022400
  H     -5.593670   15.497980   -3.785050
  H     -5.771930   14.312970    1.281620
  H     -6.113760    9.876920   -1.023140
  H     -6.195870   12.842460    3.625920

 Total Charge           Charge          ....    0
 Multiplicity           Mult            ....    1
 Number of Electrons    NEL             ....  588
 Basis Dimension        Dim             .... 1178

ORBITAL ENERGIES
----------------

  NO   OCC          E(Eh)            E(eV)
   0   2.0000    -482.899772    -13140.3708
   1   2.0000    -482.888204    -13140.0561
   2   2.0000     -88.998580     -2421.7745
   3   2.0000     -88.996722     -2421.7239
   4   2.0000     -88.995693     -2421.6959
   5   2.0000     -88.995172     -2421.6817
   6   2.0000     -88.985597     -2421.4212
   7   2.0000     -62.577023     -1702.8074
   8   2.0000     -62.565860     -1702.5036
   9   2.0000     -56.411034     -1535.0223
  10   2.0000     -56.408259     -1534.9468
  11   2.0000     -56.408221     -1534.9457
  12   2.0000     -56.399838     -1534.7176
  13   2.0000     -56.397102     -1534.6432
  14   2.0000     -56.397035     -1534.6413
  15   2.0000     -19.246573      -523.7259
  16   2.0000     -19.245920      -523.7081
  17   2.0000     -19.242406      -523.6125
  18   2.0000     -19.242288      -523.6093
  19   2.0000     -19.236982      -523.4649
  20   2.0000     -19.227850      -523.2164
  21   2.0000     -14.658322      -398.8732
  22   2.0000     -14.654342      -398.7649
  23   2.0000     -14.500799      -394.5868
  24   2.0000     -14.497571      -394.4990
  25   2.0000     -14.433011      -392.7422
  26   2.0000     -14.431100      -392.6902
  27   2.0000     -14.430435      -392.6721
  28   2.0000     -14.429040      -392.6341
  29   2.0000     -14.424639      -392.5144
  30   2.0000     -14.421624      -392.4323
  31   2.0000     -10.391343      -282.7628
  32   2.0000     -10.382891      -282.5328
  33   2.0000     -10.378744      -282.4200
  34   2.0000     -10.375949      -282.3439
  35   2.0000     -10.375399      -282.3290
  36   2.0000     -10.372682      -282.2550
  37   2.0000     -10.366767      -282.0941
  38   2.0000     -10.359467      -281.8954
  39   2.0000     -10.358830      -281.8781
  40   2.0000     -10.353354      -281.7291
  41   2.0000     -10.351969      -281.6914
  42   2.0000     -10.351333      -281.6741
  43   2.0000     -10.350750      -281.6582
  44   2.0000     -10.347473      -281.5691
  45   2.0000     -10.341599      -281.4092
  46   2.0000     -10.334978      -281.2290
  47   2.0000     -10.333848      -281.1983
  48   2.0000     -10.331458      -281.1333
  49   2.0000     -10.330604      -281.1100
  50   2.0000     -10.328623      -281.0561
  51   2.0000     -10.327938      -281.0375
  52   2.0000     -10.327303      -281.0202
  53   2.0000     -10.327087      -281.0143
  54   2.0000     -10.326906      -281.0094
  55   2.0000     -10.325202      -280.9630
  56   2.0000     -10.324993      -280.9574
  57   2.0000     -10.323163      -280.9076
  58   2.0000     -10.322480      -280.8890
  59   2.0000     -10.322326      -280.8848
  60   2.0000     -10.318903      -280.7916
  61   2.0000     -10.317723      -280.7595
  62   2.0000     -10.317386      -280.7503
  63   2.0000     -10.316971      -280.7391
  64   2.0000     -10.316046      -280.7139
  65   2.0000     -10.315101      -280.6882
  66   2.0000     -10.314846      -280.6812
  67   2.0000     -10.312905      -280.6284
  68   2.0000     -10.311270      -280.5839
  69   2.0000     -10.311178      -280.5814
  70   2.0000     -10.310795      -280.5710
  71   2.0000     -10.310454      -280.5617
  72   2.0000     -10.307970      -280.4941
  73   2.0000     -10.306751      -280.4610
  74   2.0000     -10.303905      -280.3835
  75   2.0000     -10.303597      -280.3751
  76   2.0000     -10.303335      -280.3680
  77   2.0000     -10.302539      -280.3463
  78   2.0000     -10.300706      -280.2965
  79   2.0000     -10.295391      -280.1518
  80   2.0000     -10.294110      -280.1170
  81   2.0000      -8.806264      -239.6306
  82   2.0000      -8.795300      -239.3323
  83   2.0000      -8.093628      -220.2388
  84   2.0000      -8.091860      -220.1907
  85   2.0000      -8.091200      -220.1727
  86   2.0000      -8.090531      -220.1545
  87   2.0000      -8.081242      -219.9018
  88   2.0000      -6.642671      -180.7563
  89   2.0000      -6.631743      -180.4589
  90   2.0000      -6.627972      -180.3563
  91   2.0000      -6.627678      -180.3483
  92   2.0000      -6.616918      -180.0555
  93   2.0000      -6.616797      -180.0522
  94   2.0000      -6.062531      -164.9699
  95   2.0000      -6.061667      -164.9463
  96   2.0000      -6.060924      -164.9261
  97   2.0000      -6.060081      -164.9032
  98   2.0000      -6.058053      -164.8480
  99   2.0000      -6.057131      -164.8229
 100   2.0000      -6.056976      -164.8187
 101   2.0000      -6.056652      -164.8099
 102   2.0000      -6.055688      -164.7836
 103   2.0000      -6.053019      -164.7110
 104   2.0000      -6.052672      -164.7016
 105   2.0000      -6.052183      -164.6883
 106   2.0000      -6.050889      -164.6530
 107   2.0000      -6.046649      -164.5377
 108   2.0000      -6.042586      -164.4271
 109   2.0000      -2.758514       -75.0630
 110   2.0000      -2.754415       -74.9515
 111   2.0000      -2.754191       -74.9453
 112   2.0000      -2.747597       -74.7659
 113   2.0000      -2.743391       -74.6515
 114   2.0000      -2.743339       -74.6501
 115   2.0000      -2.742518       -74.6277
 116   2.0000      -2.742505       -74.6273
 117   2.0000      -2.731545       -74.3291
 118   2.0000      -2.731529       -74.3287
 119   2.0000      -1.328418       -36.1481
 120   2.0000      -1.325241       -36.0616
 121   2.0000      -1.153456       -31.3871
 122   2.0000      -1.147971       -31.2379
 123   2.0000      -1.144642       -31.1473
 124   2.0000      -1.143668       -31.1208
 125   2.0000      -1.113833       -30.3089
 126   2.0000      -1.106343       -30.1051
 127   2.0000      -1.105057       -30.0701
 128   2.0000      -1.040378       -28.3101
 129   2.0000      -1.032364       -28.0921
 130   2.0000      -1.028726       -27.9931
 131   2.0000      -1.021904       -27.8074
 132   2.0000      -1.018325       -27.7100
 133   2.0000      -1.015257       -27.6265
 134   2.0000      -1.014170       -27.5970
 135   2.0000      -1.010092       -27.4860
 136   2.0000      -1.005087       -27.3498
 137   2.0000      -1.002711       -27.2852
 138   2.0000      -0.997809       -27.1518
 139   2.0000      -0.960050       -26.1243
 140   2.0000      -0.958133       -26.0721
 141   2.0000      -0.949828       -25.8461
 142   2.0000      -0.942795       -25.6547
 143   2.0000      -0.928653       -25.2699
 144   2.0000      -0.924127       -25.1468
 145   2.0000      -0.916974       -24.9521
 146   2.0000      -0.915619       -24.9153
 147   2.0000      -0.908945       -24.7337
 148   2.0000      -0.902292       -24.5526
 149   2.0000      -0.900637       -24.5076
 150   2.0000      -0.894848       -24.3501
 151   2.0000      -0.893667       -24.3179
 152   2.0000      -0.882864       -24.0239
 153   2.0000      -0.880435       -23.9579
 154   2.0000      -0.861956       -23.4550
 155   2.0000      -0.856316       -23.3015
 156   2.0000      -0.846940       -23.0464
 157   2.0000      -0.846222       -23.0269
 158   2.0000      -0.844652       -22.9841
 159   2.0000      -0.838305       -22.8114
 160   2.0000      -0.836662       -22.7667
 161   2.0000      -0.803983       -21.8775
 162   2.0000      -0.799253       -21.7488
 163   2.0000      -0.787175       -21.4201
 164   2.0000      -0.780395       -21.2356
 165   2.0000      -0.769967       -20.9519
 166   2.0000      -0.768241       -20.9049
 167   2.0000      -0.756590       -20.5879
 168   2.0000      -0.740545       -20.1513
 169   2.0000      -0.733935       -19.9714
 170   2.0000      -0.731578       -19.9073
 171   2.0000      -0.723813       -19.6960
 172   2.0000      -0.715287       -19.4640
 173   2.0000      -0.712014       -19.3749
 174   2.0000      -0.703105       -19.1325
 175   2.0000      -0.701455       -19.0876
 176   2.0000      -0.698443       -19.0056
 177   2.0000      -0.692296       -18.8383
 178   2.0000      -0.680727       -18.5235
 179   2.0000      -0.677782       -18.4434
 180   2.0000      -0.673142       -18.3171
 181   2.0000      -0.667284       -18.1577
 182   2.0000      -0.664795       -18.0900
 183   2.0000      -0.659648       -17.9499
 184   2.0000      -0.651652       -17.7324
 185   2.0000      -0.649210       -17.6659
 186   2.0000      -0.644561       -17.5394
 187   2.0000      -0.640136       -17.4190
 188   2.0000      -0.639777       -17.4092
 189   2.0000      -0.638432       -17.3726
 190   2.0000      -0.636146       -17.3104
 191   2.0000      -0.627283       -17.0692
 192   2.0000      -0.623073       -16.9547
 193   2.0000      -0.615576       -16.7507
 194   2.0000      -0.612854       -16.6766
 195   2.0000      -0.610129       -16.6024
 196   2.0000      -0.609825       -16.5942
 197   2.0000      -0.601256       -16.3610
 198   2.0000      -0.599046       -16.3009
 199   2.0000      -0.595289       -16.1986
 200   2.0000      -0.592014       -16.1095
 201   2.0000      -0.586174       -15.9506
 202   2.0000      -0.584463       -15.9040
 203   2.0000      -0.575293       -15.6545
 204   2.0000      -0.574534       -15.6339
 205   2.0000      -0.573659       -15.6101
 206   2.0000      -0.567055       -15.4303
 207   2.0000      -0.565411       -15.3856
 208   2.0000      -0.561417       -15.2769
 209   2.0000      -0.557628       -15.1738
 210   2.0000      -0.554946       -15.1008
 211   2.0000      -0.554000       -15.0751
 212   2.0000      -0.550184       -14.9713
 213   2.0000      -0.548194       -14.9171
 214   2.0000      -0.544378       -14.8133
 215   2.0000      -0.541318       -14.7300
 216   2.0000      -0.539471       -14.6798
 217   2.0000      -0.536815       -14.6075
 218   2.0000      -0.533209       -14.5093
 219   2.0000      -0.529961       -14.4210
 220   2.0000      -0.526466       -14.3259
 221   2.0000      -0.524756       -14.2793
 222   2.0000      -0.519932       -14.1481
 223   2.0000      -0.519610       -14.1393
 224   2.0000      -0.517415       -14.0796
 225   2.0000      -0.515225       -14.0200
 226   2.0000      -0.511596       -13.9212
 227   2.0000      -0.510274       -13.8853
 228   2.0000      -0.509079       -13.8528
 229   2.0000      -0.505411       -13.7529
 230   2.0000      -0.504330       -13.7235
 231   2.0000      -0.500437       -13.6176
 232   2.0000      -0.497275       -13.5315
 233   2.0000      -0.487667       -13.2701
 234   2.0000      -0.485543       -13.2123
 235   2.0000      -0.484900       -13.1948
 236   2.0000      -0.482895       -13.1403
 237   2.0000      -0.477760       -13.0005
 238   2.0000      -0.476881       -12.9766
 239   2.0000      -0.472606       -12.8603
 240   2.0000      -0.470171       -12.7940
 241   2.0000      -0.468381       -12.7453
 242   2.0000      -0.467584       -12.7236
 243   2.0000      -0.464699       -12.6451
 244   2.0000      -0.464585       -12.6420
 245   2.0000      -0.462761       -12.5924
 246   2.0000      -0.462306       -12.5800
 247   2.0000      -0.457990       -12.4625
 248   2.0000      -0.457377       -12.4459
 249   2.0000      -0.456313       -12.4169
 250   2.0000      -0.452193       -12.3048
 251   2.0000      -0.451606       -12.2888
 252   2.0000      -0.450281       -12.2528
 253   2.0000      -0.448624       -12.2077
 254   2.0000      -0.447352       -12.1731
 255   2.0000      -0.443524       -12.0689
 256   2.0000      -0.437784       -11.9127
 257   2.0000      -0.436258       -11.8712
 258   2.0000      -0.434394       -11.8205
 259   2.0000      -0.427054       -11.6207
 260   2.0000      -0.424886       -11.5617
 261   2.0000      -0.419907       -11.4263
 262   2.0000      -0.418805       -11.3963
 263   2.0000      -0.410118       -11.1599
 264   2.0000      -0.403776       -10.9873
 265   2.0000      -0.394349       -10.7308
 266   2.0000      -0.393607       -10.7106
 267   2.0000      -0.392352       -10.6764
 268   2.0000      -0.390512       -10.6264
 269   2.0000      -0.388987       -10.5849
 270   2.0000      -0.387221       -10.5368
 271   2.0000      -0.386678       -10.5221
 272   2.0000      -0.382188       -10.3999
 273   2.0000      -0.381121       -10.3708
 274   2.0000      -0.377688       -10.2774
 275   2.0000      -0.376338       -10.2407
 276   2.0000      -0.375028       -10.2050
 277   2.0000      -0.371464       -10.1081
 278   2.0000      -0.364414        -9.9162
 279   2.0000      -0.363305        -9.8860
 280   2.0000      -0.358213        -9.7475
 281   2.0000      -0.355373        -9.6702
 282   2.0000      -0.348402        -9.4805
 283   2.0000      -0.347234        -9.4487
 284   2.0000      -0.335252        -9.1227
 285   2.0000      -0.331230        -9.0132
 286   2.0000      -0.325361        -8.8535
 287   2.0000      -0.320761        -8.7284
 288   2.0000      -0.311100        -8.4655
 289   2.0000      -0.303827        -8.2675
 290   2.0000      -0.300167        -8.1680
 291   2.0000      -0.293116        -7.9761
 292   2.0000      -0.282089        -7.6760
 293   2.0000      -0.261004        -7.1023
 294   0.0000      -0.107693        -2.9305
 295   0.0000      -0.094213        -2.5637
 296   0.0000      -0.079710        -2.1690
 297   0.0000      -0.073894        -2.0108
 298   0.0000      -0.072467        -1.9719

MULLIKEN ATOMIC CHARGES
-----------------------
   0 C :    0.330928
   1 C :   -0.361579
   2 C :   -0.186435
   3 N :    0.154005
   4 C :   -0.199683
   5 N :    0.151138
   6 C :   -0.002734
   7 C :    0.014501
   8 C :   -0.065557
   9 C :    0.113805
  10 C :   -0.094701
  11 C :   -0.026293
  12 S :    0.182203
  13 C :   -0.122560
  14 C :    0.043062
  15 Br:    0.047568
  16 C :    0.133232
  17 O :   -0.200498
  18 C :   -0.106968
  19 C :    0.017555
  20 N :   -0.028344
  21 C :   -0.112132
  22 S :    0.193546
  23 C :   -0.001622
  24 N :    0.275300
  25 O :   -0.242549
  26 O :   -0.257689
  27 C :    0.020408
  28 C :    0.108398
  29 C :    0.022094
  30 C :   -0.046005
  31 C :    0.024170
  32 C :    0.103146
  33 C :   -0.204323
  34 S :    0.183652
  35 C :   -0.192439
  36 C :    0.082968
  37 C :   -0.007924
  38 N :   -0.054715
  39 N :   -0.040770
  40 C :    0.018988
  41 C :    0.055143
  42 N :    0.000969
  43 C :   -0.096690
  44 S :    0.170633
  45 C :    0.004900
  46 N :    0.278276
  47 O :   -0.245489
  48 O :   -0.261225
  49 C :   -0.009514
  50 C :    0.103552
  51 C :    0.015946
  52 C :    0.007086
  53 C :    0.029497
  54 C :   -0.112728
  55 C :    0.269495
  56 C :   -0.389672
  57 C :   -0.159673
  58 N :    0.175127
  59 C :   -0.202696
  60 N :    0.182448
  61 C :    0.008234
  62 C :    0.023652
  63 C :    0.124054
  64 O :   -0.146119
  65 C :   -0.079525
  66 C :    0.109309
  67 C :   -0.080558
  68 C :   -0.014088
  69 S :    0.145092
  70 C :   -0.139981
  71 C :    0.059484
  72 Br:    0.053708
  73 H :   -0.010785
  74 H :   -0.010747
  75 H :   -0.001660
  76 H :    0.041075
  77 H :    0.195469
  78 H :    0.015738
  79 H :    0.027431
  80 H :   -0.026833
  81 H :    0.033835
  82 H :    0.030771
  83 H :   -0.006982
  84 H :    0.009600
  85 H :    0.143086
  86 H :    0.015982
  87 H :   -0.009905
  88 H :    0.001112
  89 H :    0.029380
  90 H :   -0.009967
  91 H :   -0.016148
  92 H :    0.005753
Sum of atomic charges:   -0.0000000

LOEWDIN ATOMIC CHARGES
----------------------
   0 C :    0.074384
   1 C :   -0.153949
   2 C :   -0.021746
   3 N :   -0.057569
   4 C :   -0.023544
   5 N :   -0.055200
   6 C :   -0.021129
   7 C :   -0.052309
   8 C :    0.022211
   9 C :   -0.033359
  10 C :   -0.146653
  11 C :   -0.010775
  12 S :    0.437033
  13 C :   -0.263219
  14 C :   -0.077429
  15 Br:    0.159730
  16 C :    0.085393
  17 O :   -0.157209
  18 C :   -0.154535
  19 C :    0.105115
  20 N :    0.077687
  21 C :   -0.114223
  22 S :    0.478967
  23 C :   -0.203048
  24 N :    0.272454
  25 O :   -0.208673
  26 O :   -0.223512
  27 C :    0.004797
  28 C :   -0.085773
  29 C :    0.020503
  30 C :   -0.033559
  31 C :    0.001992
  32 C :   -0.063663
  33 C :   -0.200051
  34 S :    0.514859
  35 C :   -0.205774
  36 C :   -0.062671
  37 C :   -0.001259
  38 N :   -0.049990
  39 N :   -0.046043
  40 C :   -0.053840
  41 C :    0.026906
  42 N :    0.045483
  43 C :   -0.078138
  44 S :    0.457465
  45 C :   -0.207427
  46 N :    0.273402
  47 O :   -0.211558
  48 O :   -0.226350
  49 C :    0.010676
  50 C :   -0.111552
  51 C :    0.043342
  52 C :   -0.050184
  53 C :    0.067112
  54 C :   -0.100437
  55 C :    0.061102
  56 C :   -0.153076
  57 C :   -0.025336
  58 N :   -0.031121
  59 C :   -0.020928
  60 N :   -0.040587
  61 C :   -0.021424
  62 C :   -0.051060
  63 C :    0.081047
  64 O :   -0.141987
  65 C :    0.022339
  66 C :   -0.031559
  67 C :   -0.145894
  68 C :   -0.013748
  69 S :    0.440817
  70 C :   -0.273456
  71 C :   -0.063216
  72 Br:    0.162749
  73 H :    0.040404
  74 H :    0.039889
  75 H :    0.037934
  76 H :    0.036327
  77 H :    0.089742
  78 H :    0.049634
  79 H :    0.043535
  80 H :    0.018846
  81 H :    0.017430
  82 H :    0.022023
  83 H :    0.039001
  84 H :    0.023184
  85 H :    0.097979
  86 H :    0.046365
  87 H :    0.025938
  88 H :    0.035334
  89 H :    0.048828
  90 H :    0.038980
  91 H :    0.038092
  92 H :    0.042711

  Mayer bond orders larger than 0.100000
B(  0-C ,  1-C ) :   1.6324 B(  0-C ,  6-C ) :   0.9971 B(  0-C , 18-C ) :   1.1008
B(  1-C ,  2-C ) :   1.1425 B(  1-C ,  4-C ) :   1.1449 B(  2-C ,  3-N ) :   2.9690
B(  4-C ,  5-N ) :   2.9608 B(  6-C ,  7-C ) :   1.2891 B(  6-C , 11-C ) :   1.4073
B(  7-C ,  8-C ) :   1.4182 B(  7-C , 16-C ) :   0.9714 B(  8-C ,  9-C ) :   1.2458
B(  8-C , 73-H ) :   1.0125 B(  9-C , 10-C ) :   1.3174 B(  9-C , 14-C ) :   1.1673
B( 10-C , 11-C ) :   1.3177 B( 10-C , 12-S ) :   1.0823 B( 11-C , 74-H ) :   0.9860
B( 12-S , 13-C ) :   1.0881 B( 13-C , 14-C ) :   1.6062 B( 13-C , 15-Br) :   1.0371
B( 14-C , 75-H ) :   0.9951 B( 16-C , 17-O ) :   2.0354 B( 16-C , 18-C ) :   0.9959
B( 17-O , 77-H ) :   0.1422 B( 18-C , 19-C ) :   1.4436 B( 19-C , 20-N ) :   1.3423
B( 19-C , 76-H ) :   0.9320 B( 20-N , 21-C ) :   1.1601 B( 20-N , 77-H ) :   0.8192
B( 21-C , 22-S ) :   1.1461 B( 21-C , 28-C ) :   1.4078 B( 22-S , 23-C ) :   1.0918
B( 23-C , 24-N ) :   0.9604 B( 23-C , 27-C ) :   1.4896 B( 24-N , 25-O ) :   1.5444
B( 24-N , 26-O ) :   1.5168 B( 25-O , 26-O ) :   0.2628 B( 27-C , 28-C ) :   1.2274
B( 27-C , 78-H ) :   1.0084 B( 28-C , 29-C ) :   1.0200 B( 29-C , 30-C ) :   1.7480
B( 29-C , 79-H ) :   0.9689 B( 30-C , 31-C ) :   1.1226 B( 30-C , 80-H ) :   0.9601
B( 31-C , 32-C ) :   1.0615 B( 31-C , 39-N ) :   1.7108 B( 32-C , 33-C ) :   1.4271
B( 32-C , 36-C ) :   1.2342 B( 33-C , 34-S ) :   1.2269 B( 33-C , 81-H ) :   0.9578
B( 34-S , 35-C ) :   1.2169 B( 35-C , 36-C ) :   1.4430 B( 35-C , 82-H ) :   0.9524
B( 36-C , 37-C ) :   1.0554 B( 37-C , 38-N ) :   1.6655 B( 37-C , 40-C ) :   1.1541
B( 38-N , 39-N ) :   1.2009 B( 40-C , 41-C ) :   1.6638 B( 40-C , 83-H ) :   0.9522
B( 41-C , 42-N ) :   1.1238 B( 41-C , 84-H ) :   0.9516 B( 42-N , 43-C ) :   1.2241
B( 42-N , 85-H ) :   0.9056 B( 43-C , 44-S ) :   1.1505 B( 43-C , 50-C ) :   1.3480
B( 44-S , 45-C ) :   1.0680 B( 45-C , 46-N ) :   0.9652 B( 45-C , 49-C ) :   1.5096
B( 46-N , 47-O ) :   1.5383 B( 46-N , 48-O ) :   1.5124 B( 47-O , 48-O ) :   0.2606
B( 49-C , 50-C ) :   1.2100 B( 49-C , 86-H ) :   1.0020 B( 50-C , 51-C ) :   1.1149
B( 51-C , 52-C ) :   1.6590 B( 51-C , 87-H ) :   0.9551 B( 52-C , 53-C ) :   1.1721
B( 52-C , 88-H ) :   0.9593 B( 53-C , 54-C ) :   1.6348 B( 53-C , 89-H ) :   0.9296
B( 54-C , 55-C ) :   1.0435 B( 54-C , 63-C ) :   0.9586 B( 55-C , 56-C ) :   1.6235
B( 55-C , 61-C ) :   1.0077 B( 56-C , 57-C ) :   1.1365 B( 56-C , 59-C ) :   1.1725
B( 57-C , 58-N ) :   2.9072 B( 59-C , 60-N ) :   2.9791 B( 61-C , 62-C ) :   1.2897
B( 61-C , 68-C ) :   1.3836 B( 62-C , 63-C ) :   0.9151 B( 62-C , 65-C ) :   1.4154
B( 63-C , 64-O ) :   2.2317 B( 65-C , 66-C ) :   1.2331 B( 65-C , 90-H ) :   1.0218
B( 66-C , 67-C ) :   1.3185 B( 66-C , 71-C ) :   1.1514 B( 67-C , 68-C ) :   1.3197
B( 67-C , 69-S ) :   1.0815 B( 68-C , 91-H ) :   0.9905 B( 69-S , 70-C ) :   1.0816
B( 70-C , 71-C ) :   1.6119 B( 70-C , 72-Br) :   1.0340 B( 71-C , 92-H ) :   1.0052

-----------------------------------------------------------------------------
         ABSORPTION SPECTRUM VIA TRANSITION ELECTRIC DIPOLE MOMENTS
-----------------------------------------------------------------------------
State   Energy  Wavelength   fosc         T2         TX        TY        TZ
        (cm-1)    (nm)                  (au**2)     (au)      (au)      (au)
-----------------------------------------------------------------------------
   0   16083.1    621.8   0.048159496   0.98580   0.36052   0.82468   0.41919
   1   19636.1    509.3   0.184248682   3.08906  -0.85609  -0.04559  -1.53430
   2   21032.2    475.5   0.176444896   2.76185  -0.74530  -1.11229  -0.98448
   3   21874.3    457.2   0.330077261   4.96772  -1.13177  -0.92198  -1.68428
   4   23577.2    424.1   0.306967694   4.28623   0.35416  -1.81857   0.92391
   5   24766.1    403.8   0.534021709   7.09868  -0.01628   2.27334  -1.38937
   6   24900.5    401.6   0.355791555   4.70396   0.06784  -1.74318   1.28867
   7   25482.2    392.4   0.442695312   5.71932   0.42509  -1.41274   1.88223
   8   25697.0    389.2   0.004198305   0.05379   0.01255   0.23147  -0.00705
   9   26072.3    383.5   0.103056415   1.30128   0.56062   0.73073   0.67308
  10   26144.5    382.5   0.021233679   0.26737  -0.07968   0.15567  -0.48661
  11   27340.7    365.8   0.114553142   1.37935   0.45888  -0.89261  -0.60994
  12   28133.8    355.4   0.006854431   0.08021  -0.15237   0.10322  -0.21526
  13   28453.9    351.4   0.104729745   1.21172  -0.01065   0.33211  -1.04943
  14   29020.0    344.6   0.036685541   0.41617   0.33893   0.50444  -0.21642
  15   29302.5    341.3   0.084731323   0.95195  -0.01181   0.78475  -0.57964
  16   29483.6    339.2   0.131741764   1.47102  -0.19032   0.50523  -1.08607
  17   29628.4    337.5   0.054609180   0.60678   0.05994   0.32850  -0.70376
  18   29723.4    336.4   0.206606068   2.28834  -0.06463  -0.71235   1.33294
  19   30131.7    331.9   0.268270634   2.93106  -0.09292  -1.63244   0.50752
  20   30384.7    329.1   0.070357023   0.76230   0.40697   0.10367   0.76546
  21   30418.2    328.8   0.186764541   2.02133  -0.09589  -0.98043   1.02513
  22   30524.1    327.6   0.056486444   0.60922  -0.00076  -0.76374   0.16100
  23   31022.0    322.4   0.129896720   1.37849  -0.50011  -0.14172  -1.05276
  24   31311.1    319.4   0.026468185   0.27829  -0.08785   0.00535   0.52014
  25   31586.5    316.6   0.006035452   0.06290  -0.12332  -0.20711   0.06930
  26   31954.4    312.9   0.036079629   0.37171   0.27809   0.18640  -0.50954
  27   32151.8    311.0   0.001692578   0.01733  -0.10523   0.04049  -0.06796
  28   32609.7    306.7   0.030564664   0.30857  -0.37161  -0.16458  -0.37866
  29   32842.9    304.5   0.090709779   0.90926  -0.38404   0.30339   0.81837
  30   32998.5    303.0   0.005580100   0.05567   0.07679  -0.21864   0.04436
  31   33225.6    301.0   0.164298907   1.62794  -0.03127  -0.53148   1.15952
  32   33516.0    298.4   0.016665622   0.16370   0.09199  -0.32107  -0.22837
  33   33705.4    296.7   0.032209935   0.31461   0.07681  -0.12139  -0.54219
  34   33873.9    295.2   0.202039965   1.96357  -0.06929   0.05953   1.39830
  35   34087.2    293.4   0.210091143   2.02905   0.25498   0.34331   1.35874
  36   34140.3    292.9   0.016143944   0.15567  -0.07135  -0.09013   0.37744
  37   34506.8    289.8   0.047190258   0.45022  -0.41406   0.14173   0.50861
  38   34559.6    289.4   0.275066727   2.62026  -0.30768  -0.81234   1.36590
  39   34933.5    286.3   0.064349787   0.60643   0.17902  -0.58640  -0.48012
  40   35066.5    285.2   0.058642609   0.55055   0.02724  -0.67741   0.30154
  41   35123.0    284.7   0.025324542   0.23737   0.19568  -0.09050   0.43691
  42   35230.3    283.8   0.094444489   0.88254  -0.01617   0.30710  -0.88768
  43   35498.0    281.7   0.001248193   0.01158  -0.00749  -0.09017   0.05822
  44   35584.2    281.0   0.011758590   0.10879  -0.32379  -0.03694   0.05082
  45   35977.8    277.9   0.007343648   0.06720   0.10403  -0.23221  -0.04952
  46   36209.8    276.2   0.035811150   0.32559  -0.28432   0.49334   0.03693
  47   36280.7    275.6   0.029186755   0.26484   0.39900  -0.31256  -0.08916
  48   36590.3    273.3   0.136662846   1.22959  -0.01088  -0.72597   0.83811
  49   36722.9    272.3   0.014820209   0.13286  -0.16054   0.18132   0.27242
  50   36899.9    271.0   0.021114688   0.18838  -0.29529  -0.10534  -0.30015
  51   37170.9    269.0   0.055823422   0.49441   0.07205  -0.53405   0.45167
  52   37256.0    268.4   0.007284877   0.06437  -0.04281  -0.16186   0.19064
  53   37429.1    267.2   0.060119070   0.52878  -0.02840  -0.55889   0.46435
  54   37508.5    266.6   0.053386305   0.46857   0.34250   0.59265  -0.00551
  55   37895.9    263.9   0.058683891   0.50980  -0.20890  -0.50735  -0.45691
  56   38189.1    261.9   0.130943271   1.12881  -0.14797   1.04617  -0.11156
  57   38265.1    261.3   0.022466185   0.19329   0.08981   0.37857   0.20472
  58   38584.4    259.2   0.030052706   0.25642   0.30847  -0.39904  -0.04509
  59   38723.1    258.2   0.032311908   0.27471  -0.08794   0.51558   0.03385
  60   38828.1    257.5   0.064013167   0.54275  -0.11944   0.39608  -0.60959
  61   39133.6    255.5   0.013376065   0.11253  -0.25248  -0.10231  -0.19574
  62   39415.1    253.7   0.019691939   0.16448  -0.09957  -0.39116  -0.03938
  63   39590.7    252.6   0.258546739   2.14992  -0.43667   0.77583  -1.16504
  64   39757.7    251.5   0.102581657   0.84942  -0.36575  -0.82987  -0.16424
  65   39823.5    251.1   0.047327173   0.39124   0.07163   0.59449   0.18082
  66   40149.6    249.1   0.073095015   0.59935  -0.13255   0.12094   0.75310
  67   40226.8    248.6   0.014023374   0.11477   0.23663   0.22169   0.09812

FINAL SINGLE POINT ENERGY    -10050.516706726317

DIPOLE MOMENT
-------------
                                X             Y             Z
Electronic contribution:     25.23944      59.60297      73.74038
Nuclear contribution   :    -26.91370     -57.57996     -74.21447
                        -----------------------------------------
Total Dipole Moment    :     -1.67426       2.02301      -0.47409
                        -----------------------------------------
Magnitude (a.u.)       :      2.66842
Magnitude (Debye)      :      6.78259

Rotational constants in cm-1:     0.001025     0.000581     0.000421
Rotational constants in MHz :    30.742668    17.413209    12.628876

                             ****ORCA TERMINATED NORMALLY****
TOTAL RUN TIME: 0 days 0 hours 12 minutes 54 seconds 214 msec
