                         Program Version 4.2.0 -  RELEASE  -
|  1> # ORCA input file
|  2> # SCF done       -193.983850242581          0.002820856038
|  3> ! CAM-B3LYP def2-SVP def2/J RIJCOSX Grid4 TightSCF
|  4> %maxcore 5000
|  5> %tddft
|  6>     Mode sTDDFT
|  7>     Ethresh 5.0
|  8>     maxcore 5000
|  9> end
| 10>
| 11> %pal
| 12>   nprocs 6
| 13>   end
| 14> * xyz 0 1
| 15>    C       -4.95804         3.76700        -2.29815
| 16>    C       -5.19064         4.72927        -3.24289
| 17>    C       -4.19552         5.59027        -3.75241
| 18>    N       -3.42371         6.31890        -4.18835
| 19>    C       -6.44381         4.97818        -3.84499
| 20>    N       -7.42381         5.22956        -4.38652
| 21>    C       -3.67263         3.45007        -1.69287
| 22>    C       -3.84616         2.35290        -0.81402
| 23>    C       -2.82855         1.88564        -0.01870
| 24>    C       -1.58113         2.51004        -0.11053
| 25>    C       -1.40182         3.56179        -1.03936
| 26>    C       -2.43465         4.05005        -1.82989
| 27>    S        0.22410         4.17192        -1.00774
| 28>    C        0.62655         3.05168         0.26621
| 29>    C       -0.40225         2.25138         0.63841
| 30>   Br        2.35491         3.04272         0.99398
| 31>    C       -5.24813         1.89564        -0.86154
| 32>    O       -5.73044         0.98897        -0.20623
| 33>    C       -5.94199         2.85069        -1.74671
| 34>    C       -7.29184         3.01155        -1.79514
| 35>    C       -8.29304         2.09275        -1.36614
| 36>    C       -8.38742         0.74391        -1.59076
| 37>    C       -9.63495         0.31003        -1.02021
| 38>    C       -9.84556        -0.92872        -0.60768
| 39>    N       -9.94789        -2.03858        -0.16820
| 40>    C      -10.33001         1.47523        -0.51637
| 41>    C       -9.50658         2.53790        -0.68745
| 42>    C       -9.51182         3.86338        -0.09710
| 43>    C       -8.35850         4.26405         0.72730
| 44>    C       -8.44134         5.69395         0.86199
| 45>    C       -9.60299         6.10603         0.26849
| 46>    C      -10.23624         4.96837        -0.38372
| 47>    C      -10.12857         7.40381         0.27044
| 48>    N      -10.56989         8.46374         0.26845
| 49>    C       -7.44326         3.43562         1.33172
| 50>    C       -6.07496         3.76263         1.64858
| 51>    C       -5.33240         4.88280         1.29127
| 52>    C       -3.99076         4.93201         1.62138
| 53>    C       -3.38042         3.85382         2.25040
| 54>    C       -4.09231         2.70417         2.54935
| 55>    C       -5.45608         2.65519         2.28074
| 56>    C       -6.42177         1.57939         2.43960
| 57>    C       -7.67558         2.07923         1.85684
| 58>    C       -8.89632         1.60638         2.14583
| 59>    C       -6.22283         0.45900         3.21845
| 60>    C       -5.28797         0.48443         4.32220
| 61>    C       -5.52246        -0.58963         5.13443
| 62>    C       -4.90833        -0.86306         6.36448
| 63>    N       -4.42799        -1.07640         7.38368
| 64>    C       -6.56847        -1.38302         4.54356
| 65>    C       -6.98802        -0.78498         3.38651
| 66>    C       -7.98412        -1.46127         2.57247
| 67>    C       -7.95363        -1.92559         1.27947
| 68>    C       -9.28238        -2.60673         0.96778
| 69>    C      -10.03971        -2.46097         2.26415
| 70>    C       -9.25058        -1.83451         3.16542
| 71>    C      -11.34091        -2.93873         2.44797
| 72>    N      -12.41415        -3.32069         2.58498
| 73>    C       -7.00613        -1.84917         0.23456
| 74>    C       -5.64973        -1.77911         0.19850
| 75>    C       -4.61021        -1.99501         1.17210
| 76>    C       -4.73949        -2.72144         2.33101
| 77>    C       -3.70999        -2.87972         3.28029
| 78>    N       -2.90859        -2.99397         4.09422
| 79>    C       -5.88517        -3.48928         2.60879
| 80>    N       -6.77857        -4.18432         2.80120
| 81>    C       -3.35214        -1.55073         0.57888
| 82>    C       -3.58356        -1.20163        -0.77710
| 83>    C       -5.01268        -1.37802        -1.08768
| 84>    O       -5.56790        -1.23217        -2.15216
| 85>    C       -2.57750        -0.79320        -1.61793
| 86>    C       -1.27771        -0.73741        -1.10413
| 87>    C       -1.04930        -1.11748         0.24043
| 88>    C       -2.06989        -1.51633         1.09689
| 89>    S        0.63588        -1.00761         0.65529
| 90>    C        0.99939        -0.42661        -0.94882
| 91>    C       -0.08222        -0.33827        -1.76017
| 92>   Br        2.76325         0.02800        -1.39614
| 93>    H       -2.98894         1.06962         0.66578
| 94>    H       -2.26173         4.87509        -2.50037
| 95>    H       -0.33501         1.52107         1.42362
| 96>    H       -7.67987         3.95862        -2.15652
| 97>    H       -7.67524         0.11910        -2.09383
| 98>    H      -11.28638         1.44584        -0.03067
| 99>    H       -7.80470         6.29732         1.48105
|100>    H      -11.10448         5.03556        -1.01123
|101>    H       -5.79061         5.69658         0.75184
|102>    H       -3.40703         5.80405         1.36885
|103>    H       -2.32787         3.90214         2.48581
|104>    H       -3.57064         1.85529         2.96070
|105>    H       -9.03811         0.68422         2.67820
|106>    H       -9.78230         2.15542         1.88500
|107>    H       -4.65238         1.30834         4.57752
|108>    H       -6.92468        -2.31325         4.94777
|109>    H       -9.13000        -3.67344         0.75386
|110>    H       -9.51373        -1.61843         4.18632
|111>    H       -7.44765        -1.85035        -0.76055
|112>    H       -2.78275        -0.53605        -2.64538
|113>    H       -1.84999        -1.78467         2.11759
|114>    H       -0.03907        -0.00506        -2.78106
|115> *
|116>
|117>                          ****END OF INPUT****

CARTESIAN COORDINATES (ANGSTROEM)
---------------------------------
  C     -4.958040    3.767000   -2.298150
  C     -5.190640    4.729270   -3.242890
  C     -4.195520    5.590270   -3.752410
  N     -3.423710    6.318900   -4.188350
  C     -6.443810    4.978180   -3.844990
  N     -7.423810    5.229560   -4.386520
  C     -3.672630    3.450070   -1.692870
  C     -3.846160    2.352900   -0.814020
  C     -2.828550    1.885640   -0.018700
  C     -1.581130    2.510040   -0.110530
  C     -1.401820    3.561790   -1.039360
  C     -2.434650    4.050050   -1.829890
  S      0.224100    4.171920   -1.007740
  C      0.626550    3.051680    0.266210
  C     -0.402250    2.251380    0.638410
  Br     2.354910    3.042720    0.993980
  C     -5.248130    1.895640   -0.861540
  O     -5.730440    0.988970   -0.206230
  C     -5.941990    2.850690   -1.746710
  C     -7.291840    3.011550   -1.795140
  C     -8.293040    2.092750   -1.366140
  C     -8.387420    0.743910   -1.590760
  C     -9.634950    0.310030   -1.020210
  C     -9.845560   -0.928720   -0.607680
  N     -9.947890   -2.038580   -0.168200
  C    -10.330010    1.475230   -0.516370
  C     -9.506580    2.537900   -0.687450
  C     -9.511820    3.863380   -0.097100
  C     -8.358500    4.264050    0.727300
  C     -8.441340    5.693950    0.861990
  C     -9.602990    6.106030    0.268490
  C    -10.236240    4.968370   -0.383720
  C    -10.128570    7.403810    0.270440
  N    -10.569890    8.463740    0.268450
  C     -7.443260    3.435620    1.331720
  C     -6.074960    3.762630    1.648580
  C     -5.332400    4.882800    1.291270
  C     -3.990760    4.932010    1.621380
  C     -3.380420    3.853820    2.250400
  C     -4.092310    2.704170    2.549350
  C     -5.456080    2.655190    2.280740
  C     -6.421770    1.579390    2.439600
  C     -7.675580    2.079230    1.856840
  C     -8.896320    1.606380    2.145830
  C     -6.222830    0.459000    3.218450
  C     -5.287970    0.484430    4.322200
  C     -5.522460   -0.589630    5.134430
  C     -4.908330   -0.863060    6.364480
  N     -4.427990   -1.076400    7.383680
  C     -6.568470   -1.383020    4.543560
  C     -6.988020   -0.784980    3.386510
  C     -7.984120   -1.461270    2.572470
  C     -7.953630   -1.925590    1.279470
  C     -9.282380   -2.606730    0.967780
  C    -10.039710   -2.460970    2.264150
  C     -9.250580   -1.834510    3.165420
  C    -11.340910   -2.938730    2.447970
  N    -12.414150   -3.320690    2.584980
  C     -7.006130   -1.849170    0.234560
  C     -5.649730   -1.779110    0.198500
  C     -4.610210   -1.995010    1.172100
  C     -4.739490   -2.721440    2.331010
  C     -3.709990   -2.879720    3.280290
  N     -2.908590   -2.993970    4.094220
  C     -5.885170   -3.489280    2.608790
  N     -6.778570   -4.184320    2.801200
  C     -3.352140   -1.550730    0.578880
  C     -3.583560   -1.201630   -0.777100
  C     -5.012680   -1.378020   -1.087680
  O     -5.567900   -1.232170   -2.152160
  C     -2.577500   -0.793200   -1.617930
  C     -1.277710   -0.737410   -1.104130
  C     -1.049300   -1.117480    0.240430
  C     -2.069890   -1.516330    1.096890
  S      0.635880   -1.007610    0.655290
  C      0.999390   -0.426610   -0.948820
  C     -0.082220   -0.338270   -1.760170
  Br     2.763250    0.028000   -1.396140
  H     -2.988940    1.069620    0.665780
  H     -2.261730    4.875090   -2.500370
  H     -0.335010    1.521070    1.423620
  H     -7.679870    3.958620   -2.156520
  H     -7.675240    0.119100   -2.093830
  H    -11.286380    1.445840   -0.030670
  H     -7.804700    6.297320    1.481050
  H    -11.104480    5.035560   -1.011230
  H     -5.790610    5.696580    0.751840
  H     -3.407030    5.804050    1.368850
  H     -2.327870    3.902140    2.485810
  H     -3.570640    1.855290    2.960700
  H     -9.038110    0.684220    2.678200
  H     -9.782300    2.155420    1.885000
  H     -4.652380    1.308340    4.577520
  H     -6.924680   -2.313250    4.947770
  H     -9.130000   -3.673440    0.753860
  H     -9.513730   -1.618430    4.186320
  H     -7.447650   -1.850350   -0.760550
  H     -2.782750   -0.536050   -2.645380
  H     -1.849990   -1.784670    2.117590
  H     -0.039070   -0.005060   -2.781060

 Total Charge           Charge          ....    0
 Multiplicity           Mult            ....    1
 Number of Electrons    NEL             ....  580
 Basis Dimension        Dim             .... 1246

ORBITAL ENERGIES
----------------

  NO   OCC          E(Eh)            E(eV)
   0   2.0000    -482.899998    -13140.3770
   1   2.0000    -482.899919    -13140.3748
   2   2.0000     -88.994869     -2421.6735
   3   2.0000     -88.992751     -2421.6159
   4   2.0000     -62.577582     -1702.8226
   5   2.0000     -62.577514     -1702.8207
   6   2.0000     -56.411574     -1535.0370
   7   2.0000     -56.411497     -1535.0349
   8   2.0000     -56.408823     -1534.9621
   9   2.0000     -56.408783     -1534.9610
  10   2.0000     -56.408753     -1534.9602
  11   2.0000     -56.408666     -1534.9578
  12   2.0000     -19.237884      -523.4894
  13   2.0000     -19.234732      -523.4037
  14   2.0000     -14.488664      -394.2566
  15   2.0000     -14.433067      -392.7437
  16   2.0000     -14.432252      -392.7215
  17   2.0000     -14.428288      -392.6137
  18   2.0000     -14.427562      -392.5939
  19   2.0000     -14.425001      -392.5242
  20   2.0000     -14.404668      -391.9709
  21   2.0000     -14.402992      -391.9253
  22   2.0000     -10.398078      -282.9461
  23   2.0000     -10.388033      -282.6728
  24   2.0000     -10.384388      -282.5736
  25   2.0000     -10.376032      -282.3462
  26   2.0000     -10.375136      -282.3218
  27   2.0000     -10.373174      -282.2684
  28   2.0000     -10.361773      -281.9582
  29   2.0000     -10.357275      -281.8358
  30   2.0000     -10.356401      -281.8120
  31   2.0000     -10.353304      -281.7277
  32   2.0000     -10.353273      -281.7269
  33   2.0000     -10.346179      -281.5338
  34   2.0000     -10.345581      -281.5176
  35   2.0000     -10.343077      -281.4494
  36   2.0000     -10.341741      -281.4131
  37   2.0000     -10.339174      -281.3432
  38   2.0000     -10.335746      -281.2500
  39   2.0000     -10.334419      -281.2139
  40   2.0000     -10.333174      -281.1799
  41   2.0000     -10.331936      -281.1463
  42   2.0000     -10.330680      -281.1121
  43   2.0000     -10.330442      -281.1056
  44   2.0000     -10.328616      -281.0559
  45   2.0000     -10.327063      -281.0137
  46   2.0000     -10.326714      -281.0042
  47   2.0000     -10.326368      -280.9948
  48   2.0000     -10.326109      -280.9877
  49   2.0000     -10.326003      -280.9848
  50   2.0000     -10.325596      -280.9738
  51   2.0000     -10.324660      -280.9483
  52   2.0000     -10.323788      -280.9246
  53   2.0000     -10.323719      -280.9227
  54   2.0000     -10.323353      -280.9127
  55   2.0000     -10.321796      -280.8703
  56   2.0000     -10.321677      -280.8671
  57   2.0000     -10.320154      -280.8257
  58   2.0000     -10.319885      -280.8184
  59   2.0000     -10.319405      -280.8053
  60   2.0000     -10.317950      -280.7657
  61   2.0000     -10.316657      -280.7305
  62   2.0000     -10.316526      -280.7269
  63   2.0000     -10.315443      -280.6975
  64   2.0000     -10.314868      -280.6818
  65   2.0000     -10.314603      -280.6746
  66   2.0000     -10.313380      -280.6413
  67   2.0000     -10.313295      -280.6390
  68   2.0000     -10.312525      -280.6181
  69   2.0000     -10.312309      -280.6122
  70   2.0000     -10.311068      -280.5784
  71   2.0000     -10.310423      -280.5609
  72   2.0000     -10.309898      -280.5466
  73   2.0000     -10.309324      -280.5310
  74   2.0000     -10.309134      -280.5258
  75   2.0000     -10.306018      -280.4410
  76   2.0000     -10.305636      -280.4306
  77   2.0000     -10.305005      -280.4134
  78   2.0000     -10.302847      -280.3547
  79   2.0000     -10.301740      -280.3246
  80   2.0000     -10.297691      -280.2144
  81   2.0000     -10.293553      -280.1018
  82   2.0000     -10.292234      -280.0659
  83   2.0000     -10.291104      -280.0352
  84   2.0000     -10.290746      -280.0254
  85   2.0000     -10.290310      -280.0136
  86   2.0000      -8.806987      -239.6503
  87   2.0000      -8.806867      -239.6470
  88   2.0000      -8.090321      -220.1488
  89   2.0000      -8.088705      -220.1049
  90   2.0000      -6.643376      -180.7755
  91   2.0000      -6.643236      -180.7716
  92   2.0000      -6.628663      -180.3751
  93   2.0000      -6.628567      -180.3725
  94   2.0000      -6.628472      -180.3699
  95   2.0000      -6.628341      -180.3663
  96   2.0000      -6.060053      -164.9024
  97   2.0000      -6.058341      -164.8558
  98   2.0000      -6.055760      -164.7856
  99   2.0000      -6.054093      -164.7403
 100   2.0000      -6.051560      -164.6713
 101   2.0000      -6.049992      -164.6287
 102   2.0000      -2.759173       -75.0809
 103   2.0000      -2.759131       -75.0798
 104   2.0000      -2.755119       -74.9706
 105   2.0000      -2.754985       -74.9670
 106   2.0000      -2.754960       -74.9663
 107   2.0000      -2.754805       -74.9621
 108   2.0000      -2.743283       -74.6485
 109   2.0000      -2.743247       -74.6475
 110   2.0000      -2.743144       -74.6447
 111   2.0000      -2.743131       -74.6444
 112   2.0000      -1.154644       -31.4195
 113   2.0000      -1.147274       -31.2189
 114   2.0000      -1.105238       -30.0751
 115   2.0000      -1.042225       -28.3604
 116   2.0000      -1.039057       -28.2742
 117   2.0000      -1.035786       -28.1852
 118   2.0000      -1.031845       -28.0779
 119   2.0000      -1.026705       -27.9381
 120   2.0000      -1.022371       -27.8201
 121   2.0000      -1.011960       -27.5368
 122   2.0000      -1.009443       -27.4683
 123   2.0000      -1.006982       -27.4014
 124   2.0000      -1.006175       -27.3794
 125   2.0000      -1.004376       -27.3305
 126   2.0000      -1.003473       -27.3059
 127   2.0000      -0.998147       -27.1610
 128   2.0000      -0.991669       -26.9847
 129   2.0000      -0.981747       -26.7147
 130   2.0000      -0.976552       -26.5733
 131   2.0000      -0.962793       -26.1989
 132   2.0000      -0.960718       -26.1425
 133   2.0000      -0.957168       -26.0459
 134   2.0000      -0.925721       -25.1902
 135   2.0000      -0.923845       -25.1391
 136   2.0000      -0.921931       -25.0870
 137   2.0000      -0.917063       -24.9545
 138   2.0000      -0.911992       -24.8166
 139   2.0000      -0.904860       -24.6225
 140   2.0000      -0.902684       -24.5633
 141   2.0000      -0.898477       -24.4488
 142   2.0000      -0.891732       -24.2652
 143   2.0000      -0.887968       -24.1628
 144   2.0000      -0.880141       -23.9498
 145   2.0000      -0.868443       -23.6315
 146   2.0000      -0.864047       -23.5119
 147   2.0000      -0.850839       -23.1525
 148   2.0000      -0.846250       -23.0276
 149   2.0000      -0.846013       -23.0212
 150   2.0000      -0.844374       -22.9766
 151   2.0000      -0.834779       -22.7155
 152   2.0000      -0.824782       -22.4434
 153   2.0000      -0.810501       -22.0549
 154   2.0000      -0.797945       -21.7132
 155   2.0000      -0.794010       -21.6061
 156   2.0000      -0.783818       -21.3288
 157   2.0000      -0.782315       -21.2879
 158   2.0000      -0.775559       -21.1040
 159   2.0000      -0.774906       -21.0863
 160   2.0000      -0.748135       -20.3578
 161   2.0000      -0.737987       -20.0817
 162   2.0000      -0.734362       -19.9830
 163   2.0000      -0.731809       -19.9135
 164   2.0000      -0.724019       -19.7016
 165   2.0000      -0.721485       -19.6326
 166   2.0000      -0.714073       -19.4309
 167   2.0000      -0.708246       -19.2724
 168   2.0000      -0.706968       -19.2376
 169   2.0000      -0.701370       -19.0853
 170   2.0000      -0.700235       -19.0544
 171   2.0000      -0.694747       -18.9050
 172   2.0000      -0.679960       -18.5027
 173   2.0000      -0.677269       -18.4294
 174   2.0000      -0.674139       -18.3443
 175   2.0000      -0.659428       -17.9439
 176   2.0000      -0.657503       -17.8916
 177   2.0000      -0.649651       -17.6779
 178   2.0000      -0.643490       -17.5102
 179   2.0000      -0.641918       -17.4675
 180   2.0000      -0.641381       -17.4529
 181   2.0000      -0.639104       -17.3909
 182   2.0000      -0.636341       -17.3157
 183   2.0000      -0.631900       -17.1949
 184   2.0000      -0.618822       -16.8390
 185   2.0000      -0.618651       -16.8344
 186   2.0000      -0.614475       -16.7207
 187   2.0000      -0.607511       -16.5312
 188   2.0000      -0.604717       -16.4552
 189   2.0000      -0.602492       -16.3946
 190   2.0000      -0.592834       -16.1318
 191   2.0000      -0.589645       -16.0451
 192   2.0000      -0.585626       -15.9357
 193   2.0000      -0.582859       -15.8604
 194   2.0000      -0.579134       -15.7590
 195   2.0000      -0.576380       -15.6841
 196   2.0000      -0.571919       -15.5627
 197   2.0000      -0.567695       -15.4478
 198   2.0000      -0.566115       -15.4048
 199   2.0000      -0.560556       -15.2535
 200   2.0000      -0.557579       -15.1725
 201   2.0000      -0.554867       -15.0987
 202   2.0000      -0.550623       -14.9832
 203   2.0000      -0.547868       -14.9082
 204   2.0000      -0.546102       -14.8602
 205   2.0000      -0.543163       -14.7802
 206   2.0000      -0.542812       -14.7707
 207   2.0000      -0.539917       -14.6919
 208   2.0000      -0.537253       -14.6194
 209   2.0000      -0.536120       -14.5886
 210   2.0000      -0.534484       -14.5441
 211   2.0000      -0.532363       -14.4863
 212   2.0000      -0.531479       -14.4623
 213   2.0000      -0.529220       -14.4008
 214   2.0000      -0.522797       -14.2260
 215   2.0000      -0.520924       -14.1751
 216   2.0000      -0.517922       -14.0934
 217   2.0000      -0.517529       -14.0827
 218   2.0000      -0.510332       -13.8868
 219   2.0000      -0.509144       -13.8545
 220   2.0000      -0.505668       -13.7599
 221   2.0000      -0.503502       -13.7010
 222   2.0000      -0.502749       -13.6805
 223   2.0000      -0.501978       -13.6595
 224   2.0000      -0.498027       -13.5520
 225   2.0000      -0.496925       -13.5220
 226   2.0000      -0.491964       -13.3870
 227   2.0000      -0.491473       -13.3737
 228   2.0000      -0.488740       -13.2993
 229   2.0000      -0.486987       -13.2516
 230   2.0000      -0.486079       -13.2269
 231   2.0000      -0.484092       -13.1728
 232   2.0000      -0.480735       -13.0815
 233   2.0000      -0.478785       -13.0284
 234   2.0000      -0.475600       -12.9417
 235   2.0000      -0.474703       -12.9173
 236   2.0000      -0.472263       -12.8509
 237   2.0000      -0.469687       -12.7808
 238   2.0000      -0.467386       -12.7182
 239   2.0000      -0.467004       -12.7078
 240   2.0000      -0.460892       -12.5415
 241   2.0000      -0.460198       -12.5226
 242   2.0000      -0.459598       -12.5063
 243   2.0000      -0.457764       -12.4564
 244   2.0000      -0.455215       -12.3870
 245   2.0000      -0.454814       -12.3761
 246   2.0000      -0.453309       -12.3352
 247   2.0000      -0.452283       -12.3072
 248   2.0000      -0.451292       -12.2803
 249   2.0000      -0.449824       -12.2403
 250   2.0000      -0.446442       -12.1483
 251   2.0000      -0.443687       -12.0733
 252   2.0000      -0.440539       -11.9877
 253   2.0000      -0.437783       -11.9127
 254   2.0000      -0.435781       -11.8582
 255   2.0000      -0.434780       -11.8310
 256   2.0000      -0.433905       -11.8071
 257   2.0000      -0.433089       -11.7850
 258   2.0000      -0.431960       -11.7542
 259   2.0000      -0.428700       -11.6655
 260   2.0000      -0.424202       -11.5431
 261   2.0000      -0.422296       -11.4913
 262   2.0000      -0.418914       -11.3992
 263   2.0000      -0.415804       -11.3146
 264   2.0000      -0.412821       -11.2334
 265   2.0000      -0.408837       -11.1250
 266   2.0000      -0.405598       -11.0369
 267   2.0000      -0.403265       -10.9734
 268   2.0000      -0.399644       -10.8749
 269   2.0000      -0.393833       -10.7167
 270   2.0000      -0.390350       -10.6220
 271   2.0000      -0.387419       -10.5422
 272   2.0000      -0.384134       -10.4528
 273   2.0000      -0.381661       -10.3855
 274   2.0000      -0.367878       -10.0105
 275   2.0000      -0.365860        -9.9555
 276   2.0000      -0.361309        -9.8317
 277   2.0000      -0.354539        -9.6475
 278   2.0000      -0.351456        -9.5636
 279   2.0000      -0.338290        -9.2053
 280   2.0000      -0.332858        -9.0575
 281   2.0000      -0.330390        -8.9904
 282   2.0000      -0.325815        -8.8659
 283   2.0000      -0.323342        -8.7986
 284   2.0000      -0.312091        -8.4924
 285   2.0000      -0.305301        -8.3077
 286   2.0000      -0.304063        -8.2740
 287   2.0000      -0.297674        -8.1001
 288   2.0000      -0.295745        -8.0476
 289   2.0000      -0.285290        -7.7631
 290   0.0000      -0.118395        -3.2217
 291   0.0000      -0.113730        -3.0948
 292   0.0000      -0.104703        -2.8491
 293   0.0000      -0.098321        -2.6755
 294   0.0000      -0.083929        -2.2838

MULLIKEN ATOMIC CHARGES
-----------------------
   0 C :    0.290198
   1 C :   -0.337967
   2 C :   -0.188849
   3 N :    0.155345
   4 C :   -0.203087
   5 N :    0.173552
   6 C :    0.042776
   7 C :   -0.038432
   8 C :   -0.020808
   9 C :    0.107605
  10 C :   -0.080616
  11 C :   -0.059274
  12 S :    0.191755
  13 C :   -0.132686
  14 C :    0.029964
  15 Br:    0.034919
  16 C :    0.172197
  17 O :   -0.192075
  18 C :   -0.054744
  19 C :   -0.010344
  20 C :    0.015254
  21 C :   -0.011213
  22 C :   -0.177467
  23 C :    0.104179
  24 N :    0.049390
  25 C :   -0.045357
  26 C :    0.051321
  27 C :    0.025709
  28 C :   -0.073953
  29 C :   -0.027067
  30 C :   -0.119265
  31 C :   -0.007088
  32 C :   -0.140957
  33 N :    0.137519
  34 C :    0.097217
  35 C :    0.060084
  36 C :   -0.050413
  37 C :    0.044067
  38 C :    0.066859
  39 C :   -0.062835
  40 C :    0.035354
  41 C :    0.163679
  42 C :   -0.009234
  43 C :    0.051823
  44 C :    0.007328
  45 C :   -0.058345
  46 C :   -0.105401
  47 C :   -0.143986
  48 N :    0.155337
  49 C :   -0.013152
  50 C :   -0.033401
  51 C :    0.023562
  52 C :   -0.083863
  53 C :    0.223869
  54 C :   -0.192622
  55 C :    0.046976
  56 C :   -0.116990
  57 N :    0.178672
  58 C :    0.001083
  59 C :   -0.064886
  60 C :    0.284576
  61 C :   -0.325027
  62 C :   -0.177240
  63 N :    0.166579
  64 C :   -0.191490
  65 N :    0.149142
  66 C :    0.015621
  67 C :   -0.017354
  68 C :    0.156323
  69 O :   -0.152706
  70 C :   -0.050882
  71 C :    0.112543
  72 C :   -0.112179
  73 C :   -0.036182
  74 S :    0.180697
  75 C :   -0.124900
  76 C :    0.048757
  77 Br:    0.037770
  78 H :   -0.034505
  79 H :   -0.007812
  80 H :   -0.003912
  81 H :    0.048229
  82 H :    0.003489
  83 H :   -0.015190
  84 H :   -0.005947
  85 H :   -0.009578
  86 H :   -0.005137
  87 H :    0.006264
  88 H :    0.003057
  89 H :   -0.002865
  90 H :    0.026817
  91 H :    0.055237
  92 H :   -0.004901
  93 H :    0.007329
  94 H :    0.077286
  95 H :    0.007788
  96 H :    0.021912
  97 H :   -0.008186
  98 H :   -0.004756
  99 H :    0.000117
Sum of atomic charges:   -0.0000000

LOEWDIN ATOMIC CHARGES
----------------------
   0 C :    0.072408
   1 C :   -0.133336
   2 C :   -0.018559
   3 N :   -0.048195
   4 C :   -0.026546
   5 N :   -0.038282
   6 C :   -0.017081
   7 C :   -0.055452
   8 C :    0.029088
   9 C :   -0.040001
  10 C :   -0.145475
  11 C :   -0.014740
  12 S :    0.437671
  13 C :   -0.273089
  14 C :   -0.080135
  15 Br:    0.144420
  16 C :    0.095226
  17 O :   -0.150080
  18 C :   -0.096577
  19 C :    0.095658
  20 C :   -0.059479
  21 C :    0.041710
  22 C :   -0.121871
  23 C :    0.168659
  24 N :    0.000403
  25 C :   -0.024764
  26 C :   -0.029103
  27 C :   -0.047528
  28 C :   -0.025940
  29 C :   -0.006840
  30 C :   -0.073325
  31 C :    0.009280
  32 C :   -0.034749
  33 N :   -0.053600
  34 C :    0.061865
  35 C :   -0.010778
  36 C :    0.002873
  37 C :    0.000950
  38 C :    0.005116
  39 C :    0.000194
  40 C :   -0.011316
  41 C :    0.088745
  42 C :   -0.029627
  43 C :    0.078356
  44 C :   -0.032642
  45 C :    0.008907
  46 C :   -0.088950
  47 C :   -0.035129
  48 N :   -0.049399
  49 C :    0.024382
  50 C :   -0.063438
  51 C :    0.010821
  52 C :   -0.035390
  53 C :    0.069289
  54 C :   -0.056264
  55 C :    0.051516
  56 C :   -0.039085
  57 N :   -0.028481
  58 C :    0.053866
  59 C :   -0.061924
  60 C :    0.066640
  61 C :   -0.125988
  62 C :   -0.021490
  63 N :   -0.038608
  64 C :   -0.006277
  65 N :   -0.062031
  66 C :   -0.018563
  67 C :   -0.053276
  68 C :    0.090709
  69 O :   -0.144313
  70 C :    0.027733
  71 C :   -0.034095
  72 C :   -0.148803
  73 C :   -0.021303
  74 S :    0.440050
  75 C :   -0.268146
  76 C :   -0.067099
  77 Br:    0.147720
  78 H :    0.034227
  79 H :    0.041398
  80 H :    0.027464
  81 H :    0.051497
  82 H :    0.031555
  83 H :    0.026633
  84 H :    0.030045
  85 H :    0.035578
  86 H :    0.037434
  87 H :    0.038473
  88 H :    0.036503
  89 H :    0.032114
  90 H :    0.032338
  91 H :    0.041563
  92 H :    0.031961
  93 H :    0.036555
  94 H :    0.066928
  95 H :    0.043666
  96 H :    0.042326
  97 H :    0.042568
  98 H :    0.041198
  99 H :    0.040882

  Mayer bond orders larger than 0.100000
B(  0-C ,  1-C ) :   1.6608 B(  0-C ,  6-C ) :   1.0023 B(  0-C , 18-C ) :   1.0343
B(  1-C ,  2-C ) :   1.1358 B(  1-C ,  4-C ) :   1.1398 B(  2-C ,  3-N ) :   2.9720
B(  4-C ,  5-N ) :   2.9925 B(  6-C ,  7-C ) :   1.2670 B(  6-C , 11-C ) :   1.3931
B(  7-C ,  8-C ) :   1.4237 B(  7-C , 16-C ) :   0.9658 B(  8-C ,  9-C ) :   1.2553
B(  8-C , 78-H ) :   0.9934 B(  9-C , 10-C ) :   1.3201 B(  9-C , 14-C ) :   1.1673
B( 10-C , 11-C ) :   1.3052 B( 10-C , 12-S ) :   1.0892 B( 11-C , 79-H ) :   0.9836
B( 12-S , 13-C ) :   1.0880 B( 13-C , 14-C ) :   1.5979 B( 13-C , 15-Br) :   1.0302
B( 14-C , 80-H ) :   0.9966 B( 16-C , 17-O ) :   2.0432 B( 16-C , 18-C ) :   0.9747
B( 18-C , 19-C ) :   1.6087 B( 19-C , 20-C ) :   1.1047 B( 19-C , 81-H ) :   0.9318
B( 20-C , 21-C ) :   1.5114 B( 20-C , 26-C ) :   1.1766 B( 21-C , 22-C ) :   1.1280
B( 21-C , 82-H ) :   1.0058 B( 22-C , 23-C ) :   1.5840 B( 22-C , 25-C ) :   1.0681
B( 23-C , 24-N ) :   2.1797 B( 24-N , 53-C ) :   0.9972 B( 25-C , 26-C ) :   1.6201
B( 25-C , 83-H ) :   1.0241 B( 26-C , 27-C ) :   0.9265 B( 27-C , 28-C ) :   1.1315
B( 27-C , 31-C ) :   1.6304 B( 28-C , 29-C ) :   1.1083 B( 28-C , 34-C ) :   1.4513
B( 29-C , 30-C ) :   1.6197 B( 29-C , 84-H ) :   1.0134 B( 30-C , 31-C ) :   1.0957
B( 30-C , 32-C ) :   1.0616 B( 31-C , 85-H ) :   1.0287 B( 32-C , 33-N ) :   3.0419
B( 34-C , 35-C ) :   1.0882 B( 34-C , 42-C ) :   1.0382 B( 35-C , 36-C ) :   1.3503
B( 35-C , 40-C ) :   1.2816 B( 36-C , 37-C ) :   1.3699 B( 36-C , 86-H ) :   0.9960
B( 37-C , 38-C ) :   1.3693 B( 37-C , 87-H ) :   0.9900 B( 38-C , 39-C ) :   1.3610
B( 38-C , 88-H ) :   0.9807 B( 39-C , 40-C ) :   1.3686 B( 39-C , 89-H ) :   0.9846
B( 40-C , 41-C ) :   1.0645 B( 41-C , 42-C ) :   1.0241 B( 41-C , 44-C ) :   1.4770
B( 42-C , 43-C ) :   1.9052 B( 43-C , 90-H ) :   0.9259 B( 43-C , 91-H ) :   0.9137
B( 44-C , 45-C ) :   1.0978 B( 44-C , 50-C ) :   1.1471 B( 45-C , 46-C ) :   1.5933
B( 45-C , 92-H ) :   1.0092 B( 46-C , 47-C ) :   1.0613 B( 46-C , 49-C ) :   1.1532
B( 47-C , 48-N ) :   3.0560 B( 49-C , 50-C ) :   1.5578 B( 49-C , 93-H ) :   1.0202
B( 50-C , 51-C ) :   0.9170 B( 51-C , 52-C ) :   1.6626 B( 51-C , 55-C ) :   1.0578
B( 52-C , 53-C ) :   0.9653 B( 52-C , 58-C ) :   1.0925 B( 53-C , 54-C ) :   1.0086
B( 53-C , 94-H ) :   0.8695 B( 54-C , 55-C ) :   1.7172 B( 54-C , 56-C ) :   1.0912
B( 55-C , 95-H ) :   1.0213 B( 56-C , 57-N ) :   3.0401 B( 58-C , 59-C ) :   1.7023
B( 58-C , 96-H ) :   0.9012 B( 59-C , 60-C ) :   1.0579 B( 59-C , 68-C ) :   0.9274
B( 60-C , 61-C ) :   1.6341 B( 60-C , 66-C ) :   1.0154 B( 61-C , 62-C ) :   1.1302
B( 61-C , 64-C ) :   1.1841 B( 62-C , 63-N ) :   2.9590 B( 64-C , 65-N ) :   2.9392
B( 66-C , 67-C ) :   1.2750 B( 66-C , 73-C ) :   1.3996 B( 67-C , 68-C ) :   0.9338
B( 67-C , 70-C ) :   1.4210 B( 68-C , 69-O ) :   2.2006 B( 70-C , 71-C ) :   1.2367
B( 70-C , 97-H ) :   1.0236 B( 71-C , 72-C ) :   1.3060 B( 71-C , 76-C ) :   1.1629
B( 72-C , 73-C ) :   1.3149 B( 72-C , 74-S ) :   1.0836 B( 73-C , 98-H ) :   0.9856
B( 74-S , 75-C ) :   1.0819 B( 75-C , 76-C ) :   1.6119 B( 75-C , 77-Br) :   1.0290
B( 76-C , 99-H ) :   1.0032

-----------------------------------------------------------------------------
         ABSORPTION SPECTRUM VIA TRANSITION ELECTRIC DIPOLE MOMENTS
-----------------------------------------------------------------------------
State   Energy  Wavelength   fosc         T2         TX        TY        TZ
        (cm-1)    (nm)                  (au**2)     (au)      (au)      (au)
-----------------------------------------------------------------------------
   0   17621.2    567.5   0.059923840   1.11954  -0.72640   0.61876  -0.45719
   1   19233.8    519.9   0.103271469   1.76762  -0.88440   0.98190  -0.14607
   2   20368.7    491.0   0.010476487   0.16933   0.04694   0.40720  -0.03620
   3   20775.8    481.3   0.080394811   1.27393  -0.48172  -0.09045   1.01671
   4   20911.5    478.2   0.031645314   0.49820   0.33019  -0.62360  -0.01699
   5   21511.1    464.9   0.083894399   1.28394   0.94398  -0.54866  -0.30302
   6   22144.9    451.6   0.025155107   0.37396   0.06104  -0.58332  -0.17314
   7   22890.4    436.9   0.029456660   0.42365   0.42016  -0.35982   0.34298
   8   23168.4    431.6   0.093571513   1.32960  -0.15848   0.61057  -0.96524
   9   23392.3    427.5   0.097782873   1.37615  -0.10714  -1.07594   0.45501
  10   24146.6    414.1   0.075521371   1.02965  -0.72372   0.68915   0.17591
  11   24359.9    410.5   0.132126441   1.78562   0.29038  -0.93321   0.91128
  12   24601.2    406.5   0.182562923   2.44305   1.10736   1.01007  -0.44334
  13   24882.0    401.9   0.045636170   0.60381   0.45404  -0.36648   0.51318
  14   25546.9    391.4   0.079111509   1.01948  -0.78977  -0.52559   0.34568
  15   25992.2    384.7   0.012544039   0.15888  -0.05272  -0.37800   0.11496
  16   26197.2    381.7   0.038771245   0.48723   0.61406  -0.30962   0.11953
  17   26261.5    380.8   0.087260254   1.09389  -0.70010   0.60432  -0.48841
  18   26480.8    377.6   0.039059350   0.48559   0.39999  -0.50156   0.27210
  19   26531.3    376.9   0.033741634   0.41868   0.57843  -0.07307  -0.28065
  20   27394.6    365.0   0.257717223   3.09709  -1.75460  -0.08420   0.10668
  21   27613.4    362.1   0.074843116   0.89229   0.80912   0.11596   0.47348
  22   28171.7    355.0   0.025384927   0.29665   0.10666  -0.10111  -0.52445
  23   28382.3    352.3   0.043628829   0.50606   0.68286  -0.19920   0.00877
  24   28559.3    350.1   0.007130155   0.08219   0.21020  -0.17443   0.08708
  25   28660.7    348.9   0.044523175   0.51142   0.70717   0.04477   0.09653
  26   28863.9    346.5   0.116887462   1.33318  -0.80736   0.56562  -0.60117
  27   29069.1    344.0   0.127963825   1.44921  -1.19806  -0.05309   0.10513
  28   29162.9    342.9   0.161535796   1.82354  -1.20795   0.20446  -0.56797
  29   29270.3    341.6   0.001735261   0.01952   0.02803  -0.10983   0.08166
  30   29433.9    339.7   0.003779373   0.04227  -0.04105  -0.06796   0.18965
  31   29523.6    338.7   0.112536109   1.25487  -1.09588  -0.14097   0.18453
  32   29603.7    337.8   0.084395744   0.93853   0.92520   0.21770  -0.18747
  33   30001.7    333.3   0.025882107   0.28401  -0.48481  -0.21172   0.06437
  34   30184.4    331.3   0.001388108   0.01514  -0.08623   0.07669  -0.04269
  35   30284.5    330.2   0.012665171   0.13768   0.26101   0.24577  -0.09565
  36   30401.5    328.9   0.014752212   0.15975  -0.07618   0.06019   0.38772
  37   30712.1    325.6   0.013722822   0.14710   0.20132   0.19735   0.26004
  38   30737.2    325.3   0.029695205   0.31805   0.47980  -0.29235  -0.04875
  39   30961.6    323.0   0.170515428   1.81308  -0.19526   1.04921  -0.82104
  40   31417.5    318.3   0.045007344   0.47161   0.08718  -0.63808   0.23846
  41   31564.1    316.8   0.036782833   0.38364   0.60381  -0.08044   0.11216
  42   31729.5    315.2   0.055182857   0.57255  -0.21645   0.11850  -0.71531
  43   32123.6    311.3   0.106833615   1.09486   0.80913  -0.15005   0.64626
  44   32239.6    310.2   0.602764341   6.15507   1.63235   1.22174  -1.41346
  45   32315.4    309.5   0.116589047   1.18775  -0.78714  -0.43543   0.61527
  46   32581.5    306.9   0.044249544   0.44711  -0.06791   0.57943  -0.32673
  47   32763.4    305.2   0.046000242   0.46222  -0.61533  -0.28358   0.05629
  48   32901.4    303.9   0.137997039   1.38080   0.31364  -0.70964   0.88252
  49   32980.8    303.2   0.060930933   0.60821  -0.75259  -0.13662   0.15215
  50   33100.3    302.1   0.017760011   0.17664   0.32604   0.14885  -0.21950
  51   33215.1    301.1   0.035589529   0.35275   0.55993   0.19716  -0.01882
  52   33403.3    299.4   0.012105055   0.11930  -0.12703   0.29417  -0.12896
  53   33545.2    298.1   0.119702543   1.17476  -1.07091   0.16381   0.03277
  54   33560.0    298.0   0.038159998   0.37434   0.40712  -0.00869   0.45663
  55   33902.8    295.0   0.117739722   1.14331  -0.38204   0.56726  -0.82193
  56   34011.4    294.0   0.019655971   0.19026  -0.35972   0.17316  -0.17572
  57   34154.1    292.8   0.007332366   0.07068   0.19743  -0.17072   0.05054
  58   34349.3    291.1   0.290181529   2.78117  -1.35218  -0.51309   0.83036
  59   34562.5    289.3   0.033644828   0.32047   0.53239  -0.16903  -0.09195
  60   34758.0    287.7   0.079369555   0.75175   0.32387  -0.59405   0.54219
  61   34794.4    287.4   0.053860713   0.50961   0.38406   0.53737  -0.27080
  62   34912.6    286.4   0.040379606   0.38076   0.30419  -0.45669   0.28224
  63   35130.8    284.7   0.086915756   0.81449  -0.77876   0.20741  -0.40621
  64   35257.7    283.6   0.006865223   0.06410   0.09395   0.06152  -0.22691
  65   35459.5    282.0   0.076723855   0.71232  -0.81927  -0.17094   0.10907
  66   35558.7    281.2   0.007976275   0.07385  -0.17136  -0.09425  -0.18867
  67   35677.5    280.3   0.069893711   0.64494  -0.32379  -0.72470   0.12209
  68   36145.7    276.7   0.042168237   0.38406   0.10023  -0.59632   0.13571
  69   36344.3    275.1   0.115106188   1.04265  -0.66285   0.65017  -0.42492
  70   36440.7    274.4   0.030030853   0.27130  -0.37601  -0.35205  -0.07735
  71   36686.8    272.6   0.019986906   0.17935  -0.10096   0.25698  -0.32113
  72   36871.6    271.2   0.014448838   0.12901  -0.27466  -0.12425  -0.19527
  73   36994.6    270.3   0.068055427   0.60562  -0.56760  -0.50022   0.18229
  74   37050.9    269.9   0.026290793   0.23360  -0.02823  -0.40575   0.26111
  75   37301.6    268.1   0.086449529   0.76298   0.04637  -0.64048   0.59213
  76   37438.7    267.1   0.077587629   0.68226   0.72652   0.23706   0.31342
  77   37509.5    266.6   0.004247927   0.03728   0.09484   0.06403   0.15553
  78   37649.5    265.6   0.005665579   0.04954   0.17886  -0.02897  -0.12927
  79   37802.1    264.5   0.064624208   0.56280   0.28736   0.43118  -0.54250
  80   37910.3    263.8   0.032334779   0.28079   0.21596  -0.20276   0.43937
  81   38021.1    263.0   0.022470851   0.19457   0.02667  -0.43983   0.02012
  82   38122.5    262.3   0.015360105   0.13264   0.01524   0.20658  -0.29956
  83   38251.4    261.4   0.007578736   0.06523  -0.24566  -0.06982  -0.00105
  84   38556.4    259.4   0.014518347   0.12396  -0.33421  -0.02905  -0.10689
  85   38632.6    258.8   0.051130946   0.43572   0.18510  -0.49152   0.39983
  86   38767.9    257.9   0.001800891   0.01529  -0.04989  -0.09999   0.05298
  87   38780.4    257.9   0.031222084   0.26505   0.41777   0.04107   0.29804
  88   39030.5    256.2   0.000990389   0.00835   0.03092  -0.00570   0.08582
  89   39310.2    254.4   0.085516182   0.71617  -0.25076  -0.65412   0.47478
  90   39414.2    253.7   0.031556185   0.26358  -0.35453  -0.17721   0.32631
  91   39608.6    252.5   0.033337858   0.27709  -0.51729  -0.07071  -0.06709
  92   39762.7    251.5   0.055689819   0.46108  -0.59840  -0.29599  -0.12403
  93   39995.1    250.0   0.115210511   0.94833  -0.65994  -0.68658   0.20351
  94   40090.3    249.4   0.057512248   0.47228   0.57805  -0.24545   0.27909

FINAL SINGLE POINT ENERGY     -8980.368532079216

DIPOLE MOMENT
-------------
                                X             Y             Z
Electronic contribution:    161.37121      -1.25754     -20.46180
Nuclear contribution   :   -158.39088       0.70130      20.02453
                        -----------------------------------------
Total Dipole Moment    :      2.98032      -0.55624      -0.43727
                        -----------------------------------------
Magnitude (a.u.)       :      3.06316
Magnitude (Debye)      :      7.78593

Rotational constants in cm-1:     0.001149     0.000697     0.000542
Rotational constants in MHz :    34.446190    20.883462    16.247808

                             ****ORCA TERMINATED NORMALLY****
TOTAL RUN TIME: 0 days 0 hours 15 minutes 58 seconds 247 msec
