                         Program Version 4.2.0 -  RELEASE  -
|  1> # ORCA input file
|  2> # SCF done       -176.320340521181          0.000844215814
|  3> ! CAM-B3LYP def2-SVP def2/J RIJCOSX Grid4 TightSCF
|  4> %maxcore 5000
|  5> %tddft
|  6>     Mode sTDDFT
|  7>     Ethresh 5.0
|  8>     maxcore 5000
|  9> end
| 10>
| 11> %pal
| 12>   nprocs 6
| 13>   end
| 14> * xyz 0 1
| 15>    C       -3.43541        -0.99182        -1.92219
| 16>    C       -2.27690        -1.01364        -1.18544
| 17>    C       -1.75050        -2.16893        -0.57439
| 18>    N       -1.27399        -3.07617        -0.05572
| 19>    C       -1.44347         0.10100        -0.96566
| 20>    N       -0.71636         0.96365        -0.74826
| 21>    C       -4.30788        -2.13304        -2.17585
| 22>    C       -5.33217        -1.74100        -3.07356
| 23>    C       -6.31722        -2.59553        -3.50015
| 24>    C       -6.31323        -3.89709        -2.98627
| 25>    C       -5.29032        -4.28181        -2.08759
| 26>    C       -4.27783        -3.42345        -1.67746
| 27>    S       -5.47973        -5.93258        -1.57390
| 28>    C       -6.91376        -6.07659        -2.55576
| 29>    C       -7.23398        -4.95136        -3.23674
| 30>   Br       -7.85316        -7.69999        -2.58711
| 31>    C       -5.13151        -0.32747        -3.44324
| 32>    O       -5.61243         0.25613        -4.38715
| 33>    C       -4.04072         0.16016        -2.55944
| 34>    C       -3.69842         1.46839        -2.43564
| 35>    C       -4.56308         2.56645        -2.74771
| 36>    C       -4.06038         3.82154        -3.09694
| 37>    C       -4.84505         4.99522        -3.18118
| 38>    N       -4.13206         6.10491        -3.52739
| 39>    C       -2.89898         5.84626        -3.71547
| 40>    S       -2.41089         4.18581        -3.48930
| 41>    C       -6.22955         4.96318        -2.91632
| 42>    C       -6.74190         3.69185        -2.64057
| 43>    C       -5.95639         2.52156        -2.53394
| 44>    N       -6.64348         1.42407        -2.11118
| 45>    C       -7.88097         1.67249        -1.93895
| 46>    S       -8.39327         3.30804        -2.24693
| 47>    C       -7.07283         6.12966        -2.90425
| 48>    C       -6.59700         7.38029        -2.74465
| 49>    C       -7.26948         8.64467        -2.85089
| 50>    C       -8.35910         8.95123        -3.57542
| 51>    C       -9.21544         7.93275        -4.25589
| 52>    C       -8.73089        10.40178        -3.83374
| 53>    N       -7.62530        11.33585        -3.82944
| 54>    C       -6.46190        11.11270        -4.50041
| 55>    C       -6.25123        10.07385        -5.34445
| 56>    C       -4.99640         9.67055        -5.85123
| 57>    C       -4.79320         8.38005        -6.26047
| 58>    C       -3.59649         7.73410        -6.65656
| 59>    C       -3.70788         6.38493        -6.81258
| 60>    C       -5.00304         5.88044        -6.55419
| 61>    S       -6.09222         7.19029        -6.17772
| 62>    C       -5.45722         4.58023        -6.50890
| 63>    C       -4.78055         3.37604        -6.80436
| 64>    C       -5.54715         2.26611        -6.63758
| 65>    C       -6.87643         2.51664        -6.19244
| 66>    S       -7.10756         4.24346        -6.01738
| 67>    C       -7.76477         1.53560        -5.85450
| 68>    C       -9.04311         1.62035        -5.22992
| 69>    C       -9.92180         2.71339        -5.28961
| 70>    O       -9.57246         3.63927        -6.21831
| 71>    C      -10.28596         4.83100        -6.44684
| 72>    C      -11.08831         2.76720        -4.46394
| 73>    O      -11.83213         3.91353        -4.53093
| 74>    C      -12.97067         4.03043        -3.71387
| 75>    C      -11.42904         1.71986        -3.63814
| 76>    C      -10.63345         0.56843        -3.63702
| 77>    C       -9.44743         0.50474        -4.44558
| 78>    N       -8.81933        -0.65706        -4.31848
| 79>    S       -9.64144        -1.58240        -3.27614
| 80>    N      -10.83351        -0.54577        -2.93578
| 81>    H       -7.07472        -2.25948        -4.19012
| 82>    H       -3.51941        -3.76535        -0.99297
| 83>    H       -8.08448        -4.86242        -3.88762
| 84>    H       -2.74346         1.74468        -2.00466
| 85>    H       -2.17702         6.58663        -3.99861
| 86>    H       -8.59058         0.94575        -1.59474
| 87>    H       -8.13092         5.92224        -2.95711
| 88>    H       -5.53489         7.47771        -2.56272
| 89>    H       -6.71908         9.46550        -2.40737
| 90>    H       -9.85566         7.42989        -3.53110
| 91>    H       -8.58904         7.17916        -4.73330
| 92>    H       -9.85371         8.39035        -5.00856
| 93>    H       -9.45513        10.73951        -3.08606
| 94>    H       -9.22366        10.45504        -4.81298
| 95>    H       -7.60206        12.01709        -3.09005
| 96>    H       -5.66992        11.81667        -4.28283
| 97>    H       -7.06413         9.39352        -5.54500
| 98>    H       -4.15474        10.34828        -5.81561
| 99>    H       -2.68224         8.28657        -6.79088
|100>    H       -2.89395         5.73522        -7.08402
|101>    H       -3.75792         3.36586        -7.13980
|102>    H       -5.20668         1.25881        -6.79270
|103>    H       -7.38226         0.52669        -5.92517
|104>    H      -10.33173         5.45832        -5.55591
|105>    H      -11.29734         4.62980        -6.80593
|106>    H       -9.71670         5.34623        -7.22075
|107>    H      -13.71649         3.26448        -3.94788
|108>    H      -13.38354         5.01411        -3.93435
|109>    H      -12.71029         3.97488        -2.65222
|110>    H      -12.29600         1.74450        -3.00221
|111> *
|112>
|113>                          ****END OF INPUT****

CARTESIAN COORDINATES (ANGSTROEM)
---------------------------------
  C     -3.435410   -0.991820   -1.922190
  C     -2.276900   -1.013640   -1.185440
  C     -1.750500   -2.168930   -0.574390
  N     -1.273990   -3.076170   -0.055720
  C     -1.443470    0.101000   -0.965660
  N     -0.716360    0.963650   -0.748260
  C     -4.307880   -2.133040   -2.175850
  C     -5.332170   -1.741000   -3.073560
  C     -6.317220   -2.595530   -3.500150
  C     -6.313230   -3.897090   -2.986270
  C     -5.290320   -4.281810   -2.087590
  C     -4.277830   -3.423450   -1.677460
  S     -5.479730   -5.932580   -1.573900
  C     -6.913760   -6.076590   -2.555760
  C     -7.233980   -4.951360   -3.236740
  Br    -7.853160   -7.699990   -2.587110
  C     -5.131510   -0.327470   -3.443240
  O     -5.612430    0.256130   -4.387150
  C     -4.040720    0.160160   -2.559440
  C     -3.698420    1.468390   -2.435640
  C     -4.563080    2.566450   -2.747710
  C     -4.060380    3.821540   -3.096940
  C     -4.845050    4.995220   -3.181180
  N     -4.132060    6.104910   -3.527390
  C     -2.898980    5.846260   -3.715470
  S     -2.410890    4.185810   -3.489300
  C     -6.229550    4.963180   -2.916320
  C     -6.741900    3.691850   -2.640570
  C     -5.956390    2.521560   -2.533940
  N     -6.643480    1.424070   -2.111180
  C     -7.880970    1.672490   -1.938950
  S     -8.393270    3.308040   -2.246930
  C     -7.072830    6.129660   -2.904250
  C     -6.597000    7.380290   -2.744650
  C     -7.269480    8.644670   -2.850890
  C     -8.359100    8.951230   -3.575420
  C     -9.215440    7.932750   -4.255890
  C     -8.730890   10.401780   -3.833740
  N     -7.625300   11.335850   -3.829440
  C     -6.461900   11.112700   -4.500410
  C     -6.251230   10.073850   -5.344450
  C     -4.996400    9.670550   -5.851230
  C     -4.793200    8.380050   -6.260470
  C     -3.596490    7.734100   -6.656560
  C     -3.707880    6.384930   -6.812580
  C     -5.003040    5.880440   -6.554190
  S     -6.092220    7.190290   -6.177720
  C     -5.457220    4.580230   -6.508900
  C     -4.780550    3.376040   -6.804360
  C     -5.547150    2.266110   -6.637580
  C     -6.876430    2.516640   -6.192440
  S     -7.107560    4.243460   -6.017380
  C     -7.764770    1.535600   -5.854500
  C     -9.043110    1.620350   -5.229920
  C     -9.921800    2.713390   -5.289610
  O     -9.572460    3.639270   -6.218310
  C    -10.285960    4.831000   -6.446840
  C    -11.088310    2.767200   -4.463940
  O    -11.832130    3.913530   -4.530930
  C    -12.970670    4.030430   -3.713870
  C    -11.429040    1.719860   -3.638140
  C    -10.633450    0.568430   -3.637020
  C     -9.447430    0.504740   -4.445580
  N     -8.819330   -0.657060   -4.318480
  S     -9.641440   -1.582400   -3.276140
  N    -10.833510   -0.545770   -2.935780
  H     -7.074720   -2.259480   -4.190120
  H     -3.519410   -3.765350   -0.992970
  H     -8.084480   -4.862420   -3.887620
  H     -2.743460    1.744680   -2.004660
  H     -2.177020    6.586630   -3.998610
  H     -8.590580    0.945750   -1.594740
  H     -8.130920    5.922240   -2.957110
  H     -5.534890    7.477710   -2.562720
  H     -6.719080    9.465500   -2.407370
  H     -9.855660    7.429890   -3.531100
  H     -8.589040    7.179160   -4.733300
  H     -9.853710    8.390350   -5.008560
  H     -9.455130   10.739510   -3.086060
  H     -9.223660   10.455040   -4.812980
  H     -7.602060   12.017090   -3.090050
  H     -5.669920   11.816670   -4.282830
  H     -7.064130    9.393520   -5.545000
  H     -4.154740   10.348280   -5.815610
  H     -2.682240    8.286570   -6.790880
  H     -2.893950    5.735220   -7.084020
  H     -3.757920    3.365860   -7.139800
  H     -5.206680    1.258810   -6.792700
  H     -7.382260    0.526690   -5.925170
  H    -10.331730    5.458320   -5.555910
  H    -11.297340    4.629800   -6.805930
  H     -9.716700    5.346230   -7.220750
  H    -13.716490    3.264480   -3.947880
  H    -13.383540    5.014110   -3.934350
  H    -12.710290    3.974880   -2.652220
  H    -12.296000    1.744500   -3.002210

 Total Charge           Charge          ....    0
 Multiplicity           Mult            ....    1
 Number of Electrons    NEL             ....  528
 Basis Dimension        Dim             .... 1116

ORBITAL ENERGIES
----------------

  NO   OCC          E(Eh)            E(eV)
   0   2.0000    -482.878266    -13139.7856
   1   2.0000     -89.005425     -2421.9608
   2   2.0000     -88.966121     -2420.8912
   3   2.0000     -88.958406     -2420.6813
   4   2.0000     -88.956601     -2420.6322
   5   2.0000     -88.921653     -2419.6812
   6   2.0000     -88.920608     -2419.6528
   7   2.0000     -62.556013     -1702.2356
   8   2.0000     -56.389958     -1534.4488
   9   2.0000     -56.387245     -1534.3749
  10   2.0000     -56.387221     -1534.3743
  11   2.0000     -19.258648      -524.0545
  12   2.0000     -19.244401      -523.6668
  13   2.0000     -19.197281      -522.3846
  14   2.0000     -14.436992      -392.8505
  15   2.0000     -14.423289      -392.4777
  16   2.0000     -14.421894      -392.4397
  17   2.0000     -14.407899      -392.0589
  18   2.0000     -14.407586      -392.0504
  19   2.0000     -14.406024      -392.0078
  20   2.0000     -14.404897      -391.9772
  21   2.0000     -10.350613      -281.6545
  22   2.0000     -10.350339      -281.6471
  23   2.0000     -10.348828      -281.6059
  24   2.0000     -10.336695      -281.2758
  25   2.0000     -10.333183      -281.1802
  26   2.0000     -10.332930      -281.1733
  27   2.0000     -10.331117      -281.1240
  28   2.0000     -10.330838      -281.1164
  29   2.0000     -10.330231      -281.0999
  30   2.0000     -10.315561      -280.7007
  31   2.0000     -10.315146      -280.6894
  32   2.0000     -10.310589      -280.5654
  33   2.0000     -10.309837      -280.5449
  34   2.0000     -10.309092      -280.5247
  35   2.0000     -10.308970      -280.5213
  36   2.0000     -10.308868      -280.5186
  37   2.0000     -10.308144      -280.4988
  38   2.0000     -10.307223      -280.4738
  39   2.0000     -10.306024      -280.4412
  40   2.0000     -10.304129      -280.3896
  41   2.0000     -10.302017      -280.3321
  42   2.0000     -10.299676      -280.2684
  43   2.0000     -10.297009      -280.1959
  44   2.0000     -10.296689      -280.1872
  45   2.0000     -10.294830      -280.1366
  46   2.0000     -10.294217      -280.1199
  47   2.0000     -10.289744      -279.9982
  48   2.0000     -10.288900      -279.9752
  49   2.0000     -10.287926      -279.9487
  50   2.0000     -10.284777      -279.8630
  51   2.0000     -10.283766      -279.8355
  52   2.0000     -10.281626      -279.7773
  53   2.0000     -10.281523      -279.7745
  54   2.0000     -10.281455      -279.7726
  55   2.0000     -10.278840      -279.7015
  56   2.0000     -10.278508      -279.6924
  57   2.0000     -10.275007      -279.5972
  58   2.0000     -10.270660      -279.4789
  59   2.0000     -10.270253      -279.4678
  60   2.0000     -10.269776      -279.4548
  61   2.0000     -10.268064      -279.4082
  62   2.0000     -10.266944      -279.3777
  63   2.0000     -10.265682      -279.3434
  64   2.0000     -10.265161      -279.3292
  65   2.0000     -10.260756      -279.2094
  66   2.0000     -10.260255      -279.1957
  67   2.0000     -10.254844      -279.0485
  68   2.0000     -10.249447      -278.9016
  69   2.0000     -10.249016      -278.8899
  70   2.0000      -8.785458      -239.0645
  71   2.0000      -8.097078      -220.3327
  72   2.0000      -8.062110      -219.3812
  73   2.0000      -8.054592      -219.1766
  74   2.0000      -8.051945      -219.1046
  75   2.0000      -8.017266      -218.1609
  76   2.0000      -8.014746      -218.0923
  77   2.0000      -6.621731      -180.1865
  78   2.0000      -6.607207      -179.7912
  79   2.0000      -6.607015      -179.7860
  80   2.0000      -6.068428      -165.1303
  81   2.0000      -6.060873      -164.9247
  82   2.0000      -6.059064      -164.8755
  83   2.0000      -6.031821      -164.1342
  84   2.0000      -6.027545      -164.0178
  85   2.0000      -6.023863      -163.9177
  86   2.0000      -6.023302      -163.9024
  87   2.0000      -6.021299      -163.8479
  88   2.0000      -6.019797      -163.8070
  89   2.0000      -6.017236      -163.7373
  90   2.0000      -6.016481      -163.7168
  91   2.0000      -6.013854      -163.6453
  92   2.0000      -5.987073      -162.9165
  93   2.0000      -5.984603      -162.8493
  94   2.0000      -5.983093      -162.8082
  95   2.0000      -5.980407      -162.7351
  96   2.0000      -5.978138      -162.6734
  97   2.0000      -5.975902      -162.6126
  98   2.0000      -2.737574       -74.4932
  99   2.0000      -2.733550       -74.3837
 100   2.0000      -2.733400       -74.3796
 101   2.0000      -2.721850       -74.0653
 102   2.0000      -2.721839       -74.0650
 103   2.0000      -1.166675       -31.7468
 104   2.0000      -1.141944       -31.0739
 105   2.0000      -1.114967       -30.3398
 106   2.0000      -1.106095       -30.0984
 107   2.0000      -1.067425       -29.0461
 108   2.0000      -1.060307       -28.8524
 109   2.0000      -1.034016       -28.1370
 110   2.0000      -1.011972       -27.5372
 111   2.0000      -1.003172       -27.2977
 112   2.0000      -0.984009       -26.7762
 113   2.0000      -0.978275       -26.6202
 114   2.0000      -0.971944       -26.4479
 115   2.0000      -0.962908       -26.2021
 116   2.0000      -0.950371       -25.8609
 117   2.0000      -0.948097       -25.7990
 118   2.0000      -0.941840       -25.6288
 119   2.0000      -0.934297       -25.4235
 120   2.0000      -0.925081       -25.1727
 121   2.0000      -0.907131       -24.6843
 122   2.0000      -0.898196       -24.4412
 123   2.0000      -0.886446       -24.1214
 124   2.0000      -0.885142       -24.0859
 125   2.0000      -0.876354       -23.8468
 126   2.0000      -0.874814       -23.8049
 127   2.0000      -0.867771       -23.6132
 128   2.0000      -0.860014       -23.4022
 129   2.0000      -0.854764       -23.2593
 130   2.0000      -0.846119       -23.0241
 131   2.0000      -0.838815       -22.8253
 132   2.0000      -0.822953       -22.3937
 133   2.0000      -0.818908       -22.2836
 134   2.0000      -0.818426       -22.2705
 135   2.0000      -0.813484       -22.1360
 136   2.0000      -0.807015       -21.9600
 137   2.0000      -0.803685       -21.8694
 138   2.0000      -0.794691       -21.6246
 139   2.0000      -0.784498       -21.3473
 140   2.0000      -0.780811       -21.2469
 141   2.0000      -0.774061       -21.0633
 142   2.0000      -0.753997       -20.5173
 143   2.0000      -0.747557       -20.3421
 144   2.0000      -0.743845       -20.2411
 145   2.0000      -0.731270       -19.8989
 146   2.0000      -0.718105       -19.5406
 147   2.0000      -0.702426       -19.1140
 148   2.0000      -0.697410       -18.9775
 149   2.0000      -0.686452       -18.6793
 150   2.0000      -0.683557       -18.6005
 151   2.0000      -0.680910       -18.5285
 152   2.0000      -0.675639       -18.3851
 153   2.0000      -0.671632       -18.2760
 154   2.0000      -0.665312       -18.1041
 155   2.0000      -0.650494       -17.7008
 156   2.0000      -0.649483       -17.6733
 157   2.0000      -0.646677       -17.5970
 158   2.0000      -0.643633       -17.5142
 159   2.0000      -0.634811       -17.2741
 160   2.0000      -0.632627       -17.2146
 161   2.0000      -0.622753       -16.9460
 162   2.0000      -0.618514       -16.8306
 163   2.0000      -0.614188       -16.7129
 164   2.0000      -0.611874       -16.6499
 165   2.0000      -0.605578       -16.4786
 166   2.0000      -0.603823       -16.4309
 167   2.0000      -0.599588       -16.3156
 168   2.0000      -0.588381       -16.0107
 169   2.0000      -0.586305       -15.9542
 170   2.0000      -0.583914       -15.8891
 171   2.0000      -0.577679       -15.7194
 172   2.0000      -0.576659       -15.6917
 173   2.0000      -0.573825       -15.6146
 174   2.0000      -0.568528       -15.4704
 175   2.0000      -0.565153       -15.3786
 176   2.0000      -0.560007       -15.2386
 177   2.0000      -0.551290       -15.0014
 178   2.0000      -0.543657       -14.7937
 179   2.0000      -0.540027       -14.6949
 180   2.0000      -0.539310       -14.6754
 181   2.0000      -0.537529       -14.6269
 182   2.0000      -0.533851       -14.5268
 183   2.0000      -0.530415       -14.4333
 184   2.0000      -0.528691       -14.3864
 185   2.0000      -0.526685       -14.3318
 186   2.0000      -0.524835       -14.2815
 187   2.0000      -0.523707       -14.2508
 188   2.0000      -0.519840       -14.1456
 189   2.0000      -0.514431       -13.9984
 190   2.0000      -0.514008       -13.9869
 191   2.0000      -0.511356       -13.9147
 192   2.0000      -0.510429       -13.8895
 193   2.0000      -0.508485       -13.8366
 194   2.0000      -0.502482       -13.6732
 195   2.0000      -0.499543       -13.5933
 196   2.0000      -0.498250       -13.5581
 197   2.0000      -0.494188       -13.4475
 198   2.0000      -0.493403       -13.4262
 199   2.0000      -0.491296       -13.3688
 200   2.0000      -0.483085       -13.1454
 201   2.0000      -0.481602       -13.1051
 202   2.0000      -0.481212       -13.0944
 203   2.0000      -0.477204       -12.9854
 204   2.0000      -0.476442       -12.9646
 205   2.0000      -0.473505       -12.8847
 206   2.0000      -0.466967       -12.7068
 207   2.0000      -0.466054       -12.6820
 208   2.0000      -0.464632       -12.6433
 209   2.0000      -0.463740       -12.6190
 210   2.0000      -0.459940       -12.5156
 211   2.0000      -0.459623       -12.5070
 212   2.0000      -0.452344       -12.3089
 213   2.0000      -0.450348       -12.2546
 214   2.0000      -0.448353       -12.2003
 215   2.0000      -0.447347       -12.1729
 216   2.0000      -0.443948       -12.0805
 217   2.0000      -0.440780       -11.9942
 218   2.0000      -0.439543       -11.9606
 219   2.0000      -0.437183       -11.8964
 220   2.0000      -0.435141       -11.8408
 221   2.0000      -0.434501       -11.8234
 222   2.0000      -0.432034       -11.7563
 223   2.0000      -0.429604       -11.6901
 224   2.0000      -0.428763       -11.6672
 225   2.0000      -0.424598       -11.5539
 226   2.0000      -0.419331       -11.4106
 227   2.0000      -0.417102       -11.3499
 228   2.0000      -0.415592       -11.3088
 229   2.0000      -0.413383       -11.2487
 230   2.0000      -0.411416       -11.1952
 231   2.0000      -0.408270       -11.1096
 232   2.0000      -0.403960       -10.9923
 233   2.0000      -0.399379       -10.8677
 234   2.0000      -0.397706       -10.8221
 235   2.0000      -0.395404       -10.7595
 236   2.0000      -0.392285       -10.6746
 237   2.0000      -0.390028       -10.6132
 238   2.0000      -0.381580       -10.3833
 239   2.0000      -0.380342       -10.3496
 240   2.0000      -0.375782       -10.2256
 241   2.0000      -0.368217       -10.0197
 242   2.0000      -0.367805       -10.0085
 243   2.0000      -0.362669        -9.8687
 244   2.0000      -0.361985        -9.8501
 245   2.0000      -0.358206        -9.7473
 246   2.0000      -0.354021        -9.6334
 247   2.0000      -0.351359        -9.5610
 248   2.0000      -0.343522        -9.3477
 249   2.0000      -0.340772        -9.2729
 250   2.0000      -0.331763        -9.0277
 251   2.0000      -0.321084        -8.7371
 252   2.0000      -0.320024        -8.7083
 253   2.0000      -0.312927        -8.5152
 254   2.0000      -0.303867        -8.2686
 255   2.0000      -0.301420        -8.2021
 256   2.0000      -0.299308        -8.1446
 257   2.0000      -0.292440        -7.9577
 258   2.0000      -0.289058        -7.8657
 259   2.0000      -0.282998        -7.7008
 260   2.0000      -0.278697        -7.5837
 261   2.0000      -0.248663        -6.7665
 262   2.0000      -0.245816        -6.6890
 263   2.0000      -0.188107        -5.1187
 264   0.0000      -0.083192        -2.2638
 265   0.0000      -0.057878        -1.5749
 266   0.0000      -0.047078        -1.2811
 267   0.0000      -0.027329        -0.7437
 268   0.0000      -0.021093        -0.5740

MULLIKEN ATOMIC CHARGES
-----------------------
   0 C :    0.303758
   1 C :   -0.354780
   2 C :   -0.184956
   3 N :    0.145859
   4 C :   -0.179014
   5 N :    0.139564
   6 C :    0.024545
   7 C :   -0.013065
   8 C :   -0.090876
   9 C :    0.127979
  10 C :   -0.088983
  11 C :   -0.034393
  12 S :    0.180098
  13 C :   -0.123208
  14 C :    0.034313
  15 Br:    0.017191
  16 C :    0.169680
  17 O :   -0.140724
  18 C :   -0.056071
  19 C :   -0.103079
  20 C :    0.056208
  21 C :   -0.099722
  22 C :    0.025123
  23 N :   -0.071445
  24 C :    0.031509
  25 S :    0.105517
  26 C :    0.089019
  27 C :   -0.112102
  28 C :    0.059118
  29 N :   -0.071727
  30 C :    0.037877
  31 S :    0.079754
  32 C :   -0.092453
  33 C :    0.043712
  34 C :    0.084354
  35 C :   -0.282926
  36 C :    0.071315
  37 C :    0.216161
  38 N :   -0.161595
  39 C :    0.048389
  40 C :   -0.013277
  41 C :   -0.007227
  42 C :   -0.023390
  43 C :    0.025846
  44 C :    0.031891
  45 C :   -0.045572
  46 S :    0.024359
  47 C :   -0.051911
  48 C :    0.029358
  49 C :    0.051469
  50 C :    0.002052
  51 S :    0.052108
  52 C :   -0.049452
  53 C :    0.019245
  54 C :    0.097713
  55 O :   -0.319357
  56 C :    0.213302
  57 C :    0.242450
  58 O :   -0.331772
  59 C :    0.182196
  60 C :   -0.222645
  61 C :    0.046422
  62 C :    0.012760
  63 N :   -0.269212
  64 S :    0.445891
  65 N :   -0.268296
  66 H :   -0.012570
  67 H :   -0.007091
  68 H :   -0.006608
  69 H :    0.026127
  70 H :    0.035041
  71 H :    0.039347
  72 H :   -0.027570
  73 H :    0.015336
  74 H :   -0.034724
  75 H :    0.040120
  76 H :    0.053026
  77 H :    0.000052
  78 H :    0.028469
  79 H :    0.016118
  80 H :    0.124071
  81 H :   -0.002617
  82 H :    0.003072
  83 H :   -0.026353
  84 H :   -0.024138
  85 H :   -0.024612
  86 H :   -0.028006
  87 H :   -0.017176
  88 H :    0.007270
  89 H :    0.016302
  90 H :    0.017484
  91 H :    0.031490
  92 H :    0.030623
  93 H :    0.035297
  94 H :    0.027689
  95 H :   -0.040345
Sum of atomic charges:   -0.0000000

LOEWDIN ATOMIC CHARGES
----------------------
   0 C :    0.079829
   1 C :   -0.144703
   2 C :   -0.018409
   3 N :   -0.059278
   4 C :   -0.018117
   5 N :   -0.056855
   6 C :   -0.019530
   7 C :   -0.040888
   8 C :    0.013032
   9 C :   -0.034009
  10 C :   -0.144891
  11 C :   -0.012623
  12 S :    0.426418
  13 C :   -0.272872
  14 C :   -0.072371
  15 Br:    0.131812
  16 C :    0.090522
  17 O :   -0.123933
  18 C :   -0.075882
  19 C :    0.061435
  20 C :   -0.058711
  21 C :   -0.148050
  22 C :   -0.033597
  23 N :   -0.073033
  24 C :   -0.102674
  25 S :    0.401979
  26 C :   -0.013214
  27 C :   -0.168958
  28 C :   -0.005051
  29 N :   -0.079424
  30 C :   -0.091955
  31 S :    0.406344
  32 C :   -0.048153
  33 C :    0.010213
  34 C :   -0.046209
  35 C :   -0.029260
  36 C :   -0.057876
  37 C :    0.039374
  38 N :   -0.010006
  39 C :    0.037257
  40 C :   -0.118460
  41 C :   -0.037613
  42 C :   -0.164884
  43 C :   -0.033674
  44 C :   -0.048843
  45 C :   -0.172498
  46 S :    0.373783
  47 C :   -0.199588
  48 C :   -0.043880
  49 C :   -0.024794
  50 C :   -0.133482
  51 S :    0.398348
  52 C :   -0.053515
  53 C :   -0.061137
  54 C :    0.028493
  55 O :   -0.090124
  56 C :    0.071261
  57 C :    0.046486
  58 O :   -0.095562
  59 C :    0.078007
  60 C :   -0.108485
  61 C :   -0.062031
  62 C :   -0.046649
  63 N :   -0.277798
  64 S :    0.595801
  65 N :   -0.300103
  66 H :    0.029780
  67 H :    0.040080
  68 H :    0.036354
  69 H :    0.038105
  70 H :    0.017476
  71 H :    0.017236
  72 H :    0.015358
  73 H :    0.032587
  74 H :    0.020538
  75 H :    0.036285
  76 H :    0.034520
  77 H :    0.023772
  78 H :    0.038400
  79 H :    0.024771
  80 H :    0.077818
  81 H :    0.025237
  82 H :    0.016094
  83 H :    0.026952
  84 H :    0.027901
  85 H :    0.026416
  86 H :    0.026332
  87 H :    0.030802
  88 H :    0.035569
  89 H :    0.010500
  90 H :    0.014652
  91 H :    0.020143
  92 H :    0.019036
  93 H :    0.028289
  94 H :    0.017975
  95 H :    0.034281

  Mayer bond orders larger than 0.100000
B(  0-C ,  1-C ) :   1.6249 B(  0-C ,  6-C ) :   1.0073 B(  0-C , 18-C ) :   1.0773
B(  1-C ,  2-C ) :   1.1389 B(  1-C ,  4-C ) :   1.1494 B(  2-C ,  3-N ) :   2.9726
B(  4-C ,  5-N ) :   2.9603 B(  6-C ,  7-C ) :   1.2744 B(  6-C , 11-C ) :   1.4000
B(  7-C ,  8-C ) :   1.4428 B(  7-C , 16-C ) :   0.9279 B(  8-C ,  9-C ) :   1.2292
B(  8-C , 66-H ) :   1.0023 B(  9-C , 10-C ) :   1.3078 B(  9-C , 14-C ) :   1.1610
B( 10-C , 11-C ) :   1.3353 B( 10-C , 12-S ) :   1.0813 B( 11-C , 67-H ) :   0.9813
B( 12-S , 13-C ) :   1.0855 B( 13-C , 14-C ) :   1.6199 B( 13-C , 15-Br) :   1.0153
B( 14-C , 68-H ) :   0.9997 B( 16-C , 17-O ) :   2.1915 B( 16-C , 18-C ) :   0.9265
B( 18-C , 19-C ) :   1.6549 B( 19-C , 20-C ) :   1.1009 B( 19-C , 69-H ) :   0.9323
B( 20-C , 21-C ) :   1.3476 B( 20-C , 28-C ) :   1.3107 B( 21-C , 22-C ) :   1.2971
B( 21-C , 25-S ) :   1.0871 B( 22-C , 23-N ) :   1.2962 B( 22-C , 26-C ) :   1.3047
B( 23-N , 24-C ) :   1.7560 B( 23-N , 25-S ) :   0.1070 B( 24-C , 25-S ) :   1.0975
B( 24-C , 70-H ) :   0.9588 B( 26-C , 27-C ) :   1.3342 B( 26-C , 32-C ) :   1.1094
B( 27-C , 28-C ) :   1.3115 B( 27-C , 31-S ) :   1.0625 B( 28-C , 29-N ) :   1.3046
B( 29-N , 30-C ) :   1.7506 B( 29-N , 31-S ) :   0.1047 B( 30-C , 31-S ) :   1.1258
B( 30-C , 71-H ) :   0.9536 B( 32-C , 33-C ) :   1.7048 B( 32-C , 72-H ) :   0.9599
B( 33-C , 34-C ) :   1.1468 B( 33-C , 73-H ) :   0.9400 B( 34-C , 35-C ) :   1.8063
B( 34-C , 74-H ) :   0.9348 B( 35-C , 36-C ) :   1.0834 B( 35-C , 37-C ) :   0.9954
B( 36-C , 75-H ) :   0.9473 B( 36-C , 76-H ) :   0.9321 B( 36-C , 77-H ) :   0.9447
B( 37-C , 38-N ) :   1.0454 B( 37-C , 78-H ) :   0.9349 B( 37-C , 79-H ) :   0.9344
B( 38-N , 39-C ) :   1.1988 B( 38-N , 80-H ) :   0.9429 B( 39-C , 40-C ) :   1.6443
B( 39-C , 81-H ) :   0.9692 B( 40-C , 41-C ) :   1.1573 B( 40-C , 82-H ) :   0.9430
B( 41-C , 42-C ) :   1.5957 B( 41-C , 83-H ) :   0.9849 B( 42-C , 43-C ) :   1.1422
B( 42-C , 46-S ) :   1.0123 B( 43-C , 44-C ) :   1.5878 B( 43-C , 84-H ) :   0.9963
B( 44-C , 45-C ) :   1.1854 B( 44-C , 85-H ) :   0.9928 B( 45-C , 46-S ) :   1.0548
B( 45-C , 47-C ) :   1.5189 B( 47-C , 48-C ) :   1.1719 B( 47-C , 51-S ) :   1.0278
B( 48-C , 49-C ) :   1.5945 B( 48-C , 86-H ) :   0.9954 B( 49-C , 50-C ) :   1.1367
B( 49-C , 87-H ) :   0.9954 B( 50-C , 51-S ) :   1.0406 B( 50-C , 52-C ) :   1.6011
B( 52-C , 53-C ) :   1.1591 B( 52-C , 88-H ) :   0.9376 B( 53-C , 54-C ) :   1.4068
B( 53-C , 60-C ) :   0.1047 B( 53-C , 62-C ) :   1.1759 B( 54-C , 55-O ) :   1.1842
B( 54-C , 57-C ) :   1.1516 B( 55-O , 56-C ) :   0.9202 B( 56-C , 89-H ) :   0.9704
B( 56-C , 90-H ) :   0.9736 B( 56-C , 91-H ) :   0.9701 B( 57-C , 58-O ) :   1.1269
B( 57-C , 60-C ) :   1.3700 B( 58-O , 59-C ) :   0.9602 B( 59-C , 92-H ) :   0.9686
B( 59-C , 93-H ) :   0.9773 B( 59-C , 94-H ) :   0.9685 B( 60-C , 61-C ) :   1.1371
B( 60-C , 95-H ) :   1.0383 B( 61-C , 62-C ) :   1.1431 B( 61-C , 65-N ) :   1.5402
B( 62-C , 63-N ) :   1.5751 B( 63-N , 64-S ) :   1.2119 B( 63-N , 65-N ) :   0.1466
B( 64-S , 65-N ) :   1.2352

-----------------------------------------------------------------------------
         ABSORPTION SPECTRUM VIA TRANSITION ELECTRIC DIPOLE MOMENTS
-----------------------------------------------------------------------------
State   Energy  Wavelength   fosc         T2         TX        TY        TZ
        (cm-1)    (nm)                  (au**2)     (au)      (au)      (au)
-----------------------------------------------------------------------------
   0    8231.6   1214.8   0.010151885   0.40601   0.14749  -0.46999   0.40418
   1   13664.8    731.8   0.550596247  13.26497  -1.89139  -3.08789   0.39060
   2   16293.1    613.8   0.011761230   0.23764   0.28002  -0.38148   0.11707
   3   19239.0    519.8   0.395727369   6.77157  -0.82610   2.43835  -0.37894
   4   19582.9    510.6   0.227039222   3.81680  -1.00251   1.56403  -0.60463
   5   20689.6    483.3   0.510100198   8.11669  -0.23935   2.82507   0.27997
   6   21752.0    459.7   0.144487913   2.18679  -0.02471   1.43594   0.35250
   7   24124.0    414.5   0.017115456   0.23357  -0.21624  -0.42178  -0.09442
   8   24152.3    414.0   0.008378368   0.11420  -0.13842  -0.15997   0.26354
   9   25269.5    395.7   0.149059035   1.94195   1.03491  -0.75550  -0.54784
  10   26664.7    375.0   0.047947014   0.59197  -0.66480   0.38708  -0.01357
  11   26976.1    370.7   0.010657198   0.13006  -0.24820  -0.03183   0.25970
  12   27596.3    362.4   0.221814739   2.64615  -1.10938  -1.13766  -0.34806
  13   27908.0    358.3   0.149711842   1.76605  -0.22701  -1.28633  -0.24470
  14   28670.3    348.8   0.062312352   0.71551   0.66899  -0.32154  -0.40568
  15   28708.3    348.3   0.009048170   0.10376  -0.17540   0.23899   0.12601
  16   29563.0    338.3   0.084357306   0.93940  -0.78283   0.57085  -0.02666
  17   29693.3    336.8   0.060152529   0.66692   0.43241   0.45968   0.51830
  18   30029.4    333.0   0.115988356   1.27158   0.27535  -1.04723  -0.31476
  19   30770.6    325.0   0.061699659   0.66012  -0.46391   0.28943   0.60095
  20   30817.0    324.5   0.085246687   0.91067   0.08238  -0.81586   0.48811
  21   30975.2    322.8   0.122948975   1.30673   1.10072   0.14270  -0.27345
  22   31128.6    321.2   0.007453834   0.07883  -0.02201  -0.27562   0.04877
  23   31849.7    314.0   0.016263323   0.16810  -0.09813  -0.26165  -0.30002
  24   32088.8    311.6   0.038380820   0.39376   0.03157   0.60925  -0.14692
  25   32311.5    309.5   0.021526494   0.21933  -0.01813   0.19967   0.42324
  26   32570.5    307.0   0.127520630   1.28894  -0.84182   0.74502  -0.15885
  27   32674.3    306.1   0.012520322   0.12615  -0.24282   0.24745   0.07718
  28   32869.3    304.2   0.029153206   0.29199  -0.51446  -0.05942   0.15424
  29   33169.5    301.5   0.177296277   1.75969  -1.08866   0.33778   0.67854
  30   33255.5    300.7   0.019013955   0.18823   0.06026   0.21303  -0.37312
  31   33593.6    297.7   0.083319279   0.81651   0.28254  -0.78639   0.34390
  32   34180.2    292.6   0.380943530   3.66911  -1.64038  -0.78863  -0.59694
  33   34476.6    290.1   0.093998938   0.89758   0.81320   0.46562  -0.13957
  34   34563.6    289.3   0.059105037   0.56296   0.29935   0.65734   0.20312
  35   34911.5    286.4   0.060483165   0.57035  -0.58767  -0.32474   0.34575
  36   35087.3    285.0   0.033019784   0.30981  -0.10243   0.45316   0.30654
  37   35731.0    279.9   0.075040700   0.69140  -0.70157  -0.44580   0.02141
  38   35892.9    278.6   0.187497826   1.71974  -0.08316   1.28364  -0.25515
  39   36073.9    277.2   0.015649545   0.14282  -0.33883   0.07769   0.14824
  40   36227.6    276.0   0.002880821   0.02618  -0.06923   0.13425   0.05799
  41   36539.7    273.7   0.013310003   0.11992   0.04020  -0.33756  -0.06602
  42   36885.8    271.1   0.001632544   0.01457   0.04257   0.11253  -0.00975
  43   37184.0    268.9   0.101825480   0.90152  -0.38494  -0.86642   0.05163
  44   37264.0    268.4   0.087916000   0.77670   0.36861   0.63215  -0.49114
  45   37425.4    267.2   0.156073259   1.37289   0.16729   1.09100  -0.39322
  46   37816.9    264.4   0.006824626   0.05941  -0.18100   0.16111  -0.02634
  47   38036.1    262.9   0.015760817   0.13641   0.17909  -0.32271   0.01418
  48   38436.2    260.2   0.008746417   0.07491  -0.25740  -0.07817  -0.05049
  49   38511.7    259.7   0.020460013   0.17490  -0.04094  -0.35109  -0.22352
  50   38664.1    258.6   0.010323113   0.08790   0.05965  -0.27714  -0.08679
  51   38895.1    257.1   0.007887482   0.06676   0.05040   0.06556  -0.24479
  52   39048.9    256.1   0.096878856   0.81676  -0.84766  -0.00250  -0.31341
  53   39212.8    255.0   0.078604934   0.65993   0.22244  -0.73709   0.25914
  54   39368.5    254.0   0.142604178   1.19250   0.27796  -0.96802   0.42211
  55   39426.8    253.6   0.012699695   0.10604  -0.14334   0.25118  -0.14968
  56   39765.5    251.5   0.082765206   0.68520   0.00216  -0.81245   0.15849
  57   39832.5    251.1   0.009324610   0.07707  -0.25430   0.03354   0.10618
  58   39975.3    250.2   0.013866966   0.11420  -0.24357  -0.22657   0.05948
  59   40233.6    248.5   0.035948870   0.29415   0.23150   0.45218   0.18998

FINAL SINGLE POINT ENERGY     -7453.283663684893

DIPOLE MOMENT
-------------
                                X             Y             Z
Electronic contribution:     15.49381    -180.54108      29.41489
Nuclear contribution   :    -18.58284     184.26992     -29.78878
                        -----------------------------------------
Total Dipole Moment    :     -3.08903       3.72884      -0.37389
                        -----------------------------------------
Magnitude (a.u.)       :      4.85656
Magnitude (Debye)      :     12.34439

Rotational constants in cm-1:     0.001791     0.000595     0.000495
Rotational constants in MHz :    53.698365    17.840249    14.852520

                             ****ORCA TERMINATED NORMALLY****
TOTAL RUN TIME: 0 days 0 hours 11 minutes 48 seconds 770 msec
