                         Program Version 4.2.0 -  RELEASE  -
|  1> # ORCA input file
|  2> # SCF done       -180.116076531688          0.000928226132
|  3> ! CAM-B3LYP def2-SVP def2/J RIJCOSX Grid4 TightSCF
|  4> %maxcore 5000
|  5> %tddft
|  6>     Mode sTDDFT
|  7>     Ethresh 5.0
|  8>     maxcore 5000
|  9> end
| 10>
| 11> %pal
| 12>   nprocs 6
| 13>   end
| 14> * xyz 0 1
| 15>    C      -15.52585         2.86233        -5.00533
| 16>    C      -16.64363         2.07660        -5.11601
| 17>    C      -17.43505         1.98924        -6.28136
| 18>    N      -18.11971         1.87273        -7.19521
| 19>    C      -17.17649         1.24590        -4.10750
| 20>    N      -17.67706         0.54731        -3.34577
| 21>    C      -14.99313         3.71634        -6.06295
| 22>    C      -13.83643         4.37413        -5.57711
| 23>    C      -13.10124         5.24948        -6.33905
| 24>    C      -13.52864         5.49064        -7.64836
| 25>    C      -14.68627         4.83129        -8.12722
| 26>    C      -15.42816         3.94504        -7.35515
| 27>    S      -15.03898         5.27271        -9.76942
| 28>    C      -13.64719         6.32268        -9.79108
| 29>    C      -12.95164         6.34259        -8.62884
| 30>   Br      -13.24192         7.29327       -11.34341
| 31>    C      -13.59458         3.96158        -4.18603
| 32>    O      -12.68632         4.35061        -3.47198
| 33>    C      -14.65911         3.00704        -3.84808
| 34>    C      -14.80209         2.35827        -2.64916
| 35>    C      -14.00879         2.41663        -1.49054
| 36>    S      -12.56956         3.38196        -1.24328
| 37>    C      -12.34406         2.75351         0.36395
| 38>    C      -13.37572         1.83709         0.67710
| 39>    C      -14.28614         1.66199        -0.35682
| 40>    N      -13.52312         1.13420         1.90221
| 41>    O      -12.70687         1.31592         2.78836
| 42>    O      -14.47157         0.37969         1.99450
| 43>    C      -11.25899         3.12007         1.16357
| 44>    C      -10.26510         4.01258         0.82692
| 45>    C       -9.13691         4.31908         1.63228
| 46>    C       -8.27707         5.21143         1.07084
| 47>    C       -8.69054         5.66923        -0.20080
| 48>    S      -10.20561         4.91882        -0.66395
| 49>    C       -8.05148         6.56666        -1.03120
| 50>    C       -8.50934         7.04392        -2.28231
| 51>    C       -7.65884         7.91823        -2.87930
| 52>    C       -6.46559         8.16815        -2.14541
| 53>    S       -6.49884         7.26766        -0.64126
| 54>    C       -5.43232         8.95398        -2.58205
| 55>    C       -4.18656         9.15944        -1.95606
| 56>    S       -2.92309         9.98540        -2.83975
| 57>    C       -1.75198         9.70186        -1.59739
| 58>    C       -2.36336         9.05633        -0.51920
| 59>    C       -3.71856         8.76221        -0.72077
| 60>    N       -1.75620         8.77187         0.73584
| 61>    O       -0.61085         9.13783         0.92976
| 62>    O       -2.43008         8.18144         1.55436
| 63>    C       -0.41491        10.13510        -1.82897
| 64>    C        0.75098         9.55091        -1.46750
| 65>    C        1.05830         8.25919        -0.88075
| 66>    C        0.37843         7.08935        -1.08888
| 67>    C        0.78888         5.84042        -0.57556
| 68>    N        1.07391         4.80311        -0.17759
| 69>    C       -0.76745         6.98142        -1.90146
| 70>    N       -1.68181         6.84139        -2.58181
| 71>    C        2.35969         8.38192        -0.24304
| 72>    C        2.95245         9.60905        -0.64016
| 73>    C        2.01444        10.34966        -1.50200
| 74>    O        2.18657        11.39489        -2.08047
| 75>    C        4.20690         9.98665        -0.22450
| 76>    C        4.90010         9.12094         0.62810
| 77>    C        4.28908         7.90822         1.03379
| 78>    C        3.02491         7.52108         0.60843
| 79>    S        5.31592         6.99964         2.09802
| 80>    C        6.53912         8.23651         1.98124
| 81>    C        6.19627         9.28062         1.18875
| 82>   Br        8.15124         8.03366         2.91469
| 83>    H      -12.22427         5.73238        -5.93752
| 84>    H      -16.30093         3.46913        -7.76912
| 85>    H      -12.06815         6.93315        -8.46905
| 86>    H      -15.64161         1.68097        -2.55131
| 87>    H      -15.12795         0.99534        -0.28167
| 88>    H      -11.18474         2.64777         2.13421
| 89>    H       -9.00056         3.85921         2.59461
| 90>    H       -7.36512         5.56007         1.52310
| 91>    H       -9.45109         6.71742        -2.68762
| 92>    H       -7.83141         8.38686        -3.83165
| 93>    H       -5.55976         9.42416        -3.54819
| 94>    H       -4.30972         8.28205         0.03635
| 95>    H       -0.31402        11.06921        -2.37443
| 96>    H        4.64048        10.92094        -0.54493
| 97>    H        2.59094         6.59607         0.95044
| 98>    H        6.83046        10.12884         1.00655
| 99> *
|100>
|101>                          ****END OF INPUT****

CARTESIAN COORDINATES (ANGSTROEM)
---------------------------------
  C    -15.525850    2.862330   -5.005330
  C    -16.643630    2.076600   -5.116010
  C    -17.435050    1.989240   -6.281360
  N    -18.119710    1.872730   -7.195210
  C    -17.176490    1.245900   -4.107500
  N    -17.677060    0.547310   -3.345770
  C    -14.993130    3.716340   -6.062950
  C    -13.836430    4.374130   -5.577110
  C    -13.101240    5.249480   -6.339050
  C    -13.528640    5.490640   -7.648360
  C    -14.686270    4.831290   -8.127220
  C    -15.428160    3.945040   -7.355150
  S    -15.038980    5.272710   -9.769420
  C    -13.647190    6.322680   -9.791080
  C    -12.951640    6.342590   -8.628840
  Br   -13.241920    7.293270  -11.343410
  C    -13.594580    3.961580   -4.186030
  O    -12.686320    4.350610   -3.471980
  C    -14.659110    3.007040   -3.848080
  C    -14.802090    2.358270   -2.649160
  C    -14.008790    2.416630   -1.490540
  S    -12.569560    3.381960   -1.243280
  C    -12.344060    2.753510    0.363950
  C    -13.375720    1.837090    0.677100
  C    -14.286140    1.661990   -0.356820
  N    -13.523120    1.134200    1.902210
  O    -12.706870    1.315920    2.788360
  O    -14.471570    0.379690    1.994500
  C    -11.258990    3.120070    1.163570
  C    -10.265100    4.012580    0.826920
  C     -9.136910    4.319080    1.632280
  C     -8.277070    5.211430    1.070840
  C     -8.690540    5.669230   -0.200800
  S    -10.205610    4.918820   -0.663950
  C     -8.051480    6.566660   -1.031200
  C     -8.509340    7.043920   -2.282310
  C     -7.658840    7.918230   -2.879300
  C     -6.465590    8.168150   -2.145410
  S     -6.498840    7.267660   -0.641260
  C     -5.432320    8.953980   -2.582050
  C     -4.186560    9.159440   -1.956060
  S     -2.923090    9.985400   -2.839750
  C     -1.751980    9.701860   -1.597390
  C     -2.363360    9.056330   -0.519200
  C     -3.718560    8.762210   -0.720770
  N     -1.756200    8.771870    0.735840
  O     -0.610850    9.137830    0.929760
  O     -2.430080    8.181440    1.554360
  C     -0.414910   10.135100   -1.828970
  C      0.750980    9.550910   -1.467500
  C      1.058300    8.259190   -0.880750
  C      0.378430    7.089350   -1.088880
  C      0.788880    5.840420   -0.575560
  N      1.073910    4.803110   -0.177590
  C     -0.767450    6.981420   -1.901460
  N     -1.681810    6.841390   -2.581810
  C      2.359690    8.381920   -0.243040
  C      2.952450    9.609050   -0.640160
  C      2.014440   10.349660   -1.502000
  O      2.186570   11.394890   -2.080470
  C      4.206900    9.986650   -0.224500
  C      4.900100    9.120940    0.628100
  C      4.289080    7.908220    1.033790
  C      3.024910    7.521080    0.608430
  S      5.315920    6.999640    2.098020
  C      6.539120    8.236510    1.981240
  C      6.196270    9.280620    1.188750
  Br     8.151240    8.033660    2.914690
  H    -12.224270    5.732380   -5.937520
  H    -16.300930    3.469130   -7.769120
  H    -12.068150    6.933150   -8.469050
  H    -15.641610    1.680970   -2.551310
  H    -15.127950    0.995340   -0.281670
  H    -11.184740    2.647770    2.134210
  H     -9.000560    3.859210    2.594610
  H     -7.365120    5.560070    1.523100
  H     -9.451090    6.717420   -2.687620
  H     -7.831410    8.386860   -3.831650
  H     -5.559760    9.424160   -3.548190
  H     -4.309720    8.282050    0.036350
  H     -0.314020   11.069210   -2.374430
  H      4.640480   10.920940   -0.544930
  H      2.590940    6.596070    0.950440
  H      6.830460   10.128840    1.006550

 Total Charge           Charge          ....    0
 Multiplicity           Mult            ....    1
 Number of Electrons    NEL             ....  560
 Basis Dimension        Dim             .... 1092

ORBITAL ENERGIES
----------------

  NO   OCC          E(Eh)            E(eV)
   0   2.0000    -482.890065    -13140.1067
   1   2.0000    -482.890051    -13140.1063
   2   2.0000     -88.993394     -2421.6334
   3   2.0000     -88.981523     -2421.3104
   4   2.0000     -88.980264     -2421.2761
   5   2.0000     -88.976887     -2421.1842
   6   2.0000     -88.973803     -2421.1003
   7   2.0000     -88.970126     -2421.0002
   8   2.0000     -62.567809     -1702.5566
   9   2.0000     -62.567772     -1702.5556
  10   2.0000     -56.401765     -1534.7701
  11   2.0000     -56.401725     -1534.7690
  12   2.0000     -56.399036     -1534.6958
  13   2.0000     -56.399006     -1534.6950
  14   2.0000     -56.399003     -1534.6949
  15   2.0000     -56.398967     -1534.6939
  16   2.0000     -19.257291      -524.0175
  17   2.0000     -19.256137      -523.9861
  18   2.0000     -19.236850      -523.4613
  19   2.0000     -19.235505      -523.4247
  20   2.0000     -19.228067      -523.2223
  21   2.0000     -19.226416      -523.1774
  22   2.0000     -14.664931      -399.0531
  23   2.0000     -14.645909      -398.5354
  24   2.0000     -14.424927      -392.5222
  25   2.0000     -14.423107      -392.4727
  26   2.0000     -14.418723      -392.3534
  27   2.0000     -14.416290      -392.2872
  28   2.0000     -10.377265      -282.3797
  29   2.0000     -10.375980      -282.3448
  30   2.0000     -10.364546      -282.0336
  31   2.0000     -10.363718      -282.0111
  32   2.0000     -10.352857      -281.7156
  33   2.0000     -10.352052      -281.6937
  34   2.0000     -10.351956      -281.6910
  35   2.0000     -10.350403      -281.6488
  36   2.0000     -10.344880      -281.4985
  37   2.0000     -10.344076      -281.4766
  38   2.0000     -10.340240      -281.3722
  39   2.0000     -10.338897      -281.3357
  40   2.0000     -10.338195      -281.3166
  41   2.0000     -10.334376      -281.2127
  42   2.0000     -10.333854      -281.1985
  43   2.0000     -10.332668      -281.1662
  44   2.0000     -10.332226      -281.1542
  45   2.0000     -10.331528      -281.1352
  46   2.0000     -10.330230      -281.0999
  47   2.0000     -10.328844      -281.0621
  48   2.0000     -10.328024      -281.0398
  49   2.0000     -10.326972      -281.0112
  50   2.0000     -10.325135      -280.9612
  51   2.0000     -10.323297      -280.9112
  52   2.0000     -10.321390      -280.8593
  53   2.0000     -10.319456      -280.8067
  54   2.0000     -10.316233      -280.7190
  55   2.0000     -10.315554      -280.7005
  56   2.0000     -10.314570      -280.6737
  57   2.0000     -10.314461      -280.6707
  58   2.0000     -10.313460      -280.6435
  59   2.0000     -10.312623      -280.6207
  60   2.0000     -10.312484      -280.6170
  61   2.0000     -10.312452      -280.6161
  62   2.0000     -10.310755      -280.5699
  63   2.0000     -10.309517      -280.5362
  64   2.0000     -10.308869      -280.5186
  65   2.0000     -10.308644      -280.5125
  66   2.0000     -10.308513      -280.5089
  67   2.0000     -10.308104      -280.4978
  68   2.0000     -10.307114      -280.4708
  69   2.0000     -10.304823      -280.4085
  70   2.0000     -10.302050      -280.3330
  71   2.0000     -10.301831      -280.3271
  72   2.0000     -10.301596      -280.3207
  73   2.0000     -10.301591      -280.3205
  74   2.0000     -10.297471      -280.2084
  75   2.0000     -10.294125      -280.1174
  76   2.0000      -8.797267      -239.3858
  77   2.0000      -8.797210      -239.3842
  78   2.0000      -8.088937      -220.1112
  79   2.0000      -8.077423      -219.7978
  80   2.0000      -8.076209      -219.7648
  81   2.0000      -8.069905      -219.5933
  82   2.0000      -8.069692      -219.5875
  83   2.0000      -8.065913      -219.4847
  84   2.0000      -6.633613      -180.5098
  85   2.0000      -6.633538      -180.5077
  86   2.0000      -6.618976      -180.1115
  87   2.0000      -6.618914      -180.1098
  88   2.0000      -6.618778      -180.1061
  89   2.0000      -6.618744      -180.1052
  90   2.0000      -6.058177      -164.8514
  91   2.0000      -6.054041      -164.7388
  92   2.0000      -6.051063      -164.6578
  93   2.0000      -6.047116      -164.5504
  94   2.0000      -6.045895      -164.5172
  95   2.0000      -6.042811      -164.4332
  96   2.0000      -6.041604      -164.4004
  97   2.0000      -6.039457      -164.3420
  98   2.0000      -6.039444      -164.3416
  99   2.0000      -6.038706      -164.3215
 100   2.0000      -6.037464      -164.2877
 101   2.0000      -6.035642      -164.2382
 102   2.0000      -6.035373      -164.2308
 103   2.0000      -6.034803      -164.2153
 104   2.0000      -6.031952      -164.1378
 105   2.0000      -6.031366      -164.1218
 106   2.0000      -6.030589      -164.1007
 107   2.0000      -6.027004      -164.0031
 108   2.0000      -2.749453       -74.8164
 109   2.0000      -2.749392       -74.8148
 110   2.0000      -2.745422       -74.7067
 111   2.0000      -2.745330       -74.7042
 112   2.0000      -2.745186       -74.7003
 113   2.0000      -2.745136       -74.6989
 114   2.0000      -2.733594       -74.3849
 115   2.0000      -2.733578       -74.3844
 116   2.0000      -2.733555       -74.3838
 117   2.0000      -2.733537       -74.3833
 118   2.0000      -1.337612       -36.3983
 119   2.0000      -1.317016       -35.8378
 120   2.0000      -1.155266       -31.4364
 121   2.0000      -1.143272       -31.1100
 122   2.0000      -1.142253       -31.0823
 123   2.0000      -1.134571       -30.8732
 124   2.0000      -1.034241       -28.1431
 125   2.0000      -1.027908       -27.9708
 126   2.0000      -1.027277       -27.9536
 127   2.0000      -1.021796       -27.8045
 128   2.0000      -1.019243       -27.7350
 129   2.0000      -1.016960       -27.6729
 130   2.0000      -1.012425       -27.5495
 131   2.0000      -1.002221       -27.2718
 132   2.0000      -0.998341       -27.1662
 133   2.0000      -0.996554       -27.1176
 134   2.0000      -0.996471       -27.1153
 135   2.0000      -0.993441       -27.0329
 136   2.0000      -0.951229       -25.8843
 137   2.0000      -0.948102       -25.7992
 138   2.0000      -0.935348       -25.4521
 139   2.0000      -0.922759       -25.1096
 140   2.0000      -0.918542       -24.9948
 141   2.0000      -0.915231       -24.9047
 142   2.0000      -0.912828       -24.8393
 143   2.0000      -0.910946       -24.7881
 144   2.0000      -0.897049       -24.4099
 145   2.0000      -0.892979       -24.2992
 146   2.0000      -0.890957       -24.2442
 147   2.0000      -0.889797       -24.2126
 148   2.0000      -0.879286       -23.9266
 149   2.0000      -0.867559       -23.6075
 150   2.0000      -0.859583       -23.3904
 151   2.0000      -0.856183       -23.2979
 152   2.0000      -0.838870       -22.8268
 153   2.0000      -0.836305       -22.7570
 154   2.0000      -0.834092       -22.6968
 155   2.0000      -0.830321       -22.5942
 156   2.0000      -0.813182       -22.1278
 157   2.0000      -0.793918       -21.6036
 158   2.0000      -0.785815       -21.3831
 159   2.0000      -0.782444       -21.2914
 160   2.0000      -0.770496       -20.9663
 161   2.0000      -0.765615       -20.8334
 162   2.0000      -0.753854       -20.5134
 163   2.0000      -0.739852       -20.1324
 164   2.0000      -0.721562       -19.6347
 165   2.0000      -0.716231       -19.4896
 166   2.0000      -0.705762       -19.2048
 167   2.0000      -0.696330       -18.9481
 168   2.0000      -0.696269       -18.9464
 169   2.0000      -0.692392       -18.8409
 170   2.0000      -0.691297       -18.8111
 171   2.0000      -0.678348       -18.4588
 172   2.0000      -0.668933       -18.2026
 173   2.0000      -0.664394       -18.0791
 174   2.0000      -0.662019       -18.0145
 175   2.0000      -0.658701       -17.9242
 176   2.0000      -0.650555       -17.7025
 177   2.0000      -0.648420       -17.6444
 178   2.0000      -0.646350       -17.5881
 179   2.0000      -0.640889       -17.4395
 180   2.0000      -0.638225       -17.3670
 181   2.0000      -0.632823       -17.2200
 182   2.0000      -0.630656       -17.1610
 183   2.0000      -0.629168       -17.1205
 184   2.0000      -0.627125       -17.0649
 185   2.0000      -0.624282       -16.9876
 186   2.0000      -0.612828       -16.6759
 187   2.0000      -0.608377       -16.5548
 188   2.0000      -0.604689       -16.4544
 189   2.0000      -0.599611       -16.3162
 190   2.0000      -0.594447       -16.1757
 191   2.0000      -0.591804       -16.1038
 192   2.0000      -0.584935       -15.9169
 193   2.0000      -0.577797       -15.7226
 194   2.0000      -0.575605       -15.6630
 195   2.0000      -0.567191       -15.4340
 196   2.0000      -0.559664       -15.2292
 197   2.0000      -0.557641       -15.1742
 198   2.0000      -0.552284       -15.0284
 199   2.0000      -0.549336       -14.9482
 200   2.0000      -0.547270       -14.8920
 201   2.0000      -0.547155       -14.8888
 202   2.0000      -0.544436       -14.8149
 203   2.0000      -0.540725       -14.7139
 204   2.0000      -0.538524       -14.6540
 205   2.0000      -0.532973       -14.5029
 206   2.0000      -0.530244       -14.4287
 207   2.0000      -0.527902       -14.3649
 208   2.0000      -0.524547       -14.2737
 209   2.0000      -0.522891       -14.2286
 210   2.0000      -0.519437       -14.1346
 211   2.0000      -0.517885       -14.0924
 212   2.0000      -0.514821       -14.0090
 213   2.0000      -0.513568       -13.9749
 214   2.0000      -0.510643       -13.8953
 215   2.0000      -0.506601       -13.7853
 216   2.0000      -0.504388       -13.7251
 217   2.0000      -0.501142       -13.6368
 218   2.0000      -0.500298       -13.6138
 219   2.0000      -0.500038       -13.6067
 220   2.0000      -0.497640       -13.5415
 221   2.0000      -0.495752       -13.4901
 222   2.0000      -0.493150       -13.4193
 223   2.0000      -0.490871       -13.3573
 224   2.0000      -0.484633       -13.1875
 225   2.0000      -0.481861       -13.1121
 226   2.0000      -0.477529       -12.9942
 227   2.0000      -0.476900       -12.9771
 228   2.0000      -0.469494       -12.7756
 229   2.0000      -0.464901       -12.6506
 230   2.0000      -0.463007       -12.5991
 231   2.0000      -0.458736       -12.4829
 232   2.0000      -0.457941       -12.4612
 233   2.0000      -0.453709       -12.3461
 234   2.0000      -0.453316       -12.3353
 235   2.0000      -0.450851       -12.2683
 236   2.0000      -0.450626       -12.2621
 237   2.0000      -0.445898       -12.1335
 238   2.0000      -0.445803       -12.1309
 239   2.0000      -0.444336       -12.0910
 240   2.0000      -0.443055       -12.0561
 241   2.0000      -0.439592       -11.9619
 242   2.0000      -0.436220       -11.8701
 243   2.0000      -0.435500       -11.8506
 244   2.0000      -0.431467       -11.7408
 245   2.0000      -0.429665       -11.6918
 246   2.0000      -0.427969       -11.6456
 247   2.0000      -0.427350       -11.6288
 248   2.0000      -0.420066       -11.4306
 249   2.0000      -0.414482       -11.2786
 250   2.0000      -0.411558       -11.1991
 251   2.0000      -0.405564       -11.0359
 252   2.0000      -0.402766       -10.9598
 253   2.0000      -0.400059       -10.8862
 254   2.0000      -0.395245       -10.7552
 255   2.0000      -0.393980       -10.7207
 256   2.0000      -0.391526       -10.6540
 257   2.0000      -0.385834       -10.4991
 258   2.0000      -0.381286       -10.3753
 259   2.0000      -0.380257       -10.3473
 260   2.0000      -0.379376       -10.3233
 261   2.0000      -0.379202       -10.3186
 262   2.0000      -0.376699       -10.2505
 263   2.0000      -0.368415       -10.0251
 264   2.0000      -0.362465        -9.8632
 265   2.0000      -0.362366        -9.8605
 266   2.0000      -0.359608        -9.7854
 267   2.0000      -0.357933        -9.7399
 268   2.0000      -0.355212        -9.6658
 269   2.0000      -0.348186        -9.4746
 270   2.0000      -0.340862        -9.2753
 271   2.0000      -0.339033        -9.2256
 272   2.0000      -0.336700        -9.1621
 273   2.0000      -0.321594        -8.7510
 274   2.0000      -0.320664        -8.7257
 275   2.0000      -0.316583        -8.6147
 276   2.0000      -0.299745        -8.1565
 277   2.0000      -0.298599        -8.1253
 278   2.0000      -0.287640        -7.8271
 279   2.0000      -0.237962        -6.4753
 280   0.0000      -0.121542        -3.3073
 281   0.0000      -0.104559        -2.8452
 282   0.0000      -0.085347        -2.3224
 283   0.0000      -0.066661        -1.8139
 284   0.0000      -0.064314        -1.7501

MULLIKEN ATOMIC CHARGES
-----------------------
   0 C :    0.326661
   1 C :   -0.352967
   2 C :   -0.185973
   3 N :    0.150436
   4 C :   -0.189612
   5 N :    0.149288
   6 C :    0.014397
   7 C :   -0.012888
   8 C :   -0.071171
   9 C :    0.119636
  10 C :   -0.092048
  11 C :   -0.019012
  12 S :    0.191185
  13 C :   -0.122829
  14 C :    0.037224
  15 Br:    0.025226
  16 C :    0.166491
  17 O :   -0.187997
  18 C :   -0.091087
  19 C :   -0.009921
  20 C :   -0.025737
  21 S :    0.154889
  22 C :   -0.099830
  23 C :    0.202437
  24 C :   -0.030570
  25 N :    0.263557
  26 O :   -0.250476
  27 O :   -0.242818
  28 C :   -0.054764
  29 C :   -0.005806
  30 C :    0.040094
  31 C :    0.039742
  32 C :   -0.037743
  33 S :    0.092911
  34 C :   -0.034347
  35 C :    0.029061
  36 C :    0.048480
  37 C :   -0.025819
  38 S :    0.081504
  39 C :    0.057216
  40 C :   -0.054619
  41 S :    0.196977
  42 C :   -0.196229
  43 C :    0.188903
  44 C :   -0.040388
  45 N :    0.256755
  46 O :   -0.243930
  47 O :   -0.225588
  48 C :    0.056009
  49 C :   -0.084583
  50 C :    0.302854
  51 C :   -0.349612
  52 C :   -0.177790
  53 N :    0.167576
  54 C :   -0.197642
  55 N :    0.168311
  56 C :    0.000119
  57 C :    0.008780
  58 C :    0.130628
  59 O :   -0.134903
  60 C :   -0.070662
  61 C :    0.112337
  62 C :   -0.088311
  63 C :   -0.010279
  64 S :    0.192325
  65 C :   -0.126639
  66 C :    0.043711
  67 Br:    0.029118
  68 H :   -0.018495
  69 H :   -0.005442
  70 H :   -0.006576
  71 H :    0.011976
  72 H :    0.027095
  73 H :    0.024013
  74 H :    0.006386
  75 H :    0.010304
  76 H :    0.018082
  77 H :   -0.001484
  78 H :   -0.008741
  79 H :    0.016848
  80 H :    0.032477
  81 H :   -0.007195
  82 H :    0.001608
  83 H :   -0.001104
Sum of atomic charges:   -0.0000000

LOEWDIN ATOMIC CHARGES
----------------------
   0 C :    0.075945
   1 C :   -0.141611
   2 C :   -0.018051
   3 N :   -0.053553
   4 C :   -0.022532
   5 N :   -0.049054
   6 C :   -0.018793
   7 C :   -0.051183
   8 C :    0.020336
   9 C :   -0.033634
  10 C :   -0.143535
  11 C :   -0.008521
  12 S :    0.436641
  13 C :   -0.271459
  14 C :   -0.071814
  15 Br:    0.138176
  16 C :    0.086497
  17 O :   -0.172880
  18 C :   -0.111754
  19 C :    0.058328
  20 C :   -0.190730
  21 S :    0.505675
  22 C :   -0.137405
  23 C :   -0.086153
  24 C :    0.011674
  25 N :    0.287189
  26 O :   -0.213660
  27 O :   -0.208249
  28 C :   -0.085236
  29 C :   -0.125545
  30 C :   -0.017961
  31 C :   -0.023148
  32 C :   -0.176138
  33 S :    0.407432
  34 C :   -0.156723
  35 C :   -0.031387
  36 C :   -0.012109
  37 C :   -0.133501
  38 S :    0.408167
  39 C :   -0.066416
  40 C :   -0.149940
  41 S :    0.498444
  42 C :   -0.157051
  43 C :   -0.058700
  44 C :   -0.043235
  45 N :    0.286669
  46 O :   -0.199932
  47 O :   -0.191412
  48 C :    0.023865
  49 C :   -0.054198
  50 C :    0.075126
  51 C :   -0.135528
  52 C :   -0.019660
  53 N :   -0.043039
  54 C :   -0.021664
  55 N :   -0.049081
  56 C :   -0.012067
  57 C :   -0.051018
  58 C :    0.086689
  59 O :   -0.133869
  60 C :    0.025109
  61 C :   -0.030487
  62 C :   -0.140773
  63 C :   -0.004539
  64 S :    0.438110
  65 C :   -0.270042
  66 C :   -0.069765
  67 Br:    0.141462
  68 H :    0.037911
  69 H :    0.041667
  70 H :    0.037500
  71 H :    0.052752
  72 H :    0.049612
  73 H :    0.043487
  74 H :    0.041694
  75 H :    0.036552
  76 H :    0.037501
  77 H :    0.038260
  78 H :    0.037525
  79 H :    0.027857
  80 H :    0.049741
  81 H :    0.042396
  82 H :    0.043062
  83 H :    0.039685

  Mayer bond orders larger than 0.100000
B(  0-C ,  1-C ) :   1.6211 B(  0-C ,  6-C ) :   0.9977 B(  0-C , 18-C ) :   1.0819
B(  1-C ,  2-C ) :   1.1463 B(  1-C ,  4-C ) :   1.1438 B(  2-C ,  3-N ) :   2.9654
B(  4-C ,  5-N ) :   2.9568 B(  6-C ,  7-C ) :   1.2762 B(  6-C , 11-C ) :   1.4112
B(  7-C ,  8-C ) :   1.4193 B(  7-C , 16-C ) :   0.9640 B(  8-C ,  9-C ) :   1.2432
B(  8-C , 68-H ) :   1.0172 B(  9-C , 10-C ) :   1.3069 B(  9-C , 14-C ) :   1.1622
B( 10-C , 11-C ) :   1.3255 B( 10-C , 12-S ) :   1.0892 B( 11-C , 69-H ) :   0.9802
B( 12-S , 13-C ) :   1.0880 B( 13-C , 14-C ) :   1.6179 B( 13-C , 15-Br) :   1.0191
B( 14-C , 70-H ) :   1.0001 B( 16-C , 17-O ) :   2.1203 B( 16-C , 18-C ) :   0.9747
B( 18-C , 19-C ) :   1.4907 B( 19-C , 20-C ) :   1.2669 B( 19-C , 71-H ) :   0.9371
B( 20-C , 21-S ) :   1.0639 B( 20-C , 24-C ) :   1.3320 B( 21-S , 22-C ) :   1.1087
B( 22-C , 23-C ) :   1.3112 B( 22-C , 28-C ) :   1.2716 B( 23-C , 24-C ) :   1.3230
B( 23-C , 25-N ) :   0.9369 B( 24-C , 72-H ) :   1.0038 B( 25-N , 26-O ) :   1.5055
B( 25-N , 27-O ) :   1.5490 B( 26-O , 27-O ) :   0.2575 B( 28-C , 29-C ) :   1.4582
B( 28-C , 73-H ) :   0.9662 B( 29-C , 30-C ) :   1.1552 B( 29-C , 33-S ) :   1.0731
B( 30-C , 31-C ) :   1.5842 B( 30-C , 74-H ) :   1.0026 B( 31-C , 32-C ) :   1.1601
B( 31-C , 75-H ) :   0.9924 B( 32-C , 33-S ) :   1.0372 B( 32-C , 34-C ) :   1.5533
B( 34-C , 35-C ) :   1.1575 B( 34-C , 38-S ) :   1.0540 B( 35-C , 36-C ) :   1.6022
B( 35-C , 76-H ) :   0.9901 B( 36-C , 37-C ) :   1.1339 B( 36-C , 77-H ) :   1.0004
B( 37-C , 38-S ) :   1.0470 B( 37-C , 39-C ) :   1.6137 B( 39-C , 40-C ) :   1.1518
B( 39-C , 78-H ) :   0.9523 B( 40-C , 41-S ) :   1.1062 B( 40-C , 44-C ) :   1.4304
B( 41-S , 42-C ) :   1.1792 B( 42-C , 43-C ) :   1.4445 B( 42-C , 48-C ) :   1.0510
B( 43-C , 44-C ) :   1.3037 B( 43-C , 45-N ) :   0.9223 B( 44-C , 79-H ) :   0.9733
B( 45-N , 46-O ) :   1.5055 B( 45-N , 47-O ) :   1.5537 B( 46-O , 47-O ) :   0.2641
B( 48-C , 49-C ) :   1.7757 B( 48-C , 80-H ) :   0.9227 B( 49-C , 50-C ) :   1.0007
B( 49-C , 58-C ) :   0.9341 B( 50-C , 51-C ) :   1.6692 B( 50-C , 56-C ) :   1.0257
B( 51-C , 52-C ) :   1.1260 B( 51-C , 54-C ) :   1.1678 B( 52-C , 53-N ) :   2.9975
B( 54-C , 55-N ) :   3.0077 B( 56-C , 57-C ) :   1.2705 B( 56-C , 63-C ) :   1.4115
B( 57-C , 58-C ) :   0.9224 B( 57-C , 60-C ) :   1.4167 B( 58-C , 59-O ) :   2.2750
B( 60-C , 61-C ) :   1.2565 B( 60-C , 81-H ) :   1.0167 B( 61-C , 62-C ) :   1.2991
B( 61-C , 66-C ) :   1.1666 B( 62-C , 63-C ) :   1.3307 B( 62-C , 64-S ) :   1.0869
B( 63-C , 82-H ) :   0.9840 B( 64-S , 65-C ) :   1.0885 B( 65-C , 66-C ) :   1.6169
B( 65-C , 67-Br) :   1.0216 B( 66-C , 83-H ) :   0.9996

-----------------------------------------------------------------------------
         ABSORPTION SPECTRUM VIA TRANSITION ELECTRIC DIPOLE MOMENTS
-----------------------------------------------------------------------------
State   Energy  Wavelength   fosc         T2         TX        TY        TZ
        (cm-1)    (nm)                  (au**2)     (au)      (au)      (au)
-----------------------------------------------------------------------------
   0   11719.3    853.3   1.430196200  40.17615   5.65714   2.79841   0.58466
   1   15713.2    636.4   0.097823948   2.04954  -0.54534  -0.88360  -0.98560
   2   20043.2    498.9   0.378804724   6.22191  -0.58310  -1.36125   2.00721
   3   22241.1    449.6   0.170925108   2.53003  -0.70220  -0.26089   1.40317
   4   22855.7    437.5   0.113741030   1.63832   0.69945   0.62239  -0.87276
   5   24280.9    411.8   0.087426166   1.18537   0.81764   0.53523   0.47996
   6   25422.2    393.4   0.039581257   0.51257   0.09194  -0.48696   0.51671
   7   25924.4    385.7   0.249264397   3.16539  -1.62025   0.36488  -0.63800
   8   26310.6    380.1   0.137848193   1.72483  -0.35104  -0.94924   0.83699
   9   26718.7    374.3   0.078015935   0.96127   0.51380   0.39235  -0.73711
  10   27562.1    362.8   0.011333777   0.13537  -0.05333  -0.34810   0.10656
  11   27981.2    357.4   0.014383864   0.16923   0.18392   0.02690   0.36699
  12   28406.4    352.0   0.057606869   0.66763   0.59689  -0.08447   0.55156
  13   28583.6    349.9   0.160781946   1.85181   0.72830  -0.40538   1.07566
  14   29234.7    342.1   0.047240211   0.53197  -0.45277   0.09508  -0.56386
  15   29460.9    339.4   0.082638890   0.92345   0.54874  -0.30656   0.72688
  16   30024.5    333.1   0.172875014   1.89554   0.53072  -0.14485   1.26210
  17   30826.2    324.4   0.071114762   0.75948   0.65238  -0.01302   0.57767
  18   31048.8    322.1   0.218752738   2.31944  -0.81217  -1.12981   0.61914
  19   31553.4    316.9   0.142318235   1.48487  -0.68054  -0.63637   0.78535
  20   31754.1    314.9   0.056515376   0.58592  -0.33753  -0.38697   0.56767
  21   32242.7    310.1   0.117393219   1.19863  -0.06977   0.64277  -0.88352
  22   32323.1    309.4   0.270433983   2.75438  -1.61539  -0.32316   0.20117
  23   32738.4    305.5   0.152852901   1.53706   0.74966  -0.48433   0.86052
  24   33208.4    301.1   0.000626013   0.00621  -0.07094   0.02062  -0.02737
  25   33263.3    300.6   0.303791119   3.00667   1.44372   0.85085   0.44541
  26   33602.5    297.6   0.099447691   0.97431  -0.36013   0.18312  -0.90060
  27   34138.1    292.9   0.079380235   0.76551  -0.07737   0.48688  -0.72282
  28   34191.1    292.5   0.052444158   0.50496   0.01061   0.45519  -0.54558
  29   34576.5    289.2   0.037535748   0.35739   0.17544  -0.34648   0.45449
  30   34632.1    288.7   0.015331898   0.14574   0.32178   0.09417   0.18258
  31   34673.3    288.4   0.077738498   0.73810  -0.77422  -0.28361  -0.24137
  32   35360.7    282.8   0.093574435   0.87119  -0.65950  -0.60866   0.25649
  33   35566.1    281.2   0.015902866   0.14720  -0.04617   0.02883  -0.37979
  34   35597.1    280.9   0.232349939   2.14884   0.78742   0.78045  -0.95901
  35   35649.4    280.5   0.034161151   0.31547   0.23587   0.49688   0.11378
  36   35881.8    278.7   0.175175748   1.60722  -0.95526  -0.78102   0.29106
  37   36216.0    276.1   0.068904058   0.62635  -0.03178   0.51371  -0.60120
  38   36342.5    275.2   0.099160282   0.89825   0.05752  -0.65662   0.68103
  39   36543.8    273.6   0.070369281   0.63394  -0.64971  -0.17720  -0.42476
  40   37012.7    270.2   0.012172930   0.10827   0.30795   0.02710  -0.11271
  41   37550.5    266.3   0.032084989   0.28129  -0.02089  -0.15202  -0.50769
  42   37924.4    263.7   0.047273359   0.41037  -0.35851  -0.19944  -0.49200
  43   38278.0    261.2   0.454457375   3.90858  -1.34419  -0.01643  -1.44964
  44   38493.6    259.8   0.011630372   0.09947   0.24712  -0.04083   0.19165
  45   38801.5    257.7   0.057646661   0.48910  -0.45000   0.19491  -0.49861
  46   38854.6    257.4   0.134501401   1.13962  -0.03973   0.25662  -1.03546
  47   39394.0    253.8   0.007248670   0.06058  -0.02561  -0.01130  -0.24453
  48   39663.0    252.1   0.013439172   0.11155   0.07264  -0.32567  -0.01453
  49   39865.2    250.8   0.091533826   0.75590  -0.29541  -0.73254   0.36334
  50   39998.5    250.0   0.159904441   1.31611   0.44635  -0.72746   0.76661
  51   40062.1    249.6   0.034606558   0.28438  -0.01880  -0.21515  -0.48758
  52   40232.4    248.6   0.003405495   0.02787  -0.05876   0.06281  -0.14307

FINAL SINGLE POINT ENERGY    -10151.369529885709

DIPOLE MOMENT
-------------
                                X             Y             Z
Electronic contribution:     84.36351      28.36432     -43.68808
Nuclear contribution   :    -81.03894     -24.39488      42.54932
                        -----------------------------------------
Total Dipole Moment    :      3.32457       3.96944      -1.13876
                        -----------------------------------------
Magnitude (a.u.)       :      5.30151
Magnitude (Debye)      :     13.47536

Rotational constants in cm-1:     0.001154     0.000195     0.000172
Rotational constants in MHz :    34.583844     5.836079     5.147515

                             ****ORCA TERMINATED NORMALLY****
TOTAL RUN TIME: 0 days 0 hours 13 minutes 43 seconds 526 msec
