                         Program Version 4.2.0 -  RELEASE  -
|  1> # ORCA input file
|  2> # SCF done       -178.434804082181          0.000744740190
|  3> ! CAM-B3LYP def2-SVP def2/J RIJCOSX Grid4 TightSCF
|  4> %maxcore 5000
|  5> %tddft
|  6>     Mode sTDDFT
|  7>     Ethresh 5.0
|  8>     maxcore 5000
|  9> end
| 10>
| 11> %pal
| 12>   nprocs 6
| 13>   end
| 14> * xyz 0 1
| 15>    C      -14.07521       -11.64611         0.83417
| 16>    C      -12.71975       -11.47064         0.99371
| 17>    C      -11.77521       -12.51104         0.91823
| 18>    N      -10.94065       -13.29619         0.82556
| 19>    C      -12.05361       -10.24489         1.19098
| 20>    N      -11.40967        -9.30740         1.35799
| 21>    C      -14.73690       -12.94042         0.68073
| 22>    C      -16.12448       -12.71632         0.51234
| 23>    C      -17.02545       -13.73747         0.34938
| 24>    C      -16.53368       -15.04913         0.36058
| 25>    C      -15.14747       -15.26328         0.53118
| 26>    C      -14.23461       -14.22612         0.69195
| 27>    S      -14.75573       -16.95759         0.51797
| 28>    C      -16.43935       -17.34812         0.29224
| 29>    C      -17.25315       -16.26774         0.22523
| 30>   Br      -16.96391       -19.14542         0.15985
| 31>    C      -16.38207       -11.26043         0.54360
| 32>    O      -17.46821       -10.72120         0.36813
| 33>    C      -15.08549       -10.62654         0.76434
| 34>    C      -14.87518        -9.25274         0.84228
| 35>    C      -15.87437        -8.30134         0.86270
| 36>    C      -15.61990        -6.93120         0.89199
| 37>    C      -16.55769        -5.89198         0.96874
| 38>    C      -16.00371        -4.63390         0.92108
| 39>    C      -14.61078        -4.64267         0.79077
| 40>    S      -14.00359        -6.28000         0.76493
| 41>    C      -13.72851        -3.56869         0.64817
| 42>    C      -13.98254        -2.19064         0.71030
| 43>    C      -12.86136        -1.42375         0.52583
| 44>    C      -11.68673        -2.16646         0.29580
| 45>    S      -12.04792        -3.87172         0.32857
| 46>    C      -10.41705        -1.64344         0.09051
| 47>    C       -9.27380        -2.37510        -0.19247
| 48>    S       -9.32695        -4.10728        -0.43531
| 49>    C       -7.60782        -4.20732        -0.74278
| 50>    C       -7.02154        -2.93311        -0.64588
| 51>    C       -7.94221        -1.91844        -0.35058
| 52>    N       -7.52173        -0.57184        -0.22276
| 53>    O       -8.34868         0.27764         0.06192
| 54>    O       -6.34140        -0.34075        -0.40535
| 55>    C       -5.63863        -2.76142        -0.84895
| 56>    N       -4.50584        -2.74881        -1.02911
| 57>    C       -6.99793        -5.42853        -1.02982
| 58>    C       -7.75143        -6.57481        -1.18125
| 59>    C       -7.29054        -7.85876        -1.41628
| 60>    C       -8.16670        -8.92345        -1.59847
| 61>    C       -7.86102       -10.28701        -1.76141
| 62>    C       -8.96174       -11.08964        -1.91599
| 63>    C      -10.17455       -10.38089        -1.89724
| 64>    S       -9.89697        -8.68292        -1.65732
| 65>    C      -11.47486       -10.86370        -2.04000
| 66>    C      -11.91449       -12.18906        -2.19264
| 67>    C      -13.27687       -12.30578        -2.25183
| 68>    C      -13.96691       -11.07521        -2.16993
| 69>    S      -12.82395        -9.76099        -2.00597
| 70>    C      -15.34018       -10.92959        -2.16746
| 71>    C      -16.08557        -9.74110        -2.16576
| 72>    S      -17.84010        -9.83202        -2.08379
| 73>    C      -18.06173        -8.14492        -2.13832
| 74>    C      -16.84593        -7.49253        -2.19309
| 75>    C      -15.73973        -8.39557        -2.19746
| 76>    O      -14.57869        -7.71649        -2.28215
| 77>    C      -14.92248        -6.40071        -2.31005
| 78>    N      -13.87963        -5.44964        -2.36298
| 79>    O      -14.21270        -4.27900        -2.27536
| 80>    O      -12.74125        -5.84621        -2.47991
| 81>    C      -16.27624        -6.19410        -2.26334
| 82>    H      -18.07777       -13.53549         0.22468
| 83>    H      -13.18736       -14.44160         0.82149
| 84>    H      -18.31760       -16.32636         0.08904
| 85>    H      -13.85375        -8.89692         0.89350
| 86>    H      -16.90770        -8.61741         0.87921
| 87>    H      -17.61154        -6.08812         1.05590
| 88>    H      -16.56992        -3.72127         0.96197
| 89>    H      -14.96418        -1.79329         0.89342
| 90>    H      -12.85171        -0.34848         0.54261
| 91>    H      -10.31016        -0.56943         0.16165
| 92>    H       -5.92260        -5.44751        -1.14141
| 93>    H       -8.82823        -6.46086        -1.10918
| 94>    H       -6.22821        -8.05765        -1.45011
| 95>    H       -6.84727       -10.64637        -1.75109
| 96>    H       -8.92235       -12.15689        -2.03700
| 97>    H      -11.23366       -13.01937        -2.23481
| 98>    H      -13.80257       -13.23863        -2.35607
| 99>    H      -15.91900       -11.84291        -2.22112
|100>    H      -19.04576        -7.72398        -2.11984
|101>    H      -16.77015        -5.24497        -2.27993
|102> *
|103>
|104>                          ****END OF INPUT****

CARTESIAN COORDINATES (ANGSTROEM)
---------------------------------
  C    -14.075210  -11.646110    0.834170
  C    -12.719750  -11.470640    0.993710
  C    -11.775210  -12.511040    0.918230
  N    -10.940650  -13.296190    0.825560
  C    -12.053610  -10.244890    1.190980
  N    -11.409670   -9.307400    1.357990
  C    -14.736900  -12.940420    0.680730
  C    -16.124480  -12.716320    0.512340
  C    -17.025450  -13.737470    0.349380
  C    -16.533680  -15.049130    0.360580
  C    -15.147470  -15.263280    0.531180
  C    -14.234610  -14.226120    0.691950
  S    -14.755730  -16.957590    0.517970
  C    -16.439350  -17.348120    0.292240
  C    -17.253150  -16.267740    0.225230
  Br   -16.963910  -19.145420    0.159850
  C    -16.382070  -11.260430    0.543600
  O    -17.468210  -10.721200    0.368130
  C    -15.085490  -10.626540    0.764340
  C    -14.875180   -9.252740    0.842280
  C    -15.874370   -8.301340    0.862700
  C    -15.619900   -6.931200    0.891990
  C    -16.557690   -5.891980    0.968740
  C    -16.003710   -4.633900    0.921080
  C    -14.610780   -4.642670    0.790770
  S    -14.003590   -6.280000    0.764930
  C    -13.728510   -3.568690    0.648170
  C    -13.982540   -2.190640    0.710300
  C    -12.861360   -1.423750    0.525830
  C    -11.686730   -2.166460    0.295800
  S    -12.047920   -3.871720    0.328570
  C    -10.417050   -1.643440    0.090510
  C     -9.273800   -2.375100   -0.192470
  S     -9.326950   -4.107280   -0.435310
  C     -7.607820   -4.207320   -0.742780
  C     -7.021540   -2.933110   -0.645880
  C     -7.942210   -1.918440   -0.350580
  N     -7.521730   -0.571840   -0.222760
  O     -8.348680    0.277640    0.061920
  O     -6.341400   -0.340750   -0.405350
  C     -5.638630   -2.761420   -0.848950
  N     -4.505840   -2.748810   -1.029110
  C     -6.997930   -5.428530   -1.029820
  C     -7.751430   -6.574810   -1.181250
  C     -7.290540   -7.858760   -1.416280
  C     -8.166700   -8.923450   -1.598470
  C     -7.861020  -10.287010   -1.761410
  C     -8.961740  -11.089640   -1.915990
  C    -10.174550  -10.380890   -1.897240
  S     -9.896970   -8.682920   -1.657320
  C    -11.474860  -10.863700   -2.040000
  C    -11.914490  -12.189060   -2.192640
  C    -13.276870  -12.305780   -2.251830
  C    -13.966910  -11.075210   -2.169930
  S    -12.823950   -9.760990   -2.005970
  C    -15.340180  -10.929590   -2.167460
  C    -16.085570   -9.741100   -2.165760
  S    -17.840100   -9.832020   -2.083790
  C    -18.061730   -8.144920   -2.138320
  C    -16.845930   -7.492530   -2.193090
  C    -15.739730   -8.395570   -2.197460
  O    -14.578690   -7.716490   -2.282150
  C    -14.922480   -6.400710   -2.310050
  N    -13.879630   -5.449640   -2.362980
  O    -14.212700   -4.279000   -2.275360
  O    -12.741250   -5.846210   -2.479910
  C    -16.276240   -6.194100   -2.263340
  H    -18.077770  -13.535490    0.224680
  H    -13.187360  -14.441600    0.821490
  H    -18.317600  -16.326360    0.089040
  H    -13.853750   -8.896920    0.893500
  H    -16.907700   -8.617410    0.879210
  H    -17.611540   -6.088120    1.055900
  H    -16.569920   -3.721270    0.961970
  H    -14.964180   -1.793290    0.893420
  H    -12.851710   -0.348480    0.542610
  H    -10.310160   -0.569430    0.161650
  H     -5.922600   -5.447510   -1.141410
  H     -8.828230   -6.460860   -1.109180
  H     -6.228210   -8.057650   -1.450110
  H     -6.847270  -10.646370   -1.751090
  H     -8.922350  -12.156890   -2.037000
  H    -11.233660  -13.019370   -2.234810
  H    -13.802570  -13.238630   -2.356070
  H    -15.919000  -11.842910   -2.221120
  H    -19.045760   -7.723980   -2.119840
  H    -16.770150   -5.244970   -2.279930

 Total Charge           Charge          ....    0
 Multiplicity           Mult            ....    1
 Number of Electrons    NEL             ....  538
 Basis Dimension        Dim             .... 1084

ORBITAL ENERGIES
----------------

  NO   OCC          E(Eh)            E(eV)
   0   2.0000    -482.883795    -13139.9361
   1   2.0000     -88.990097     -2421.5437
   2   2.0000     -88.972384     -2421.0617
   3   2.0000     -88.969846     -2420.9926
   4   2.0000     -88.965149     -2420.8648
   5   2.0000     -88.964545     -2420.8484
   6   2.0000     -88.964484     -2420.8467
   7   2.0000     -88.958561     -2420.6855
   8   2.0000     -62.561511     -1702.3853
   9   2.0000     -56.395456     -1534.5984
  10   2.0000     -56.392755     -1534.5249
  11   2.0000     -56.392712     -1534.5237
  12   2.0000     -19.321254      -525.7581
  13   2.0000     -19.252483      -523.8867
  14   2.0000     -19.249406      -523.8030
  15   2.0000     -19.240400      -523.5579
  16   2.0000     -19.240337      -523.5562
  17   2.0000     -19.203483      -522.5533
  18   2.0000     -14.662457      -398.9857
  19   2.0000     -14.650738      -398.6669
  20   2.0000     -14.408625      -392.0786
  21   2.0000     -14.404691      -391.9716
  22   2.0000     -14.399687      -391.8354
  23   2.0000     -10.394665      -282.8532
  24   2.0000     -10.364739      -282.0389
  25   2.0000     -10.355523      -281.7881
  26   2.0000     -10.351165      -281.6695
  27   2.0000     -10.345222      -281.5078
  28   2.0000     -10.330750      -281.1140
  29   2.0000     -10.330560      -281.1088
  30   2.0000     -10.330526      -281.1079
  31   2.0000     -10.329489      -281.0797
  32   2.0000     -10.329424      -281.0779
  33   2.0000     -10.328004      -281.0393
  34   2.0000     -10.327414      -281.0232
  35   2.0000     -10.326730      -281.0046
  36   2.0000     -10.325147      -280.9615
  37   2.0000     -10.323811      -280.9252
  38   2.0000     -10.321664      -280.8668
  39   2.0000     -10.321608      -280.8652
  40   2.0000     -10.321284      -280.8564
  41   2.0000     -10.320541      -280.8362
  42   2.0000     -10.319583      -280.8101
  43   2.0000     -10.318888      -280.7912
  44   2.0000     -10.318793      -280.7886
  45   2.0000     -10.318055      -280.7686
  46   2.0000     -10.313442      -280.6430
  47   2.0000     -10.309195      -280.5275
  48   2.0000     -10.309056      -280.5237
  49   2.0000     -10.303134      -280.3625
  50   2.0000     -10.302353      -280.3413
  51   2.0000     -10.300336      -280.2864
  52   2.0000     -10.299729      -280.2699
  53   2.0000     -10.299560      -280.2653
  54   2.0000     -10.299274      -280.2575
  55   2.0000     -10.298058      -280.2244
  56   2.0000     -10.295552      -280.1562
  57   2.0000     -10.294601      -280.1303
  58   2.0000     -10.294590      -280.1300
  59   2.0000     -10.294481      -280.1271
  60   2.0000     -10.294043      -280.1151
  61   2.0000     -10.292988      -280.0865
  62   2.0000     -10.292724      -280.0793
  63   2.0000     -10.292714      -280.0790
  64   2.0000     -10.292043      -280.0607
  65   2.0000     -10.290816      -280.0273
  66   2.0000     -10.290692      -280.0240
  67   2.0000     -10.289997      -280.0050
  68   2.0000     -10.285084      -279.8714
  69   2.0000     -10.280027      -279.7338
  70   2.0000     -10.277679      -279.6699
  71   2.0000      -8.790936      -239.2135
  72   2.0000      -8.083863      -219.9731
  73   2.0000      -8.068365      -219.5514
  74   2.0000      -8.065178      -219.4647
  75   2.0000      -8.060437      -219.3357
  76   2.0000      -8.059945      -219.3222
  77   2.0000      -8.059372      -219.3067
  78   2.0000      -8.054518      -219.1746
  79   2.0000      -6.627212      -180.3356
  80   2.0000      -6.612659      -179.9396
  81   2.0000      -6.612508      -179.9355
  82   2.0000      -6.053055      -164.7120
  83   2.0000      -6.048569      -164.5899
  84   2.0000      -6.046696      -164.5390
  85   2.0000      -6.038056      -164.3039
  86   2.0000      -6.034693      -164.2123
  87   2.0000      -6.033791      -164.1878
  88   2.0000      -6.030614      -164.1013
  89   2.0000      -6.029851      -164.0806
  90   2.0000      -6.029591      -164.0735
  91   2.0000      -6.029432      -164.0692
  92   2.0000      -6.028783      -164.0515
  93   2.0000      -6.026568      -163.9912
  94   2.0000      -6.025640      -163.9660
  95   2.0000      -6.025294      -163.9566
  96   2.0000      -6.024763      -163.9421
  97   2.0000      -6.023945      -163.9199
  98   2.0000      -6.022098      -163.8696
  99   2.0000      -6.021510      -163.8536
 100   2.0000      -6.021128      -163.8432
 101   2.0000      -6.019864      -163.8088
 102   2.0000      -6.016056      -163.7052
 103   2.0000      -2.743070       -74.6427
 104   2.0000      -2.739019       -74.5325
 105   2.0000      -2.738872       -74.5285
 106   2.0000      -2.727324       -74.2143
 107   2.0000      -2.727306       -74.2138
 108   2.0000      -1.333725       -36.2925
 109   2.0000      -1.321377       -35.9565
 110   2.0000      -1.241838       -33.7921
 111   2.0000      -1.149606       -31.2824
 112   2.0000      -1.138975       -30.9931
 113   2.0000      -1.116052       -30.3693
 114   2.0000      -1.021397       -27.7936
 115   2.0000      -1.017436       -27.6859
 116   2.0000      -1.013305       -27.5734
 117   2.0000      -1.008776       -27.4502
 118   2.0000      -1.008270       -27.4364
 119   2.0000      -1.004373       -27.3304
 120   2.0000      -0.987477       -26.8706
 121   2.0000      -0.987038       -26.8587
 122   2.0000      -0.985735       -26.8232
 123   2.0000      -0.980743       -26.6874
 124   2.0000      -0.978909       -26.6375
 125   2.0000      -0.945490       -25.7281
 126   2.0000      -0.936278       -25.4774
 127   2.0000      -0.933363       -25.3981
 128   2.0000      -0.915127       -24.9019
 129   2.0000      -0.914323       -24.8800
 130   2.0000      -0.904169       -24.6037
 131   2.0000      -0.901854       -24.5407
 132   2.0000      -0.900267       -24.4975
 133   2.0000      -0.890590       -24.2342
 134   2.0000      -0.880682       -23.9646
 135   2.0000      -0.876329       -23.8461
 136   2.0000      -0.867077       -23.5944
 137   2.0000      -0.863453       -23.4957
 138   2.0000      -0.852782       -23.2054
 139   2.0000      -0.847361       -23.0579
 140   2.0000      -0.837544       -22.7907
 141   2.0000      -0.835618       -22.7383
 142   2.0000      -0.830791       -22.6070
 143   2.0000      -0.829108       -22.5612
 144   2.0000      -0.823726       -22.4147
 145   2.0000      -0.807752       -21.9800
 146   2.0000      -0.801156       -21.8006
 147   2.0000      -0.790878       -21.5209
 148   2.0000      -0.773975       -21.0609
 149   2.0000      -0.760019       -20.6812
 150   2.0000      -0.751598       -20.4520
 151   2.0000      -0.740763       -20.1572
 152   2.0000      -0.725498       -19.7418
 153   2.0000      -0.721372       -19.6295
 154   2.0000      -0.718314       -19.5463
 155   2.0000      -0.707336       -19.2476
 156   2.0000      -0.694076       -18.8868
 157   2.0000      -0.686859       -18.6904
 158   2.0000      -0.683235       -18.5918
 159   2.0000      -0.679865       -18.5001
 160   2.0000      -0.673470       -18.3260
 161   2.0000      -0.667144       -18.1539
 162   2.0000      -0.662667       -18.0321
 163   2.0000      -0.652766       -17.7627
 164   2.0000      -0.650430       -17.6991
 165   2.0000      -0.649263       -17.6673
 166   2.0000      -0.648725       -17.6527
 167   2.0000      -0.641949       -17.4683
 168   2.0000      -0.635110       -17.2822
 169   2.0000      -0.633798       -17.2465
 170   2.0000      -0.631895       -17.1947
 171   2.0000      -0.630119       -17.1464
 172   2.0000      -0.628213       -17.0945
 173   2.0000      -0.625192       -17.0123
 174   2.0000      -0.619136       -16.8475
 175   2.0000      -0.618895       -16.8410
 176   2.0000      -0.615369       -16.7450
 177   2.0000      -0.600985       -16.3536
 178   2.0000      -0.597243       -16.2518
 179   2.0000      -0.591387       -16.0925
 180   2.0000      -0.590790       -16.0762
 181   2.0000      -0.587431       -15.9848
 182   2.0000      -0.583952       -15.8901
 183   2.0000      -0.581773       -15.8308
 184   2.0000      -0.576715       -15.6932
 185   2.0000      -0.565480       -15.3875
 186   2.0000      -0.560937       -15.2639
 187   2.0000      -0.557769       -15.1777
 188   2.0000      -0.550102       -14.9690
 189   2.0000      -0.547595       -14.9008
 190   2.0000      -0.542270       -14.7559
 191   2.0000      -0.539655       -14.6848
 192   2.0000      -0.535352       -14.5677
 193   2.0000      -0.533335       -14.5128
 194   2.0000      -0.527447       -14.3526
 195   2.0000      -0.526288       -14.3210
 196   2.0000      -0.523173       -14.2363
 197   2.0000      -0.516707       -14.0603
 198   2.0000      -0.514632       -14.0038
 199   2.0000      -0.514396       -13.9974
 200   2.0000      -0.510966       -13.9041
 201   2.0000      -0.507926       -13.8214
 202   2.0000      -0.506764       -13.7897
 203   2.0000      -0.504393       -13.7252
 204   2.0000      -0.501914       -13.6578
 205   2.0000      -0.499890       -13.6027
 206   2.0000      -0.493946       -13.4410
 207   2.0000      -0.491894       -13.3851
 208   2.0000      -0.489235       -13.3128
 209   2.0000      -0.486311       -13.2332
 210   2.0000      -0.485803       -13.2194
 211   2.0000      -0.483431       -13.1548
 212   2.0000      -0.480159       -13.0658
 213   2.0000      -0.479278       -13.0418
 214   2.0000      -0.477727       -12.9996
 215   2.0000      -0.474400       -12.9091
 216   2.0000      -0.467445       -12.7198
 217   2.0000      -0.465822       -12.6757
 218   2.0000      -0.463213       -12.6047
 219   2.0000      -0.460942       -12.5429
 220   2.0000      -0.455292       -12.3891
 221   2.0000      -0.453015       -12.3272
 222   2.0000      -0.448999       -12.2179
 223   2.0000      -0.446429       -12.1479
 224   2.0000      -0.444407       -12.0929
 225   2.0000      -0.443648       -12.0723
 226   2.0000      -0.439824       -11.9682
 227   2.0000      -0.438598       -11.9349
 228   2.0000      -0.437774       -11.9124
 229   2.0000      -0.434287       -11.8175
 230   2.0000      -0.433806       -11.8045
 231   2.0000      -0.432305       -11.7636
 232   2.0000      -0.430647       -11.7185
 233   2.0000      -0.425709       -11.5841
 234   2.0000      -0.422560       -11.4984
 235   2.0000      -0.416849       -11.3430
 236   2.0000      -0.415835       -11.3154
 237   2.0000      -0.414287       -11.2733
 238   2.0000      -0.412141       -11.2149
 239   2.0000      -0.405242       -11.0272
 240   2.0000      -0.403443       -10.9782
 241   2.0000      -0.399734       -10.8773
 242   2.0000      -0.398875       -10.8539
 243   2.0000      -0.392830       -10.6894
 244   2.0000      -0.387872       -10.5545
 245   2.0000      -0.383598       -10.4382
 246   2.0000      -0.382679       -10.4132
 247   2.0000      -0.379178       -10.3179
 248   2.0000      -0.378807       -10.3079
 249   2.0000      -0.378380       -10.2963
 250   2.0000      -0.373392       -10.1605
 251   2.0000      -0.371829       -10.1180
 252   2.0000      -0.361785        -9.8447
 253   2.0000      -0.360895        -9.8205
 254   2.0000      -0.351133        -9.5548
 255   2.0000      -0.347095        -9.4449
 256   2.0000      -0.343970        -9.3599
 257   2.0000      -0.340962        -9.2780
 258   2.0000      -0.331904        -9.0316
 259   2.0000      -0.330295        -8.9878
 260   2.0000      -0.327628        -8.9152
 261   2.0000      -0.318840        -8.6761
 262   2.0000      -0.317663        -8.6441
 263   2.0000      -0.309321        -8.4171
 264   2.0000      -0.300229        -8.1697
 265   2.0000      -0.287992        -7.8367
 266   2.0000      -0.275903        -7.5077
 267   2.0000      -0.226034        -6.1507
 268   2.0000      -0.215715        -5.8699
 269   0.0000      -0.121853        -3.3158
 270   0.0000      -0.104170        -2.8346
 271   0.0000      -0.073011        -1.9867
 272   0.0000      -0.065889        -1.7929
 273   0.0000      -0.049880        -1.3573

MULLIKEN ATOMIC CHARGES
-----------------------
   0 C :    0.375651
   1 C :   -0.395574
   2 C :   -0.198575
   3 N :    0.135604
   4 C :   -0.202218
   5 N :    0.154489
   6 C :    0.003470
   7 C :   -0.000364
   8 C :   -0.101238
   9 C :    0.118984
  10 C :   -0.094031
  11 C :   -0.042372
  12 S :    0.175927
  13 C :   -0.122912
  14 C :    0.033128
  15 Br:    0.016326
  16 C :    0.110277
  17 O :   -0.204961
  18 C :   -0.072309
  19 C :   -0.082100
  20 C :    0.017505
  21 C :   -0.052487
  22 C :    0.044853
  23 C :    0.017548
  24 C :   -0.060224
  25 S :    0.096840
  26 C :    0.008381
  27 C :    0.035545
  28 C :    0.033221
  29 C :   -0.029076
  30 S :    0.106107
  31 C :   -0.021647
  32 C :   -0.136134
  33 S :    0.082181
  34 C :   -0.028909
  35 C :   -0.066621
  36 C :    0.243017
  37 N :    0.261858
  38 O :   -0.246099
  39 O :   -0.219462
  40 C :   -0.219615
  41 N :    0.153314
  42 C :   -0.001456
  43 C :   -0.015114
  44 C :    0.017762
  45 C :   -0.024431
  46 C :    0.028498
  47 C :    0.044917
  48 C :   -0.042732
  49 S :    0.136950
  50 C :   -0.053252
  51 C :    0.060366
  52 C :    0.029199
  53 C :   -0.052221
  54 S :    0.130714
  55 C :    0.105360
  56 C :   -0.289996
  57 S :    0.233608
  58 C :   -0.131606
  59 C :    0.110314
  60 C :    0.242369
  61 O :   -0.198413
  62 C :    0.243931
  63 N :    0.273672
  64 O :   -0.248145
  65 O :   -0.225015
  66 C :   -0.051056
  67 H :   -0.020934
  68 H :   -0.012905
  69 H :   -0.006461
  70 H :    0.015902
  71 H :    0.010326
  72 H :   -0.014146
  73 H :   -0.013144
  74 H :   -0.013836
  75 H :   -0.000729
  76 H :    0.029274
  77 H :    0.013842
  78 H :    0.035802
  79 H :   -0.001439
  80 H :   -0.005884
  81 H :   -0.000484
  82 H :   -0.001353
  83 H :   -0.004162
  84 H :   -0.002913
  85 H :    0.034890
  86 H :    0.006833
Sum of atomic charges:   -0.0000000

LOEWDIN ATOMIC CHARGES
----------------------
   0 C :    0.073695
   1 C :   -0.160609
   2 C :   -0.013089
   3 N :   -0.080237
   4 C :   -0.030047
   5 N :   -0.068162
   6 C :   -0.020481
   7 C :   -0.048633
   8 C :    0.003042
   9 C :   -0.038255
  10 C :   -0.153745
  11 C :   -0.017586
  12 S :    0.424751
  13 C :   -0.275782
  14 C :   -0.072274
  15 Br:    0.130542
  16 C :    0.061166
  17 O :   -0.199757
  18 C :   -0.110557
  19 C :    0.005078
  20 C :   -0.054514
  21 C :   -0.139554
  22 C :   -0.050218
  23 C :   -0.029963
  24 C :   -0.187758
  25 S :    0.433168
  26 C :   -0.160956
  27 C :   -0.039773
  28 C :   -0.019087
  29 C :   -0.160456
  30 S :    0.431873
  31 C :   -0.046995
  32 C :   -0.161842
  33 S :    0.443331
  34 C :   -0.129995
  35 C :   -0.079619
  36 C :   -0.037932
  37 N :    0.287640
  38 O :   -0.207621
  39 O :   -0.175791
  40 C :   -0.036636
  41 N :   -0.042544
  42 C :   -0.042152
  43 C :   -0.020642
  44 C :   -0.037514
  45 C :   -0.134224
  46 C :   -0.035967
  47 C :   -0.016399
  48 C :   -0.178384
  49 S :    0.448401
  50 C :   -0.162030
  51 C :   -0.033788
  52 C :   -0.023384
  53 C :   -0.162766
  54 S :    0.457933
  55 C :   -0.028977
  56 C :   -0.207367
  57 S :    0.559834
  58 C :   -0.173946
  59 C :   -0.087830
  60 C :    0.029070
  61 O :    0.003371
  62 C :    0.011386
  63 N :    0.272452
  64 O :   -0.211151
  65 O :   -0.189973
  66 C :   -0.000285
  67 H :    0.036139
  68 H :    0.038358
  69 H :    0.037287
  70 H :    0.025784
  71 H :    0.034808
  72 H :    0.032672
  73 H :    0.032873
  74 H :    0.032932
  75 H :    0.038281
  76 H :    0.046535
  77 H :    0.043820
  78 H :    0.015895
  79 H :    0.038816
  80 H :    0.036431
  81 H :    0.037854
  82 H :    0.036723
  83 H :    0.035928
  84 H :    0.042240
  85 H :    0.031645
  86 H :    0.045492

  Mayer bond orders larger than 0.100000
B(  0-C ,  1-C ) :   1.5661 B(  0-C ,  6-C ) :   0.9796 B(  0-C , 18-C ) :   1.1295
B(  1-C ,  2-C ) :   1.1536 B(  1-C ,  4-C ) :   1.1599 B(  2-C ,  3-N ) :   2.9409
B(  4-C ,  5-N ) :   2.9461 B(  6-C ,  7-C ) :   1.2690 B(  6-C , 11-C ) :   1.4255
B(  7-C ,  8-C ) :   1.4297 B(  7-C , 16-C ) :   0.9361 B(  8-C ,  9-C ) :   1.2215
B(  8-C , 67-H ) :   1.0198 B(  9-C , 10-C ) :   1.3272 B(  9-C , 14-C ) :   1.1619
B( 10-C , 11-C ) :   1.2993 B( 10-C , 12-S ) :   1.0793 B( 11-C , 68-H ) :   0.9835
B( 12-S , 13-C ) :   1.0875 B( 13-C , 14-C ) :   1.6163 B( 13-C , 15-Br) :   1.0140
B( 14-C , 69-H ) :   1.0006 B( 16-C , 17-O ) :   2.0744 B( 16-C , 18-C ) :   1.0045
B( 18-C , 19-C ) :   1.3599 B( 19-C , 20-C ) :   1.3607 B( 19-C , 70-H ) :   0.9492
B( 20-C , 21-C ) :   1.2851 B( 20-C , 71-H ) :   0.9867 B( 21-C , 22-C ) :   1.2816
B( 21-C , 25-S ) :   1.0974 B( 22-C , 23-C ) :   1.3960 B( 22-C , 72-H ) :   1.0063
B( 23-C , 24-C ) :   1.3379 B( 23-C , 73-H ) :   0.9994 B( 24-C , 25-S ) :   1.0831
B( 24-C , 26-C ) :   1.2919 B( 26-C , 27-C ) :   1.3101 B( 26-C , 30-S ) :   1.1109
B( 27-C , 28-C ) :   1.4529 B( 27-C , 74-H ) :   0.9942 B( 28-C , 29-C ) :   1.2632
B( 28-C , 75-H ) :   1.0008 B( 29-C , 30-S ) :   1.0743 B( 29-C , 31-C ) :   1.3258
B( 31-C , 32-C ) :   1.3867 B( 31-C , 76-H ) :   0.9663 B( 32-C , 33-S ) :   1.0668
B( 32-C , 36-C ) :   1.2799 B( 33-S , 34-C ) :   1.0531 B( 34-C , 35-C ) :   1.3151
B( 34-C , 42-C ) :   1.3794 B( 35-C , 36-C ) :   1.3951 B( 35-C , 40-C ) :   1.1264
B( 36-C , 37-N ) :   0.9431 B( 37-N , 38-O ) :   1.4961 B( 37-N , 39-O ) :   1.5262
B( 38-O , 39-O ) :   0.2658 B( 40-C , 41-N ) :   2.9952 B( 42-C , 43-C ) :   1.3579
B( 42-C , 77-H ) :   0.9764 B( 43-C , 44-C ) :   1.3611 B( 43-C , 78-H ) :   0.9625
B( 44-C , 45-C ) :   1.3463 B( 44-C , 79-H ) :   0.9894 B( 45-C , 46-C ) :   1.2597
B( 45-C , 49-S ) :   1.1012 B( 46-C , 47-C ) :   1.4519 B( 46-C , 80-H ) :   1.0003
B( 47-C , 48-C ) :   1.3053 B( 47-C , 81-H ) :   0.9952 B( 48-C , 49-S ) :   1.1040
B( 48-C , 50-C ) :   1.3298 B( 50-C , 51-C ) :   1.2784 B( 50-C , 54-S ) :   1.0974
B( 51-C , 52-C ) :   1.4737 B( 51-C , 82-H ) :   0.9944 B( 52-C , 53-C ) :   1.2128
B( 52-C , 83-H ) :   1.0018 B( 53-C , 54-S ) :   1.0667 B( 53-C , 55-C ) :   1.4806
B( 55-C , 56-C ) :   1.2180 B( 55-C , 84-H ) :   0.9304 B( 56-C , 57-S ) :   1.1434
B( 56-C , 60-C ) :   1.3618 B( 57-S , 58-C ) :   1.2581 B( 58-C , 59-C ) :   1.3673
B( 58-C , 85-H ) :   0.9787 B( 59-C , 60-C ) :   1.2642 B( 59-C , 66-C ) :   1.0613
B( 60-C , 61-O ) :   1.1076 B( 61-O , 62-C ) :   1.0959 B( 62-C , 63-N ) :   0.9178
B( 62-C , 66-C ) :   1.5760 B( 63-N , 64-O ) :   1.5201 B( 63-N , 65-O ) :   1.5124
B( 64-O , 65-O ) :   0.2713 B( 66-C , 86-H ) :   1.0270

-----------------------------------------------------------------------------
         ABSORPTION SPECTRUM VIA TRANSITION ELECTRIC DIPOLE MOMENTS
-----------------------------------------------------------------------------
State   Energy  Wavelength   fosc         T2         TX        TY        TZ
        (cm-1)    (nm)                  (au**2)     (au)      (au)      (au)
-----------------------------------------------------------------------------
   0    5912.1   1691.4   0.050690879   2.82269   0.79375  -0.39251  -1.42779
   1    7833.1   1276.6   0.062464711   2.62530  -0.50972  -1.36959   0.69979
   2   12054.4    829.6   0.537763974  14.68661   1.69278   3.33718   0.82725
   3   12608.8    793.1   0.651609064  17.01330   3.69870   1.74521  -0.53589
   4   14640.6    683.0   0.239365770   5.38245   0.86679   2.04733   0.66299
   5   16485.4    606.6   0.243943529   4.87152   1.22004   1.83355   0.14529
   6   16959.6    589.6   0.221753045   4.30458  -0.47913   1.94670   0.53422
   7   18273.8    547.2   0.138481308   2.49481   0.44463  -1.45721   0.41670
   8   19970.0    500.8   0.476817703   7.86049  -2.74091   0.58981   0.00490
   9   21399.5    467.3   0.043172511   0.66417  -0.34423   0.47087   0.56918
  10   21543.9    464.2   0.093716503   1.43208  -1.13654   0.36190   0.09682
  11   22548.0    443.5   0.357887596   5.22533  -2.21378  -0.48527   0.29834
  12   23365.8    428.0   0.391735619   5.51936   0.02619   2.34916   0.01156
  13   24154.3    414.0   0.075138182   1.02410  -0.39709   0.92901   0.05796
  14   24894.0    401.7   0.071187610   0.94142  -0.49881   0.82328  -0.12177
  15   25271.9    395.7   0.258974951   3.37361   0.42862  -1.69767   0.55481
  16   25984.6    384.8   0.060463962   0.76605   0.02047  -0.86924  -0.10021
  17   26150.2    382.4   0.071223375   0.89665   0.00070   0.94206   0.09575
  18   26681.5    374.8   0.110892101   1.36825   0.38054  -1.09780  -0.13519
  19   26777.1    373.5   0.140427367   1.72649   0.15865   1.29137   0.18353
  20   27257.9    366.9   0.019584848   0.23654   0.28494   0.38828   0.06772
  21   27902.6    358.4   0.198277353   2.33940  -1.23505   0.90174  -0.03018
  22   27905.3    358.4   0.062283532   0.73479   0.81415   0.19064   0.18868
  23   28555.8    350.2   0.041165170   0.47458  -0.43988   0.51780   0.11391
  24   29037.9    344.4   0.017691224   0.20057  -0.40969   0.12502   0.13075
  25   29219.8    342.2   0.019129017   0.21552  -0.05081   0.45702   0.06382
  26   29438.1    339.7   0.019600572   0.21920  -0.36315  -0.06551  -0.28815
  27   30251.7    330.6   0.115182535   1.25346   0.11075   1.11081  -0.08548
  28   30403.1    328.9   0.003761779   0.04073   0.08069   0.15405  -0.10243
  29   30729.1    325.4   0.001114740   0.01194   0.06987  -0.03115   0.07804
  30   30787.6    324.8   0.008091958   0.08653  -0.17298   0.10221  -0.21485
  31   30969.2    322.9   0.021525414   0.22882  -0.35527  -0.30707   0.09117
  32   31097.5    321.6   0.018068293   0.19128   0.13847   0.37410   0.17932
  33   31303.9    319.4   0.034704271   0.36497   0.08052  -0.59823   0.02467
  34   31534.6    317.1   0.100215115   1.04622   0.29077   0.97891   0.05833
  35   31828.7    314.2   0.050381842   0.52111  -0.07445  -0.71380  -0.07788
  36   32333.4    309.3   0.077512500   0.78922  -0.47303  -0.74496  -0.10248
  37   32414.7    308.5   0.230198496   2.33796   0.89194   1.23229   0.15447
  38   32703.5    305.8   0.096398333   0.97040  -0.74724  -0.64014   0.04746
  39   32971.1    303.3   0.003465025   0.03460   0.07510   0.05518   0.16097
  40   33406.2    299.3   0.083445742   0.82234  -0.90345   0.05683  -0.05371
  41   33500.1    298.5   0.076973713   0.75644   0.85566  -0.06425  -0.14198
  42   33751.0    296.3   0.050719030   0.49472   0.14805   0.68174   0.08961
  43   33838.4    295.5   0.078423417   0.76298  -0.14246   0.86113   0.03382
  44   34046.0    293.7   0.183143948   1.77093  -0.60365  -1.17749  -0.14162
  45   34290.4    291.6   0.054397964   0.52226   0.04559  -0.72122  -0.00476
  46   34445.6    290.3   0.000564300   0.00539   0.05652   0.04606   0.00881
  47   34734.8    287.9   0.016139828   0.15297  -0.27599   0.27476  -0.03623
  48   34797.6    287.4   0.041369829   0.39139   0.12281   0.60304   0.11246
  49   35038.2    285.4   0.022797512   0.21420  -0.18327  -0.41819  -0.07570
  50   35314.7    283.2   0.014074748   0.13121   0.27959  -0.21644   0.07868
  51   35385.6    282.6   0.039216311   0.36485  -0.48937  -0.33617  -0.11118
  52   35652.1    280.5   0.068833338   0.63561  -0.73612   0.04570  -0.30273
  53   35758.1    279.7   0.008531063   0.07854   0.05068  -0.27423   0.02779
  54   35907.4    278.5   0.047382392   0.43442  -0.59452  -0.28325  -0.02718
  55   36180.0    276.4   0.003540165   0.03221  -0.01344   0.15635  -0.08710
  56   36774.6    271.9   0.043058932   0.38547  -0.44761  -0.42246   0.08151
  57   36927.8    270.8   0.014930171   0.13310  -0.34951  -0.00114  -0.10462
  58   37056.3    269.9   0.014220349   0.12634  -0.11166  -0.15066   0.30194
  59   37351.8    267.7   0.022304172   0.19659   0.41027   0.16755   0.01388
  60   37499.9    266.7   0.101513781   0.89119  -0.13972  -0.87065   0.33710
  61   37671.9    265.4   0.053386912   0.46654  -0.46272   0.40555  -0.29659
  62   37767.3    264.8   0.020825740   0.18153  -0.07815  -0.39733   0.13249
  63   37877.6    264.0   0.068750824   0.59755  -0.76590  -0.10465   0.00046
  64   38045.2    262.8   0.031837119   0.27549  -0.48754   0.19032  -0.03967
  65   38148.8    262.1   0.009672197   0.08347   0.03958  -0.28599   0.01044
  66   38345.1    260.8   0.034038780   0.29224   0.28144  -0.46065   0.02887
  67   38522.3    259.6   0.011434762   0.09772   0.02623  -0.29856   0.08885
  68   38624.9    258.9   0.015474329   0.13189   0.22870  -0.28196   0.00924
  69   38702.0    258.4   0.009284565   0.07898  -0.26608  -0.01255   0.08956
  70   39017.1    256.3   0.065605897   0.55356  -0.71186  -0.20082  -0.08056
  71   39083.5    255.9   0.092865327   0.78223  -0.83398  -0.15860   0.24812
  72   39225.2    254.9   0.018641745   0.15646  -0.10429  -0.09844  -0.36863
  73   39427.4    253.6   0.134180586   1.12038   1.04449   0.17031   0.02068
  74   39663.0    252.1   0.030499091   0.25315  -0.45397  -0.19059   0.10362
  75   39866.5    250.8   0.016024955   0.13233   0.11728   0.28995   0.18577
  76   40017.8    249.9   0.013880659   0.11419  -0.02384  -0.33687  -0.01175
  77   40049.4    249.7   0.000459219   0.00377  -0.02809   0.03876  -0.03852
  78   40272.1    248.3   0.028806763   0.23549   0.48008  -0.06110  -0.03570

FINAL SINGLE POINT ENERGY     -7923.130941827639

DIPOLE MOMENT
-------------
                                X             Y             Z
Electronic contribution:    -36.10972    -106.76851       7.00702
Nuclear contribution   :     31.28956     104.56983      -8.19328
                        -----------------------------------------
Total Dipole Moment    :     -4.82016      -2.19868      -1.18627
                        -----------------------------------------
Magnitude (a.u.)       :      5.42912
Magnitude (Debye)      :     13.79974

Rotational constants in cm-1:     0.001906     0.000476     0.000409
Rotational constants in MHz :    57.141081    14.267471    12.276317

                             ****ORCA TERMINATED NORMALLY****
TOTAL RUN TIME: 0 days 0 hours 12 minutes 52 seconds 206 msec
