                         Program Version 4.2.0 -  RELEASE  -
|  1> # ORCA input file
|  2> # SCF done       -169.963812158255          0.000611201471
|  3> ! CAM-B3LYP def2-SVP def2/J RIJCOSX Grid4 TightSCF
|  4> %maxcore 5000
|  5> %tddft
|  6>     Mode sTDDFT
|  7>     Ethresh 5.0
|  8>     maxcore 5000
|  9> end
| 10>
| 11> %pal
| 12>   nprocs 6
| 13>   end
| 14> * xyz 0 1
| 15>    C        0.67578        -0.42634         0.19175
| 16>    C        0.59756        -1.55312         0.96395
| 17>    C        1.69408        -2.10354         1.66201
| 18>    N        2.55206        -2.59311         2.24587
| 19>    C       -0.58793        -2.27063         1.24062
| 20>    N       -1.50836        -2.87588         1.56114
| 21>    C        1.84958         0.42353         0.04580
| 22>    C        1.46726         1.60897        -0.62691
| 23>    C        2.34983         2.62834        -0.89187
| 24>    C        3.67532         2.46859        -0.47707
| 25>    C        4.05109         1.27570         0.18735
| 26>    C        3.15832         0.24646         0.45714
| 27>    S        5.73533         1.28530         0.61215
| 28>    C        5.90910         2.87003        -0.09449
| 29>    C        4.76651         3.36757        -0.62449
| 30>   Br        7.58096         3.71829        -0.06660
| 31>    C        0.02884         1.55589        -0.96245
| 32>    O       -0.60647         2.44333        -1.48268
| 33>    C       -0.42068         0.19815        -0.53666
| 34>    C       -1.56985        -0.44311        -0.88660
| 35>    C       -2.67971         0.06238        -1.60196
| 36>    O       -2.85277         1.37227        -1.90462
| 37>    C       -3.75445        -0.64110        -2.12572
| 38>    C       -4.33479        -1.98151        -2.28827
| 39>    O       -3.98725        -3.05792        -1.89163
| 40>    N       -5.48346        -1.74245        -3.05095
| 41>    C       -5.69414        -0.41726        -3.41149
| 42>    O       -6.60516        -0.02022        -4.09463
| 43>    C       -4.57607         0.29523        -2.78881
| 44>    C       -3.97995         1.53835        -2.61983
| 45>    C       -4.33583         2.84732        -3.05612
| 46>    C       -5.49443         3.09492        -3.70023
| 47>    C       -5.94853         4.35506        -4.22246
| 48>    C       -5.22121         5.34765        -4.76158
| 49>    C       -3.73983         5.34058        -4.93606
| 50>    C       -5.93218         6.52753        -5.37619
| 51>    N       -6.11623         6.34126        -6.80969
| 52>    C       -6.28558         5.13219        -7.37098
| 53>    C       -6.78376         4.86958        -8.60397
| 54>    C       -6.88253         3.52857        -9.04971
| 55>    O       -6.35383         2.52934        -8.29434
| 56>    C       -7.49663         2.95718       -10.15098
| 57>    C       -8.24526         3.24418       -11.36755
| 58>    O       -8.60326         4.28286       -11.86309
| 59>    N       -8.49475         1.97689       -11.90632
| 60>    C       -7.99190         0.90727       -11.17399
| 61>    O       -8.10344        -0.25415       -11.47222
| 62>    C       -7.34106         1.55158       -10.02789
| 63>    C       -6.62715         1.32012        -8.87163
| 64>    C       -6.16124         0.12756        -8.26073
| 65>    C       -5.29287         0.14153        -7.22259
| 66>    C       -4.76526        -1.00621        -6.56128
| 67>    C       -3.64799        -0.93282        -5.75943
| 68>    C       -3.03101        -2.06542        -5.04278
| 69>    C       -3.56916        -3.36587        -5.10613
| 70>    C       -4.66869        -3.64850        -5.83849
| 71>    S       -5.57626        -2.52434        -6.78591
| 72>    N       -1.94744        -1.71240        -4.37304
| 73>    C       -1.77301        -0.38284        -4.61208
| 74>    C       -2.78671         0.13688        -5.43859
| 75>    S       -2.56385         1.81709        -5.74109
| 76>    C       -1.13087         1.80839        -4.75980
| 77>    C       -0.82520         0.59381        -4.23603
| 78>    H        2.02579         3.52322        -1.40026
| 79>    H        3.49313        -0.64403         0.96217
| 80>    H        4.69459         4.32932        -1.09865
| 81>    H       -1.67695        -1.49406        -0.64910
| 82>    H       -6.10857        -2.48592        -3.32845
| 83>    H       -3.63124         3.62289        -2.79988
| 84>    H       -6.18445         2.27159        -3.84233
| 85>    H       -7.02784         4.45492        -4.24755
| 86>    H       -3.25933         5.87802        -4.11809
| 87>    H       -3.47393         5.84124        -5.86525
| 88>    H       -3.35060         4.32649        -4.95568
| 89>    H       -5.33966         7.43650        -5.23271
| 90>    H       -6.90773         6.67243        -4.89140
| 91>    H       -6.47364         7.14019        -7.31386
| 92>    H       -5.95866         4.29840        -6.76630
| 93>    H       -7.15709         5.63417        -9.26523
| 94>    H       -9.00453         1.84944       -12.76875
| 95>    H       -6.51489        -0.79513        -8.69798
| 96>    H       -4.92365         1.09450        -6.86696
| 97>    H       -3.07708        -4.14340        -4.54220
| 98>    H       -5.08234        -4.64212        -5.89449
| 99>    H       -0.59808         2.72968        -4.63113
|100>    H        0.03440         0.40416        -3.62030
|101> *
|102>
|103>                          ****END OF INPUT****

CARTESIAN COORDINATES (ANGSTROEM)
---------------------------------
  C      0.675780   -0.426340    0.191750
  C      0.597560   -1.553120    0.963950
  C      1.694080   -2.103540    1.662010
  N      2.552060   -2.593110    2.245870
  C     -0.587930   -2.270630    1.240620
  N     -1.508360   -2.875880    1.561140
  C      1.849580    0.423530    0.045800
  C      1.467260    1.608970   -0.626910
  C      2.349830    2.628340   -0.891870
  C      3.675320    2.468590   -0.477070
  C      4.051090    1.275700    0.187350
  C      3.158320    0.246460    0.457140
  S      5.735330    1.285300    0.612150
  C      5.909100    2.870030   -0.094490
  C      4.766510    3.367570   -0.624490
  Br     7.580960    3.718290   -0.066600
  C      0.028840    1.555890   -0.962450
  O     -0.606470    2.443330   -1.482680
  C     -0.420680    0.198150   -0.536660
  C     -1.569850   -0.443110   -0.886600
  C     -2.679710    0.062380   -1.601960
  O     -2.852770    1.372270   -1.904620
  C     -3.754450   -0.641100   -2.125720
  C     -4.334790   -1.981510   -2.288270
  O     -3.987250   -3.057920   -1.891630
  N     -5.483460   -1.742450   -3.050950
  C     -5.694140   -0.417260   -3.411490
  O     -6.605160   -0.020220   -4.094630
  C     -4.576070    0.295230   -2.788810
  C     -3.979950    1.538350   -2.619830
  C     -4.335830    2.847320   -3.056120
  C     -5.494430    3.094920   -3.700230
  C     -5.948530    4.355060   -4.222460
  C     -5.221210    5.347650   -4.761580
  C     -3.739830    5.340580   -4.936060
  C     -5.932180    6.527530   -5.376190
  N     -6.116230    6.341260   -6.809690
  C     -6.285580    5.132190   -7.370980
  C     -6.783760    4.869580   -8.603970
  C     -6.882530    3.528570   -9.049710
  O     -6.353830    2.529340   -8.294340
  C     -7.496630    2.957180  -10.150980
  C     -8.245260    3.244180  -11.367550
  O     -8.603260    4.282860  -11.863090
  N     -8.494750    1.976890  -11.906320
  C     -7.991900    0.907270  -11.173990
  O     -8.103440   -0.254150  -11.472220
  C     -7.341060    1.551580  -10.027890
  C     -6.627150    1.320120   -8.871630
  C     -6.161240    0.127560   -8.260730
  C     -5.292870    0.141530   -7.222590
  C     -4.765260   -1.006210   -6.561280
  C     -3.647990   -0.932820   -5.759430
  C     -3.031010   -2.065420   -5.042780
  C     -3.569160   -3.365870   -5.106130
  C     -4.668690   -3.648500   -5.838490
  S     -5.576260   -2.524340   -6.785910
  N     -1.947440   -1.712400   -4.373040
  C     -1.773010   -0.382840   -4.612080
  C     -2.786710    0.136880   -5.438590
  S     -2.563850    1.817090   -5.741090
  C     -1.130870    1.808390   -4.759800
  C     -0.825200    0.593810   -4.236030
  H      2.025790    3.523220   -1.400260
  H      3.493130   -0.644030    0.962170
  H      4.694590    4.329320   -1.098650
  H     -1.676950   -1.494060   -0.649100
  H     -6.108570   -2.485920   -3.328450
  H     -3.631240    3.622890   -2.799880
  H     -6.184450    2.271590   -3.842330
  H     -7.027840    4.454920   -4.247550
  H     -3.259330    5.878020   -4.118090
  H     -3.473930    5.841240   -5.865250
  H     -3.350600    4.326490   -4.955680
  H     -5.339660    7.436500   -5.232710
  H     -6.907730    6.672430   -4.891400
  H     -6.473640    7.140190   -7.313860
  H     -5.958660    4.298400   -6.766300
  H     -7.157090    5.634170   -9.265230
  H     -9.004530    1.849440  -12.768750
  H     -6.514890   -0.795130   -8.697980
  H     -4.923650    1.094500   -6.866960
  H     -3.077080   -4.143400   -4.542200
  H     -5.082340   -4.642120   -5.894490
  H     -0.598080    2.729680   -4.631130
  H      0.034400    0.404160   -3.620300

 Total Charge           Charge          ....    0
 Multiplicity           Mult            ....    1
 Number of Electrons    NEL             ....  480
 Basis Dimension        Dim             .... 1027

ORBITAL ENERGIES
----------------

  NO   OCC          E(Eh)            E(eV)
   0   2.0000    -482.887047    -13140.0246
   1   2.0000     -88.976837     -2421.1828
   2   2.0000     -88.976717     -2421.1795
   3   2.0000     -88.957174     -2420.6478
   4   2.0000     -62.564790     -1702.4745
   5   2.0000     -56.398741     -1534.6878
   6   2.0000     -56.396021     -1534.6138
   7   2.0000     -56.395989     -1534.6129
   8   2.0000     -19.309822      -525.4470
   9   2.0000     -19.302308      -525.2425
  10   2.0000     -19.216834      -522.9166
  11   2.0000     -19.216044      -522.8952
  12   2.0000     -19.213764      -522.8331
  13   2.0000     -19.202695      -522.5319
  14   2.0000     -19.197955      -522.4029
  15   2.0000     -14.457740      -393.4151
  16   2.0000     -14.455820      -393.3629
  17   2.0000     -14.444588      -393.0572
  18   2.0000     -14.414747      -392.2452
  19   2.0000     -14.411954      -392.1692
  20   2.0000     -14.382076      -391.3562
  21   2.0000     -10.404421      -283.1187
  22   2.0000     -10.402029      -283.0536
  23   2.0000     -10.392287      -282.7885
  24   2.0000     -10.387982      -282.6714
  25   2.0000     -10.369626      -282.1719
  26   2.0000     -10.369447      -282.1670
  27   2.0000     -10.360633      -281.9272
  28   2.0000     -10.360421      -281.9214
  29   2.0000     -10.360011      -281.9102
  30   2.0000     -10.350978      -281.6644
  31   2.0000     -10.342997      -281.4473
  32   2.0000     -10.340837      -281.3885
  33   2.0000     -10.337646      -281.3017
  34   2.0000     -10.331452      -281.1331
  35   2.0000     -10.330906      -281.1182
  36   2.0000     -10.327072      -281.0139
  37   2.0000     -10.322816      -280.8981
  38   2.0000     -10.317264      -280.7470
  39   2.0000     -10.315917      -280.7104
  40   2.0000     -10.313742      -280.6512
  41   2.0000     -10.309343      -280.5315
  42   2.0000     -10.309259      -280.5292
  43   2.0000     -10.306511      -280.4544
  44   2.0000     -10.305113      -280.4164
  45   2.0000     -10.305043      -280.4145
  46   2.0000     -10.304638      -280.4035
  47   2.0000     -10.304256      -280.3931
  48   2.0000     -10.302658      -280.3496
  49   2.0000     -10.301285      -280.3122
  50   2.0000     -10.298258      -280.2298
  51   2.0000     -10.296624      -280.1854
  52   2.0000     -10.296181      -280.1733
  53   2.0000     -10.295838      -280.1640
  54   2.0000     -10.293522      -280.1010
  55   2.0000     -10.292941      -280.0852
  56   2.0000     -10.292657      -280.0774
  57   2.0000     -10.292513      -280.0735
  58   2.0000     -10.289796      -279.9996
  59   2.0000     -10.287991      -279.9505
  60   2.0000     -10.287564      -279.9388
  61   2.0000     -10.285886      -279.8932
  62   2.0000     -10.279933      -279.7312
  63   2.0000     -10.279451      -279.7181
  64   2.0000     -10.273860      -279.5659
  65   2.0000     -10.271366      -279.4981
  66   2.0000     -10.268725      -279.4262
  67   2.0000      -8.794244      -239.3035
  68   2.0000      -8.072751      -219.6707
  69   2.0000      -8.072017      -219.6507
  70   2.0000      -8.050619      -219.0685
  71   2.0000      -6.630569      -180.4269
  72   2.0000      -6.615970      -180.0297
  73   2.0000      -6.615762      -180.0240
  74   2.0000      -6.042454      -164.4235
  75   2.0000      -6.041432      -164.3957
  76   2.0000      -6.038155      -164.3065
  77   2.0000      -6.036921      -164.2730
  78   2.0000      -6.034209      -164.1992
  79   2.0000      -6.033947      -164.1921
  80   2.0000      -6.020256      -163.8195
  81   2.0000      -6.015997      -163.7036
  82   2.0000      -6.012641      -163.6123
  83   2.0000      -2.746381       -74.7328
  84   2.0000      -2.742354       -74.6232
  85   2.0000      -2.742221       -74.6196
  86   2.0000      -2.730595       -74.3033
  87   2.0000      -2.730577       -74.3028
  88   2.0000      -1.232560       -33.5397
  89   2.0000      -1.218934       -33.1689
  90   2.0000      -1.159343       -31.5473
  91   2.0000      -1.145047       -31.1583
  92   2.0000      -1.139281       -31.0014
  93   2.0000      -1.132360       -30.8131
  94   2.0000      -1.123811       -30.5804
  95   2.0000      -1.055868       -28.7316
  96   2.0000      -1.048838       -28.5403
  97   2.0000      -1.044151       -28.4128
  98   2.0000      -1.032218       -28.0881
  99   2.0000      -1.023742       -27.8574
 100   2.0000      -1.012807       -27.5599
 101   2.0000      -0.992143       -26.9976
 102   2.0000      -0.989782       -26.9333
 103   2.0000      -0.975846       -26.5541
 104   2.0000      -0.955640       -26.0043
 105   2.0000      -0.947577       -25.7849
 106   2.0000      -0.941630       -25.6231
 107   2.0000      -0.928781       -25.2734
 108   2.0000      -0.926916       -25.2227
 109   2.0000      -0.920813       -25.0566
 110   2.0000      -0.913237       -24.8504
 111   2.0000      -0.909039       -24.7362
 112   2.0000      -0.900857       -24.5136
 113   2.0000      -0.893012       -24.3001
 114   2.0000      -0.887003       -24.1366
 115   2.0000      -0.874564       -23.7981
 116   2.0000      -0.866215       -23.5709
 117   2.0000      -0.854503       -23.2522
 118   2.0000      -0.837590       -22.7920
 119   2.0000      -0.830144       -22.5894
 120   2.0000      -0.823539       -22.4096
 121   2.0000      -0.807975       -21.9861
 122   2.0000      -0.803755       -21.8713
 123   2.0000      -0.797648       -21.7051
 124   2.0000      -0.783684       -21.3251
 125   2.0000      -0.775016       -21.0893
 126   2.0000      -0.768307       -20.9067
 127   2.0000      -0.763741       -20.7825
 128   2.0000      -0.761058       -20.7094
 129   2.0000      -0.758613       -20.6429
 130   2.0000      -0.752443       -20.4750
 131   2.0000      -0.735992       -20.0274
 132   2.0000      -0.721741       -19.6396
 133   2.0000      -0.712530       -19.3889
 134   2.0000      -0.705895       -19.2084
 135   2.0000      -0.703171       -19.1343
 136   2.0000      -0.694131       -18.8883
 137   2.0000      -0.690957       -18.8019
 138   2.0000      -0.683051       -18.5868
 139   2.0000      -0.676928       -18.4202
 140   2.0000      -0.674580       -18.3563
 141   2.0000      -0.658956       -17.9311
 142   2.0000      -0.644020       -17.5247
 143   2.0000      -0.635139       -17.2830
 144   2.0000      -0.631852       -17.1936
 145   2.0000      -0.625077       -17.0092
 146   2.0000      -0.623220       -16.9587
 147   2.0000      -0.619262       -16.8510
 148   2.0000      -0.611233       -16.6325
 149   2.0000      -0.601440       -16.3660
 150   2.0000      -0.598874       -16.2962
 151   2.0000      -0.597528       -16.2596
 152   2.0000      -0.597254       -16.2521
 153   2.0000      -0.593268       -16.1436
 154   2.0000      -0.590487       -16.0680
 155   2.0000      -0.584701       -15.9105
 156   2.0000      -0.581905       -15.8344
 157   2.0000      -0.578050       -15.7295
 158   2.0000      -0.576876       -15.6976
 159   2.0000      -0.573652       -15.6099
 160   2.0000      -0.568476       -15.4690
 161   2.0000      -0.561694       -15.2845
 162   2.0000      -0.560217       -15.2443
 163   2.0000      -0.553592       -15.0640
 164   2.0000      -0.552767       -15.0416
 165   2.0000      -0.551926       -15.0187
 166   2.0000      -0.546634       -14.8747
 167   2.0000      -0.542003       -14.7487
 168   2.0000      -0.538611       -14.6563
 169   2.0000      -0.538053       -14.6412
 170   2.0000      -0.534454       -14.5432
 171   2.0000      -0.533018       -14.5042
 172   2.0000      -0.527352       -14.3500
 173   2.0000      -0.524542       -14.2735
 174   2.0000      -0.521869       -14.2008
 175   2.0000      -0.520844       -14.1729
 176   2.0000      -0.513221       -13.9655
 177   2.0000      -0.510740       -13.8979
 178   2.0000      -0.508919       -13.8484
 179   2.0000      -0.508630       -13.8405
 180   2.0000      -0.507719       -13.8157
 181   2.0000      -0.506690       -13.7877
 182   2.0000      -0.505484       -13.7549
 183   2.0000      -0.500382       -13.6161
 184   2.0000      -0.496748       -13.5172
 185   2.0000      -0.493857       -13.4385
 186   2.0000      -0.492153       -13.3922
 187   2.0000      -0.490320       -13.3423
 188   2.0000      -0.488927       -13.3044
 189   2.0000      -0.486581       -13.2405
 190   2.0000      -0.481906       -13.1133
 191   2.0000      -0.477870       -13.0035
 192   2.0000      -0.475250       -12.9322
 193   2.0000      -0.473130       -12.8745
 194   2.0000      -0.466445       -12.6926
 195   2.0000      -0.465887       -12.6774
 196   2.0000      -0.461797       -12.5661
 197   2.0000      -0.459249       -12.4968
 198   2.0000      -0.458869       -12.4865
 199   2.0000      -0.456929       -12.4337
 200   2.0000      -0.448297       -12.1988
 201   2.0000      -0.446707       -12.1555
 202   2.0000      -0.441907       -12.0249
 203   2.0000      -0.440981       -11.9997
 204   2.0000      -0.438584       -11.9345
 205   2.0000      -0.437260       -11.8985
 206   2.0000      -0.431321       -11.7368
 207   2.0000      -0.429466       -11.6864
 208   2.0000      -0.427966       -11.6456
 209   2.0000      -0.424783       -11.5589
 210   2.0000      -0.422107       -11.4861
 211   2.0000      -0.421312       -11.4645
 212   2.0000      -0.413840       -11.2612
 213   2.0000      -0.411920       -11.2089
 214   2.0000      -0.407133       -11.0787
 215   2.0000      -0.404067       -10.9952
 216   2.0000      -0.391583       -10.6555
 217   2.0000      -0.386281       -10.5112
 218   2.0000      -0.380093       -10.3429
 219   2.0000      -0.376523       -10.2457
 220   2.0000      -0.374286       -10.1848
 221   2.0000      -0.372636       -10.1399
 222   2.0000      -0.369642       -10.0585
 223   2.0000      -0.363142        -9.8816
 224   2.0000      -0.360163        -9.8005
 225   2.0000      -0.359008        -9.7691
 226   2.0000      -0.352670        -9.5966
 227   2.0000      -0.348694        -9.4884
 228   2.0000      -0.339623        -9.2416
 229   2.0000      -0.335699        -9.1348
 230   2.0000      -0.333407        -9.0725
 231   2.0000      -0.330662        -8.9978
 232   2.0000      -0.326961        -8.8971
 233   2.0000      -0.320436        -8.7195
 234   2.0000      -0.316504        -8.6125
 235   2.0000      -0.295014        -8.0277
 236   2.0000      -0.281411        -7.6576
 237   2.0000      -0.277493        -7.5510
 238   2.0000      -0.262022        -7.1300
 239   2.0000      -0.245194        -6.6721
 240   0.0000      -0.096799        -2.6340
 241   0.0000      -0.078249        -2.1293
 242   0.0000      -0.061747        -1.6802
 243   0.0000      -0.051939        -1.4133
 244   0.0000      -0.020671        -0.5625

MULLIKEN ATOMIC CHARGES
-----------------------
   0 C :    0.292388
   1 C :   -0.330077
   2 C :   -0.186253
   3 N :    0.151471
   4 C :   -0.206668
   5 N :    0.174541
   6 C :    0.019543
   7 C :   -0.013164
   8 C :   -0.076512
   9 C :    0.119072
  10 C :   -0.088882
  11 C :   -0.020980
  12 S :    0.188415
  13 C :   -0.124628
  14 C :    0.041468
  15 Br:    0.024260
  16 C :    0.122306
  17 O :   -0.131421
  18 C :   -0.058937
  19 C :   -0.039075
  20 C :    0.068423
  21 O :   -0.157519
  22 C :    0.002955
  23 C :    0.198489
  24 O :   -0.116820
  25 N :   -0.179471
  26 C :    0.206826
  27 O :   -0.158230
  28 C :   -0.083239
  29 C :    0.116375
  30 C :    0.011168
  31 C :   -0.004242
  32 C :    0.029455
  33 C :   -0.262987
  34 C :    0.111337
  35 C :    0.239189
  36 N :   -0.157809
  37 C :    0.079424
  38 C :   -0.070842
  39 C :    0.098525
  40 O :   -0.235144
  41 C :   -0.055037
  42 C :    0.155266
  43 O :   -0.152685
  44 N :   -0.168372
  45 C :    0.157798
  46 O :   -0.147363
  47 C :   -0.013173
  48 C :    0.062037
  49 C :    0.007857
  50 C :   -0.018456
  51 C :   -0.085188
  52 C :    0.057590
  53 C :   -0.067530
  54 C :    0.091085
  55 C :   -0.114586
  56 S :    0.145280
  57 N :   -0.083961
  58 C :    0.046014
  59 C :   -0.123014
  60 S :    0.085194
  61 C :   -0.062604
  62 C :    0.004480
  63 H :   -0.015807
  64 H :   -0.003952
  65 H :   -0.005797
  66 H :    0.041083
  67 H :    0.139529
  68 H :    0.000576
  69 H :    0.029141
  70 H :   -0.000126
  71 H :    0.039610
  72 H :    0.019226
  73 H :    0.019191
  74 H :    0.012041
  75 H :    0.021465
  76 H :    0.128518
  77 H :    0.042215
  78 H :   -0.008655
  79 H :    0.134804
  80 H :    0.024680
  81 H :    0.007455
  82 H :    0.005961
  83 H :    0.053664
  84 H :    0.022406
  85 H :   -0.020590
Sum of atomic charges:   -0.0000000

LOEWDIN ATOMIC CHARGES
----------------------
   0 C :    0.072619
   1 C :   -0.131678
   2 C :   -0.017116
   3 N :   -0.050617
   4 C :   -0.028606
   5 N :   -0.036965
   6 C :   -0.020365
   7 C :   -0.052645
   8 C :    0.018737
   9 C :   -0.032588
  10 C :   -0.143110
  11 C :   -0.009402
  12 S :    0.433983
  13 C :   -0.271245
  14 C :   -0.071204
  15 Br:    0.137557
  16 C :    0.074628
  17 O :   -0.133304
  18 C :   -0.081646
  19 C :    0.058469
  20 C :    0.040499
  21 O :    0.061586
  22 C :   -0.049143
  23 C :    0.088283
  24 O :   -0.135609
  25 N :    0.000726
  26 C :    0.087309
  27 O :   -0.165107
  28 C :   -0.103311
  29 C :    0.087470
  30 C :   -0.040883
  31 C :    0.010106
  32 C :   -0.042892
  33 C :   -0.020050
  34 C :   -0.053506
  35 C :    0.051746
  36 N :    0.004276
  37 C :    0.067343
  38 C :   -0.143239
  39 C :    0.101148
  40 O :    0.001771
  41 C :   -0.133658
  42 C :    0.083348
  43 O :   -0.172269
  44 N :   -0.009189
  45 C :    0.081887
  46 O :   -0.164896
  47 C :   -0.077218
  48 C :    0.046348
  49 C :   -0.006088
  50 C :   -0.040131
  51 C :   -0.122494
  52 C :   -0.079261
  53 C :   -0.008524
  54 C :   -0.029045
  55 C :   -0.182037
  56 S :    0.468484
  57 N :   -0.124428
  58 C :   -0.042663
  59 C :   -0.234548
  60 S :    0.423222
  61 C :   -0.165046
  62 C :   -0.066090
  63 H :    0.038468
  64 H :    0.041464
  65 H :    0.038134
  66 H :    0.062391
  67 H :    0.091954
  68 H :    0.040838
  69 H :    0.037899
  70 H :    0.033064
  71 H :    0.042549
  72 H :    0.032498
  73 H :    0.023004
  74 H :    0.028808
  75 H :    0.022942
  76 H :    0.084027
  77 H :    0.034035
  78 H :    0.036685
  79 H :    0.092433
  80 H :    0.042801
  81 H :    0.029825
  82 H :    0.049999
  83 H :    0.034755
  84 H :    0.021255
  85 H :    0.030444

  Mayer bond orders larger than 0.100000
B(  0-C ,  1-C ) :   1.6554 B(  0-C ,  6-C ) :   1.0076 B(  0-C , 18-C ) :   1.0419
B(  1-C ,  2-C ) :   1.1369 B(  1-C ,  4-C ) :   1.1359 B(  2-C ,  3-N ) :   2.9761
B(  4-C ,  5-N ) :   3.0034 B(  6-C ,  7-C ) :   1.2765 B(  6-C , 11-C ) :   1.4050
B(  7-C ,  8-C ) :   1.4230 B(  7-C , 16-C ) :   0.9392 B(  8-C ,  9-C ) :   1.2491
B(  8-C , 63-H ) :   1.0154 B(  9-C , 10-C ) :   1.3030 B(  9-C , 14-C ) :   1.1632
B( 10-C , 11-C ) :   1.3342 B( 10-C , 12-S ) :   1.0857 B( 11-C , 64-H ) :   0.9798
B( 12-S , 13-C ) :   1.0876 B( 13-C , 14-C ) :   1.6176 B( 13-C , 15-Br) :   1.0191
B( 14-C , 65-H ) :   0.9998 B( 16-C , 17-O ) :   2.2512 B( 16-C , 18-C ) :   0.9235
B( 18-C , 19-C ) :   1.5673 B( 19-C , 20-C ) :   1.2175 B( 19-C , 66-H ) :   0.9350
B( 20-C , 21-O ) :   1.1455 B( 20-C , 22-C ) :   1.3636 B( 21-O , 29-C ) :   1.1939
B( 22-C , 23-C ) :   0.8731 B( 22-C , 28-C ) :   1.3377 B( 23-C , 24-O ) :   2.2651
B( 23-C , 25-N ) :   1.0580 B( 25-N , 26-C ) :   1.1045 B( 25-N , 67-H ) :   0.9114
B( 26-C , 27-O ) :   2.1615 B( 26-C , 28-C ) :   0.8879 B( 28-C , 29-C ) :   1.3566
B( 29-C , 30-C ) :   1.1589 B( 30-C , 31-C ) :   1.6849 B( 30-C , 68-H ) :   0.9631
B( 31-C , 32-C ) :   1.0983 B( 31-C , 69-H ) :   0.9365 B( 32-C , 33-C ) :   1.8056
B( 32-C , 70-H ) :   0.9504 B( 33-C , 34-C ) :   1.0799 B( 33-C , 35-C ) :   1.0486
B( 34-C , 71-H ) :   0.9364 B( 34-C , 72-H ) :   0.9452 B( 34-C , 73-H ) :   0.9426
B( 35-C , 36-N ) :   0.9791 B( 35-C , 74-H ) :   0.9331 B( 35-C , 75-H ) :   0.9375
B( 36-N , 37-C ) :   1.2649 B( 36-N , 76-H ) :   0.9384 B( 37-C , 38-C ) :   1.5523
B( 37-C , 77-H ) :   0.9515 B( 38-C , 39-C ) :   1.2370 B( 38-C , 78-H ) :   0.9583
B( 39-C , 40-O ) :   1.1461 B( 39-C , 41-C ) :   1.3575 B( 40-O , 48-C ) :   1.1124
B( 41-C , 42-C ) :   0.9005 B( 41-C , 47-C ) :   1.2638 B( 42-C , 43-O ) :   2.2673
B( 42-C , 44-N ) :   1.0592 B( 44-N , 45-C ) :   1.0901 B( 44-N , 79-H ) :   0.9147
B( 45-C , 46-O ) :   2.2667 B( 45-C , 47-C ) :   0.8737 B( 47-C , 48-C ) :   1.4158
B( 48-C , 49-C ) :   1.1998 B( 49-C , 50-C ) :   1.6203 B( 49-C , 80-H ) :   0.9550
B( 50-C , 51-C ) :   1.1375 B( 50-C , 81-H ) :   0.9778 B( 51-C , 52-C ) :   1.4428
B( 51-C , 56-S ) :   1.1133 B( 52-C , 53-C ) :   1.0402 B( 52-C , 59-C ) :   1.2388
B( 53-C , 54-C ) :   1.1921 B( 53-C , 57-N ) :   1.6157 B( 54-C , 55-C ) :   1.6152
B( 54-C , 82-H ) :   0.9744 B( 55-C , 56-S ) :   1.1103 B( 55-C , 83-H ) :   0.9397
B( 57-N , 58-C ) :   1.2903 B( 58-C , 59-C ) :   1.3822 B( 58-C , 62-C ) :   1.2069
B( 59-C , 60-S ) :   1.0595 B( 60-S , 61-C ) :   1.1295 B( 61-C , 62-C ) :   1.5673
B( 61-C , 84-H ) :   0.9620 B( 62-C , 85-H ) :   1.0106

-----------------------------------------------------------------------------
         ABSORPTION SPECTRUM VIA TRANSITION ELECTRIC DIPOLE MOMENTS
-----------------------------------------------------------------------------
State   Energy  Wavelength   fosc         T2         TX        TY        TZ
        (cm-1)    (nm)                  (au**2)     (au)      (au)      (au)
-----------------------------------------------------------------------------
   0   17695.0    565.1   0.094432992   1.75691  -0.89374   0.37000  -0.90623
   1   19511.8    512.5   0.375463049   6.33498   1.26895  -1.79348   1.22808
   2   19963.8    500.9   0.284855167   4.69739  -1.57028   0.73203  -1.30220
   3   21510.5    464.9   0.122219174   1.87053   1.04483  -0.07386   0.87944
   4   22855.7    437.5   0.710017517  10.22704   2.59740  -0.87539   1.64750
   5   23903.3    418.4   0.002009245   0.02767  -0.07127  -0.14750  -0.02891
   6   24962.2    400.6   0.002547407   0.03360   0.00125   0.07415   0.16762
   7   26489.2    377.5   0.095254011   1.18383   0.95366   0.51137  -0.11342
   8   26689.9    374.7   0.013433250   0.16570  -0.14943   0.37592  -0.04529
   9   27036.3    369.9   0.114971680   1.39997  -0.03659  -1.14203  -0.30727
  10   27243.8    367.1   0.048060816   0.58076   0.60813   0.29460   0.35235
  11   27449.4    364.3   0.040094788   0.48087   0.00702   0.54735  -0.42571
  12   27621.5    362.0   0.181021587   2.15754   1.44071   0.18293   0.22004
  13   28669.0    348.8   0.107902029   1.23906  -0.98642  -0.50713  -0.09415
  14   29618.8    337.6   0.008856190   0.09844   0.01183   0.26531  -0.16706
  15   30628.0    326.5   0.067279661   0.72317  -0.61155   0.15667  -0.56977
  16   30921.5    323.4   0.028230401   0.30056  -0.47423  -0.27419  -0.02220
  17   31285.3    319.6   0.071302986   0.75031   0.37409  -0.10654   0.77396
  18   31415.5    318.3   0.135732948   1.42238  -0.10125   0.31583  -1.14559
  19   32035.0    312.2   0.255992162   2.63074   0.01783   1.42547   0.77360
  20   32201.9    310.5   0.017494373   0.17885  -0.27968   0.01011   0.31706
  21   32410.1    308.5   0.010708558   0.10877   0.16735   0.16070   0.23440
  22   33180.4    301.4   0.491092171   4.87256   1.44498   1.56440  -0.58073
  23   33410.3    299.3   0.248242550   2.44608   0.76797   1.36072  -0.06892
  24   33625.0    297.4   0.112536494   1.10181  -0.45872  -0.93846  -0.10331
  25   34048.6    293.7   0.024799681   0.23979   0.33502   0.32135   0.15582
  26   34690.1    288.3   0.020151473   0.19124   0.24012   0.16436  -0.32645
  27   35022.9    285.5   0.015016774   0.14116  -0.27918  -0.07019  -0.24142
  28   35375.1    282.7   0.139289509   1.29627  -0.57122  -0.24396  -0.95418
  29   36001.2    277.8   0.038981428   0.35646  -0.17786  -0.30676  -0.48035
  30   36246.1    275.9   0.131113079   1.19086  -0.80782  -0.67197  -0.29451
  31   36800.6    271.7   0.011795229   0.10552   0.03137   0.31666  -0.06528
  32   37237.3    268.5   0.099841179   0.88269  -0.63385   0.05678  -0.69116
  33   37668.3    265.5   0.143648649   1.25545  -0.33092  -0.98992   0.40743
  34   37915.2    263.7   0.300638262   2.61040  -0.78374   0.78592  -1.17409
  35   38552.6    259.4   0.272682045   2.32851  -1.31645  -0.04183  -0.77053
  36   38756.7    258.0   0.097807838   0.83081   0.05822   0.90449   0.09649
  37   38959.2    256.7   0.016480573   0.13926   0.00716  -0.36820  -0.06036
  38   39159.9    255.4   0.053108570   0.44648  -0.31374  -0.24350  -0.53736
  39   39371.3    254.0   0.047319146   0.39567   0.49601   0.30876   0.23305
  40   39841.6    251.0   0.220915971   1.82543   0.83294   0.91905   0.53572
  41   40201.2    248.7   0.017002788   0.13924   0.08102  -0.36424   0.00131
  42   40323.9    248.0   0.225243195   1.83893  -0.61517   0.94725  -0.75048

FINAL SINGLE POINT ENERGY     -6386.690207578117

DIPOLE MOMENT
-------------
                                X             Y             Z
Electronic contribution:    126.01526      -1.18163      56.61576
Nuclear contribution   :   -126.10574       5.05360     -57.29506
                        -----------------------------------------
Total Dipole Moment    :     -0.09048       3.87196      -0.67929
                        -----------------------------------------
Magnitude (a.u.)       :      3.93214
Magnitude (Debye)      :      9.99471

Rotational constants in cm-1:     0.001845     0.000494     0.000435
Rotational constants in MHz :    55.321722    14.820645    13.045347

                             ****ORCA TERMINATED NORMALLY****
TOTAL RUN TIME: 0 days 0 hours 14 minutes 20 seconds 261 msec
