                         Program Version 4.2.0 -  RELEASE  -
|  1> # ORCA input file
|  2> # SCF done       -193.210624139444          0.000595156393
|  3> ! CAM-B3LYP def2-SVP def2/J RIJCOSX Grid4 TightSCF
|  4> %maxcore 5000
|  5> %tddft
|  6>     Mode sTDDFT
|  7>     Ethresh 5.0
|  8>     maxcore 5000
|  9> end
| 10>
| 11> %pal
| 12>   nprocs 6
| 13>   end
| 14> * xyz 0 1
| 15>    C        2.32269         3.51364       -12.85048
| 16>    C        3.17472         3.27995       -13.89279
| 17>    C        2.90701         2.36293       -14.93428
| 18>    N        2.75399         1.63144       -15.80487
| 19>    C        4.45097         3.85893       -14.07192
| 20>    N        5.50098         4.26118       -14.30176
| 21>    C        1.04591         2.85442       -12.63725
| 22>    C        0.58933         3.15749       -11.32887
| 23>    C       -0.57548         2.63708       -10.81763
| 24>    C       -1.35496         1.83937       -11.65729
| 25>    C       -0.91621         1.57754       -12.97879
| 26>    C        0.28701         2.05771       -13.47799
| 27>    S       -2.07022         0.61902       -13.85070
| 28>    C       -3.11581         0.59974       -12.45313
| 29>    C       -2.62085         1.25880       -11.37962
| 30>   Br       -4.77673        -0.25948       -12.55812
| 31>    C        1.51531         4.09688       -10.68019
| 32>    O        1.46316         4.47417        -9.53222
| 33>    C        2.53838         4.43129       -11.72571
| 34>    C        3.45532         5.41903       -11.71303
| 35>    C        3.61724         6.48747       -10.73874
| 36>    N        4.79479         7.11928       -10.77784
| 37>    C        4.95864         8.12933        -9.94392
| 38>    C        3.96658         8.54440        -9.06925
| 39>    C        2.76369         7.82755        -9.10366
| 40>    N        2.60820         6.81186        -9.95210
| 41>    C        1.63842         8.13023        -8.24604
| 42>    C        0.65244         7.22753        -8.11849
| 43>    N       -0.47047         7.40368        -7.36404
| 44>    C       -1.44460         6.47931        -7.20409
| 45>    S       -1.28685         4.91467        -7.93048
| 46>    C       -2.88074         4.49968        -7.34537
| 47>    N       -3.43522         3.28131        -7.72591
| 48>    O       -4.57519         3.03020        -7.38061
| 49>    O       -2.74246         2.55144        -8.42534
| 50>    C       -3.47136         5.50456        -6.63244
| 51>    C       -2.66956         6.66130        -6.53154
| 52>    C       -3.19687         7.83347        -5.90556
| 53>    C       -2.56823         8.95226        -5.45547
| 54>    C       -3.23137        10.09143        -4.93807
| 55>    C       -4.54133        10.45930        -5.11459
| 56>    C       -5.18201        11.56823        -4.49915
| 57>    C       -6.49755        11.71362        -4.81712
| 58>    C       -6.97511        10.73876        -5.72273
| 59>    S       -5.68919         9.64627        -6.16946
| 60>    C       -8.26178        10.51387        -6.17609
| 61>    C       -9.48854        11.07305        -5.76082
| 62>    C      -10.57769        10.43098        -6.27150
| 63>    C      -10.27829         9.32250        -7.10627
| 64>    S       -8.55270         9.20988        -7.30744
| 65>    C      -11.22006         8.49505        -7.69593
| 66>    C      -11.06817         7.34521        -8.47174
| 67>    C       -9.98360         6.52193        -8.71101
| 68>    C       -9.96216         5.68376        -9.93897
| 69>    O      -10.89347         5.43742       -10.67074
| 70>    C       -8.54226         5.28814       -10.11365
| 71>    C       -7.93444         4.65446       -11.15717
| 72>    C       -6.52061         4.57614       -11.18119
| 73>    C       -5.77003         5.18360       -10.13427
| 74>    C       -4.36873         5.24862       -10.24935
| 75>    C       -3.73477         4.69212       -11.32383
| 76>    C       -4.47211         4.02635       -12.31869
| 77>    C       -5.83669         3.97268       -12.25443
| 78>    F       -3.81897         3.46858       -13.35320
| 79>    F       -2.39990         4.80234       -11.44670
| 80>    C       -6.43106         5.74366        -9.01566
| 81>    C       -7.79585         5.77601        -9.00383
| 82>    C       -8.73748         6.33507        -8.03810
| 83>    C       -8.50432         6.48230        -6.68759
| 84>    C       -9.52327         6.80219        -5.77012
| 85>    N      -10.33444         7.07211        -5.00378
| 86>    C       -7.25461         6.28545        -6.08356
| 87>    N       -6.24647         6.19413        -5.53871
| 88>    H       -0.90141         2.84436        -9.81192
| 89>    H        0.58792         1.82707       -14.48637
| 90>    H       -3.11274         1.35171       -10.42793
| 91>    H        4.16722         5.49615       -12.52468
| 92>    H        5.92028         8.62478        -9.98862
| 93>    H        4.11297         9.37236        -8.39467
| 94>    H        1.63909         9.07355        -7.71839
| 95>    H        0.74809         6.28202        -8.63674
| 96>    H       -0.62470         8.31305        -6.94469
| 97>    H       -4.45295         5.42196        -6.19418
| 98>    H       -4.26325         7.75982        -5.73850
| 99>    H       -1.48694         8.98975        -5.39260
|100>    H       -2.63069        10.77246        -4.34782
|101>    H       -4.64948        12.21187        -3.82100
|102>    H       -7.13436        12.49026        -4.43351
|103>    H       -9.53657        11.89630        -5.07111
|104>    H      -11.59515        10.68844        -6.03748
|105>    H      -12.24101         8.83665        -7.57322
|106>    H      -11.94138         7.07133        -9.05734
|107>    H       -8.51385         4.24993       -11.97287
|108>    H       -3.79284         5.76882        -9.50075
|109>    H       -6.38795         3.47854       -13.03911
|110>    H       -5.84460         6.16891        -8.21664
|111> *
|112>
|113>                          ****END OF INPUT****

CARTESIAN COORDINATES (ANGSTROEM)
---------------------------------
  C      2.322690    3.513640  -12.850480
  C      3.174720    3.279950  -13.892790
  C      2.907010    2.362930  -14.934280
  N      2.753990    1.631440  -15.804870
  C      4.450970    3.858930  -14.071920
  N      5.500980    4.261180  -14.301760
  C      1.045910    2.854420  -12.637250
  C      0.589330    3.157490  -11.328870
  C     -0.575480    2.637080  -10.817630
  C     -1.354960    1.839370  -11.657290
  C     -0.916210    1.577540  -12.978790
  C      0.287010    2.057710  -13.477990
  S     -2.070220    0.619020  -13.850700
  C     -3.115810    0.599740  -12.453130
  C     -2.620850    1.258800  -11.379620
  Br    -4.776730   -0.259480  -12.558120
  C      1.515310    4.096880  -10.680190
  O      1.463160    4.474170   -9.532220
  C      2.538380    4.431290  -11.725710
  C      3.455320    5.419030  -11.713030
  C      3.617240    6.487470  -10.738740
  N      4.794790    7.119280  -10.777840
  C      4.958640    8.129330   -9.943920
  C      3.966580    8.544400   -9.069250
  C      2.763690    7.827550   -9.103660
  N      2.608200    6.811860   -9.952100
  C      1.638420    8.130230   -8.246040
  C      0.652440    7.227530   -8.118490
  N     -0.470470    7.403680   -7.364040
  C     -1.444600    6.479310   -7.204090
  S     -1.286850    4.914670   -7.930480
  C     -2.880740    4.499680   -7.345370
  N     -3.435220    3.281310   -7.725910
  O     -4.575190    3.030200   -7.380610
  O     -2.742460    2.551440   -8.425340
  C     -3.471360    5.504560   -6.632440
  C     -2.669560    6.661300   -6.531540
  C     -3.196870    7.833470   -5.905560
  C     -2.568230    8.952260   -5.455470
  C     -3.231370   10.091430   -4.938070
  C     -4.541330   10.459300   -5.114590
  C     -5.182010   11.568230   -4.499150
  C     -6.497550   11.713620   -4.817120
  C     -6.975110   10.738760   -5.722730
  S     -5.689190    9.646270   -6.169460
  C     -8.261780   10.513870   -6.176090
  C     -9.488540   11.073050   -5.760820
  C    -10.577690   10.430980   -6.271500
  C    -10.278290    9.322500   -7.106270
  S     -8.552700    9.209880   -7.307440
  C    -11.220060    8.495050   -7.695930
  C    -11.068170    7.345210   -8.471740
  C     -9.983600    6.521930   -8.711010
  C     -9.962160    5.683760   -9.938970
  O    -10.893470    5.437420  -10.670740
  C     -8.542260    5.288140  -10.113650
  C     -7.934440    4.654460  -11.157170
  C     -6.520610    4.576140  -11.181190
  C     -5.770030    5.183600  -10.134270
  C     -4.368730    5.248620  -10.249350
  C     -3.734770    4.692120  -11.323830
  C     -4.472110    4.026350  -12.318690
  C     -5.836690    3.972680  -12.254430
  F     -3.818970    3.468580  -13.353200
  F     -2.399900    4.802340  -11.446700
  C     -6.431060    5.743660   -9.015660
  C     -7.795850    5.776010   -9.003830
  C     -8.737480    6.335070   -8.038100
  C     -8.504320    6.482300   -6.687590
  C     -9.523270    6.802190   -5.770120
  N    -10.334440    7.072110   -5.003780
  C     -7.254610    6.285450   -6.083560
  N     -6.246470    6.194130   -5.538710
  H     -0.901410    2.844360   -9.811920
  H      0.587920    1.827070  -14.486370
  H     -3.112740    1.351710  -10.427930
  H      4.167220    5.496150  -12.524680
  H      5.920280    8.624780   -9.988620
  H      4.112970    9.372360   -8.394670
  H      1.639090    9.073550   -7.718390
  H      0.748090    6.282020   -8.636740
  H     -0.624700    8.313050   -6.944690
  H     -4.452950    5.421960   -6.194180
  H     -4.263250    7.759820   -5.738500
  H     -1.486940    8.989750   -5.392600
  H     -2.630690   10.772460   -4.347820
  H     -4.649480   12.211870   -3.821000
  H     -7.134360   12.490260   -4.433510
  H     -9.536570   11.896300   -5.071110
  H    -11.595150   10.688440   -6.037480
  H    -12.241010    8.836650   -7.573220
  H    -11.941380    7.071330   -9.057340
  H     -8.513850    4.249930  -11.972870
  H     -3.792840    5.768820   -9.500750
  H     -6.387950    3.478540  -13.039110
  H     -5.844600    6.168910   -8.216640

 Total Charge           Charge          ....    0
 Multiplicity           Mult            ....    1
 Number of Electrons    NEL             ....  552
 Basis Dimension        Dim             .... 1171

ORBITAL ENERGIES
----------------

  NO   OCC          E(Eh)            E(eV)
   0   2.0000    -482.876915    -13139.7489
   1   2.0000     -88.992475     -2421.6084
   2   2.0000     -88.971830     -2421.0466
   3   2.0000     -88.971525     -2421.0383
   4   2.0000     -88.966165     -2420.8924
   5   2.0000     -62.554592     -1702.1970
   6   2.0000     -56.388524     -1534.4097
   7   2.0000     -56.385851     -1534.3370
   8   2.0000     -56.385793     -1534.3354
   9   2.0000     -24.798366      -674.7979
  10   2.0000     -24.794293      -674.6870
  11   2.0000     -19.247556      -523.7526
  12   2.0000     -19.245965      -523.7093
  13   2.0000     -19.216551      -522.9089
  14   2.0000     -19.205325      -522.6035
  15   2.0000     -14.656887      -398.8342
  16   2.0000     -14.499028      -394.5386
  17   2.0000     -14.418555      -392.3488
  18   2.0000     -14.415016      -392.2525
  19   2.0000     -14.413745      -392.2179
  20   2.0000     -14.413528      -392.2120
  21   2.0000     -14.413150      -392.2018
  22   2.0000     -14.405404      -391.9910
  23   2.0000     -10.385824      -282.6126
  24   2.0000     -10.376246      -282.3520
  25   2.0000     -10.374494      -282.3043
  26   2.0000     -10.369653      -282.1726
  27   2.0000     -10.356872      -281.8248
  28   2.0000     -10.352383      -281.7027
  29   2.0000     -10.348083      -281.5856
  30   2.0000     -10.344899      -281.4990
  31   2.0000     -10.344046      -281.4758
  32   2.0000     -10.343301      -281.4555
  33   2.0000     -10.340782      -281.3870
  34   2.0000     -10.338984      -281.3381
  35   2.0000     -10.338874      -281.3351
  36   2.0000     -10.333090      -281.1777
  37   2.0000     -10.332754      -281.1685
  38   2.0000     -10.330922      -281.1187
  39   2.0000     -10.327326      -281.0208
  40   2.0000     -10.326604      -281.0012
  41   2.0000     -10.326343      -280.9941
  42   2.0000     -10.325293      -280.9655
  43   2.0000     -10.317945      -280.7656
  44   2.0000     -10.316253      -280.7195
  45   2.0000     -10.316143      -280.7165
  46   2.0000     -10.316123      -280.7160
  47   2.0000     -10.315561      -280.7007
  48   2.0000     -10.311402      -280.5875
  49   2.0000     -10.309719      -280.5417
  50   2.0000     -10.308738      -280.5150
  51   2.0000     -10.308736      -280.5150
  52   2.0000     -10.307821      -280.4901
  53   2.0000     -10.307742      -280.4879
  54   2.0000     -10.307119      -280.4710
  55   2.0000     -10.305073      -280.4153
  56   2.0000     -10.304885      -280.4102
  57   2.0000     -10.303542      -280.3736
  58   2.0000     -10.303475      -280.3718
  59   2.0000     -10.302413      -280.3429
  60   2.0000     -10.301477      -280.3175
  61   2.0000     -10.299397      -280.2608
  62   2.0000     -10.298885      -280.2469
  63   2.0000     -10.296539      -280.1831
  64   2.0000     -10.295552      -280.1562
  65   2.0000     -10.295522      -280.1554
  66   2.0000     -10.295300      -280.1494
  67   2.0000     -10.295123      -280.1445
  68   2.0000     -10.294677      -280.1324
  69   2.0000     -10.293932      -280.1121
  70   2.0000     -10.289613      -279.9946
  71   2.0000     -10.289586      -279.9939
  72   2.0000     -10.288407      -279.9618
  73   2.0000     -10.285500      -279.8827
  74   2.0000     -10.285174      -279.8738
  75   2.0000     -10.284731      -279.8618
  76   2.0000     -10.280940      -279.7586
  77   2.0000      -8.784023      -239.0254
  78   2.0000      -8.086778      -220.0524
  79   2.0000      -8.067632      -219.5314
  80   2.0000      -8.066551      -219.5020
  81   2.0000      -8.062068      -219.3800
  82   2.0000      -6.620231      -180.1456
  83   2.0000      -6.605865      -179.7547
  84   2.0000      -6.605558      -179.7464
  85   2.0000      -6.056492      -164.8055
  86   2.0000      -6.052079      -164.6854
  87   2.0000      -6.048196      -164.5798
  88   2.0000      -6.037370      -164.2852
  89   2.0000      -6.035983      -164.2474
  90   2.0000      -6.033181      -164.1712
  91   2.0000      -6.031752      -164.1323
  92   2.0000      -6.031752      -164.1323
  93   2.0000      -6.028651      -164.0479
  94   2.0000      -6.028344      -164.0396
  95   2.0000      -6.027502      -164.0167
  96   2.0000      -6.023312      -163.9027
  97   2.0000      -2.736092       -74.4528
  98   2.0000      -2.732153       -74.3457
  99   2.0000      -2.731883       -74.3383
 100   2.0000      -2.720475       -74.0279
 101   2.0000      -2.720457       -74.0274
 102   2.0000      -1.325333       -36.0641
 103   2.0000      -1.316734       -35.8302
 104   2.0000      -1.301631       -35.4192
 105   2.0000      -1.143412       -31.1138
 106   2.0000      -1.132703       -30.8224
 107   2.0000      -1.120152       -30.4809
 108   2.0000      -1.104552       -30.0564
 109   2.0000      -1.091129       -29.6911
 110   2.0000      -1.021213       -27.7886
 111   2.0000      -1.018490       -27.7145
 112   2.0000      -1.014999       -27.6195
 113   2.0000      -1.010627       -27.5005
 114   2.0000      -1.007494       -27.4153
 115   2.0000      -0.999764       -27.2050
 116   2.0000      -0.996520       -27.1167
 117   2.0000      -0.991896       -26.9909
 118   2.0000      -0.989335       -26.9212
 119   2.0000      -0.988021       -26.8854
 120   2.0000      -0.985634       -26.8205
 121   2.0000      -0.973740       -26.4968
 122   2.0000      -0.940995       -25.6058
 123   2.0000      -0.938127       -25.5277
 124   2.0000      -0.926377       -25.2080
 125   2.0000      -0.922358       -25.0986
 126   2.0000      -0.913357       -24.8537
 127   2.0000      -0.905267       -24.6336
 128   2.0000      -0.903303       -24.5801
 129   2.0000      -0.892550       -24.2875
 130   2.0000      -0.887560       -24.1517
 131   2.0000      -0.884240       -24.0614
 132   2.0000      -0.880492       -23.9594
 133   2.0000      -0.877719       -23.8840
 134   2.0000      -0.872494       -23.7418
 135   2.0000      -0.867458       -23.6047
 136   2.0000      -0.855081       -23.2679
 137   2.0000      -0.844677       -22.9848
 138   2.0000      -0.842470       -22.9248
 139   2.0000      -0.836173       -22.7534
 140   2.0000      -0.833737       -22.6871
 141   2.0000      -0.820664       -22.3314
 142   2.0000      -0.812551       -22.1106
 143   2.0000      -0.795269       -21.6404
 144   2.0000      -0.784192       -21.3390
 145   2.0000      -0.780801       -21.2467
 146   2.0000      -0.759996       -20.6805
 147   2.0000      -0.757308       -20.6074
 148   2.0000      -0.756089       -20.5742
 149   2.0000      -0.744372       -20.2554
 150   2.0000      -0.736069       -20.0295
 151   2.0000      -0.728718       -19.8294
 152   2.0000      -0.726037       -19.7565
 153   2.0000      -0.714349       -19.4384
 154   2.0000      -0.710380       -19.3304
 155   2.0000      -0.699784       -19.0421
 156   2.0000      -0.694756       -18.9053
 157   2.0000      -0.689957       -18.7747
 158   2.0000      -0.685049       -18.6411
 159   2.0000      -0.679293       -18.4845
 160   2.0000      -0.677085       -18.4244
 161   2.0000      -0.668311       -18.1857
 162   2.0000      -0.662299       -18.0221
 163   2.0000      -0.656742       -17.8709
 164   2.0000      -0.650635       -17.7047
 165   2.0000      -0.647640       -17.6232
 166   2.0000      -0.646798       -17.6003
 167   2.0000      -0.642589       -17.4857
 168   2.0000      -0.638840       -17.3837
 169   2.0000      -0.635239       -17.2857
 170   2.0000      -0.634481       -17.2651
 171   2.0000      -0.632674       -17.2159
 172   2.0000      -0.621047       -16.8995
 173   2.0000      -0.613108       -16.6835
 174   2.0000      -0.611662       -16.6442
 175   2.0000      -0.605070       -16.4648
 176   2.0000      -0.603578       -16.4242
 177   2.0000      -0.601271       -16.3614
 178   2.0000      -0.597209       -16.2509
 179   2.0000      -0.592203       -16.1147
 180   2.0000      -0.585570       -15.9342
 181   2.0000      -0.584381       -15.9018
 182   2.0000      -0.583318       -15.8729
 183   2.0000      -0.576697       -15.6927
 184   2.0000      -0.576154       -15.6780
 185   2.0000      -0.573505       -15.6059
 186   2.0000      -0.569434       -15.4951
 187   2.0000      -0.560969       -15.2647
 188   2.0000      -0.553693       -15.0667
 189   2.0000      -0.549128       -14.9425
 190   2.0000      -0.546855       -14.8807
 191   2.0000      -0.546118       -14.8606
 192   2.0000      -0.545103       -14.8330
 193   2.0000      -0.540351       -14.7037
 194   2.0000      -0.539699       -14.6860
 195   2.0000      -0.538081       -14.6419
 196   2.0000      -0.533682       -14.5222
 197   2.0000      -0.532536       -14.4911
 198   2.0000      -0.529161       -14.3992
 199   2.0000      -0.526887       -14.3373
 200   2.0000      -0.525717       -14.3055
 201   2.0000      -0.523643       -14.2490
 202   2.0000      -0.521146       -14.1811
 203   2.0000      -0.518240       -14.1020
 204   2.0000      -0.516260       -14.0481
 205   2.0000      -0.514690       -14.0054
 206   2.0000      -0.513380       -13.9698
 207   2.0000      -0.510625       -13.8948
 208   2.0000      -0.509301       -13.8588
 209   2.0000      -0.506622       -13.7859
 210   2.0000      -0.501643       -13.6504
 211   2.0000      -0.499197       -13.5838
 212   2.0000      -0.498506       -13.5650
 213   2.0000      -0.497109       -13.5270
 214   2.0000      -0.496778       -13.5180
 215   2.0000      -0.492718       -13.4076
 216   2.0000      -0.488153       -13.2833
 217   2.0000      -0.485533       -13.2120
 218   2.0000      -0.483385       -13.1536
 219   2.0000      -0.480080       -13.0636
 220   2.0000      -0.476476       -12.9656
 221   2.0000      -0.474240       -12.9047
 222   2.0000      -0.471553       -12.8316
 223   2.0000      -0.470062       -12.7910
 224   2.0000      -0.465515       -12.6673
 225   2.0000      -0.460705       -12.5364
 226   2.0000      -0.455537       -12.3958
 227   2.0000      -0.452634       -12.3168
 228   2.0000      -0.449426       -12.2295
 229   2.0000      -0.447959       -12.1896
 230   2.0000      -0.447662       -12.1815
 231   2.0000      -0.445702       -12.1282
 232   2.0000      -0.442225       -12.0336
 233   2.0000      -0.440653       -11.9908
 234   2.0000      -0.440561       -11.9883
 235   2.0000      -0.439693       -11.9647
 236   2.0000      -0.435173       -11.8417
 237   2.0000      -0.434568       -11.8252
 238   2.0000      -0.431701       -11.7472
 239   2.0000      -0.427596       -11.6355
 240   2.0000      -0.425133       -11.5685
 241   2.0000      -0.422339       -11.4924
 242   2.0000      -0.421220       -11.4620
 243   2.0000      -0.420772       -11.4498
 244   2.0000      -0.419493       -11.4150
 245   2.0000      -0.416242       -11.3265
 246   2.0000      -0.412552       -11.2261
 247   2.0000      -0.410211       -11.1624
 248   2.0000      -0.405990       -11.0475
 249   2.0000      -0.397178       -10.8078
 250   2.0000      -0.395618       -10.7653
 251   2.0000      -0.390424       -10.6240
 252   2.0000      -0.388701       -10.5771
 253   2.0000      -0.387620       -10.5477
 254   2.0000      -0.385850       -10.4995
 255   2.0000      -0.376723       -10.2512
 256   2.0000      -0.375050       -10.2056
 257   2.0000      -0.373526       -10.1642
 258   2.0000      -0.365926        -9.9573
 259   2.0000      -0.361378        -9.8336
 260   2.0000      -0.360059        -9.7977
 261   2.0000      -0.358682        -9.7602
 262   2.0000      -0.347022        -9.4430
 263   2.0000      -0.342971        -9.3327
 264   2.0000      -0.342435        -9.3181
 265   2.0000      -0.335266        -9.1230
 266   2.0000      -0.325429        -8.8554
 267   2.0000      -0.319538        -8.6951
 268   2.0000      -0.316544        -8.6136
 269   2.0000      -0.308135        -8.3848
 270   2.0000      -0.305900        -8.3240
 271   2.0000      -0.303704        -8.2642
 272   2.0000      -0.291190        -7.9237
 273   2.0000      -0.284591        -7.7441
 274   2.0000      -0.278206        -7.5704
 275   2.0000      -0.238658        -6.4942
 276   0.0000      -0.113820        -3.0972
 277   0.0000      -0.088743        -2.4148
 278   0.0000      -0.069782        -1.8989
 279   0.0000      -0.060128        -1.6362
 280   0.0000      -0.056695        -1.5428

MULLIKEN ATOMIC CHARGES
-----------------------
   0 C :    0.287782
   1 C :   -0.338010
   2 C :   -0.190527
   3 N :    0.156025
   4 C :   -0.195264
   5 N :    0.169345
   6 C :    0.019398
   7 C :    0.014876
   8 C :   -0.062857
   9 C :    0.095412
  10 C :   -0.076852
  11 C :   -0.024605
  12 S :    0.183688
  13 C :   -0.123740
  14 C :    0.037150
  15 Br:    0.018122
  16 C :    0.171220
  17 O :   -0.146383
  18 C :   -0.029213
  19 C :    0.016237
  20 C :   -0.093904
  21 N :   -0.065121
  22 C :    0.080295
  23 C :   -0.035950
  24 C :    0.047414
  25 N :   -0.043392
  26 C :   -0.042978
  27 C :    0.099999
  28 N :   -0.004060
  29 C :   -0.106735
  30 S :    0.157345
  31 C :   -0.044472
  32 N :    0.294457
  33 O :   -0.231364
  34 O :   -0.274876
  35 C :    0.032208
  36 C :    0.098275
  37 C :   -0.017463
  38 C :   -0.033266
  39 C :    0.017762
  40 C :   -0.041988
  41 C :    0.058794
  42 C :    0.025626
  43 C :   -0.016951
  44 S :    0.093625
  45 C :   -0.062297
  46 C :    0.045640
  47 C :    0.053113
  48 C :   -0.035458
  49 S :    0.108680
  50 C :   -0.005550
  51 C :    0.039676
  52 C :   -0.145907
  53 C :    0.143478
  54 O :   -0.146402
  55 C :    0.025249
  56 C :   -0.090603
  57 C :    0.110103
  58 C :    0.129524
  59 C :   -0.121471
  60 C :    0.247772
  61 C :    0.247322
  62 C :   -0.099478
  63 F :   -0.179434
  64 F :   -0.175352
  65 C :   -0.074403
  66 C :    0.044692
  67 C :    0.243900
  68 C :   -0.361514
  69 C :   -0.205903
  70 N :    0.166088
  71 C :   -0.098519
  72 N :    0.104763
  73 H :   -0.026989
  74 H :   -0.006671
  75 H :    0.002745
  76 H :    0.028369
  77 H :    0.011451
  78 H :   -0.006271
  79 H :   -0.026376
  80 H :    0.067445
  81 H :    0.129651
  82 H :    0.012422
  83 H :    0.039340
  84 H :   -0.013548
  85 H :   -0.001452
  86 H :    0.000604
  87 H :   -0.002307
  88 H :   -0.006077
  89 H :   -0.003967
  90 H :   -0.000142
  91 H :    0.022237
  92 H :   -0.010458
  93 H :   -0.011270
  94 H :   -0.000942
  95 H :   -0.040590
Sum of atomic charges:   -0.0000000

LOEWDIN ATOMIC CHARGES
----------------------
   0 C :    0.075784
   1 C :   -0.130182
   2 C :   -0.017261
   3 N :   -0.047627
   4 C :   -0.025237
   5 N :   -0.039609
   6 C :   -0.022874
   7 C :   -0.056982
   8 C :    0.030234
   9 C :   -0.027741
  10 C :   -0.139333
  11 C :   -0.011134
  12 S :    0.431014
  13 C :   -0.272083
  14 C :   -0.067770
  15 Br:    0.134095
  16 C :    0.093176
  17 O :   -0.135955
  18 C :   -0.051527
  19 C :    0.054652
  20 C :    0.017156
  21 N :   -0.083237
  22 C :    0.051053
  23 C :   -0.059314
  24 C :    0.041098
  25 N :   -0.066768
  26 C :   -0.094192
  27 C :    0.062473
  28 N :    0.052621
  29 C :   -0.079465
  30 S :    0.486739
  31 C :   -0.227801
  32 N :    0.282481
  33 O :   -0.202443
  34 O :   -0.241794
  35 C :    0.015879
  36 C :   -0.116442
  37 C :    0.009351
  38 C :   -0.077014
  39 C :   -0.019979
  40 C :   -0.155683
  41 C :   -0.001528
  42 C :   -0.042514
  43 C :   -0.137974
  44 S :    0.412064
  45 C :   -0.199152
  46 C :   -0.017991
  47 C :   -0.031925
  48 C :   -0.114322
  49 S :    0.469561
  50 C :   -0.070533
  51 C :    0.037858
  52 C :   -0.106262
  53 C :    0.083611
  54 O :   -0.146133
  55 C :   -0.050070
  56 C :    0.028403
  57 C :   -0.010596
  58 C :   -0.002848
  59 C :   -0.042814
  60 C :    0.063509
  61 C :    0.063163
  62 C :   -0.027762
  63 F :   -0.052518
  64 F :   -0.048814
  65 C :   -0.000213
  66 C :   -0.010640
  67 C :    0.036649
  68 C :   -0.174368
  69 C :   -0.028482
  70 N :   -0.056859
  71 C :    0.012495
  72 N :   -0.082278
  73 H :    0.024774
  74 H :    0.040267
  75 H :    0.036126
  76 H :    0.050216
  77 H :    0.028918
  78 H :    0.033257
  79 H :    0.023955
  80 H :    0.032437
  81 H :    0.093035
  82 H :    0.040574
  83 H :    0.028319
  84 H :    0.021512
  85 H :    0.039001
  86 H :    0.038658
  87 H :    0.036516
  88 H :    0.035579
  89 H :    0.037567
  90 H :    0.041505
  91 H :    0.046745
  92 H :    0.039646
  93 H :    0.037057
  94 H :    0.044825
  95 H :    0.030437

  Mayer bond orders larger than 0.100000
B(  0-C ,  1-C ) :   1.6581 B(  0-C ,  6-C ) :   1.0183 B(  0-C , 18-C ) :   1.0263
B(  1-C ,  2-C ) :   1.1382 B(  1-C ,  4-C ) :   1.1362 B(  2-C ,  3-N ) :   2.9837
B(  4-C ,  5-N ) :   2.9871 B(  6-C ,  7-C ) :   1.2588 B(  6-C , 11-C ) :   1.3956
B(  7-C ,  8-C ) :   1.3762 B(  7-C , 16-C ) :   0.9493 B(  8-C ,  9-C ) :   1.2766
B(  8-C , 73-H ) :   1.0137 B(  9-C , 10-C ) :   1.2906 B(  9-C , 14-C ) :   1.1795
B( 10-C , 11-C ) :   1.3370 B( 10-C , 12-S ) :   1.0884 B( 11-C , 74-H ) :   0.9822
B( 12-S , 13-C ) :   1.0800 B( 13-C , 14-C ) :   1.5964 B( 13-C , 15-Br) :   1.0192
B( 14-C , 75-H ) :   0.9915 B( 16-C , 17-O ) :   2.1601 B( 16-C , 18-C ) :   0.9116
B( 18-C , 19-C ) :   1.7146 B( 19-C , 20-C ) :   1.0093 B( 19-C , 76-H ) :   0.9358
B( 20-C , 21-N ) :   1.5342 B( 20-C , 25-N ) :   1.5516 B( 21-N , 22-C ) :   1.5421
B( 22-C , 23-C ) :   1.3835 B( 22-C , 77-H ) :   0.9803 B( 23-C , 24-C ) :   1.3241
B( 23-C , 78-H ) :   0.9759 B( 24-C , 25-N ) :   1.5110 B( 24-C , 26-C ) :   1.0846
B( 26-C , 27-C ) :   1.7208 B( 26-C , 79-H ) :   0.9707 B( 27-C , 28-N ) :   1.1090
B( 27-C , 80-H ) :   0.9265 B( 28-N , 29-C ) :   1.2597 B( 28-N , 81-H ) :   0.9078
B( 29-C , 30-S ) :   1.1787 B( 29-C , 36-C ) :   1.2838 B( 30-S , 31-C ) :   1.0363
B( 31-C , 32-N ) :   0.9912 B( 31-C , 35-C ) :   1.4600 B( 32-N , 33-O ) :   1.5490
B( 32-N , 34-O ) :   1.4251 B( 33-O , 34-O ) :   0.2385 B( 35-C , 36-C ) :   1.2242
B( 35-C , 82-H ) :   0.9723 B( 36-C , 37-C ) :   1.1644 B( 37-C , 38-C ) :   1.5927
B( 37-C , 83-H ) :   0.9362 B( 38-C , 39-C ) :   1.1955 B( 38-C , 84-H ) :   0.9524
B( 39-C , 40-C ) :   1.5933 B( 39-C , 85-H ) :   0.9578 B( 40-C , 41-C ) :   1.1499
B( 40-C , 44-S ) :   1.0285 B( 41-C , 42-C ) :   1.5824 B( 41-C , 86-H ) :   0.9975
B( 42-C , 43-C ) :   1.1917 B( 42-C , 87-H ) :   0.9958 B( 43-C , 44-S ) :   1.0875
B( 43-C , 45-C ) :   1.4631 B( 45-C , 46-C ) :   1.2044 B( 45-C , 49-S ) :   1.0384
B( 46-C , 47-C ) :   1.5664 B( 46-C , 88-H ) :   0.9920 B( 47-C , 48-C ) :   1.1750
B( 47-C , 89-H ) :   0.9972 B( 48-C , 49-S ) :   1.1186 B( 48-C , 50-C ) :   1.4322
B( 50-C , 51-C ) :   1.3426 B( 50-C , 90-H ) :   0.9552 B( 51-C , 52-C ) :   1.4665
B( 51-C , 91-H ) :   0.9329 B( 52-C , 53-C ) :   0.9589 B( 52-C , 67-C ) :   1.1451
B( 53-C , 54-O ) :   2.2626 B( 53-C , 55-C ) :   0.9091 B( 55-C , 56-C ) :   1.4900
B( 55-C , 66-C ) :   1.2181 B( 56-C , 57-C ) :   1.1823 B( 56-C , 92-H ) :   1.0150
B( 57-C , 58-C ) :   1.2661 B( 57-C , 62-C ) :   1.1962 B( 58-C , 59-C ) :   1.2029
B( 58-C , 65-C ) :   1.1982 B( 59-C , 60-C ) :   1.4354 B( 59-C , 62-C ) :   0.1091
B( 59-C , 93-H ) :   0.9949 B( 60-C , 61-C ) :   1.2038 B( 60-C , 64-F ) :   1.1013
B( 61-C , 62-C ) :   1.4440 B( 61-C , 63-F ) :   1.1046 B( 62-C , 94-H ) :   1.0063
B( 65-C , 66-C ) :   1.4900 B( 65-C , 95-H ) :   0.9916 B( 66-C , 67-C ) :   0.9825
B( 67-C , 68-C ) :   1.5448 B( 68-C , 69-C ) :   1.1576 B( 68-C , 71-C ) :   1.1742
B( 69-C , 70-N ) :   3.0168 B( 71-C , 72-N ) :   2.8472 B( 72-N , 82-H ) :   0.1023

-----------------------------------------------------------------------------
         ABSORPTION SPECTRUM VIA TRANSITION ELECTRIC DIPOLE MOMENTS
-----------------------------------------------------------------------------
State   Energy  Wavelength   fosc         T2         TX        TY        TZ
        (cm-1)    (nm)                  (au**2)     (au)      (au)      (au)
-----------------------------------------------------------------------------
   0   11274.7    886.9   0.351853521  10.27384   3.00178   0.75263   0.83470
   1   20681.2    483.5   0.121978760   1.94171  -0.24004   1.21413   0.64029
   2   21545.1    464.1   0.560260026   8.56085   2.20807  -1.62672  -1.01935
   3   22233.8    449.8   0.116276918   1.72169  -1.28645  -0.20858  -0.15246
   4   22738.2    439.8   0.062139635   0.89968   0.46593  -0.82306   0.07187
   5   22973.2    435.3   0.079074702   1.13316  -0.11537   1.00822  -0.32147
   6   24324.8    411.1   0.216329947   2.92781   0.36096  -1.14313  -1.22097
   7   24555.3    407.2   0.000970566   0.01301  -0.04080  -0.03316  -0.10123
   8   25867.8    386.6   0.225145337   2.86536   1.59071   0.38416  -0.43292
   9   26084.7    383.4   0.066338085   0.83725   0.70393  -0.58404  -0.02491
  10   27111.0    368.9   0.393664241   4.78031   1.59072  -1.46696  -0.31293
  11   27568.9    362.7   0.040929114   0.48875  -0.42014  -0.48995  -0.26868
  12   27832.3    359.3   0.093557733   1.10664  -0.54744   0.89769   0.03310
  13   28339.5    352.9   0.109201269   1.26856   1.00267   0.26205  -0.44108
  14   28405.5    352.0   0.096033915   1.11301  -0.43251  -0.84027   0.46892
  15   28568.4    350.0   0.061677788   0.71075   0.62741   0.22519  -0.51614
  16   29046.9    344.3   0.076938575   0.87201  -0.35802  -0.83434  -0.21840
  17   29221.1    342.2   0.015758563   0.17754   0.00189  -0.37938  -0.18333
  18   30363.1    329.3   0.020394740   0.22113  -0.27339  -0.38260   0.00165
  19   30424.3    328.7   0.036731502   0.39746   0.45723   0.42638   0.08126
  20   31018.0    322.4   0.031037328   0.32942   0.53167  -0.08393  -0.19924
  21   31098.7    321.6   0.022206408   0.23508   0.16726  -0.18413   0.41617
  22   31424.6    318.2   0.017864809   0.18716   0.37078   0.20320  -0.09158
  23   31553.1    316.9   0.003832197   0.03998  -0.19657   0.03664   0.00177
  24   31661.8    315.8   0.232203553   2.41440   1.29932   0.71322  -0.46637
  25   31816.6    314.3   0.424773966   4.39521  -1.12723   0.73551   1.60735
  26   32149.5    311.0   0.760657396   7.78917   2.27290   1.61379  -0.13712
  27   32528.2    307.4   0.020938207   0.21191  -0.12946   0.29760   0.32648
  28   32653.4    306.2   0.080672064   0.81334  -0.45947   0.32649   0.70400
  29   32948.9    303.5   0.187990177   1.87832   0.30148  -0.85424  -1.02845
  30   33069.1    302.4   0.061889265   0.61612   0.03084  -0.35899  -0.69735
  31   33217.4    301.0   0.100031735   0.99140   0.17788   0.88834   0.41305
  32   33670.8    297.0   0.113200187   1.10680  -0.85887   0.17171   0.58280
  33   33928.5    294.7   0.020932706   0.20311   0.19693  -0.26424  -0.30742
  34   34057.7    293.6   0.116086979   1.12213   0.78622   0.61228   0.35932
  35   34332.7    291.3   0.028955059   0.27765  -0.10012   0.50827   0.09633
  36   34483.4    290.0   0.018379118   0.17546  -0.27276  -0.22459  -0.22500
  37   34794.0    287.4   0.016296738   0.15420  -0.30057  -0.08948   0.23631
  38   35052.3    285.3   0.133286132   1.25183   0.49603   0.58428   0.81511
  39   35129.4    284.7   0.005766925   0.05404   0.05346   0.21175   0.07967
  40   35531.2    281.4   0.039027333   0.36161   0.45054  -0.39490  -0.05170
  41   35661.2    280.4   0.085605690   0.79028   0.69082   0.55766   0.04538
  42   35789.7    279.4   0.024014328   0.22090   0.07419   0.20115   0.41825
  43   35972.6    278.0   0.185943861   1.70171   0.29820   0.71137   1.05202
  44   36355.5    275.1   0.098023001   0.88763  -0.41469  -0.73516  -0.41857
  45   36430.9    274.5   0.056497688   0.51055   0.38719   0.51181   0.31414
  46   36684.4    272.6   0.169937632   1.52505  -0.11674  -0.70054  -1.01028
  47   36712.1    272.4   0.361054336   3.23771   0.86578   1.35715   0.80392
  48   37225.3    268.6   0.054343003   0.48060  -0.57654  -0.08671  -0.37507
  49   37442.0    267.1   0.035812510   0.31488   0.20992   0.37852   0.35713
  50   37604.7    265.9   0.193581561   1.69472  -0.52069   0.35502   1.13911
  51   37758.1    264.8   0.280976732   2.44983  -1.16602  -0.87883  -0.56381
  52   38079.1    262.6   0.209716674   1.81310   0.49053  -0.45895  -1.16698
  53   38156.9    262.1   0.026750149   0.23080   0.46738   0.01920   0.10948
  54   38245.9    261.5   0.048254898   0.41537   0.53165   0.35694   0.07283
  55   38624.6    258.9   0.031548321   0.26890   0.51773   0.02663  -0.01199
  56   38676.0    258.6   0.001169231   0.00995  -0.07000  -0.00681   0.07076
  57   38912.0    257.0   0.006918588   0.05853  -0.11319   0.20972  -0.04172
  58   39235.3    254.9   0.020119681   0.16882   0.20809   0.33793   0.10638
  59   39490.3    253.2   0.000360192   0.00300   0.01758  -0.04552   0.02493
  60   39740.9    251.6   0.155489954   1.28807  -1.06873  -0.10757  -0.36649
  61   40108.2    249.3   0.020207640   0.16587   0.40686   0.01822   0.00057
  62   40223.1    248.6   0.019105257   0.15637   0.35915   0.16345   0.02574

FINAL SINGLE POINT ENERGY     -7172.454380375539

DIPOLE MOMENT
-------------
                                X             Y             Z
Electronic contribution:     -9.54438     -91.68063     -58.57090
Nuclear contribution   :      9.08868      96.88896      61.55113
                        -----------------------------------------
Total Dipole Moment    :     -0.45570       5.20833       2.98023
                        -----------------------------------------
Magnitude (a.u.)       :      6.01798
Magnitude (Debye)      :     15.29649

Rotational constants in cm-1:     0.001194     0.000569     0.000420
Rotational constants in MHz :    35.793798    17.058648    12.581644

                             ****ORCA TERMINATED NORMALLY****
TOTAL RUN TIME: 0 days 0 hours 15 minutes 16 seconds 330 msec
