                         Program Version 4.2.0 -  RELEASE  -
|  1> # ORCA input file
|  2> # SCF done       -187.629894123851          0.000797469109
|  3> ! CAM-B3LYP def2-SVP def2/J RIJCOSX Grid4 TightSCF
|  4> %maxcore 5000
|  5> %tddft
|  6>     Mode sTDDFT
|  7>     Ethresh 5.0
|  8>     maxcore 5000
|  9> end
| 10>
| 11> %pal
| 12>   nprocs 6
| 13>   end
| 14> * xyz 0 1
| 15>    C        2.06616        10.90364        -2.20614
| 16>    C        1.43312        11.35385        -1.07459
| 17>    C        1.64601        12.62640        -0.50525
| 18>    N        1.77064        13.64706         0.00650
| 19>    C        0.49703        10.63389        -0.30334
| 20>    N       -0.26997        10.13310         0.38970
| 21>    C        3.04946        11.66286        -2.97537
| 22>    C        3.50826        10.85701        -4.04606
| 23>    C        4.43855        11.28949        -4.95852
| 24>    C        4.94245        12.58619        -4.80921
| 25>    C        4.47984        13.38522        -3.73766
| 26>    C        3.53889        12.94501        -2.81381
| 27>    S        5.22942        14.95289        -3.73987
| 28>    C        6.14145        14.51872        -5.16108
| 29>    C        5.89907        13.26535        -5.61245
| 30>   Br        7.32577        15.76168        -5.91632
| 31>    C        2.82598         9.55185        -3.99103
| 32>    O        3.00227         8.61791        -4.75556
| 33>    C        1.90908         9.61616        -2.85059
| 34>    C        1.01511         8.63652        -2.48883
| 35>    C        0.76551         7.38893        -3.06380
| 36>    S        1.61821         6.64527        -4.45161
| 37>    C        0.56210         5.31161        -4.29895
| 38>    C       -0.34828         5.51633        -3.22923
| 39>    N       -0.21302         6.63933        -2.57536
| 40>    C       -1.30557         4.37407        -3.10814
| 41>    C       -0.86390         3.51203        -4.25254
| 42>    C        0.24085         4.08716        -4.90563
| 43>    S        0.77663         3.13175        -6.22901
| 44>    C       -0.51339         1.97446        -5.94002
| 45>    C       -1.28606         2.33413        -4.83313
| 46>    C       -0.69481         0.89496        -6.82516
| 47>    C       -1.80068         0.08834        -6.81238
| 48>    C       -2.08434        -0.91297        -7.74604
| 49>    C       -3.30510        -1.54957        -7.79284
| 50>    C       -3.76863        -2.48096        -8.75254
| 51>    C       -5.07999        -2.82565        -8.61031
| 52>    C       -5.72323        -2.19677        -7.52001
| 53>    S       -4.59132        -1.18411        -6.65484
| 54>    C       -7.04805        -2.22672        -7.13757
| 55>    C       -8.14292        -2.82907        -7.80189
| 56>    C       -9.34231        -2.53590        -7.23362
| 57>    C       -9.25294        -1.70201        -6.08345
| 58>    S       -7.58434        -1.34696        -5.70865
| 59>    C      -10.27154        -1.16219        -5.35324
| 60>    C       -9.97870        -0.33569        -4.22833
| 61>    N       -8.68336        -0.25921        -3.87768
| 62>    C       -8.36646         0.44140        -2.81070
| 63>    C       -9.32732         1.10193        -2.06333
| 64>    C      -10.64803         1.03709        -2.53984
| 65>    N      -10.96323         0.31434        -3.60880
| 66>    C      -11.69626         1.80737        -1.90210
| 67>    C      -12.87466         2.06479        -2.50400
| 68>    C      -13.84158         2.93702        -1.93469
| 69>    C      -15.00827         3.35495        -2.48780
| 70>    C      -15.70005         2.95829        -3.70016
| 71>    C      -15.75987         1.69794        -4.22829
| 72>    C      -16.48987         1.37306        -5.39125
| 73>    N      -17.05326         1.06588        -6.34277
| 74>    C      -15.20414         0.55470        -3.61088
| 75>    N      -14.83651        -0.41592        -3.12286
| 76>    C      -16.49686         4.10288        -4.12873
| 77>    C      -16.50756         5.06687        -3.08767
| 78>    C      -15.65738         4.59709        -1.97650
| 79>    O      -15.46746         5.12636        -0.90745
| 80>    C      -17.19852         6.25054        -3.18612
| 81>    C      -17.89996         6.50036        -4.36997
| 82>    C      -17.87446         5.53617        -5.40715
| 83>    C      -17.18508         4.33424        -5.30467
| 84>    S      -18.79384         6.05684        -6.78559
| 85>    C      -19.19658         7.54081        -5.96246
| 86>    C      -18.67093         7.64290        -4.71856
| 87>   Br      -20.26836         8.81479        -6.82461
| 88>    H        4.76622        10.64958        -5.76275
| 89>    H        3.21882        13.59521        -2.01722
| 90>    H        6.37329        12.83590        -6.47601
| 91>    H        0.36272         8.82928        -1.64615
| 92>    H       -2.34165         4.70204        -3.20641
| 93>    H       -1.20821         3.86728        -2.14619
| 94>    H       -2.11459         1.74615        -4.48439
| 95>    H        0.05722         0.75214        -7.58928
| 96>    H       -2.56155         0.26675        -6.06441
| 97>    H       -1.34960        -1.16036        -8.50007
| 98>    H       -3.12439        -2.84953        -9.53155
| 99>    H       -5.60204        -3.50609        -9.25920
|100>    H       -8.02235        -3.42968        -8.68665
|101>    H      -10.29496        -2.87467        -7.60111
|102>    H      -11.30375        -1.33309        -5.61010
|103>    H       -7.31526         0.46992        -2.55356
|104>    H       -9.07437         1.66665        -1.18148
|105>    H      -11.47109         2.21960        -0.92745
|106>    H      -13.04067         1.64256        -3.48378
|107>    H      -13.57279         3.42140        -1.00128
|108>    H      -17.19440         6.96383        -2.37697
|109>    H      -17.18598         3.63306        -6.12288
|110>    H      -18.81723         8.48938        -4.07279
|111> *
|112>
|113>                          ****END OF INPUT****

CARTESIAN COORDINATES (ANGSTROEM)
---------------------------------
  C      2.066160   10.903640   -2.206140
  C      1.433120   11.353850   -1.074590
  C      1.646010   12.626400   -0.505250
  N      1.770640   13.647060    0.006500
  C      0.497030   10.633890   -0.303340
  N     -0.269970   10.133100    0.389700
  C      3.049460   11.662860   -2.975370
  C      3.508260   10.857010   -4.046060
  C      4.438550   11.289490   -4.958520
  C      4.942450   12.586190   -4.809210
  C      4.479840   13.385220   -3.737660
  C      3.538890   12.945010   -2.813810
  S      5.229420   14.952890   -3.739870
  C      6.141450   14.518720   -5.161080
  C      5.899070   13.265350   -5.612450
  Br     7.325770   15.761680   -5.916320
  C      2.825980    9.551850   -3.991030
  O      3.002270    8.617910   -4.755560
  C      1.909080    9.616160   -2.850590
  C      1.015110    8.636520   -2.488830
  C      0.765510    7.388930   -3.063800
  S      1.618210    6.645270   -4.451610
  C      0.562100    5.311610   -4.298950
  C     -0.348280    5.516330   -3.229230
  N     -0.213020    6.639330   -2.575360
  C     -1.305570    4.374070   -3.108140
  C     -0.863900    3.512030   -4.252540
  C      0.240850    4.087160   -4.905630
  S      0.776630    3.131750   -6.229010
  C     -0.513390    1.974460   -5.940020
  C     -1.286060    2.334130   -4.833130
  C     -0.694810    0.894960   -6.825160
  C     -1.800680    0.088340   -6.812380
  C     -2.084340   -0.912970   -7.746040
  C     -3.305100   -1.549570   -7.792840
  C     -3.768630   -2.480960   -8.752540
  C     -5.079990   -2.825650   -8.610310
  C     -5.723230   -2.196770   -7.520010
  S     -4.591320   -1.184110   -6.654840
  C     -7.048050   -2.226720   -7.137570
  C     -8.142920   -2.829070   -7.801890
  C     -9.342310   -2.535900   -7.233620
  C     -9.252940   -1.702010   -6.083450
  S     -7.584340   -1.346960   -5.708650
  C    -10.271540   -1.162190   -5.353240
  C     -9.978700   -0.335690   -4.228330
  N     -8.683360   -0.259210   -3.877680
  C     -8.366460    0.441400   -2.810700
  C     -9.327320    1.101930   -2.063330
  C    -10.648030    1.037090   -2.539840
  N    -10.963230    0.314340   -3.608800
  C    -11.696260    1.807370   -1.902100
  C    -12.874660    2.064790   -2.504000
  C    -13.841580    2.937020   -1.934690
  C    -15.008270    3.354950   -2.487800
  C    -15.700050    2.958290   -3.700160
  C    -15.759870    1.697940   -4.228290
  C    -16.489870    1.373060   -5.391250
  N    -17.053260    1.065880   -6.342770
  C    -15.204140    0.554700   -3.610880
  N    -14.836510   -0.415920   -3.122860
  C    -16.496860    4.102880   -4.128730
  C    -16.507560    5.066870   -3.087670
  C    -15.657380    4.597090   -1.976500
  O    -15.467460    5.126360   -0.907450
  C    -17.198520    6.250540   -3.186120
  C    -17.899960    6.500360   -4.369970
  C    -17.874460    5.536170   -5.407150
  C    -17.185080    4.334240   -5.304670
  S    -18.793840    6.056840   -6.785590
  C    -19.196580    7.540810   -5.962460
  C    -18.670930    7.642900   -4.718560
  Br   -20.268360    8.814790   -6.824610
  H      4.766220   10.649580   -5.762750
  H      3.218820   13.595210   -2.017220
  H      6.373290   12.835900   -6.476010
  H      0.362720    8.829280   -1.646150
  H     -2.341650    4.702040   -3.206410
  H     -1.208210    3.867280   -2.146190
  H     -2.114590    1.746150   -4.484390
  H      0.057220    0.752140   -7.589280
  H     -2.561550    0.266750   -6.064410
  H     -1.349600   -1.160360   -8.500070
  H     -3.124390   -2.849530   -9.531550
  H     -5.602040   -3.506090   -9.259200
  H     -8.022350   -3.429680   -8.686650
  H    -10.294960   -2.874670   -7.601110
  H    -11.303750   -1.333090   -5.610100
  H     -7.315260    0.469920   -2.553560
  H     -9.074370    1.666650   -1.181480
  H    -11.471090    2.219600   -0.927450
  H    -13.040670    1.642560   -3.483780
  H    -13.572790    3.421400   -1.001280
  H    -17.194400    6.963830   -2.376970
  H    -17.185980    3.633060   -6.122880
  H    -18.817230    8.489380   -4.072790

 Total Charge           Charge          ....    0
 Multiplicity           Mult            ....    1
 Number of Electrons    NEL             ....  590
 Basis Dimension        Dim             .... 1197

ORBITAL ENERGIES
----------------

  NO   OCC          E(Eh)            E(eV)
   0   2.0000    -482.887974    -13140.0498
   1   2.0000    -482.882869    -13139.9109
   2   2.0000     -88.978510     -2421.2284
   3   2.0000     -88.972867     -2421.0748
   4   2.0000     -88.971884     -2421.0481
   5   2.0000     -88.970865     -2421.0203
   6   2.0000     -88.947705     -2420.3901
   7   2.0000     -88.940524     -2420.1947
   8   2.0000     -62.565674     -1702.4986
   9   2.0000     -62.560584     -1702.3600
  10   2.0000     -56.399629     -1534.7119
  11   2.0000     -56.396905     -1534.6378
  12   2.0000     -56.396876     -1534.6370
  13   2.0000     -56.394530     -1534.5732
  14   2.0000     -56.391821     -1534.4995
  15   2.0000     -56.391786     -1534.4985
  16   2.0000     -19.219189      -522.9807
  17   2.0000     -19.217671      -522.9394
  18   2.0000     -14.421394      -392.4261
  19   2.0000     -14.420294      -392.3962
  20   2.0000     -14.415240      -392.2586
  21   2.0000     -14.414217      -392.2308
  22   2.0000     -14.411214      -392.1491
  23   2.0000     -14.408274      -392.0691
  24   2.0000     -14.408021      -392.0622
  25   2.0000     -10.370113      -282.1851
  26   2.0000     -10.364738      -282.0389
  27   2.0000     -10.361749      -281.9575
  28   2.0000     -10.355427      -281.7855
  29   2.0000     -10.349274      -281.6181
  30   2.0000     -10.345491      -281.5151
  31   2.0000     -10.344382      -281.4849
  32   2.0000     -10.335000      -281.2296
  33   2.0000     -10.334715      -281.2219
  34   2.0000     -10.334363      -281.2123
  35   2.0000     -10.334185      -281.2075
  36   2.0000     -10.329519      -281.0805
  37   2.0000     -10.329079      -281.0685
  38   2.0000     -10.322253      -280.8828
  39   2.0000     -10.321332      -280.8577
  40   2.0000     -10.317776      -280.7609
  41   2.0000     -10.316683      -280.7312
  42   2.0000     -10.315739      -280.7055
  43   2.0000     -10.315499      -280.6990
  44   2.0000     -10.314384      -280.6686
  45   2.0000     -10.313855      -280.6543
  46   2.0000     -10.313159      -280.6353
  47   2.0000     -10.312347      -280.6132
  48   2.0000     -10.312109      -280.6068
  49   2.0000     -10.311889      -280.6008
  50   2.0000     -10.311510      -280.5904
  51   2.0000     -10.311008      -280.5768
  52   2.0000     -10.310898      -280.5738
  53   2.0000     -10.310020      -280.5499
  54   2.0000     -10.309634      -280.5394
  55   2.0000     -10.305080      -280.4155
  56   2.0000     -10.303466      -280.3716
  57   2.0000     -10.303224      -280.3650
  58   2.0000     -10.302700      -280.3507
  59   2.0000     -10.301803      -280.3263
  60   2.0000     -10.300651      -280.2950
  61   2.0000     -10.299433      -280.2618
  62   2.0000     -10.298530      -280.2373
  63   2.0000     -10.297367      -280.2056
  64   2.0000     -10.296934      -280.1938
  65   2.0000     -10.295306      -280.1495
  66   2.0000     -10.295007      -280.1414
  67   2.0000     -10.294981      -280.1407
  68   2.0000     -10.294367      -280.1240
  69   2.0000     -10.293519      -280.1009
  70   2.0000     -10.292222      -280.0656
  71   2.0000     -10.291077      -280.0344
  72   2.0000     -10.290634      -280.0224
  73   2.0000     -10.289822      -280.0003
  74   2.0000     -10.289242      -279.9845
  75   2.0000     -10.288267      -279.9580
  76   2.0000     -10.287986      -279.9503
  77   2.0000     -10.286626      -279.9133
  78   2.0000     -10.285040      -279.8702
  79   2.0000     -10.284452      -279.8542
  80   2.0000     -10.268592      -279.4226
  81   2.0000      -8.795098      -239.3268
  82   2.0000      -8.790008      -239.1883
  83   2.0000      -8.074558      -219.7199
  84   2.0000      -8.067946      -219.5400
  85   2.0000      -8.065947      -219.4856
  86   2.0000      -8.065393      -219.4705
  87   2.0000      -8.044119      -218.8916
  88   2.0000      -8.034030      -218.6171
  89   2.0000      -6.631409      -180.4498
  90   2.0000      -6.626301      -180.3108
  91   2.0000      -6.616841      -180.0534
  92   2.0000      -6.616612      -180.0472
  93   2.0000      -6.611749      -179.9148
  94   2.0000      -6.611553      -179.9095
  95   2.0000      -6.044262      -164.4727
  96   2.0000      -6.039958      -164.3556
  97   2.0000      -6.037628      -164.2922
  98   2.0000      -6.035762      -164.2414
  99   2.0000      -6.035280      -164.2283
 100   2.0000      -6.034808      -164.2155
 101   2.0000      -6.033360      -164.1761
 102   2.0000      -6.031207      -164.1175
 103   2.0000      -6.030217      -164.0905
 104   2.0000      -6.029154      -164.0616
 105   2.0000      -6.027993      -164.0300
 106   2.0000      -6.027801      -164.0248
 107   2.0000      -6.013816      -163.6442
 108   2.0000      -6.009810      -163.5353
 109   2.0000      -6.005045      -163.4056
 110   2.0000      -6.004214      -163.3830
 111   2.0000      -5.999398      -163.2519
 112   2.0000      -5.995039      -163.1333
 113   2.0000      -2.747291       -74.7576
 114   2.0000      -2.743179       -74.6457
 115   2.0000      -2.743035       -74.6418
 116   2.0000      -2.742168       -74.6182
 117   2.0000      -2.738078       -74.5069
 118   2.0000      -2.737955       -74.5035
 119   2.0000      -2.731441       -74.3263
 120   2.0000      -2.731426       -74.3259
 121   2.0000      -2.726388       -74.1888
 122   2.0000      -2.726366       -74.1882
 123   2.0000      -1.134765       -30.8785
 124   2.0000      -1.132552       -30.8183
 125   2.0000      -1.087875       -29.6026
 126   2.0000      -1.073289       -29.2057
 127   2.0000      -1.026360       -27.9287
 128   2.0000      -1.018212       -27.7070
 129   2.0000      -1.015698       -27.6385
 130   2.0000      -1.007548       -27.4168
 131   2.0000      -1.004710       -27.3396
 132   2.0000      -0.998063       -27.1587
 133   2.0000      -0.996080       -27.1047
 134   2.0000      -0.992167       -26.9982
 135   2.0000      -0.990037       -26.9403
 136   2.0000      -0.986745       -26.8507
 137   2.0000      -0.984686       -26.7947
 138   2.0000      -0.972384       -26.4599
 139   2.0000      -0.947514       -25.7832
 140   2.0000      -0.941992       -25.6329
 141   2.0000      -0.936354       -25.4795
 142   2.0000      -0.925957       -25.1966
 143   2.0000      -0.912799       -24.8385
 144   2.0000      -0.911691       -24.8084
 145   2.0000      -0.906444       -24.6656
 146   2.0000      -0.904459       -24.6116
 147   2.0000      -0.902400       -24.5556
 148   2.0000      -0.890931       -24.2435
 149   2.0000      -0.889431       -24.2027
 150   2.0000      -0.883394       -24.0384
 151   2.0000      -0.881463       -23.9858
 152   2.0000      -0.871392       -23.7118
 153   2.0000      -0.861438       -23.4409
 154   2.0000      -0.853199       -23.2167
 155   2.0000      -0.849461       -23.1150
 156   2.0000      -0.837770       -22.7969
 157   2.0000      -0.835096       -22.7241
 158   2.0000      -0.831268       -22.6199
 159   2.0000      -0.825333       -22.4585
 160   2.0000      -0.819457       -22.2986
 161   2.0000      -0.806482       -21.9455
 162   2.0000      -0.791791       -21.5457
 163   2.0000      -0.784913       -21.3586
 164   2.0000      -0.783811       -21.3286
 165   2.0000      -0.764921       -20.8145
 166   2.0000      -0.764807       -20.8114
 167   2.0000      -0.756365       -20.5817
 168   2.0000      -0.745527       -20.2868
 169   2.0000      -0.741760       -20.1843
 170   2.0000      -0.726663       -19.7735
 171   2.0000      -0.710594       -19.3363
 172   2.0000      -0.704523       -19.1710
 173   2.0000      -0.698081       -18.9958
 174   2.0000      -0.692084       -18.8326
 175   2.0000      -0.686802       -18.6888
 176   2.0000      -0.686167       -18.6715
 177   2.0000      -0.680857       -18.5271
 178   2.0000      -0.673517       -18.3273
 179   2.0000      -0.668289       -18.1851
 180   2.0000      -0.658817       -17.9273
 181   2.0000      -0.650514       -17.7014
 182   2.0000      -0.650212       -17.6932
 183   2.0000      -0.646848       -17.6016
 184   2.0000      -0.643159       -17.5013
 185   2.0000      -0.634195       -17.2573
 186   2.0000      -0.628315       -17.0973
 187   2.0000      -0.627810       -17.0836
 188   2.0000      -0.620679       -16.8895
 189   2.0000      -0.619335       -16.8530
 190   2.0000      -0.617639       -16.8068
 191   2.0000      -0.612460       -16.6659
 192   2.0000      -0.607923       -16.5424
 193   2.0000      -0.601090       -16.3565
 194   2.0000      -0.596295       -16.2260
 195   2.0000      -0.591722       -16.1016
 196   2.0000      -0.589703       -16.0466
 197   2.0000      -0.587640       -15.9905
 198   2.0000      -0.574604       -15.6358
 199   2.0000      -0.572027       -15.5656
 200   2.0000      -0.570214       -15.5163
 201   2.0000      -0.561970       -15.2920
 202   2.0000      -0.558690       -15.2027
 203   2.0000      -0.553230       -15.0542
 204   2.0000      -0.549047       -14.9403
 205   2.0000      -0.545821       -14.8525
 206   2.0000      -0.545040       -14.8313
 207   2.0000      -0.542548       -14.7635
 208   2.0000      -0.540523       -14.7084
 209   2.0000      -0.537304       -14.6208
 210   2.0000      -0.536359       -14.5951
 211   2.0000      -0.532589       -14.4925
 212   2.0000      -0.531484       -14.4624
 213   2.0000      -0.527958       -14.3665
 214   2.0000      -0.522360       -14.2141
 215   2.0000      -0.520252       -14.1568
 216   2.0000      -0.516053       -14.0425
 217   2.0000      -0.513890       -13.9836
 218   2.0000      -0.511596       -13.9212
 219   2.0000      -0.509437       -13.8625
 220   2.0000      -0.506580       -13.7848
 221   2.0000      -0.505999       -13.7689
 222   2.0000      -0.500606       -13.6222
 223   2.0000      -0.498716       -13.5708
 224   2.0000      -0.498046       -13.5525
 225   2.0000      -0.497472       -13.5369
 226   2.0000      -0.495459       -13.4821
 227   2.0000      -0.494126       -13.4459
 228   2.0000      -0.491965       -13.3871
 229   2.0000      -0.489876       -13.3302
 230   2.0000      -0.487561       -13.2672
 231   2.0000      -0.486698       -13.2437
 232   2.0000      -0.483316       -13.1517
 233   2.0000      -0.481237       -13.0951
 234   2.0000      -0.478802       -13.0289
 235   2.0000      -0.477255       -12.9868
 236   2.0000      -0.471669       -12.8348
 237   2.0000      -0.466827       -12.7030
 238   2.0000      -0.464598       -12.6423
 239   2.0000      -0.462864       -12.5952
 240   2.0000      -0.460998       -12.5444
 241   2.0000      -0.458230       -12.4691
 242   2.0000      -0.455674       -12.3995
 243   2.0000      -0.450452       -12.2574
 244   2.0000      -0.450053       -12.2466
 245   2.0000      -0.449580       -12.2337
 246   2.0000      -0.445220       -12.1151
 247   2.0000      -0.444573       -12.0975
 248   2.0000      -0.443151       -12.0587
 249   2.0000      -0.441925       -12.0254
 250   2.0000      -0.440691       -11.9918
 251   2.0000      -0.439937       -11.9713
 252   2.0000      -0.437407       -11.9025
 253   2.0000      -0.434542       -11.8245
 254   2.0000      -0.429386       -11.6842
 255   2.0000      -0.429107       -11.6766
 256   2.0000      -0.427232       -11.6256
 257   2.0000      -0.425370       -11.5749
 258   2.0000      -0.424977       -11.5642
 259   2.0000      -0.423842       -11.5333
 260   2.0000      -0.419944       -11.4273
 261   2.0000      -0.414883       -11.2895
 262   2.0000      -0.412366       -11.2211
 263   2.0000      -0.411669       -11.2021
 264   2.0000      -0.409958       -11.1555
 265   2.0000      -0.409561       -11.1447
 266   2.0000      -0.399729       -10.8772
 267   2.0000      -0.398706       -10.8493
 268   2.0000      -0.393391       -10.7047
 269   2.0000      -0.388556       -10.5731
 270   2.0000      -0.385660       -10.4944
 271   2.0000      -0.382353       -10.4044
 272   2.0000      -0.377290       -10.2666
 273   2.0000      -0.372346       -10.1321
 274   2.0000      -0.369684       -10.0596
 275   2.0000      -0.364021        -9.9055
 276   2.0000      -0.359588        -9.7849
 277   2.0000      -0.356883        -9.7113
 278   2.0000      -0.354159        -9.6372
 279   2.0000      -0.346515        -9.4291
 280   2.0000      -0.340744        -9.2721
 281   2.0000      -0.339095        -9.2272
 282   2.0000      -0.333570        -9.0769
 283   2.0000      -0.332672        -9.0525
 284   2.0000      -0.326605        -8.8874
 285   2.0000      -0.319233        -8.6868
 286   2.0000      -0.318555        -8.6683
 287   2.0000      -0.314659        -8.5623
 288   2.0000      -0.312059        -8.4916
 289   2.0000      -0.301656        -8.2085
 290   2.0000      -0.296410        -8.0657
 291   2.0000      -0.294727        -8.0199
 292   2.0000      -0.288613        -7.8536
 293   2.0000      -0.256170        -6.9707
 294   2.0000      -0.214300        -5.8314
 295   0.0000      -0.102801        -2.7974
 296   0.0000      -0.096279        -2.6199
 297   0.0000      -0.078206        -2.1281
 298   0.0000      -0.063407        -1.7254
 299   0.0000      -0.057351        -1.5606

MULLIKEN ATOMIC CHARGES
-----------------------
   0 C :    0.327013
   1 C :   -0.355251
   2 C :   -0.190741
   3 N :    0.146639
   4 C :   -0.195299
   5 N :    0.155771
   6 C :    0.008027
   7 C :   -0.008843
   8 C :   -0.074641
   9 C :    0.117097
  10 C :   -0.091059
  11 C :   -0.020885
  12 S :    0.185248
  13 C :   -0.124319
  14 C :    0.038962
  15 Br:    0.020660
  16 C :    0.168168
  17 O :   -0.191856
  18 C :   -0.103478
  19 C :    0.001709
  20 C :   -0.101077
  21 S :    0.200136
  22 C :   -0.022141
  23 C :   -0.237434
  24 N :    0.010359
  25 C :    0.390001
  26 C :   -0.146690
  27 C :   -0.114932
  28 S :    0.164209
  29 C :   -0.067259
  30 C :   -0.019391
  31 C :    0.031558
  32 C :    0.003143
  33 C :   -0.000747
  34 C :   -0.023361
  35 C :    0.036814
  36 C :    0.034035
  37 C :   -0.049475
  38 S :    0.063489
  39 C :   -0.040311
  40 C :    0.036284
  41 C :    0.037342
  42 C :    0.018920
  43 S :    0.115225
  44 C :   -0.025407
  45 C :    0.014812
  46 N :   -0.161964
  47 C :    0.108931
  48 C :   -0.052127
  49 C :    0.041402
  50 N :   -0.042335
  51 C :    0.010940
  52 C :    0.049800
  53 C :    0.031928
  54 C :   -0.097197
  55 C :    0.260793
  56 C :   -0.313897
  57 C :   -0.184762
  58 N :    0.152969
  59 C :   -0.215518
  60 N :    0.185699
  61 C :    0.015681
  62 C :   -0.004347
  63 C :    0.140989
  64 O :   -0.137733
  65 C :   -0.073857
  66 C :    0.114434
  67 C :   -0.085719
  68 C :   -0.026069
  69 S :    0.187271
  70 C :   -0.125777
  71 C :    0.042211
  72 Br:    0.026152
  73 H :   -0.012633
  74 H :   -0.007860
  75 H :   -0.004942
  76 H :    0.026344
  77 H :    0.038921
  78 H :    0.042270
  79 H :   -0.019496
  80 H :   -0.014734
  81 H :    0.008801
  82 H :   -0.014623
  83 H :   -0.009496
  84 H :   -0.009298
  85 H :   -0.014452
  86 H :   -0.008478
  87 H :   -0.010130
  88 H :    0.005512
  89 H :   -0.004285
  90 H :   -0.001947
  91 H :    0.034392
  92 H :    0.015707
  93 H :   -0.005955
  94 H :   -0.001251
  95 H :   -0.001288
Sum of atomic charges:   -0.0000000

LOEWDIN ATOMIC CHARGES
----------------------
   0 C :    0.075478
   1 C :   -0.144031
   2 C :   -0.017597
   3 N :   -0.059162
   4 C :   -0.024208
   5 N :   -0.049125
   6 C :   -0.019095
   7 C :   -0.050048
   8 C :    0.019884
   9 C :   -0.034479
  10 C :   -0.144568
  11 C :   -0.010453
  12 S :    0.431838
  13 C :   -0.273035
  14 C :   -0.070593
  15 Br:    0.134358
  16 C :    0.083389
  17 O :   -0.175141
  18 C :   -0.113582
  19 C :    0.047719
  20 C :   -0.155800
  21 S :    0.495866
  22 C :   -0.196558
  23 C :   -0.040922
  24 N :   -0.054757
  25 C :   -0.013131
  26 C :   -0.026182
  27 C :   -0.212255
  28 S :    0.443611
  29 C :   -0.146297
  30 C :   -0.058964
  31 C :   -0.048650
  32 C :   -0.017801
  33 C :   -0.056602
  34 C :   -0.138427
  35 C :   -0.031818
  36 C :   -0.026646
  37 C :   -0.167962
  38 S :    0.374553
  39 C :   -0.192737
  40 C :   -0.021470
  41 C :   -0.033782
  42 C :   -0.113065
  43 S :    0.417172
  44 C :   -0.083784
  45 C :    0.032865
  46 N :   -0.108624
  47 C :    0.060506
  48 C :   -0.071754
  49 C :    0.029444
  50 N :   -0.080890
  51 C :    0.013131
  52 C :    0.005061
  53 C :    0.064308
  54 C :   -0.077428
  55 C :    0.068655
  56 C :   -0.129652
  57 C :   -0.018337
  58 N :   -0.047670
  59 C :   -0.028432
  60 N :   -0.034585
  61 C :   -0.017416
  62 C :   -0.053059
  63 C :    0.083744
  64 O :   -0.137421
  65 C :    0.023859
  66 C :   -0.032481
  67 C :   -0.142205
  68 C :   -0.011893
  69 S :    0.433436
  70 C :   -0.271056
  71 C :   -0.069659
  72 Br:    0.139062
  73 H :    0.040049
  74 H :    0.040849
  75 H :    0.038191
  76 H :    0.057429
  77 H :    0.056523
  78 H :    0.058641
  79 H :    0.031758
  80 H :    0.029234
  81 H :    0.020470
  82 H :    0.033183
  83 H :    0.034518
  84 H :    0.033559
  85 H :    0.029801
  86 H :    0.034641
  87 H :    0.038550
  88 H :    0.027407
  89 H :    0.033055
  90 H :    0.033872
  91 H :    0.038062
  92 H :    0.044340
  93 H :    0.042341
  94 H :    0.041292
  95 H :    0.039581

  Mayer bond orders larger than 0.100000
B(  0-C ,  1-C ) :   1.6182 B(  0-C ,  6-C ) :   0.9947 B(  0-C , 18-C ) :   1.0899
B(  1-C ,  2-C ) :   1.1479 B(  1-C ,  4-C ) :   1.1444 B(  2-C ,  3-N ) :   2.9654
B(  4-C ,  5-N ) :   2.9663 B(  6-C ,  7-C ) :   1.2757 B(  6-C , 11-C ) :   1.4174
B(  7-C ,  8-C ) :   1.4239 B(  7-C , 16-C ) :   0.9588 B(  8-C ,  9-C ) :   1.2399
B(  8-C , 73-H ) :   1.0174 B(  9-C , 10-C ) :   1.3126 B(  9-C , 14-C ) :   1.1610
B( 10-C , 11-C ) :   1.3230 B( 10-C , 12-S ) :   1.0857 B( 11-C , 74-H ) :   0.9798
B( 12-S , 13-C ) :   1.0873 B( 13-C , 14-C ) :   1.6176 B( 13-C , 15-Br) :   1.0171
B( 14-C , 75-H ) :   1.0011 B( 16-C , 17-O ) :   2.1074 B( 16-C , 18-C ) :   0.9874
B( 18-C , 19-C ) :   1.4725 B( 19-C , 20-C ) :   1.2540 B( 19-C , 76-H ) :   0.9397
B( 20-C , 21-S ) :   1.0383 B( 20-C , 24-N ) :   1.5124 B( 21-S , 22-C ) :   1.0987
B( 21-S , 24-N ) :   0.1039 B( 22-C , 23-C ) :   1.3481 B( 22-C , 27-C ) :   1.2385
B( 23-C , 24-N ) :   1.5820 B( 23-C , 25-C ) :   1.0323 B( 25-C , 26-C ) :   0.9827
B( 25-C , 77-H ) :   0.8664 B( 25-C , 78-H ) :   0.8593 B( 26-C , 27-C ) :   1.4664
B( 26-C , 30-C ) :   1.3546 B( 27-C , 28-S ) :   1.0697 B( 28-S , 29-C ) :   1.1129
B( 29-C , 30-C ) :   1.4136 B( 29-C , 31-C ) :   1.1514 B( 30-C , 79-H ) :   0.9951
B( 31-C , 32-C ) :   1.6142 B( 31-C , 80-H ) :   0.9723 B( 32-C , 33-C ) :   1.1891
B( 32-C , 81-H ) :   0.9638 B( 33-C , 34-C ) :   1.5321 B( 33-C , 82-H ) :   0.9871
B( 34-C , 35-C ) :   1.1494 B( 34-C , 38-S ) :   1.0404 B( 35-C , 36-C ) :   1.5821
B( 35-C , 83-H ) :   0.9991 B( 36-C , 37-C ) :   1.1873 B( 36-C , 84-H ) :   0.9949
B( 37-C , 38-S ) :   1.0502 B( 37-C , 39-C ) :   1.5251 B( 39-C , 40-C ) :   1.1744
B( 39-C , 43-S ) :   0.9809 B( 40-C , 41-C ) :   1.6051 B( 40-C , 85-H ) :   0.9951
B( 41-C , 42-C ) :   1.1264 B( 41-C , 86-H ) :   1.0014 B( 42-C , 43-S ) :   1.0677
B( 42-C , 44-C ) :   1.5510 B( 43-S , 46-N ) :   0.1117 B( 44-C , 45-C ) :   1.1129
B( 44-C , 87-H ) :   0.9855 B( 45-C , 46-N ) :   1.3862 B( 45-C , 50-N ) :   1.4960
B( 46-N , 47-C ) :   1.5271 B( 47-C , 48-C ) :   1.3753 B( 47-C , 88-H ) :   0.9781
B( 48-C , 49-C ) :   1.3129 B( 48-C , 89-H ) :   0.9773 B( 49-C , 50-N ) :   1.5438
B( 49-C , 51-C ) :   1.0374 B( 51-C , 52-C ) :   1.7257 B( 51-C , 90-H ) :   0.9823
B( 52-C , 53-C ) :   1.0855 B( 52-C , 91-H ) :   0.9545 B( 53-C , 54-C ) :   1.6657
B( 53-C , 92-H ) :   0.9559 B( 54-C , 55-C ) :   1.0166 B( 54-C , 63-C ) :   0.9316
B( 55-C , 56-C ) :   1.6704 B( 55-C , 61-C ) :   1.0188 B( 56-C , 57-C ) :   1.1296
B( 56-C , 59-C ) :   1.1466 B( 57-C , 58-N ) :   2.9887 B( 59-C , 60-N ) :   3.0226
B( 61-C , 62-C ) :   1.2701 B( 61-C , 68-C ) :   1.4133 B( 62-C , 63-C ) :   0.9239
B( 62-C , 65-C ) :   1.4241 B( 63-C , 64-O ) :   2.2695 B( 65-C , 66-C ) :   1.2552
B( 65-C , 93-H ) :   1.0160 B( 66-C , 67-C ) :   1.3027 B( 66-C , 71-C ) :   1.1647
B( 67-C , 68-C ) :   1.3306 B( 67-C , 69-S ) :   1.0850 B( 68-C , 94-H ) :   0.9831
B( 69-S , 70-C ) :   1.0867 B( 70-C , 71-C ) :   1.6186 B( 70-C , 72-Br) :   1.0208
B( 71-C , 95-H ) :   0.9999

-----------------------------------------------------------------------------
         ABSORPTION SPECTRUM VIA TRANSITION ELECTRIC DIPOLE MOMENTS
-----------------------------------------------------------------------------
State   Energy  Wavelength   fosc         T2         TX        TY        TZ
        (cm-1)    (nm)                  (au**2)     (au)      (au)      (au)
-----------------------------------------------------------------------------
   0   11642.9    858.9   1.641978139  46.42839  -5.26421  -4.24814  -0.81844
   1   14643.1    682.9   0.111337476   2.50313   0.53805   1.32781   0.67123
   2   17953.3    557.0   0.480930904   8.81891  -2.00274   1.77124   1.29254
   3   20119.2    497.0   0.703199535  11.50651   0.43723  -2.95028  -1.61592
   4   22724.5    440.1   0.164971943   2.38996  -0.09959   1.43646   0.56269
   5   23277.4    429.6   0.010014802   0.14164   0.32309  -0.18365   0.05941
   6   25052.5    399.2   0.034370662   0.45166   0.20637  -0.63281  -0.09287
   7   25551.7    391.4   0.036399539   0.46898  -0.17571  -0.44653  -0.48858
   8   26514.0    377.2   0.524089779   6.50738   1.97137  -1.53083  -0.52692
   9   27045.0    369.8   0.167768108   2.04220  -0.39277   1.36773  -0.13130
  10   27143.0    368.4   0.241828156   2.93309   1.34494   0.82454  -0.66660
  11   27453.0    364.3   0.189710601   2.27498  -0.95338   0.25742  -1.14008
  12   27564.4    362.8   0.222583197   2.65839   1.39257  -0.07746   0.84447
  13   28589.7    349.8   0.102274581   1.17770   0.14828  -0.14011  -1.06587
  14   29006.3    344.8   0.002188800   0.02484   0.12668  -0.01893   0.09184
  15   29242.7    342.0   0.005316505   0.05985   0.12571  -0.00390  -0.20984
  16   29384.5    340.3   0.007779592   0.08716   0.21059   0.20671   0.00918
  17   29781.3    335.8   0.035511765   0.39256   0.37059   0.42751  -0.26918
  18   30291.9    330.1   0.012709551   0.13813   0.14542   0.29303   0.17638
  19   30357.0    329.4   0.018602185   0.20173   0.30702  -0.03092  -0.32637
  20   30472.4    328.2   0.141176565   1.52522   0.68514   0.01070  -1.02746
  21   30674.1    326.0   0.026127918   0.28042  -0.25160  -0.39796  -0.24238
  22   31518.4    317.3   0.064128131   0.66982   0.39810   0.20852  -0.68400
  23   32274.7    309.8   0.009077326   0.09259  -0.05773  -0.29357  -0.05547
  24   32622.2    306.5   0.052426079   0.52907  -0.65389   0.29423  -0.12218
  25   32999.3    303.0   0.415031946   4.14050   1.36728   0.45102  -1.43793
  26   33066.5    302.4   0.024361130   0.24254  -0.27967  -0.23485   0.33041
  27   33123.5    301.9   0.375609914   3.73316   0.76237  -1.77516   0.02739
  28   33448.5    299.0   0.002880646   0.02835   0.14238  -0.08912  -0.01170
  29   33596.6    297.6   0.567809071   5.56394  -1.76927   1.55935  -0.04515
  30   33673.7    297.0   0.291834792   2.85313   0.70684  -1.52090   0.20090
  31   33837.6    295.5   0.084939323   0.82639   0.60774  -0.67600   0.00850
  32   34261.1    291.9   0.050473392   0.48499   0.49159   0.29810  -0.39302
  33   34548.2    289.5   0.055214378   0.52614   0.14449   0.25081  -0.66510
  34   35132.6    284.6   0.116753890   1.09405  -0.91241  -0.51015   0.03608
  35   35338.2    283.0   0.012965788   0.12079  -0.06745  -0.24032  -0.24184
  36   35740.1    279.8   0.011605529   0.10690  -0.14049   0.11735  -0.27091
  37   36079.7    277.2   0.028306714   0.25829   0.37953   0.27412   0.19773
  38   36506.7    273.9   0.018651333   0.16819   0.35301   0.11828  -0.17201
  39   36813.7    271.6   0.041925221   0.37492   0.01335  -0.13282  -0.59758
  40   37157.6    269.1   0.024654837   0.21844  -0.44860   0.13048  -0.01312
  41   37333.1    267.9   0.003199067   0.02821  -0.10395   0.10246   0.08311
  42   37538.3    266.4   0.005051414   0.04430  -0.00363  -0.00827  -0.21028
  43   38031.9    262.9   0.016337626   0.14142  -0.09357  -0.34628   0.11295
  44   38470.7    259.9   0.033867604   0.28982  -0.28196   0.29576  -0.35049
  45   38604.0    259.0   0.248424186   2.11854   0.26050   0.83424   1.16392
  46   38676.6    258.6   0.023114258   0.19675  -0.34412  -0.27523  -0.05074
  47   38791.6    257.8   0.025338486   0.21504   0.16562   0.22588   0.36957
  48   39158.7    255.4   0.008969112   0.07540  -0.15029  -0.13212  -0.18805
  49   39247.3    254.8   0.074327496   0.62347  -0.34046   0.39531   0.59269
  50   39371.3    254.0   0.133785236   1.11867   0.65423   0.81243   0.17497
  51   39605.1    252.5   0.004455436   0.03704   0.17708  -0.01287   0.07424
  52   39830.4    251.1   0.081638742   0.67477   0.09319   0.60857   0.54381
  53   40048.8    249.7   0.004296606   0.03532  -0.12316  -0.12570  -0.06597

FINAL SINGLE POINT ENERGY    -10214.316422300901

DIPOLE MOMENT
-------------
                                X             Y             Z
Electronic contribution:     -4.50590     177.75294     -32.12345
Nuclear contribution   :      5.11147    -178.94305      29.14933
                        -----------------------------------------
Total Dipole Moment    :      0.60556      -1.19010      -2.97412
                        -----------------------------------------
Magnitude (a.u.)       :      3.26013
Magnitude (Debye)      :      8.28658

Rotational constants in cm-1:     0.000550     0.000154     0.000128
Rotational constants in MHz :    16.494631     4.604593     3.845611

                             ****ORCA TERMINATED NORMALLY****
TOTAL RUN TIME: 0 days 0 hours 10 minutes 52 seconds 952 msec
