                         Program Version 4.2.0 -  RELEASE  -
|  1> # ORCA input file
|  2> # SCF done       -200.695195302388          0.000390623500
|  3> ! CAM-B3LYP def2-SVP def2/J RIJCOSX Grid4 TightSCF
|  4> %maxcore 5000
|  5> %tddft
|  6>     Mode sTDDFT
|  7>     Ethresh 5.0
|  8>     maxcore 5000
|  9> end
| 10>
| 11> %pal
| 12>   nprocs 6
| 13>   end
| 14> * xyz 0 1
| 15>    C      -11.61064         0.51512        -2.94276
| 16>    C      -12.85419         1.09425        -2.94289
| 17>    C      -14.06443         0.37071        -2.96736
| 18>    N      -15.08410        -0.15671        -2.98832
| 19>    C      -13.11765         2.47917        -2.92884
| 20>    N      -13.41169         3.58959        -2.91499
| 21>    C      -11.36090        -0.92440        -2.93988
| 22>    C       -9.96294        -1.14245        -2.96426
| 23>    C       -9.40600        -2.39731        -2.96706
| 24>    C      -10.27206        -3.49516        -2.93227
| 25>    C      -11.66802        -3.26917        -2.90553
| 26>    C      -12.23050        -1.99853        -2.91111
| 27>    S      -12.55658        -4.76257        -2.86462
| 28>    C      -11.06020        -5.65683        -2.88201
| 29>    C       -9.95151        -4.88035        -2.91744
| 30>   Br      -11.10139        -7.53214        -2.85160
| 31>    C       -9.26820         0.15912        -2.99401
| 32>    O       -8.07094         0.32752        -3.14756
| 33>    C      -10.32323         1.17937        -2.91306
| 34>    C      -10.13132         2.53954        -2.89771
| 35>    N       -8.98597         3.20059        -2.70717
| 36>    C       -7.84435         2.69022        -2.07439
| 37>    C       -7.84364         2.10798        -0.84476
| 38>    S       -6.26985         1.65604        -0.34579
| 39>    C       -5.58080         2.26354        -1.79089
| 40>    C       -6.52361         2.77811        -2.63843
| 41>    N       -6.35690         3.33006        -3.88808
| 42>    C       -5.28438         3.49376        -4.65645
| 43>    C       -4.01229         2.96998        -4.54176
| 44>    C       -2.92627         3.43453        -5.28079
| 45>    C       -2.82494         4.65028        -5.94736
| 46>    C       -1.73988         5.11242        -6.71245
| 47>    C       -1.89352         6.38613        -7.20769
| 48>    C       -3.10729         6.98332        -6.84556
| 49>    S       -4.04435         5.90883        -5.85948
| 50>    C       -3.65915         8.23370        -7.15117
| 51>    C       -3.13137         9.32523        -7.83939
| 52>    C       -3.99674        10.39463        -7.87373
| 53>    C       -5.22101        10.18268        -7.21433
| 54>    S       -5.28650         8.56221        -6.59529
| 55>    C       -6.17355        11.18694        -7.03616
| 56>    C       -7.34855        11.22751        -6.30157
| 57>    C       -7.96689        10.13617        -5.60984
| 58>    C       -9.08648        10.33570        -4.71114
| 59>    N       -9.54451         9.29561        -3.98819
| 60>    C       -9.02976         8.10975        -4.18430
| 61>    C       -8.01795         7.88602        -5.16742
| 62>    N       -7.50200         8.91908        -5.82288
| 63>    C       -7.60290         6.56634        -5.37055
| 64>    N       -7.38824         5.43458        -5.39847
| 65>    C       -9.38709         6.96912        -3.43386
| 66>    N       -9.50793         5.94727        -2.92246
| 67>    C       -9.67018        11.59974        -4.50042
| 68>    C       -9.14765        12.66521        -5.28601
| 69>    C       -8.02915        12.47930        -6.16863
| 70>    N       -7.70810        13.59005        -6.81431
| 71>    S       -8.72000        14.76848        -6.37561
| 72>    N       -9.61047        13.90883        -5.33350
| 73>    C      -10.75551        11.73016        -3.59967
| 74>    C      -11.22593        12.84621        -2.96842
| 75>    C      -10.64192        14.14057        -2.73256
| 76>    C       -9.30033        14.42586        -2.65256
| 77>    C       -8.77907        15.70465        -2.38282
| 78>    N       -8.29743        16.73022        -2.19281
| 79>    C       -8.28808        13.45511        -2.76346
| 80>    N       -7.42472        12.69832        -2.81598
| 81>    C      -11.72095        15.04735        -2.35515
| 82>    C      -12.90140        14.28843        -2.15795
| 83>    C      -12.61809        12.86611        -2.45440
| 84>    O      -13.37296        11.92659        -2.34323
| 85>    C      -14.08746        14.85881        -1.76755
| 86>    C      -14.11215        16.24461        -1.57188
| 87>    C      -12.93084        16.99333        -1.78124
| 88>    C      -11.72729        16.41549        -2.16829
| 89>    S      -13.18878        18.68790        -1.49232
| 90>    C      -14.85691        18.36984        -1.09574
| 91>    C      -15.20529        17.06454        -1.17638
| 92>   Br      -15.98063        19.79293        -0.61426
| 93>    H       -8.33547        -2.52852        -2.98976
| 94>    H      -13.30085        -1.88192        -2.89230
| 95>    H       -8.94870        -5.26654        -2.93266
| 96>    H      -10.97858         3.18730        -3.08372
| 97>    H       -9.04821         4.22288        -2.79558
| 98>    H       -8.68712         1.91294        -0.21328
| 99>    H       -4.51956         2.21881        -1.91325
|100>    H       -7.19558         3.76868        -4.27197
|101>    H       -5.50346         4.10857        -5.52036
|102>    H       -3.84292         2.12572        -3.89105
|103>    H       -2.03176         2.82461        -5.28675
|104>    H       -0.87132         4.50220        -6.88883
|105>    H       -1.16087         6.89360        -7.80901
|106>    H       -2.14751         9.32997        -8.27463
|107>    H       -3.76815        11.33642        -8.34102
|108>    H       -5.91624        12.13500        -7.49543
|109>    H      -11.32822        10.82441        -3.42815
|110>    H      -14.97046        14.25760        -1.61741
|111>    H      -10.85240        17.02546        -2.32171
|112>    H      -16.19150        16.69215        -0.96710
|113> *
|114>
|115>                          ****END OF INPUT****

CARTESIAN COORDINATES (ANGSTROEM)
---------------------------------
  C    -11.610640    0.515120   -2.942760
  C    -12.854190    1.094250   -2.942890
  C    -14.064430    0.370710   -2.967360
  N    -15.084100   -0.156710   -2.988320
  C    -13.117650    2.479170   -2.928840
  N    -13.411690    3.589590   -2.914990
  C    -11.360900   -0.924400   -2.939880
  C     -9.962940   -1.142450   -2.964260
  C     -9.406000   -2.397310   -2.967060
  C    -10.272060   -3.495160   -2.932270
  C    -11.668020   -3.269170   -2.905530
  C    -12.230500   -1.998530   -2.911110
  S    -12.556580   -4.762570   -2.864620
  C    -11.060200   -5.656830   -2.882010
  C     -9.951510   -4.880350   -2.917440
  Br   -11.101390   -7.532140   -2.851600
  C     -9.268200    0.159120   -2.994010
  O     -8.070940    0.327520   -3.147560
  C    -10.323230    1.179370   -2.913060
  C    -10.131320    2.539540   -2.897710
  N     -8.985970    3.200590   -2.707170
  C     -7.844350    2.690220   -2.074390
  C     -7.843640    2.107980   -0.844760
  S     -6.269850    1.656040   -0.345790
  C     -5.580800    2.263540   -1.790890
  C     -6.523610    2.778110   -2.638430
  N     -6.356900    3.330060   -3.888080
  C     -5.284380    3.493760   -4.656450
  C     -4.012290    2.969980   -4.541760
  C     -2.926270    3.434530   -5.280790
  C     -2.824940    4.650280   -5.947360
  C     -1.739880    5.112420   -6.712450
  C     -1.893520    6.386130   -7.207690
  C     -3.107290    6.983320   -6.845560
  S     -4.044350    5.908830   -5.859480
  C     -3.659150    8.233700   -7.151170
  C     -3.131370    9.325230   -7.839390
  C     -3.996740   10.394630   -7.873730
  C     -5.221010   10.182680   -7.214330
  S     -5.286500    8.562210   -6.595290
  C     -6.173550   11.186940   -7.036160
  C     -7.348550   11.227510   -6.301570
  C     -7.966890   10.136170   -5.609840
  C     -9.086480   10.335700   -4.711140
  N     -9.544510    9.295610   -3.988190
  C     -9.029760    8.109750   -4.184300
  C     -8.017950    7.886020   -5.167420
  N     -7.502000    8.919080   -5.822880
  C     -7.602900    6.566340   -5.370550
  N     -7.388240    5.434580   -5.398470
  C     -9.387090    6.969120   -3.433860
  N     -9.507930    5.947270   -2.922460
  C     -9.670180   11.599740   -4.500420
  C     -9.147650   12.665210   -5.286010
  C     -8.029150   12.479300   -6.168630
  N     -7.708100   13.590050   -6.814310
  S     -8.720000   14.768480   -6.375610
  N     -9.610470   13.908830   -5.333500
  C    -10.755510   11.730160   -3.599670
  C    -11.225930   12.846210   -2.968420
  C    -10.641920   14.140570   -2.732560
  C     -9.300330   14.425860   -2.652560
  C     -8.779070   15.704650   -2.382820
  N     -8.297430   16.730220   -2.192810
  C     -8.288080   13.455110   -2.763460
  N     -7.424720   12.698320   -2.815980
  C    -11.720950   15.047350   -2.355150
  C    -12.901400   14.288430   -2.157950
  C    -12.618090   12.866110   -2.454400
  O    -13.372960   11.926590   -2.343230
  C    -14.087460   14.858810   -1.767550
  C    -14.112150   16.244610   -1.571880
  C    -12.930840   16.993330   -1.781240
  C    -11.727290   16.415490   -2.168290
  S    -13.188780   18.687900   -1.492320
  C    -14.856910   18.369840   -1.095740
  C    -15.205290   17.064540   -1.176380
  Br   -15.980630   19.792930   -0.614260
  H     -8.335470   -2.528520   -2.989760
  H    -13.300850   -1.881920   -2.892300
  H     -8.948700   -5.266540   -2.932660
  H    -10.978580    3.187300   -3.083720
  H     -9.048210    4.222880   -2.795580
  H     -8.687120    1.912940   -0.213280
  H     -4.519560    2.218810   -1.913250
  H     -7.195580    3.768680   -4.271970
  H     -5.503460    4.108570   -5.520360
  H     -3.842920    2.125720   -3.891050
  H     -2.031760    2.824610   -5.286750
  H     -0.871320    4.502200   -6.888830
  H     -1.160870    6.893600   -7.809010
  H     -2.147510    9.329970   -8.274630
  H     -3.768150   11.336420   -8.341020
  H     -5.916240   12.135000   -7.495430
  H    -11.328220   10.824410   -3.428150
  H    -14.970460   14.257600   -1.617410
  H    -10.852400   17.025460   -2.321710
  H    -16.191500   16.692150   -0.967100

 Total Charge           Charge          ....    0
 Multiplicity           Mult            ....    1
 Number of Electrons    NEL             ....  622
 Basis Dimension        Dim             .... 1252

ORBITAL ENERGIES
----------------

  NO   OCC          E(Eh)            E(eV)
   0   2.0000    -482.884826    -13139.9641
   1   2.0000    -482.870514    -13139.5747
   2   2.0000     -89.001610     -2421.8569
   3   2.0000     -88.986277     -2421.4397
   4   2.0000     -88.980006     -2421.2691
   5   2.0000     -88.974140     -2421.1094
   6   2.0000     -88.973499     -2421.0920
   7   2.0000     -88.957371     -2420.6531
   8   2.0000     -62.562536     -1702.4131
   9   2.0000     -62.548264     -1702.0248
  10   2.0000     -56.396482     -1534.6263
  11   2.0000     -56.393775     -1534.5526
  12   2.0000     -56.393739     -1534.5517
  13   2.0000     -56.382192     -1534.2375
  14   2.0000     -56.379518     -1534.1647
  15   2.0000     -56.379470     -1534.1634
  16   2.0000     -19.210390      -522.7413
  17   2.0000     -19.187274      -522.1123
  18   2.0000     -14.505434      -394.7129
  19   2.0000     -14.475825      -393.9072
  20   2.0000     -14.457168      -393.3996
  21   2.0000     -14.455021      -393.3411
  22   2.0000     -14.443829      -393.0366
  23   2.0000     -14.439601      -392.9215
  24   2.0000     -14.427722      -392.5983
  25   2.0000     -14.417751      -392.3269
  26   2.0000     -14.410723      -392.1357
  27   2.0000     -14.406998      -392.0343
  28   2.0000     -14.391149      -391.6031
  29   2.0000     -14.390536      -391.5864
  30   2.0000     -10.377600      -282.3888
  31   2.0000     -10.372711      -282.2558
  32   2.0000     -10.363052      -281.9930
  33   2.0000     -10.359048      -281.8840
  34   2.0000     -10.358727      -281.8753
  35   2.0000     -10.357253      -281.8352
  36   2.0000     -10.354964      -281.7729
  37   2.0000     -10.352799      -281.7140
  38   2.0000     -10.348189      -281.5885
  39   2.0000     -10.345540      -281.5165
  40   2.0000     -10.345104      -281.5046
  41   2.0000     -10.343923      -281.4725
  42   2.0000     -10.340635      -281.3830
  43   2.0000     -10.338424      -281.3228
  44   2.0000     -10.338313      -281.3198
  45   2.0000     -10.338251      -281.3181
  46   2.0000     -10.337870      -281.3077
  47   2.0000     -10.334178      -281.2073
  48   2.0000     -10.332332      -281.1571
  49   2.0000     -10.328523      -281.0534
  50   2.0000     -10.325521      -280.9717
  51   2.0000     -10.322409      -280.8870
  52   2.0000     -10.318119      -280.7703
  53   2.0000     -10.315830      -280.7080
  54   2.0000     -10.313783      -280.6523
  55   2.0000     -10.313736      -280.6510
  56   2.0000     -10.313690      -280.6498
  57   2.0000     -10.313619      -280.6478
  58   2.0000     -10.311099      -280.5793
  59   2.0000     -10.310587      -280.5653
  60   2.0000     -10.310244      -280.5560
  61   2.0000     -10.309896      -280.5465
  62   2.0000     -10.309447      -280.5343
  63   2.0000     -10.306727      -280.4603
  64   2.0000     -10.305314      -280.4218
  65   2.0000     -10.304973      -280.4126
  66   2.0000     -10.303781      -280.3801
  67   2.0000     -10.302955      -280.3577
  68   2.0000     -10.302121      -280.3350
  69   2.0000     -10.298375      -280.2330
  70   2.0000     -10.296552      -280.1834
  71   2.0000     -10.295425      -280.1528
  72   2.0000     -10.295170      -280.1458
  73   2.0000     -10.294369      -280.1240
  74   2.0000     -10.292644      -280.0771
  75   2.0000     -10.288517      -279.9648
  76   2.0000     -10.286333      -279.9054
  77   2.0000     -10.285738      -279.8892
  78   2.0000     -10.284320      -279.8506
  79   2.0000     -10.283898      -279.8391
  80   2.0000     -10.282777      -279.8086
  81   2.0000     -10.279406      -279.7169
  82   2.0000     -10.279378      -279.7161
  83   2.0000     -10.272430      -279.5270
  84   2.0000     -10.268518      -279.4206
  85   2.0000     -10.261575      -279.2316
  86   2.0000      -8.791961      -239.2414
  87   2.0000      -8.777708      -238.8536
  88   2.0000      -8.093615      -220.2385
  89   2.0000      -8.081770      -219.9161
  90   2.0000      -8.075874      -219.7557
  91   2.0000      -8.069497      -219.5822
  92   2.0000      -8.066798      -219.5087
  93   2.0000      -8.053315      -219.1418
  94   2.0000      -6.628236      -180.3635
  95   2.0000      -6.613938      -179.9744
  96   2.0000      -6.613705      -179.9681
  97   2.0000      -6.613523      -179.9631
  98   2.0000      -6.599450      -179.5802
  99   2.0000      -6.599325      -179.5768
 100   2.0000      -6.065147      -165.0410
 101   2.0000      -6.057515      -164.8334
 102   2.0000      -6.055183      -164.7699
 103   2.0000      -6.051199      -164.6615
 104   2.0000      -6.046830      -164.5426
 105   2.0000      -6.045193      -164.4981
 106   2.0000      -6.043687      -164.4571
 107   2.0000      -6.040833      -164.3794
 108   2.0000      -6.039187      -164.3346
 109   2.0000      -6.038152      -164.3065
 110   2.0000      -6.036485      -164.2611
 111   2.0000      -6.034914      -164.2184
 112   2.0000      -6.031803      -164.1337
 113   2.0000      -6.030709      -164.1039
 114   2.0000      -6.028903      -164.0548
 115   2.0000      -6.023011      -163.8945
 116   2.0000      -6.018767      -163.7790
 117   2.0000      -6.014537      -163.6639
 118   2.0000      -2.744094       -74.6706
 119   2.0000      -2.740028       -74.5600
 120   2.0000      -2.739901       -74.5565
 121   2.0000      -2.729791       -74.2814
 122   2.0000      -2.728354       -74.2423
 123   2.0000      -2.728313       -74.2412
 124   2.0000      -2.725770       -74.1720
 125   2.0000      -2.725650       -74.1687
 126   2.0000      -2.714144       -73.8556
 127   2.0000      -2.714133       -73.8553
 128   2.0000      -1.126229       -30.6462
 129   2.0000      -1.112815       -30.2812
 130   2.0000      -1.106817       -30.1180
 131   2.0000      -1.105941       -30.0942
 132   2.0000      -1.102083       -29.9892
 133   2.0000      -1.073623       -29.2148
 134   2.0000      -1.042740       -28.3744
 135   2.0000      -1.035121       -28.1671
 136   2.0000      -1.026192       -27.9241
 137   2.0000      -1.020922       -27.7807
 138   2.0000      -1.019240       -27.7349
 139   2.0000      -1.008739       -27.4492
 140   2.0000      -1.000959       -27.2375
 141   2.0000      -0.997319       -27.1384
 142   2.0000      -0.995220       -27.0813
 143   2.0000      -0.990771       -26.9603
 144   2.0000      -0.988433       -26.8966
 145   2.0000      -0.983607       -26.7653
 146   2.0000      -0.971755       -26.4428
 147   2.0000      -0.967970       -26.3398
 148   2.0000      -0.964953       -26.2577
 149   2.0000      -0.959487       -26.1090
 150   2.0000      -0.943254       -25.6672
 151   2.0000      -0.937895       -25.5214
 152   2.0000      -0.919712       -25.0266
 153   2.0000      -0.907241       -24.6873
 154   2.0000      -0.904938       -24.6246
 155   2.0000      -0.897037       -24.4096
 156   2.0000      -0.890697       -24.2371
 157   2.0000      -0.886598       -24.1256
 158   2.0000      -0.885309       -24.0905
 159   2.0000      -0.882600       -24.0168
 160   2.0000      -0.872454       -23.7407
 161   2.0000      -0.868917       -23.6444
 162   2.0000      -0.864469       -23.5234
 163   2.0000      -0.857772       -23.3412
 164   2.0000      -0.852806       -23.2060
 165   2.0000      -0.847229       -23.0543
 166   2.0000      -0.838929       -22.8284
 167   2.0000      -0.828509       -22.5449
 168   2.0000      -0.824465       -22.4348
 169   2.0000      -0.821649       -22.3582
 170   2.0000      -0.815656       -22.1951
 171   2.0000      -0.808064       -21.9885
 172   2.0000      -0.806954       -21.9583
 173   2.0000      -0.786057       -21.3897
 174   2.0000      -0.767420       -20.8826
 175   2.0000      -0.765954       -20.8427
 176   2.0000      -0.755415       -20.5559
 177   2.0000      -0.747784       -20.3482
 178   2.0000      -0.735693       -20.0192
 179   2.0000      -0.724987       -19.7279
 180   2.0000      -0.721866       -19.6430
 181   2.0000      -0.718152       -19.5419
 182   2.0000      -0.709234       -19.2993
 183   2.0000      -0.701607       -19.0917
 184   2.0000      -0.697470       -18.9791
 185   2.0000      -0.694411       -18.8959
 186   2.0000      -0.688807       -18.7434
 187   2.0000      -0.684587       -18.6286
 188   2.0000      -0.683272       -18.5928
 189   2.0000      -0.678790       -18.4708
 190   2.0000      -0.670864       -18.2551
 191   2.0000      -0.664452       -18.0807
 192   2.0000      -0.659643       -17.9498
 193   2.0000      -0.657309       -17.8863
 194   2.0000      -0.651699       -17.7336
 195   2.0000      -0.650300       -17.6956
 196   2.0000      -0.644034       -17.5251
 197   2.0000      -0.638586       -17.3768
 198   2.0000      -0.635931       -17.3046
 199   2.0000      -0.632172       -17.2023
 200   2.0000      -0.627560       -17.0768
 201   2.0000      -0.618936       -16.8421
 202   2.0000      -0.613115       -16.6837
 203   2.0000      -0.611151       -16.6303
 204   2.0000      -0.606751       -16.5105
 205   2.0000      -0.600065       -16.3286
 206   2.0000      -0.596026       -16.2187
 207   2.0000      -0.590373       -16.0649
 208   2.0000      -0.587634       -15.9903
 209   2.0000      -0.578723       -15.7479
 210   2.0000      -0.573375       -15.6023
 211   2.0000      -0.572860       -15.5883
 212   2.0000      -0.570552       -15.5255
 213   2.0000      -0.565675       -15.3928
 214   2.0000      -0.559689       -15.2299
 215   2.0000      -0.555221       -15.1083
 216   2.0000      -0.553436       -15.0598
 217   2.0000      -0.548030       -14.9127
 218   2.0000      -0.544097       -14.8056
 219   2.0000      -0.541788       -14.7428
 220   2.0000      -0.537729       -14.6323
 221   2.0000      -0.537043       -14.6137
 222   2.0000      -0.532417       -14.4878
 223   2.0000      -0.530298       -14.4302
 224   2.0000      -0.526325       -14.3220
 225   2.0000      -0.524291       -14.2667
 226   2.0000      -0.522883       -14.2284
 227   2.0000      -0.520313       -14.1584
 228   2.0000      -0.518929       -14.1208
 229   2.0000      -0.513778       -13.9806
 230   2.0000      -0.511857       -13.9283
 231   2.0000      -0.509695       -13.8695
 232   2.0000      -0.507897       -13.8206
 233   2.0000      -0.507734       -13.8162
 234   2.0000      -0.506399       -13.7798
 235   2.0000      -0.501549       -13.6478
 236   2.0000      -0.497913       -13.5489
 237   2.0000      -0.497456       -13.5365
 238   2.0000      -0.496000       -13.4969
 239   2.0000      -0.492320       -13.3967
 240   2.0000      -0.490953       -13.3595
 241   2.0000      -0.490057       -13.3351
 242   2.0000      -0.488129       -13.2827
 243   2.0000      -0.487254       -13.2589
 244   2.0000      -0.485702       -13.2166
 245   2.0000      -0.483262       -13.1502
 246   2.0000      -0.480864       -13.0850
 247   2.0000      -0.478983       -13.0338
 248   2.0000      -0.476445       -12.9647
 249   2.0000      -0.474906       -12.9228
 250   2.0000      -0.474139       -12.9020
 251   2.0000      -0.472323       -12.8525
 252   2.0000      -0.469043       -12.7633
 253   2.0000      -0.466694       -12.6994
 254   2.0000      -0.466507       -12.6943
 255   2.0000      -0.457308       -12.4440
 256   2.0000      -0.455346       -12.3906
 257   2.0000      -0.453608       -12.3433
 258   2.0000      -0.451833       -12.2950
 259   2.0000      -0.449455       -12.2303
 260   2.0000      -0.445975       -12.1356
 261   2.0000      -0.443577       -12.0703
 262   2.0000      -0.443256       -12.0616
 263   2.0000      -0.440742       -11.9932
 264   2.0000      -0.439104       -11.9486
 265   2.0000      -0.437935       -11.9168
 266   2.0000      -0.437793       -11.9130
 267   2.0000      -0.435966       -11.8633
 268   2.0000      -0.434027       -11.8105
 269   2.0000      -0.428693       -11.6653
 270   2.0000      -0.427403       -11.6302
 271   2.0000      -0.425366       -11.5748
 272   2.0000      -0.421366       -11.4660
 273   2.0000      -0.421279       -11.4636
 274   2.0000      -0.420690       -11.4476
 275   2.0000      -0.419614       -11.4183
 276   2.0000      -0.416269       -11.3273
 277   2.0000      -0.408502       -11.1159
 278   2.0000      -0.404563       -11.0087
 279   2.0000      -0.404123       -10.9968
 280   2.0000      -0.402156       -10.9432
 281   2.0000      -0.397899       -10.8274
 282   2.0000      -0.393438       -10.7060
 283   2.0000      -0.387052       -10.5322
 284   2.0000      -0.385311       -10.4849
 285   2.0000      -0.382570       -10.4103
 286   2.0000      -0.377189       -10.2638
 287   2.0000      -0.375478       -10.2173
 288   2.0000      -0.374382       -10.1875
 289   2.0000      -0.368722       -10.0334
 290   2.0000      -0.364394        -9.9157
 291   2.0000      -0.362157        -9.8548
 292   2.0000      -0.360358        -9.8059
 293   2.0000      -0.358426        -9.7533
 294   2.0000      -0.350507        -9.5378
 295   2.0000      -0.345883        -9.4119
 296   2.0000      -0.342493        -9.3197
 297   2.0000      -0.339311        -9.2331
 298   2.0000      -0.336732        -9.1630
 299   2.0000      -0.331418        -9.0183
 300   2.0000      -0.322343        -8.7714
 301   2.0000      -0.318219        -8.6592
 302   2.0000      -0.312330        -8.4989
 303   2.0000      -0.308637        -8.3984
 304   2.0000      -0.300725        -8.1831
 305   2.0000      -0.294928        -8.0254
 306   2.0000      -0.293570        -7.9884
 307   2.0000      -0.284907        -7.7527
 308   2.0000      -0.271219        -7.3802
 309   2.0000      -0.269806        -7.3418
 310   2.0000      -0.223123        -6.0715
 311   0.0000      -0.122341        -3.3291
 312   0.0000      -0.078580        -2.1383
 313   0.0000      -0.072118        -1.9624
 314   0.0000      -0.068138        -1.8541
 315   0.0000      -0.046143        -1.2556

MULLIKEN ATOMIC CHARGES
-----------------------
   0 C :    0.323424
   1 C :   -0.356329
   2 C :   -0.189639
   3 N :    0.144184
   4 C :   -0.206176
   5 N :    0.149950
   6 C :    0.007499
   7 C :    0.002755
   8 C :   -0.080322
   9 C :    0.116641
  10 C :   -0.093172
  11 C :   -0.020435
  12 S :    0.184412
  13 C :   -0.123690
  14 C :    0.038020
  15 Br:    0.019654
  16 C :    0.142870
  17 O :   -0.177772
  18 C :   -0.157890
  19 C :    0.032017
  20 N :   -0.064114
  21 C :    0.140987
  22 C :   -0.122359
  23 S :    0.151311
  24 C :   -0.204088
  25 C :    0.145869
  26 N :    0.050321
  27 C :    0.046642
  28 C :   -0.060942
  29 C :    0.084309
  30 C :   -0.085248
  31 C :    0.067990
  32 C :    0.007010
  33 C :   -0.010031
  34 S :    0.100343
  35 C :   -0.036228
  36 C :    0.041839
  37 C :    0.013733
  38 C :    0.023084
  39 S :    0.122594
  40 C :   -0.102035
  41 C :    0.108181
  42 C :   -0.013320
  43 C :   -0.001360
  44 N :    0.047545
  45 C :   -0.121893
  46 C :   -0.125136
  47 N :   -0.046171
  48 C :   -0.131021
  49 N :    0.074529
  50 C :   -0.095079
  51 N :    0.129256
  52 C :    0.049937
  53 C :   -0.029008
  54 C :    0.023325
  55 N :   -0.279225
  56 S :    0.482101
  57 N :   -0.287674
  58 C :   -0.035464
  59 C :   -0.123935
  60 C :    0.346060
  61 C :   -0.353157
  62 C :   -0.196653
  63 N :    0.136737
  64 C :   -0.194585
  65 N :    0.138123
  66 C :    0.000525
  67 C :    0.004251
  68 C :    0.127761
  69 O :   -0.150544
  70 C :   -0.080710
  71 C :    0.114216
  72 C :   -0.087166
  73 C :   -0.031522
  74 S :    0.172682
  75 C :   -0.126540
  76 C :    0.039069
  77 Br:    0.009130
  78 H :   -0.016468
  79 H :   -0.006728
  80 H :   -0.006855
  81 H :    0.036439
  82 H :    0.151234
  83 H :    0.027044
  84 H :    0.021920
  85 H :    0.143848
  86 H :    0.079042
  87 H :    0.019084
  88 H :    0.015844
  89 H :    0.002386
  90 H :   -0.003101
  91 H :   -0.013325
  92 H :   -0.003543
  93 H :    0.006645
  94 H :    0.018759
  95 H :   -0.014741
  96 H :   -0.010220
  97 H :   -0.007513
Sum of atomic charges:   -0.0000000

LOEWDIN ATOMIC CHARGES
----------------------
   0 C :    0.083260
   1 C :   -0.158179
   2 C :   -0.019254
   3 N :   -0.062353
   4 C :   -0.026016
   5 N :   -0.055353
   6 C :   -0.022147
   7 C :   -0.049359
   8 C :    0.015687
   9 C :   -0.034925
  10 C :   -0.146342
  11 C :   -0.009266
  12 S :    0.431390
  13 C :   -0.273122
  14 C :   -0.072024
  15 Br:    0.133541
  16 C :    0.078156
  17 O :   -0.167404
  18 C :   -0.167680
  19 C :    0.124877
  20 N :    0.058140
  21 C :   -0.028982
  22 C :   -0.179747
  23 S :    0.480254
  24 C :   -0.205779
  25 C :   -0.023755
  26 N :    0.121331
  27 C :    0.096776
  28 C :   -0.118527
  29 C :    0.048009
  30 C :   -0.197264
  31 C :    0.007800
  32 C :   -0.062394
  33 C :   -0.124907
  34 S :    0.454415
  35 C :   -0.225014
  36 C :   -0.020592
  37 C :   -0.045520
  38 C :   -0.132103
  39 S :    0.487998
  40 C :   -0.013480
  41 C :   -0.024214
  42 C :    0.011346
  43 C :    0.036501
  44 N :   -0.033192
  45 C :   -0.024772
  46 C :   -0.095485
  47 N :   -0.041861
  48 C :    0.004931
  49 N :   -0.092073
  50 C :    0.046803
  51 N :   -0.038159
  52 C :   -0.105321
  53 C :   -0.037287
  54 C :   -0.045954
  55 N :   -0.278342
  56 S :    0.605128
  57 N :   -0.284575
  58 C :    0.078877
  59 C :   -0.105448
  60 C :    0.080458
  61 C :   -0.154100
  62 C :   -0.020341
  63 N :   -0.073724
  64 C :   -0.011541
  65 N :   -0.080586
  66 C :   -0.011108
  67 C :   -0.050667
  68 C :    0.082230
  69 O :   -0.151430
  70 C :    0.017741
  71 C :   -0.038630
  72 C :   -0.145177
  73 C :   -0.017997
  74 S :    0.422190
  75 C :   -0.277515
  76 C :   -0.070149
  77 Br:    0.125511
  78 H :    0.038057
  79 H :    0.041117
  80 H :    0.037307
  81 H :    0.045857
  82 H :    0.060399
  83 H :    0.031659
  84 H :    0.022622
  85 H :    0.082598
  86 H :    0.024520
  87 H :    0.037182
  88 H :    0.047703
  89 H :    0.039352
  90 H :    0.036521
  91 H :    0.032000
  92 H :    0.035883
  93 H :    0.047099
  94 H :    0.043165
  95 H :    0.038897
  96 H :    0.038786
  97 H :    0.037059

  Mayer bond orders larger than 0.100000
B(  0-C ,  1-C ) :   1.6107 B(  0-C ,  6-C ) :   1.0012 B(  0-C , 18-C ) :   1.1241
B(  1-C ,  2-C ) :   1.1467 B(  1-C ,  4-C ) :   1.1426 B(  2-C ,  3-N ) :   2.9660
B(  4-C ,  5-N ) :   2.9654 B(  6-C ,  7-C ) :   1.2834 B(  6-C , 11-C ) :   1.4131
B(  7-C ,  8-C ) :   1.4294 B(  7-C , 16-C ) :   0.9317 B(  8-C ,  9-C ) :   1.2392
B(  8-C , 78-H ) :   1.0181 B(  9-C , 10-C ) :   1.3134 B(  9-C , 14-C ) :   1.1619
B( 10-C , 11-C ) :   1.3276 B( 10-C , 12-S ) :   1.0831 B( 11-C , 79-H ) :   0.9795
B( 12-S , 13-C ) :   1.0881 B( 13-C , 14-C ) :   1.6170 B( 13-C , 15-Br) :   1.0161
B( 14-C , 80-H ) :   1.0011 B( 16-C , 17-O ) :   2.1948 B( 16-C , 18-C ) :   0.9632
B( 18-C , 19-C ) :   1.4667 B( 19-C , 20-N ) :   1.3837 B( 19-C , 81-H ) :   0.9278
B( 20-N , 21-C ) :   0.9826 B( 20-N , 82-H ) :   0.8404 B( 21-C , 22-C ) :   1.5913
B( 21-C , 25-C ) :   1.2701 B( 22-C , 23-S ) :   1.1733 B( 22-C , 83-H ) :   0.9718
B( 23-S , 24-C ) :   1.1756 B( 24-C , 25-C ) :   1.4951 B( 24-C , 84-H ) :   0.9723
B( 25-C , 26-N ) :   1.1170 B( 26-N , 27-C ) :   1.4230 B( 26-N , 85-H ) :   0.8530
B( 27-C , 28-C ) :   1.3518 B( 27-C , 86-H ) :   0.9335 B( 28-C , 29-C ) :   1.4047
B( 28-C , 87-H ) :   0.9568 B( 29-C , 30-C ) :   1.3748 B( 29-C , 88-H ) :   0.9646
B( 30-C , 31-C ) :   1.2873 B( 30-C , 34-S ) :   1.0389 B( 31-C , 32-C ) :   1.4261
B( 31-C , 89-H ) :   0.9972 B( 32-C , 33-C ) :   1.3367 B( 32-C , 90-H ) :   0.9972
B( 33-C , 34-S ) :   1.1531 B( 33-C , 35-C ) :   1.2488 B( 35-C , 36-C ) :   1.3653
B( 35-C , 39-S ) :   1.0435 B( 36-C , 37-C ) :   1.3909 B( 36-C , 91-H ) :   0.9951
B( 37-C , 38-C ) :   1.3278 B( 37-C , 92-H ) :   1.0010 B( 38-C , 39-S ) :   1.1273
B( 38-C , 40-C ) :   1.2220 B( 39-S , 47-N ) :   0.1070 B( 40-C , 41-C ) :   1.5375
B( 40-C , 93-H ) :   0.9513 B( 41-C , 42-C ) :   1.0626 B( 41-C , 54-C ) :   1.0820
B( 42-C , 43-C ) :   1.0921 B( 42-C , 47-N ) :   1.5456 B( 43-C , 44-N ) :   1.4554
B( 43-C , 52-C ) :   1.2934 B( 44-N , 45-C ) :   1.6893 B( 45-C , 46-C ) :   1.2991
B( 45-C , 50-C ) :   1.1275 B( 46-C , 47-N ) :   1.4445 B( 46-C , 48-C ) :   1.1417
B( 48-C , 49-N ) :   2.8593 B( 50-C , 51-N ) :   2.9154 B( 51-N , 82-H ) :   0.1669
B( 52-C , 53-C ) :   1.1062 B( 52-C , 58-C ) :   1.1853 B( 53-C , 54-C ) :   1.1308
B( 53-C , 57-N ) :   1.5905 B( 54-C , 55-N ) :   1.6274 B( 55-N , 56-S ) :   1.2226
B( 55-N , 57-N ) :   0.1134 B( 56-S , 57-N ) :   1.1982 B( 58-C , 59-C ) :   1.5498
B( 58-C , 94-H ) :   0.9397 B( 59-C , 60-C ) :   1.0853 B( 59-C , 68-C ) :   0.9572
B( 60-C , 61-C ) :   1.5951 B( 60-C , 66-C ) :   1.0134 B( 61-C , 62-C ) :   1.1478
B( 61-C , 64-C ) :   1.1809 B( 62-C , 63-N ) :   2.9803 B( 64-C , 65-N ) :   2.9916
B( 66-C , 67-C ) :   1.2777 B( 66-C , 73-C ) :   1.4185 B( 67-C , 68-C ) :   0.9106
B( 67-C , 70-C ) :   1.4314 B( 68-C , 69-O ) :   2.2641 B( 70-C , 71-C ) :   1.2429
B( 70-C , 95-H ) :   1.0165 B( 71-C , 72-C ) :   1.3190 B( 71-C , 76-C ) :   1.1604
B( 72-C , 73-C ) :   1.3163 B( 72-C , 74-S ) :   1.0795 B( 73-C , 96-H ) :   0.9846
B( 74-S , 75-C ) :   1.0835 B( 75-C , 76-C ) :   1.6242 B( 75-C , 77-Br) :   1.0095
B( 76-C , 97-H ) :   0.9995

-----------------------------------------------------------------------------
         ABSORPTION SPECTRUM VIA TRANSITION ELECTRIC DIPOLE MOMENTS
-----------------------------------------------------------------------------
State   Energy  Wavelength   fosc         T2         TX        TY        TZ
        (cm-1)    (nm)                  (au**2)     (au)      (au)      (au)
-----------------------------------------------------------------------------
   0    7655.2   1306.3   0.412901036  17.75677  -2.24458   3.56072   0.19979
   1   15582.3    641.8   0.155015276   3.27504   1.10590  -0.17055  -1.42230
   2   17189.2    581.8   0.400965751   7.67940  -0.73862   2.49222   0.96056
   3   17358.0    576.1   0.481194004   9.12633   0.31468   2.70407  -1.30970
   4   21256.9    470.4   0.071554351   1.10818  -0.82193  -0.27970   0.59531
   5   21660.0    461.7   0.084769183   1.28842  -0.69050   0.24688   0.86642
   6   22587.6    442.7   0.030239282   0.44073  -0.64775   0.01007   0.14508
   7   23144.3    432.1   0.003914007   0.05567   0.22370   0.06522   0.03710
   8   24476.3    408.6   0.073624547   0.99027   0.83839  -0.50073  -0.19139
   9   25486.1    392.4   0.551509690   7.12403   2.12809   0.82314  -1.38482
  10   26228.9    381.3   0.256238573   3.21618   1.48241   0.55928  -0.84015
  11   26474.2    377.7   0.005561266   0.06916  -0.02255   0.21330   0.15215
  12   26823.4    372.8   0.199745514   2.45154  -0.77599   0.85095   1.06079
  13   27348.4    365.7   0.028878019   0.34763   0.54895  -0.21431  -0.01878
  14   27559.4    362.9   0.071066981   0.84893   0.83157  -0.25719  -0.30212
  15   27808.6    359.6   0.082074972   0.97164  -0.89410  -0.18275  -0.37260
  16   28011.4    357.0   0.029924222   0.35169  -0.03791   0.59073  -0.03590
  17   28196.4    354.7   0.020582841   0.24032  -0.37804  -0.17771  -0.25657
  18   28476.2    351.2   0.063845013   0.73811  -0.63813   0.57086   0.07084
  19   28666.8    348.8   0.289568290   3.32543  -1.43707   1.03891   0.42535
  20   28945.5    345.5   0.008885726   0.10106   0.22127  -0.17902  -0.14161
  21   29455.8    339.5   0.017188521   0.19211   0.21501  -0.37608   0.06665
  22   29773.8    335.9   0.048233018   0.53332  -0.25715   0.64583  -0.22382
  23   30090.5    332.3   0.020702102   0.22650  -0.46643  -0.03868   0.08627
  24   30339.4    329.6   0.298275665   3.23658   0.71280  -1.64528   0.14682
  25   30658.3    326.2   0.026260438   0.28199  -0.27899  -0.45175   0.00864
  26   30949.6    323.1   0.323574089   3.44187   0.51318   1.77390   0.17835
  27   31535.0    317.1   0.319227746   3.33261   0.82469  -1.62150   0.15242
  28   31619.4    316.3   0.089620052   0.93310  -0.67918   0.61760   0.30062
  29   31776.0    314.7   0.036190436   0.37495   0.33344   0.45867   0.23107
  30   31992.0    312.6   0.106298503   1.09386   0.29368   0.89876  -0.44703
  31   32055.9    312.0   0.062609034   0.64299  -0.75408   0.12723   0.24119
  32   32242.0    310.2   0.028031117   0.28622  -0.38629   0.32827  -0.17099
  33   32360.7    309.0   0.034041240   0.34631  -0.52656  -0.25595   0.05945
  34   32556.8    307.2   0.017743814   0.17942  -0.30601  -0.27860   0.09037
  35   32647.3    306.3   0.049919102   0.50338  -0.63155   0.31860  -0.05499
  36   32997.0    303.1   0.007154643   0.07138   0.20439   0.12809  -0.11489
  37   33121.3    301.9   0.015411630   0.15319  -0.16884  -0.24844   0.25091
  38   33284.6    300.4   0.122777591   1.21437   0.07437  -1.08337  -0.18750
  39   33326.3    300.1   0.107580304   1.06273   0.85743  -0.51140  -0.25691
  40   33453.4    298.9   0.052090445   0.51262   0.63521  -0.32894  -0.03049
  41   34009.5    294.0   0.131631479   1.27419   0.02205   1.03273  -0.45517
  42   34318.3    291.4   0.455966672   4.37405  -1.06769   1.74861   0.42006
  43   34491.7    289.9   0.250099052   2.38711  -0.40861  -1.49000   0.00621
  44   34753.0    287.7   0.174108931   1.64932   1.22997  -0.15031  -0.33750
  45   34826.5    287.1   0.156488983   1.47928   1.18374  -0.16498  -0.22544
  46   35136.8    284.6   0.017918343   0.16788   0.14375   0.27660  -0.26593
  47   35563.6    281.2   0.003406831   0.03154  -0.13948  -0.08685   0.06737
  48   35855.2    278.9   0.204406168   1.87680  -1.16489   0.69692   0.18477
  49   35953.6    278.1   0.019505974   0.17861  -0.26708   0.31996   0.07002
  50   36029.8    277.5   0.147602920   1.34868   1.02047   0.47277   0.28951
  51   36236.2    276.0   0.002262238   0.02055   0.07505   0.12211   0.00321
  52   36387.9    274.8   0.108007079   0.97717   0.34933  -0.92470  -0.00844
  53   36679.7    272.6   0.022148394   0.19879  -0.16871  -0.40917   0.05392
  54   36746.9    272.1   0.058384857   0.52306   0.12379  -0.70896   0.07154
  55   36913.0    270.9   0.025580817   0.22814   0.32786  -0.34167  -0.06257
  56   37349.8    267.7   0.014472701   0.12757   0.03978   0.06144  -0.34958
  57   37513.2    266.6   0.032343018   0.28384  -0.35097  -0.25511   0.30916
  58   37595.8    266.0   0.011313356   0.09907  -0.28971   0.12158   0.01884
  59   37627.8    265.8   0.018177680   0.15904  -0.35069  -0.13058   0.13786
  60   37755.8    264.9   0.003556989   0.03102   0.16928  -0.04810   0.00672
  61   38135.8    262.2   0.028858919   0.24913   0.42728   0.13338   0.22083
  62   38538.1    259.5   0.018346232   0.15672  -0.24104   0.16973  -0.26422
  63   38573.8    259.2   0.001248046   0.01065   0.00829  -0.02369   0.10011
  64   38704.2    258.4   0.004296712   0.03655  -0.12596   0.02301   0.14196
  65   38965.5    256.6   0.032774135   0.27690   0.13902  -0.50636  -0.03430
  66   39389.9    253.9   0.113111953   0.94536   0.81749   0.00897  -0.52630
  67   39589.8    252.6   0.201744822   1.67763  -0.02273   1.28440   0.16559
  68   39671.5    252.1   0.039039115   0.32396  -0.36247   0.32858  -0.29088
  69   39920.6    250.5   0.039039028   0.32194  -0.41089  -0.23293   0.31441
  70   40001.0    250.0   0.078359236   0.64490  -0.00521  -0.78555   0.16671
  71   40140.4    249.1   0.056145222   0.46048   0.41488  -0.53260   0.06845
  72   40217.3    248.6   0.009147547   0.07488   0.00091   0.24349  -0.12486
  73   40313.1    248.1   0.062228744   0.50818  -0.61415   0.30310   0.19782

FINAL SINGLE POINT ENERGY    -10485.923738263389

DIPOLE MOMENT
-------------
                                X             Y             Z
Electronic contribution:   -106.89128       0.33643      42.90530
Nuclear contribution   :    112.72882      -4.83654     -44.87716
                        -----------------------------------------
Total Dipole Moment    :      5.83754      -4.50011      -1.97186
                        -----------------------------------------
Magnitude (a.u.)       :      7.62995
Magnitude (Debye)      :     19.39379

Rotational constants in cm-1:     0.000828     0.000213     0.000176
Rotational constants in MHz :    24.811459     6.380115     5.276608

                             ****ORCA TERMINATED NORMALLY****
TOTAL RUN TIME: 0 days 0 hours 12 minutes 4 seconds 506 msec
