                         Program Version 4.2.0 -  RELEASE  -
|  1> # ORCA input file
|  2> # SCF done       -221.843959391955          0.000278287253
|  3> ! CAM-B3LYP def2-SVP def2/J RIJCOSX Grid4 TightSCF
|  4> %maxcore 5000
|  5> %tddft
|  6>     Mode sTDDFT
|  7>     Ethresh 5.0
|  8>     maxcore 5000
|  9> end
| 10>
| 11> %pal
| 12>   nprocs 6
| 13>   end
| 14> * xyz 0 1
| 15>    C       -3.85345        -0.65102        -0.55041
| 16>    C       -4.58972        -1.79947        -0.65823
| 17>    C       -4.05760        -3.04335        -1.05900
| 18>    N       -3.67511        -4.07909        -1.37204
| 19>    C       -5.97944        -1.88568        -0.42467
| 20>    N       -7.10890        -2.02434        -0.27342
| 21>    C       -2.44410        -0.50195        -0.87907
| 22>    C       -2.10471         0.87159        -0.80995
| 23>    C       -0.83567         1.33357        -1.06410
| 24>    C        0.14518         0.39530        -1.40031
| 25>    C       -0.20284        -0.97620        -1.46403
| 26>    C       -1.48572        -1.44307        -1.20930
| 27>    S        1.16267        -1.96295        -1.88751
| 28>    C        2.16863        -0.54114        -1.97349
| 29>    C        1.51731         0.61455        -1.69982
| 30>   Br        3.98282        -0.71709        -2.41360
| 31>    C       -3.29096         1.66194        -0.42454
| 32>    O       -3.33476         2.86425        -0.29055
| 33>    C       -4.36259         0.65947        -0.16879
| 34>    C       -5.49876         0.88417         0.53795
| 35>    C       -6.04041         2.16440         0.91725
| 36>    C       -6.03013         3.26389         0.04713
| 37>    C       -6.53350         4.46452         0.48380
| 38>    C       -7.03615         4.59865         1.79050
| 39>    C       -7.08927         3.50363         2.64403
| 40>    C       -6.61401         2.29164         2.19195
| 41>    C       -7.44563         5.97050         1.98653
| 42>    C       -7.21862         6.68084         0.79319
| 43>    C       -6.63398         5.77303        -0.26292
| 44>    C       -5.25222         6.26790        -0.72992
| 45>    C       -4.22920         6.32375         0.39774
| 46>    C       -7.57487         5.65005        -1.47734
| 47>    C       -8.97529         5.18100        -1.10116
| 48>    C       -7.52743         8.01536         0.71039
| 49>    C       -8.04295         8.68420         1.83487
| 50>    C       -8.26018         7.95901         3.01741
| 51>    C       -7.97447         6.61318         3.09851
| 52>    C       -8.33202        10.08883         1.73001
| 53>    C       -8.51564        10.94272         2.76517
| 54>    C       -8.79678        12.32155         2.62781
| 55>    S       -9.13359        13.05178         1.09818
| 56>    C       -9.34019        14.63615         1.78497
| 57>    C       -9.14269        14.59358         3.17992
| 58>    C       -8.84772        13.28229         3.65664
| 59>    C       -8.63271        13.06787         5.03035
| 60>    C       -8.71504        14.13079         5.88377
| 61>    F       -8.51685        13.94678         7.19734
| 62>    C       -9.00552        15.43026         5.41017
| 63>    F       -9.07265        16.43550         6.29103
| 64>    C       -9.21719        15.67033         4.08122
| 65>    C       -9.66628        15.75960         1.01407
| 66>    C       -9.93882        15.73401        -0.32370
| 67>    C      -10.26478        16.85006        -1.11896
| 68>    S      -10.75161        16.58243        -2.76311
| 69>    C      -10.96998        18.28549        -3.06529
| 70>    C      -10.67812        19.00929        -1.91790
| 71>    C      -10.27643        18.22262        -0.82288
| 72>    C       -9.93463        18.74658         0.43632
| 73>    N       -9.67140        19.15681         1.47500
| 74>    C      -10.78517        20.50376        -1.89772
| 75>    F      -10.20373        21.06804        -2.96820
| 76>    F      -12.07513        20.90230        -1.92141
| 77>    F      -10.23532        21.06869        -0.82348
| 78>    C      -11.50542        18.79787        -4.27420
| 79>    C      -11.57879        18.20691        -5.49490
| 80>    C      -10.93521        17.04020        -6.06240
| 81>    C       -9.66586        16.60524        -5.78533
| 82>    C       -9.05657        15.50818        -6.42667
| 83>    N       -8.53179        14.60686        -6.90570
| 84>    C       -8.80130        17.26645        -4.88758
| 85>    N       -8.05751        17.79956        -4.19503
| 86>    C      -11.76102        16.59321        -7.17786
| 87>    C      -12.72696        17.59391        -7.45665
| 88>    C      -12.59320        18.69124        -6.47784
| 89>    O      -13.20491        19.73036        -6.43492
| 90>    C      -13.62865        17.48004        -8.48690
| 91>    C      -13.58356        16.32039        -9.26795
| 92>    C      -12.62427        15.32135        -8.97185
| 93>    C      -11.70436        15.44050        -7.93723
| 94>    S      -12.75643        13.96895       -10.05331
| 95>    C      -14.07677        14.75285       -10.88043
| 96>    C      -14.40401        15.96526       -10.37330
| 97>   Br      -14.89879        13.89489       -12.33059
| 98>    H       -0.60706         2.38608        -1.00338
| 99>    H       -1.70160        -2.49714        -1.26246
|100>    H        1.98447         1.58234        -1.70664
|101>    H       -6.03525         0.02506         0.92488
|102>    H       -5.65593         3.15052        -0.95720
|103>    H       -7.49849         3.59647         3.63855
|104>    H       -6.64199         1.42698         2.83917
|105>    H       -5.37072         7.26054        -1.16991
|106>    H       -4.88471         5.59647        -1.50747
|107>    H       -4.59522         6.92708         1.22630
|108>    H       -3.30312         6.76301         0.03502
|109>    H       -4.01083         5.32272         0.76039
|110>    H       -7.13567         4.94569        -2.18628
|111>    H       -7.63771         6.62307        -1.96885
|112>    H       -8.94013         4.20209        -0.62810
|113>    H       -9.59574         5.10932        -1.99130
|114>    H       -9.44454         5.87885        -0.41091
|115>    H       -7.36245         8.56832        -0.20311
|116>    H       -8.68328         8.45838         3.87516
|117>    H       -8.15797         6.06940         4.01285
|118>    H       -8.36717        10.49214         0.72470
|119>    H       -8.41992        10.58600         3.78008
|120>    H       -8.40468        12.09021         5.42136
|121>    H       -9.43180        16.67296         3.74917
|122>    H       -9.71168        16.69799         1.54383
|123>    H       -9.92709        14.78139        -0.83869
|124>    H      -12.01683        19.75312        -4.20103
|125>    H      -14.34692        18.26015        -8.68411
|126>    H      -10.99427        14.65361        -7.74279
|127>    H      -15.19200        16.58489       -10.76061
|128> *
|129>
|130>                          ****END OF INPUT****

CARTESIAN COORDINATES (ANGSTROEM)
---------------------------------
  C     -3.853450   -0.651020   -0.550410
  C     -4.589720   -1.799470   -0.658230
  C     -4.057600   -3.043350   -1.059000
  N     -3.675110   -4.079090   -1.372040
  C     -5.979440   -1.885680   -0.424670
  N     -7.108900   -2.024340   -0.273420
  C     -2.444100   -0.501950   -0.879070
  C     -2.104710    0.871590   -0.809950
  C     -0.835670    1.333570   -1.064100
  C      0.145180    0.395300   -1.400310
  C     -0.202840   -0.976200   -1.464030
  C     -1.485720   -1.443070   -1.209300
  S      1.162670   -1.962950   -1.887510
  C      2.168630   -0.541140   -1.973490
  C      1.517310    0.614550   -1.699820
  Br     3.982820   -0.717090   -2.413600
  C     -3.290960    1.661940   -0.424540
  O     -3.334760    2.864250   -0.290550
  C     -4.362590    0.659470   -0.168790
  C     -5.498760    0.884170    0.537950
  C     -6.040410    2.164400    0.917250
  C     -6.030130    3.263890    0.047130
  C     -6.533500    4.464520    0.483800
  C     -7.036150    4.598650    1.790500
  C     -7.089270    3.503630    2.644030
  C     -6.614010    2.291640    2.191950
  C     -7.445630    5.970500    1.986530
  C     -7.218620    6.680840    0.793190
  C     -6.633980    5.773030   -0.262920
  C     -5.252220    6.267900   -0.729920
  C     -4.229200    6.323750    0.397740
  C     -7.574870    5.650050   -1.477340
  C     -8.975290    5.181000   -1.101160
  C     -7.527430    8.015360    0.710390
  C     -8.042950    8.684200    1.834870
  C     -8.260180    7.959010    3.017410
  C     -7.974470    6.613180    3.098510
  C     -8.332020   10.088830    1.730010
  C     -8.515640   10.942720    2.765170
  C     -8.796780   12.321550    2.627810
  S     -9.133590   13.051780    1.098180
  C     -9.340190   14.636150    1.784970
  C     -9.142690   14.593580    3.179920
  C     -8.847720   13.282290    3.656640
  C     -8.632710   13.067870    5.030350
  C     -8.715040   14.130790    5.883770
  F     -8.516850   13.946780    7.197340
  C     -9.005520   15.430260    5.410170
  F     -9.072650   16.435500    6.291030
  C     -9.217190   15.670330    4.081220
  C     -9.666280   15.759600    1.014070
  C     -9.938820   15.734010   -0.323700
  C    -10.264780   16.850060   -1.118960
  S    -10.751610   16.582430   -2.763110
  C    -10.969980   18.285490   -3.065290
  C    -10.678120   19.009290   -1.917900
  C    -10.276430   18.222620   -0.822880
  C     -9.934630   18.746580    0.436320
  N     -9.671400   19.156810    1.475000
  C    -10.785170   20.503760   -1.897720
  F    -10.203730   21.068040   -2.968200
  F    -12.075130   20.902300   -1.921410
  F    -10.235320   21.068690   -0.823480
  C    -11.505420   18.797870   -4.274200
  C    -11.578790   18.206910   -5.494900
  C    -10.935210   17.040200   -6.062400
  C     -9.665860   16.605240   -5.785330
  C     -9.056570   15.508180   -6.426670
  N     -8.531790   14.606860   -6.905700
  C     -8.801300   17.266450   -4.887580
  N     -8.057510   17.799560   -4.195030
  C    -11.761020   16.593210   -7.177860
  C    -12.726960   17.593910   -7.456650
  C    -12.593200   18.691240   -6.477840
  O    -13.204910   19.730360   -6.434920
  C    -13.628650   17.480040   -8.486900
  C    -13.583560   16.320390   -9.267950
  C    -12.624270   15.321350   -8.971850
  C    -11.704360   15.440500   -7.937230
  S    -12.756430   13.968950  -10.053310
  C    -14.076770   14.752850  -10.880430
  C    -14.404010   15.965260  -10.373300
  Br   -14.898790   13.894890  -12.330590
  H     -0.607060    2.386080   -1.003380
  H     -1.701600   -2.497140   -1.262460
  H      1.984470    1.582340   -1.706640
  H     -6.035250    0.025060    0.924880
  H     -5.655930    3.150520   -0.957200
  H     -7.498490    3.596470    3.638550
  H     -6.641990    1.426980    2.839170
  H     -5.370720    7.260540   -1.169910
  H     -4.884710    5.596470   -1.507470
  H     -4.595220    6.927080    1.226300
  H     -3.303120    6.763010    0.035020
  H     -4.010830    5.322720    0.760390
  H     -7.135670    4.945690   -2.186280
  H     -7.637710    6.623070   -1.968850
  H     -8.940130    4.202090   -0.628100
  H     -9.595740    5.109320   -1.991300
  H     -9.444540    5.878850   -0.410910
  H     -7.362450    8.568320   -0.203110
  H     -8.683280    8.458380    3.875160
  H     -8.157970    6.069400    4.012850
  H     -8.367170   10.492140    0.724700
  H     -8.419920   10.586000    3.780080
  H     -8.404680   12.090210    5.421360
  H     -9.431800   16.672960    3.749170
  H     -9.711680   16.697990    1.543830
  H     -9.927090   14.781390   -0.838690
  H    -12.016830   19.753120   -4.201030
  H    -14.346920   18.260150   -8.684110
  H    -10.994270   14.653610   -7.742790
  H    -15.192000   16.584890  -10.760610

 Total Charge           Charge          ....    0
 Multiplicity           Mult            ....    1
 Number of Electrons    NEL             ....  650
 Basis Dimension        Dim             .... 1364

ORBITAL ENERGIES
----------------

  NO   OCC          E(Eh)            E(eV)
   0   2.0000    -482.890018    -13140.1054
   1   2.0000    -482.889562    -13140.0930
   2   2.0000     -88.989734     -2421.5338
   3   2.0000     -88.983669     -2421.3687
   4   2.0000     -88.980707     -2421.2881
   5   2.0000     -88.980580     -2421.2847
   6   2.0000     -62.567731     -1702.5545
   7   2.0000     -62.567289     -1702.5425
   8   2.0000     -56.401688     -1534.7680
   9   2.0000     -56.401245     -1534.7559
  10   2.0000     -56.398959     -1534.6937
  11   2.0000     -56.398931     -1534.6929
  12   2.0000     -56.398519     -1534.6817
  13   2.0000     -56.398486     -1534.6808
  14   2.0000     -24.808089      -675.0624
  15   2.0000     -24.803760      -674.9446
  16   2.0000     -24.802526      -674.9110
  17   2.0000     -24.794782      -674.7003
  18   2.0000     -24.794600      -674.6954
  19   2.0000     -19.224105      -523.1145
  20   2.0000     -19.220871      -523.0265
  21   2.0000     -14.423316      -392.4784
  22   2.0000     -14.420254      -392.3951
  23   2.0000     -14.419100      -392.3637
  24   2.0000     -14.419096      -392.3636
  25   2.0000     -14.415608      -392.2686
  26   2.0000     -10.529934      -286.5341
  27   2.0000     -10.379250      -282.4338
  28   2.0000     -10.377388      -282.3831
  29   2.0000     -10.376097      -282.3480
  30   2.0000     -10.372218      -282.2424
  31   2.0000     -10.364206      -282.0244
  32   2.0000     -10.363464      -282.0042
  33   2.0000     -10.351278      -281.6726
  34   2.0000     -10.350024      -281.6385
  35   2.0000     -10.349334      -281.6197
  36   2.0000     -10.347996      -281.5833
  37   2.0000     -10.345983      -281.5285
  38   2.0000     -10.337318      -281.2927
  39   2.0000     -10.332110      -281.1510
  40   2.0000     -10.331993      -281.1478
  41   2.0000     -10.331622      -281.1377
  42   2.0000     -10.331461      -281.1334
  43   2.0000     -10.330935      -281.1190
  44   2.0000     -10.328273      -281.0466
  45   2.0000     -10.325545      -280.9724
  46   2.0000     -10.322731      -280.8958
  47   2.0000     -10.321775      -280.8698
  48   2.0000     -10.321192      -280.8539
  49   2.0000     -10.320922      -280.8466
  50   2.0000     -10.320121      -280.8248
  51   2.0000     -10.318443      -280.7791
  52   2.0000     -10.315461      -280.6980
  53   2.0000     -10.314061      -280.6599
  54   2.0000     -10.313573      -280.6466
  55   2.0000     -10.312914      -280.6287
  56   2.0000     -10.311990      -280.6035
  57   2.0000     -10.311779      -280.5978
  58   2.0000     -10.311533      -280.5911
  59   2.0000     -10.309713      -280.5416
  60   2.0000     -10.307083      -280.4700
  61   2.0000     -10.306820      -280.4628
  62   2.0000     -10.306757      -280.4611
  63   2.0000     -10.306290      -280.4484
  64   2.0000     -10.303980      -280.3855
  65   2.0000     -10.302036      -280.3327
  66   2.0000     -10.301954      -280.3304
  67   2.0000     -10.301600      -280.3208
  68   2.0000     -10.301124      -280.3078
  69   2.0000     -10.300428      -280.2889
  70   2.0000     -10.299288      -280.2579
  71   2.0000     -10.299050      -280.2514
  72   2.0000     -10.298744      -280.2431
  73   2.0000     -10.298066      -280.2246
  74   2.0000     -10.294669      -280.1322
  75   2.0000     -10.293087      -280.0891
  76   2.0000     -10.288002      -279.9508
  77   2.0000     -10.287348      -279.9330
  78   2.0000     -10.286237      -279.9027
  79   2.0000     -10.285460      -279.8816
  80   2.0000     -10.285190      -279.8742
  81   2.0000     -10.284483      -279.8550
  82   2.0000     -10.284206      -279.8475
  83   2.0000     -10.284090      -279.8443
  84   2.0000     -10.283280      -279.8223
  85   2.0000     -10.281020      -279.7608
  86   2.0000     -10.277870      -279.6751
  87   2.0000     -10.269838      -279.4565
  88   2.0000     -10.265643      -279.3423
  89   2.0000     -10.252624      -278.9881
  90   2.0000     -10.245377      -278.7909
  91   2.0000      -8.797161      -239.3829
  92   2.0000      -8.796726      -239.3711
  93   2.0000      -8.084809      -219.9988
  94   2.0000      -8.078625      -219.8306
  95   2.0000      -8.076721      -219.7788
  96   2.0000      -8.076622      -219.7760
  97   2.0000      -6.633494      -180.5065
  98   2.0000      -6.633062      -180.4948
  99   2.0000      -6.618890      -180.1091
 100   2.0000      -6.618658      -180.1028
 101   2.0000      -6.618427      -180.0965
 102   2.0000      -6.618248      -180.0917
 103   2.0000      -6.054078      -164.7398
 104   2.0000      -6.049939      -164.6272
 105   2.0000      -6.047527      -164.5616
 106   2.0000      -6.046905      -164.5446
 107   2.0000      -6.046425      -164.5316
 108   2.0000      -6.046319      -164.5287
 109   2.0000      -6.043638      -164.4557
 110   2.0000      -6.042123      -164.4145
 111   2.0000      -6.042028      -164.4119
 112   2.0000      -6.041385      -164.3944
 113   2.0000      -6.037928      -164.3004
 114   2.0000      -6.037828      -164.2977
 115   2.0000      -2.749355       -74.8138
 116   2.0000      -2.748934       -74.8023
 117   2.0000      -2.745242       -74.7018
 118   2.0000      -2.745126       -74.6987
 119   2.0000      -2.744858       -74.6914
 120   2.0000      -2.744632       -74.6852
 121   2.0000      -2.733490       -74.3820
 122   2.0000      -2.733475       -74.3816
 123   2.0000      -2.733055       -74.3702
 124   2.0000      -2.733043       -74.3699
 125   2.0000      -1.396562       -38.0024
 126   2.0000      -1.317967       -35.8637
 127   2.0000      -1.302798       -35.4509
 128   2.0000      -1.300433       -35.3866
 129   2.0000      -1.293881       -35.2083
 130   2.0000      -1.139798       -31.0155
 131   2.0000      -1.137203       -30.9449
 132   2.0000      -1.033292       -28.1173
 133   2.0000      -1.028385       -27.9838
 134   2.0000      -1.027240       -27.9526
 135   2.0000      -1.019424       -27.7399
 136   2.0000      -1.018140       -27.7050
 137   2.0000      -1.018074       -27.7032
 138   2.0000      -1.000608       -27.2279
 139   2.0000      -1.000185       -27.2164
 140   2.0000      -0.998285       -27.1647
 141   2.0000      -0.996702       -27.1217
 142   2.0000      -0.995017       -27.0758
 143   2.0000      -0.994859       -27.0715
 144   2.0000      -0.963622       -26.2215
 145   2.0000      -0.957302       -26.0495
 146   2.0000      -0.950192       -25.8560
 147   2.0000      -0.948209       -25.8021
 148   2.0000      -0.939297       -25.5596
 149   2.0000      -0.931323       -25.3426
 150   2.0000      -0.916893       -24.9499
 151   2.0000      -0.914166       -24.8757
 152   2.0000      -0.913652       -24.8617
 153   2.0000      -0.905570       -24.6418
 154   2.0000      -0.903796       -24.5935
 155   2.0000      -0.893244       -24.3064
 156   2.0000      -0.891657       -24.2632
 157   2.0000      -0.891425       -24.2569
 158   2.0000      -0.886074       -24.1113
 159   2.0000      -0.875424       -23.8215
 160   2.0000      -0.869525       -23.6610
 161   2.0000      -0.854881       -23.2625
 162   2.0000      -0.847317       -23.0567
 163   2.0000      -0.845488       -23.0069
 164   2.0000      -0.843336       -22.9483
 165   2.0000      -0.841398       -22.8956
 166   2.0000      -0.839261       -22.8375
 167   2.0000      -0.834807       -22.7162
 168   2.0000      -0.834154       -22.6985
 169   2.0000      -0.822354       -22.3774
 170   2.0000      -0.806139       -21.9362
 171   2.0000      -0.793367       -21.5886
 172   2.0000      -0.780090       -21.2273
 173   2.0000      -0.769977       -20.9521
 174   2.0000      -0.768503       -20.9120
 175   2.0000      -0.765140       -20.8205
 176   2.0000      -0.760668       -20.6988
 177   2.0000      -0.752350       -20.4725
 178   2.0000      -0.747142       -20.3308
 179   2.0000      -0.737351       -20.0643
 180   2.0000      -0.726378       -19.7658
 181   2.0000      -0.722069       -19.6485
 182   2.0000      -0.713029       -19.4025
 183   2.0000      -0.709096       -19.2955
 184   2.0000      -0.706217       -19.2172
 185   2.0000      -0.698270       -19.0009
 186   2.0000      -0.694858       -18.9080
 187   2.0000      -0.691686       -18.8217
 188   2.0000      -0.688873       -18.7452
 189   2.0000      -0.686067       -18.6688
 190   2.0000      -0.680042       -18.5049
 191   2.0000      -0.677667       -18.4403
 192   2.0000      -0.677575       -18.4377
 193   2.0000      -0.677453       -18.4344
 194   2.0000      -0.668634       -18.1945
 195   2.0000      -0.667823       -18.1724
 196   2.0000      -0.663506       -18.0549
 197   2.0000      -0.659485       -17.9455
 198   2.0000      -0.658530       -17.9195
 199   2.0000      -0.644046       -17.5254
 200   2.0000      -0.638747       -17.3812
 201   2.0000      -0.630364       -17.1531
 202   2.0000      -0.629640       -17.1334
 203   2.0000      -0.626508       -17.0481
 204   2.0000      -0.621980       -16.9249
 205   2.0000      -0.617870       -16.8131
 206   2.0000      -0.609418       -16.5831
 207   2.0000      -0.607587       -16.5333
 208   2.0000      -0.605144       -16.4668
 209   2.0000      -0.603506       -16.4222
 210   2.0000      -0.597450       -16.2574
 211   2.0000      -0.596577       -16.2337
 212   2.0000      -0.585984       -15.9454
 213   2.0000      -0.582589       -15.8531
 214   2.0000      -0.581515       -15.8238
 215   2.0000      -0.577248       -15.7077
 216   2.0000      -0.570877       -15.5344
 217   2.0000      -0.564677       -15.3656
 218   2.0000      -0.558683       -15.2025
 219   2.0000      -0.555739       -15.1224
 220   2.0000      -0.554772       -15.0961
 221   2.0000      -0.552642       -15.0381
 222   2.0000      -0.550620       -14.9831
 223   2.0000      -0.549652       -14.9568
 224   2.0000      -0.549426       -14.9506
 225   2.0000      -0.547958       -14.9107
 226   2.0000      -0.546185       -14.8624
 227   2.0000      -0.543983       -14.8025
 228   2.0000      -0.543872       -14.7995
 229   2.0000      -0.543248       -14.7825
 230   2.0000      -0.539329       -14.6759
 231   2.0000      -0.536889       -14.6095
 232   2.0000      -0.536132       -14.5889
 233   2.0000      -0.534764       -14.5517
 234   2.0000      -0.530308       -14.4304
 235   2.0000      -0.529495       -14.4083
 236   2.0000      -0.527382       -14.3508
 237   2.0000      -0.525647       -14.3036
 238   2.0000      -0.521822       -14.1995
 239   2.0000      -0.518554       -14.1106
 240   2.0000      -0.517524       -14.0826
 241   2.0000      -0.516749       -14.0615
 242   2.0000      -0.516070       -14.0430
 243   2.0000      -0.514359       -13.9964
 244   2.0000      -0.513935       -13.9849
 245   2.0000      -0.510142       -13.8817
 246   2.0000      -0.509009       -13.8508
 247   2.0000      -0.506856       -13.7923
 248   2.0000      -0.504866       -13.7381
 249   2.0000      -0.501884       -13.6570
 250   2.0000      -0.498853       -13.5745
 251   2.0000      -0.498331       -13.5603
 252   2.0000      -0.497116       -13.5272
 253   2.0000      -0.494801       -13.4642
 254   2.0000      -0.492210       -13.3937
 255   2.0000      -0.490699       -13.3526
 256   2.0000      -0.489844       -13.3293
 257   2.0000      -0.486545       -13.2396
 258   2.0000      -0.483224       -13.1492
 259   2.0000      -0.481423       -13.1002
 260   2.0000      -0.479279       -13.0418
 261   2.0000      -0.475821       -12.9478
 262   2.0000      -0.473927       -12.8962
 263   2.0000      -0.473172       -12.8757
 264   2.0000      -0.466711       -12.6999
 265   2.0000      -0.464171       -12.6307
 266   2.0000      -0.463881       -12.6228
 267   2.0000      -0.461336       -12.5536
 268   2.0000      -0.458061       -12.4645
 269   2.0000      -0.454791       -12.3755
 270   2.0000      -0.453409       -12.3379
 271   2.0000      -0.453196       -12.3321
 272   2.0000      -0.452291       -12.3075
 273   2.0000      -0.452141       -12.3034
 274   2.0000      -0.451852       -12.2955
 275   2.0000      -0.449692       -12.2367
 276   2.0000      -0.448100       -12.1934
 277   2.0000      -0.447415       -12.1748
 278   2.0000      -0.445617       -12.1259
 279   2.0000      -0.444113       -12.0849
 280   2.0000      -0.443948       -12.0805
 281   2.0000      -0.442332       -12.0365
 282   2.0000      -0.440562       -11.9883
 283   2.0000      -0.435788       -11.8584
 284   2.0000      -0.434511       -11.8237
 285   2.0000      -0.432588       -11.7713
 286   2.0000      -0.431574       -11.7437
 287   2.0000      -0.430115       -11.7040
 288   2.0000      -0.428560       -11.6617
 289   2.0000      -0.428460       -11.6590
 290   2.0000      -0.427781       -11.6405
 291   2.0000      -0.427528       -11.6336
 292   2.0000      -0.420181       -11.4337
 293   2.0000      -0.417375       -11.3573
 294   2.0000      -0.415132       -11.2963
 295   2.0000      -0.413453       -11.2506
 296   2.0000      -0.410126       -11.1601
 297   2.0000      -0.408305       -11.1105
 298   2.0000      -0.403444       -10.9783
 299   2.0000      -0.397964       -10.8291
 300   2.0000      -0.396375       -10.7859
 301   2.0000      -0.394133       -10.7249
 302   2.0000      -0.392185       -10.6719
 303   2.0000      -0.390367       -10.6224
 304   2.0000      -0.388685       -10.5767
 305   2.0000      -0.379315       -10.3217
 306   2.0000      -0.378876       -10.3097
 307   2.0000      -0.376180       -10.2364
 308   2.0000      -0.370550       -10.0832
 309   2.0000      -0.354215        -9.6387
 310   2.0000      -0.352556        -9.5935
 311   2.0000      -0.349362        -9.5066
 312   2.0000      -0.348011        -9.4699
 313   2.0000      -0.338528        -9.2118
 314   2.0000      -0.333017        -9.0618
 315   2.0000      -0.326857        -8.8942
 316   2.0000      -0.325385        -8.8542
 317   2.0000      -0.321411        -8.7460
 318   2.0000      -0.320665        -8.7257
 319   2.0000      -0.320535        -8.7222
 320   2.0000      -0.305347        -8.3089
 321   2.0000      -0.299207        -8.1418
 322   2.0000      -0.298378        -8.1193
 323   2.0000      -0.281581        -7.6622
 324   2.0000      -0.240409        -6.5419
 325   0.0000      -0.111363        -3.0303
 326   0.0000      -0.092969        -2.5298
 327   0.0000      -0.083035        -2.2595
 328   0.0000      -0.064524        -1.7558
 329   0.0000      -0.061164        -1.6644

MULLIKEN ATOMIC CHARGES
-----------------------
   0 C :    0.285770
   1 C :   -0.335921
   2 C :   -0.184563
   3 N :    0.155518
   4 C :   -0.207474
   5 N :    0.165063
   6 C :    0.019465
   7 C :   -0.016236
   8 C :   -0.071577
   9 C :    0.118585
  10 C :   -0.086614
  11 C :   -0.023058
  12 S :    0.189581
  13 C :   -0.123052
  14 C :    0.038233
  15 Br:    0.027725
  16 C :    0.146104
  17 O :   -0.140421
  18 C :   -0.085578
  19 C :   -0.026030
  20 C :    0.061114
  21 C :    0.015671
  22 C :   -0.021799
  23 C :    0.119224
  24 C :   -0.049644
  25 C :    0.005669
  26 C :    0.101105
  27 C :    0.031460
  28 C :   -0.150109
  29 C :    0.069233
  30 C :    0.027542
  31 C :    0.069253
  32 C :    0.022912
  33 C :   -0.105081
  34 C :    0.118575
  35 C :   -0.010807
  36 C :   -0.037343
  37 C :   -0.007638
  38 C :    0.004891
  39 C :   -0.068715
  40 S :    0.147211
  41 C :   -0.100163
  42 C :    0.137198
  43 C :    0.114541
  44 C :   -0.109329
  45 C :    0.223230
  46 F :   -0.175560
  47 C :    0.230954
  48 F :   -0.167838
  49 C :   -0.115437
  50 C :    0.000886
  51 C :    0.018308
  52 C :   -0.045001
  53 S :    0.176925
  54 C :   -0.168844
  55 C :    0.023418
  56 C :   -0.060972
  57 C :   -0.236086
  58 N :    0.139583
  59 C :    0.523203
  60 F :   -0.152037
  61 F :   -0.163376
  62 F :   -0.130648
  63 C :    0.053606
  64 C :   -0.127217
  65 C :    0.240906
  66 C :   -0.321704
  67 C :   -0.178276
  68 N :    0.158126
  69 C :   -0.211153
  70 N :    0.183231
  71 C :    0.007647
  72 C :   -0.000134
  73 C :    0.138794
  74 O :   -0.133221
  75 C :   -0.067971
  76 C :    0.110730
  77 C :   -0.087328
  78 C :   -0.021580
  79 S :    0.186746
  80 C :   -0.123675
  81 C :    0.040445
  82 Br:    0.027652
  83 H :   -0.008773
  84 H :   -0.003641
  85 H :   -0.001971
  86 H :    0.036661
  87 H :   -0.030431
  88 H :   -0.030362
  89 H :   -0.017390
  90 H :   -0.004821
  91 H :    0.005913
  92 H :    0.011606
  93 H :    0.007011
  94 H :    0.033286
  95 H :    0.001633
  96 H :   -0.001350
  97 H :    0.021983
  98 H :    0.013035
  99 H :    0.019913
 100 H :   -0.035230
 101 H :   -0.027404
 102 H :   -0.031867
 103 H :   -0.007874
 104 H :   -0.009746
 105 H :   -0.009989
 106 H :    0.012581
 107 H :    0.009912
 108 H :   -0.012764
 109 H :    0.041022
 110 H :   -0.005241
 111 H :   -0.001744
 112 H :   -0.000780
Sum of atomic charges:   -0.0000000

LOEWDIN ATOMIC CHARGES
----------------------
   0 C :    0.075255
   1 C :   -0.137018
   2 C :   -0.018568
   3 N :   -0.049904
   4 C :   -0.025627
   5 N :   -0.047216
   6 C :   -0.021631
   7 C :   -0.051230
   8 C :    0.022790
   9 C :   -0.031436
  10 C :   -0.142863
  11 C :   -0.008737
  12 S :    0.434829
  13 C :   -0.270066
  14 C :   -0.070302
  15 Br:    0.140087
  16 C :    0.086503
  17 O :   -0.134089
  18 C :   -0.093613
  19 C :    0.084548
  20 C :   -0.040856
  21 C :    0.021661
  22 C :    0.001213
  23 C :    0.000961
  24 C :   -0.022562
  25 C :    0.001584
  26 C :   -0.014663
  27 C :    0.009654
  28 C :   -0.035623
  29 C :   -0.010348
  30 C :   -0.057855
  31 C :   -0.010470
  32 C :   -0.058219
  33 C :   -0.014854
  34 C :   -0.025692
  35 C :   -0.012463
  36 C :   -0.011712
  37 C :    0.000392
  38 C :   -0.047086
  39 C :   -0.147695
  40 S :    0.482839
  41 C :   -0.189161
  42 C :   -0.025695
  43 C :   -0.049752
  44 C :   -0.036804
  45 C :    0.061219
  46 F :   -0.053478
  47 C :    0.070655
  48 F :   -0.046166
  49 C :   -0.037027
  50 C :    0.008752
  51 C :   -0.082261
  52 C :   -0.103998
  53 S :    0.501182
  54 C :   -0.172442
  55 C :   -0.057785
  56 C :   -0.109879
  57 C :   -0.033830
  58 N :   -0.054581
  59 C :    0.171224
  60 F :   -0.050774
  61 F :   -0.064473
  62 F :   -0.028554
  63 C :    0.045098
  64 C :   -0.088625
  65 C :    0.059150
  66 C :   -0.141419
  67 C :   -0.019769
  68 N :   -0.048812
  69 C :   -0.039333
  70 N :   -0.042028
  71 C :   -0.017892
  72 C :   -0.052554
  73 C :    0.084277
  74 O :   -0.133009
  75 C :    0.024637
  76 C :   -0.032368
  77 C :   -0.142706
  78 C :   -0.012750
  79 S :    0.433147
  80 C :   -0.270943
  81 C :   -0.069308
  82 Br:    0.139782
  83 H :    0.041337
  84 H :    0.041629
  85 H :    0.039409
  86 H :    0.046521
  87 H :    0.028316
  88 H :    0.028935
  89 H :    0.030967
  90 H :    0.018600
  91 H :    0.023727
  92 H :    0.021531
  93 H :    0.024612
  94 H :    0.028247
  95 H :    0.021790
  96 H :    0.020333
  97 H :    0.025601
  98 H :    0.025767
  99 H :    0.024359
 100 H :    0.026205
 101 H :    0.025930
 102 H :    0.029068
 103 H :    0.023922
 104 H :    0.032439
 105 H :    0.040289
 106 H :    0.048397
 107 H :    0.043362
 108 H :    0.023233
 109 H :    0.050889
 110 H :    0.042891
 111 H :    0.040959
 112 H :    0.039870

  Mayer bond orders larger than 0.100000
B(  0-C ,  1-C ) :   1.6594 B(  0-C ,  6-C ) :   1.0141 B(  0-C , 18-C ) :   1.0386
B(  1-C ,  2-C ) :   1.1366 B(  1-C ,  4-C ) :   1.1388 B(  2-C ,  3-N ) :   2.9777
B(  4-C ,  5-N ) :   3.0015 B(  6-C ,  7-C ) :   1.2718 B(  6-C , 11-C ) :   1.4042
B(  7-C ,  8-C ) :   1.4208 B(  7-C , 16-C ) :   0.9472 B(  8-C ,  9-C ) :   1.2486
B(  8-C , 83-H ) :   1.0173 B(  9-C , 10-C ) :   1.3029 B(  9-C , 14-C ) :   1.1604
B( 10-C , 11-C ) :   1.3330 B( 10-C , 12-S ) :   1.0857 B( 11-C , 84-H ) :   0.9820
B( 12-S , 13-C ) :   1.0871 B( 13-C , 14-C ) :   1.6178 B( 13-C , 15-Br) :   1.0218
B( 14-C , 85-H ) :   1.0014 B( 16-C , 17-O ) :   2.2031 B( 16-C , 18-C ) :   0.9326
B( 18-C , 19-C ) :   1.6627 B( 19-C , 20-C ) :   1.0646 B( 19-C , 86-H ) :   0.9525
B( 20-C , 21-C ) :   1.3081 B( 20-C , 25-C ) :   1.3177 B( 21-C , 22-C ) :   1.4280
B( 21-C , 87-H ) :   0.9887 B( 22-C , 23-C ) :   1.3582 B( 22-C , 28-C ) :   0.9139
B( 23-C , 24-C ) :   1.3322 B( 23-C , 26-C ) :   1.0039 B( 24-C , 25-C ) :   1.3902
B( 24-C , 88-H ) :   0.9926 B( 25-C , 89-H ) :   0.9924 B( 26-C , 27-C ) :   1.3645
B( 26-C , 36-C ) :   1.3280 B( 27-C , 28-C ) :   0.9162 B( 27-C , 33-C ) :   1.3815
B( 28-C , 29-C ) :   1.0420 B( 28-C , 31-C ) :   1.0369 B( 29-C , 30-C ) :   1.1053
B( 29-C , 90-H ) :   0.9400 B( 29-C , 91-H ) :   0.9361 B( 30-C , 92-H ) :   0.9656
B( 30-C , 93-H ) :   0.9623 B( 30-C , 94-H ) :   0.9573 B( 31-C , 32-C ) :   1.1008
B( 31-C , 95-H ) :   0.9396 B( 31-C , 96-H ) :   0.9398 B( 32-C , 97-H ) :   0.9649
B( 32-C , 98-H ) :   0.9636 B( 32-C , 99-H ) :   0.9640 B( 33-C , 34-C ) :   1.2824
B( 33-C ,100-H ) :   1.0129 B( 34-C , 35-C ) :   1.3366 B( 34-C , 37-C ) :   1.0806
B( 35-C , 36-C ) :   1.4039 B( 35-C ,101-H ) :   0.9833 B( 36-C ,102-H ) :   0.9898
B( 37-C , 38-C ) :   1.6438 B( 37-C ,103-H ) :   0.9810 B( 38-C , 39-C ) :   1.1875
B( 38-C ,104-H ) :   0.9627 B( 39-C , 40-S ) :   1.1642 B( 39-C , 43-C ) :   1.3124
B( 40-S , 41-C ) :   1.1049 B( 41-C , 42-C ) :   1.2989 B( 41-C , 50-C ) :   1.2631
B( 42-C , 43-C ) :   1.2187 B( 42-C , 49-C ) :   1.1793 B( 43-C , 44-C ) :   1.1650
B( 44-C , 45-C ) :   1.5075 B( 44-C , 49-C ) :   0.1123 B( 44-C ,105-H ) :   0.9978
B( 45-C , 46-F ) :   1.1317 B( 45-C , 47-C ) :   1.1560 B( 47-C , 48-F ) :   1.1417
B( 47-C , 49-C ) :   1.4939 B( 49-C ,106-H ) :   0.9978 B( 50-C , 51-C ) :   1.5639
B( 50-C ,107-H ) :   0.9514 B( 51-C , 52-C ) :   1.2154 B( 51-C ,108-H ) :   0.9418
B( 52-C , 53-S ) :   1.1489 B( 52-C , 56-C ) :   1.4091 B( 53-S , 54-C ) :   1.1103
B( 54-C , 55-C ) :   1.4694 B( 54-C , 63-C ) :   1.1287 B( 55-C , 56-C ) :   1.3577
B( 55-C , 59-C ) :   0.9253 B( 56-C , 57-C ) :   1.1257 B( 57-C , 58-N ) :   2.9662
B( 59-C , 60-F ) :   1.1749 B( 59-C , 61-F ) :   1.1563 B( 59-C , 62-F ) :   1.1823
B( 63-C , 64-C ) :   1.6740 B( 63-C ,109-H ) :   0.9238 B( 64-C , 65-C ) :   1.0290
B( 64-C , 73-C ) :   0.9325 B( 65-C , 66-C ) :   1.6577 B( 65-C , 71-C ) :   1.0196
B( 66-C , 67-C ) :   1.1334 B( 66-C , 69-C ) :   1.1540 B( 67-C , 68-N ) :   2.9929
B( 69-C , 70-N ) :   3.0255 B( 71-C , 72-C ) :   1.2720 B( 71-C , 78-C ) :   1.4134
B( 72-C , 73-C ) :   0.9222 B( 72-C , 75-C ) :   1.4271 B( 73-C , 74-O ) :   2.2711
B( 75-C , 76-C ) :   1.2534 B( 75-C ,110-H ) :   1.0160 B( 76-C , 77-C ) :   1.3053
B( 76-C , 81-C ) :   1.1648 B( 77-C , 78-C ) :   1.3274 B( 77-C , 79-S ) :   1.0855
B( 78-C ,111-H ) :   0.9840 B( 79-S , 80-C ) :   1.0862 B( 80-C , 81-C ) :   1.6184
B( 80-C , 82-Br) :   1.0213 B( 81-C ,112-H ) :   1.0003

-----------------------------------------------------------------------------
         ABSORPTION SPECTRUM VIA TRANSITION ELECTRIC DIPOLE MOMENTS
-----------------------------------------------------------------------------
State   Energy  Wavelength   fosc         T2         TX        TY        TZ
        (cm-1)    (nm)                  (au**2)     (au)      (au)      (au)
-----------------------------------------------------------------------------
   0   13738.1    727.9   1.182711238  28.34176  -1.56725   3.77616  -3.40970
   1   20037.0    499.1   1.025652218  16.85167   1.18931  -3.68891  -1.35246
   2   22590.3    442.7   0.282398183   4.11543  -0.91083   1.22067   1.34006
   3   24463.6    408.8   0.340746549   4.58550   0.55922  -1.36834  -1.54932
   4   25712.4    388.9   0.018800536   0.24071  -0.43573  -0.21267  -0.07503
   5   26414.6    378.6   0.196026164   2.44312   0.46298   0.89133   1.19762
   6   26845.1    372.5   0.261808817   3.21066   1.01389   0.08141   1.47514
   7   27419.5    364.7   0.015673871   0.18819  -0.15591  -0.17273  -0.36612
   8   28282.9    353.6   0.011763710   0.13693  -0.18852  -0.27526  -0.16007
   9   28749.4    347.8   0.091778189   1.05096  -0.98633   0.25797   0.10759
  10   28862.2    346.5   0.338393821   3.85983   1.89665   0.11080  -0.50028
  11   29417.9    339.9   0.008220753   0.09200  -0.18089  -0.12926  -0.20632
  12   29625.1    337.6   0.024519945   0.27248  -0.11929  -0.28036  -0.42385
  13   29734.2    336.3   0.126314320   1.39853  -0.52657   0.82462   0.66426
  14   30714.5    325.6   0.019993114   0.21430   0.05347  -0.36919  -0.27410
  15   31115.1    321.4   0.159392336   1.68644   0.61631  -0.06733   1.14109
  16   31574.7    316.7   0.105808996   1.10321  -0.95586  -0.43042  -0.06547
  17   32074.9    311.8   0.015139921   0.15539  -0.07059  -0.05768  -0.38351
  18   32850.0    304.4   0.326511688   3.27219   0.36444   0.81779   1.57181
  19   33042.9    302.6   0.304150851   3.03031  -1.42267   0.19518  -0.98399
  20   33378.0    299.6   0.024606768   0.24270  -0.27646  -0.25533   0.31792
  21   33436.7    299.1   0.007181051   0.07070  -0.01839   0.26521   0.00530
  22   33584.8    297.8   0.032023926   0.31391   0.04446   0.23667   0.50589
  23   33963.5    294.4   0.733349571   7.10843   2.38543   1.18889  -0.06842
  24   34179.1    292.6   0.024836972   0.23923  -0.33533   0.25957   0.24374
  25   34460.4    290.2   0.226738966   2.16611   0.84663  -1.18010  -0.23810
  26   34852.8    286.9   0.051083352   0.48252  -0.22564   0.61320   0.23579
  27   34952.7    286.1   0.062057612   0.58451  -0.19461   0.30987  -0.67128
  28   35167.5    284.4   0.063527633   0.59470  -0.37416  -0.56205  -0.37257
  29   35915.0    278.4   0.072966723   0.66884  -0.35274  -0.63128  -0.38196
  30   36063.6    277.3   0.157352401   1.43642  -0.30643  -0.56565  -1.01122
  31   36893.5    271.1   0.009995457   0.08919  -0.16674   0.03849  -0.24476
  32   37050.6    269.9   0.012358098   0.10981   0.30178  -0.12725   0.05042
  33   37311.2    268.0   0.014046227   0.12394   0.18217  -0.19266  -0.23159
  34   37603.4    265.9   0.049981602   0.43758  -0.43088   0.43492   0.25053
  35   38488.8    259.8   0.144569196   1.23656   0.61915  -0.89980   0.20875
  36   38547.8    259.4   0.096968115   0.82814   0.70844  -0.40644   0.40134
  37   38972.6    256.6   0.267146547   2.25666   0.63230  -1.27359  -0.48458
  38   39062.6    256.0   0.108145204   0.91143   0.21114  -0.51012  -0.77886
  39   39382.4    253.9   0.022241114   0.18592   0.00076  -0.43118   0.00192
  40   39765.5    251.5   0.012814132   0.10609   0.27345  -0.13937   0.10903
  41   39777.7    251.4   0.004980655   0.04122   0.08108  -0.16411   0.08785
  42   40206.8    248.7   0.034172056   0.27980  -0.49197   0.12988   0.14456

FINAL SINGLE POINT ENERGY    -10154.310823626090

DIPOLE MOMENT
-------------
                                X             Y             Z
Electronic contribution:     22.87065      28.98344    -126.58779
Nuclear contribution   :    -22.87686     -30.85931     126.27699
                        -----------------------------------------
Total Dipole Moment    :     -0.00622      -1.87588      -0.31081
                        -----------------------------------------
Magnitude (a.u.)       :      1.90146
Magnitude (Debye)      :      4.83313

Rotational constants in cm-1:     0.000520     0.000152     0.000130
Rotational constants in MHz :    15.575114     4.557800     3.903711

                             ****ORCA TERMINATED NORMALLY****
TOTAL RUN TIME: 0 days 0 hours 12 minutes 26 seconds 237 msec
