                         Program Version 4.2.0 -  RELEASE  -
|  1> # ORCA input file
|  2> # SCF done       -184.486650457222          0.000421377457
|  3> ! CAM-B3LYP def2-SVP def2/J RIJCOSX Grid4 TightSCF
|  4> %maxcore 5000
|  5> %tddft
|  6>     Mode sTDDFT
|  7>     Ethresh 5.0
|  8>     maxcore 5000
|  9> end
| 10>
| 11> %pal
| 12>   nprocs 6
| 13>   end
| 14> * xyz 0 1
| 15>    C       -5.03683         5.49023         0.74725
| 16>    C       -3.95562         6.31654         0.57984
| 17>    C       -2.92049         6.46677         1.52524
| 18>    N       -2.04767         6.62486         2.25429
| 19>    C       -3.74269         7.14728        -0.53969
| 20>    N       -3.51413         7.86360        -1.40787
| 21>    C       -5.33231         4.70280         1.93645
| 22>    C       -6.59964         4.08949         1.77826
| 23>    C       -7.16516         3.29630         2.74636
| 24>    C       -6.44759         3.09966         3.93068
| 25>    C       -5.17827         3.70881         4.07710
| 26>    C       -4.60507         4.50888         3.09743
| 27>    S       -4.46082         3.32853         5.61395
| 28>    C       -5.85838         2.37402         6.03392
| 29>    C       -6.81325         2.33865         5.07447
| 30>   Br       -5.92498         1.51436         7.69955
| 31>    C       -7.15408         4.43210         0.45228
| 32>    O       -8.17840         4.00567        -0.03400
| 33>    C       -6.13943         5.31731        -0.18165
| 34>    C       -6.20570         5.75269        -1.46706
| 35>    C       -7.35240         5.62455        -2.32471
| 36>    C       -7.16074         5.11723        -3.58461
| 37>    S       -8.60078         4.74770        -4.42208
| 38>    C       -9.53756         5.37340        -3.09516
| 39>    C       -8.75045         5.85712        -2.04157
| 40>    C       -9.38459         6.51419        -0.95843
| 41>    C       -8.55321         7.31204         0.01306
| 42>    C       -7.80191         8.43992        -0.69680
| 43>    C      -10.77265         6.50111        -0.86232
| 44>    C      -11.46936         7.04307         0.35851
| 45>    C      -11.78940         8.53480         0.23035
| 46>    C      -11.56243         5.96397        -1.90740
| 47>    C      -12.99799         5.84866        -2.05108
| 48>    C      -13.34138         5.24931        -3.22622
| 49>    S      -12.01569         4.81407        -4.22982
| 50>    C      -10.91856         5.42335        -3.03284
| 51>    C      -14.02910         6.29163        -1.13239
| 52>    C      -15.14515         5.58714        -0.87451
| 53>    C      -16.14597         5.99519         0.05745
| 54>    S      -15.93198         7.41543         1.03940
| 55>    C      -17.38964         7.08536         1.88790
| 56>    C      -18.01050         5.95084         1.47398
| 57>    C      -19.31174         5.48960         2.04276
| 58>    C      -17.30458         5.31090         0.40563
| 59>    C      -17.74869         4.13867        -0.30179
| 60>    C      -18.37345         3.07326         0.24960
| 61>    C      -18.85070         1.94600        -0.47727
| 62>    C      -19.16643         1.94191        -1.80324
| 63>    C      -19.62565         0.81053        -2.49714
| 64>    C      -20.08049         0.82799        -3.79167
| 65>    C      -20.52044        -0.27728        -4.55965
| 66>    C      -20.95388         0.04323        -5.80991
| 67>    C      -20.89984         1.42528        -6.10018
| 68>    S      -20.23678         2.30305        -4.73859
| 69>    C      -21.32840         2.06554        -7.24568
| 70>    C      -21.85732         1.48278        -8.41898
| 71>    C      -22.23133         2.38668        -9.36459
| 72>    C      -22.03446         3.74268        -8.99571
| 73>    S      -21.31493         3.81308        -7.39610
| 74>    C      -22.37646         4.82715        -9.75863
| 75>    C      -22.26044         6.19076        -9.42924
| 76>    O      -22.71671         7.08758       -10.37186
| 77>    C      -22.53326         8.30479        -9.84125
| 78>    C      -22.71650         9.66698       -10.10195
| 79>    C      -22.24310        10.31151        -8.96924
| 80>    O      -21.78126         9.42297        -8.03407
| 81>    C      -21.95969         8.20458        -8.56649
| 82>    C      -21.77977         6.84750        -8.29434
| 83>    C      -22.19542        11.71930        -8.69580
| 84>    C      -21.72207        12.25023        -7.56902
| 85>    H       -8.13340         2.84537         2.59517
| 86>    H       -3.63384         4.94743         3.25423
| 87>    H       -7.73769         1.79841         5.16703
| 88>    H       -5.30855         6.13348        -1.93936
| 89>    H       -6.21659         4.85532        -4.02362
| 90>    H       -7.83866         6.67342         0.53396
| 91>    H       -9.18401         7.76084         0.77495
| 92>    H       -7.05037         8.05452        -1.38141
| 93>    H       -7.30002         9.06979         0.03477
| 94>    H       -8.49633         9.05461        -1.26531
| 95>    H      -10.85855         6.87328         1.24601
| 96>    H      -12.39009         6.47939         0.50751
| 97>    H      -10.87898         9.12901         0.22947
| 98>    H      -12.41278         8.85924         1.06070
| 99>    H      -12.31456         8.73843        -0.69996
|100>    H      -14.33646         5.07157        -3.58490
|101>    H      -13.90743         7.25192        -0.65554
|102>    H      -15.29263         4.62071        -1.33655
|103>    H      -17.71246         7.76708         2.65031
|104>    H      -19.83734         6.32530         2.49933
|105>    H      -19.15008         4.73400         2.81157
|106>    H      -19.93532         5.05714         1.26310
|107>    H      -17.52041         4.11573        -1.35919
|108>    H      -18.47337         3.02213         1.32488
|109>    H      -19.01483         1.03812         0.09004
|110>    H      -19.09970         2.86231        -2.36908
|111>    H      -19.63164        -0.14169        -1.98217
|112>    H      -20.50189        -1.27613        -4.16005
|113>    H      -21.32476        -0.67112        -6.52293
|114>    H      -21.94521         0.41726        -8.53335
|115>    H      -22.65573         2.12801       -10.31860
|116>    H      -22.80983         4.62891       -10.72961
|117>    H      -23.12832        10.13508       -10.97128
|118>    H      -21.36990         6.39192        -7.41880
|119>    H      -22.58276        12.34354        -9.48850
|120>    H      -21.33788        11.62792        -6.77954
|121>    H      -21.70884        13.31334        -7.40848
|122> *
|123>
|124>                          ****END OF INPUT****

CARTESIAN COORDINATES (ANGSTROEM)
---------------------------------
  C     -5.036830    5.490230    0.747250
  C     -3.955620    6.316540    0.579840
  C     -2.920490    6.466770    1.525240
  N     -2.047670    6.624860    2.254290
  C     -3.742690    7.147280   -0.539690
  N     -3.514130    7.863600   -1.407870
  C     -5.332310    4.702800    1.936450
  C     -6.599640    4.089490    1.778260
  C     -7.165160    3.296300    2.746360
  C     -6.447590    3.099660    3.930680
  C     -5.178270    3.708810    4.077100
  C     -4.605070    4.508880    3.097430
  S     -4.460820    3.328530    5.613950
  C     -5.858380    2.374020    6.033920
  C     -6.813250    2.338650    5.074470
  Br    -5.924980    1.514360    7.699550
  C     -7.154080    4.432100    0.452280
  O     -8.178400    4.005670   -0.034000
  C     -6.139430    5.317310   -0.181650
  C     -6.205700    5.752690   -1.467060
  C     -7.352400    5.624550   -2.324710
  C     -7.160740    5.117230   -3.584610
  S     -8.600780    4.747700   -4.422080
  C     -9.537560    5.373400   -3.095160
  C     -8.750450    5.857120   -2.041570
  C     -9.384590    6.514190   -0.958430
  C     -8.553210    7.312040    0.013060
  C     -7.801910    8.439920   -0.696800
  C    -10.772650    6.501110   -0.862320
  C    -11.469360    7.043070    0.358510
  C    -11.789400    8.534800    0.230350
  C    -11.562430    5.963970   -1.907400
  C    -12.997990    5.848660   -2.051080
  C    -13.341380    5.249310   -3.226220
  S    -12.015690    4.814070   -4.229820
  C    -10.918560    5.423350   -3.032840
  C    -14.029100    6.291630   -1.132390
  C    -15.145150    5.587140   -0.874510
  C    -16.145970    5.995190    0.057450
  S    -15.931980    7.415430    1.039400
  C    -17.389640    7.085360    1.887900
  C    -18.010500    5.950840    1.473980
  C    -19.311740    5.489600    2.042760
  C    -17.304580    5.310900    0.405630
  C    -17.748690    4.138670   -0.301790
  C    -18.373450    3.073260    0.249600
  C    -18.850700    1.946000   -0.477270
  C    -19.166430    1.941910   -1.803240
  C    -19.625650    0.810530   -2.497140
  C    -20.080490    0.827990   -3.791670
  C    -20.520440   -0.277280   -4.559650
  C    -20.953880    0.043230   -5.809910
  C    -20.899840    1.425280   -6.100180
  S    -20.236780    2.303050   -4.738590
  C    -21.328400    2.065540   -7.245680
  C    -21.857320    1.482780   -8.418980
  C    -22.231330    2.386680   -9.364590
  C    -22.034460    3.742680   -8.995710
  S    -21.314930    3.813080   -7.396100
  C    -22.376460    4.827150   -9.758630
  C    -22.260440    6.190760   -9.429240
  O    -22.716710    7.087580  -10.371860
  C    -22.533260    8.304790   -9.841250
  C    -22.716500    9.666980  -10.101950
  C    -22.243100   10.311510   -8.969240
  O    -21.781260    9.422970   -8.034070
  C    -21.959690    8.204580   -8.566490
  C    -21.779770    6.847500   -8.294340
  C    -22.195420   11.719300   -8.695800
  C    -21.722070   12.250230   -7.569020
  H     -8.133400    2.845370    2.595170
  H     -3.633840    4.947430    3.254230
  H     -7.737690    1.798410    5.167030
  H     -5.308550    6.133480   -1.939360
  H     -6.216590    4.855320   -4.023620
  H     -7.838660    6.673420    0.533960
  H     -9.184010    7.760840    0.774950
  H     -7.050370    8.054520   -1.381410
  H     -7.300020    9.069790    0.034770
  H     -8.496330    9.054610   -1.265310
  H    -10.858550    6.873280    1.246010
  H    -12.390090    6.479390    0.507510
  H    -10.878980    9.129010    0.229470
  H    -12.412780    8.859240    1.060700
  H    -12.314560    8.738430   -0.699960
  H    -14.336460    5.071570   -3.584900
  H    -13.907430    7.251920   -0.655540
  H    -15.292630    4.620710   -1.336550
  H    -17.712460    7.767080    2.650310
  H    -19.837340    6.325300    2.499330
  H    -19.150080    4.734000    2.811570
  H    -19.935320    5.057140    1.263100
  H    -17.520410    4.115730   -1.359190
  H    -18.473370    3.022130    1.324880
  H    -19.014830    1.038120    0.090040
  H    -19.099700    2.862310   -2.369080
  H    -19.631640   -0.141690   -1.982170
  H    -20.501890   -1.276130   -4.160050
  H    -21.324760   -0.671120   -6.522930
  H    -21.945210    0.417260   -8.533350
  H    -22.655730    2.128010  -10.318600
  H    -22.809830    4.628910  -10.729610
  H    -23.128320   10.135080  -10.971280
  H    -21.369900    6.391920   -7.418800
  H    -22.582760   12.343540   -9.488500
  H    -21.337880   11.627920   -6.779540
  H    -21.708840   13.313340   -7.408480

 Total Charge           Charge          ....    0
 Multiplicity           Mult            ....    1
 Number of Electrons    NEL             ....  554
 Basis Dimension        Dim             .... 1207

ORBITAL ENERGIES
----------------

  NO   OCC          E(Eh)            E(eV)
   0   2.0000    -482.886124    -13139.9994
   1   2.0000     -88.975982     -2421.1595
   2   2.0000     -88.960191     -2420.7299
   3   2.0000     -88.947069     -2420.3728
   4   2.0000     -88.943125     -2420.2655
   5   2.0000     -88.941739     -2420.2278
   6   2.0000     -88.938794     -2420.1476
   7   2.0000     -62.563860     -1702.4492
   8   2.0000     -56.397813     -1534.6625
   9   2.0000     -56.395091     -1534.5884
  10   2.0000     -56.395060     -1534.5876
  11   2.0000     -19.285084      -524.7738
  12   2.0000     -19.283991      -524.7441
  13   2.0000     -19.213839      -522.8351
  14   2.0000     -14.416033      -392.2802
  15   2.0000     -14.415661      -392.2701
  16   2.0000     -10.364892      -282.0431
  17   2.0000     -10.359565      -281.8981
  18   2.0000     -10.342731      -281.4400
  19   2.0000     -10.341687      -281.4116
  20   2.0000     -10.329438      -281.0783
  21   2.0000     -10.327479      -281.0250
  22   2.0000     -10.326078      -280.9869
  23   2.0000     -10.318683      -280.7856
  24   2.0000     -10.318397      -280.7779
  25   2.0000     -10.317470      -280.7526
  26   2.0000     -10.316233      -280.7190
  27   2.0000     -10.315759      -280.7061
  28   2.0000     -10.310390      -280.5600
  29   2.0000     -10.308488      -280.5082
  30   2.0000     -10.308315      -280.5035
  31   2.0000     -10.306199      -280.4459
  32   2.0000     -10.305681      -280.4318
  33   2.0000     -10.305015      -280.4137
  34   2.0000     -10.302995      -280.3587
  35   2.0000     -10.301225      -280.3106
  36   2.0000     -10.300746      -280.2976
  37   2.0000     -10.297577      -280.2113
  38   2.0000     -10.297132      -280.1992
  39   2.0000     -10.296510      -280.1823
  40   2.0000     -10.295219      -280.1472
  41   2.0000     -10.292474      -280.0724
  42   2.0000     -10.292117      -280.0627
  43   2.0000     -10.289393      -279.9886
  44   2.0000     -10.288241      -279.9573
  45   2.0000     -10.283406      -279.8257
  46   2.0000     -10.281040      -279.7613
  47   2.0000     -10.280163      -279.7375
  48   2.0000     -10.279880      -279.7298
  49   2.0000     -10.279133      -279.7094
  50   2.0000     -10.278913      -279.7034
  51   2.0000     -10.278852      -279.7018
  52   2.0000     -10.277476      -279.6643
  53   2.0000     -10.276174      -279.6289
  54   2.0000     -10.275589      -279.6130
  55   2.0000     -10.275394      -279.6077
  56   2.0000     -10.274771      -279.5907
  57   2.0000     -10.273245      -279.5492
  58   2.0000     -10.273197      -279.5479
  59   2.0000     -10.271986      -279.5150
  60   2.0000     -10.271649      -279.5058
  61   2.0000     -10.271434      -279.4999
  62   2.0000     -10.269749      -279.4541
  63   2.0000     -10.269724      -279.4534
  64   2.0000     -10.269708      -279.4529
  65   2.0000     -10.269342      -279.4430
  66   2.0000     -10.269134      -279.4374
  67   2.0000     -10.267752      -279.3997
  68   2.0000     -10.260818      -279.2111
  69   2.0000     -10.260565      -279.2042
  70   2.0000     -10.259873      -279.1853
  71   2.0000     -10.259647      -279.1792
  72   2.0000     -10.254283      -279.0332
  73   2.0000     -10.251449      -278.9561
  74   2.0000      -8.793306      -239.2780
  75   2.0000      -8.071970      -219.6495
  76   2.0000      -8.056435      -219.2267
  77   2.0000      -8.043466      -218.8738
  78   2.0000      -8.038867      -218.7487
  79   2.0000      -8.037646      -218.7155
  80   2.0000      -8.035087      -218.6458
  81   2.0000      -6.629633      -180.4015
  82   2.0000      -6.615029      -180.0041
  83   2.0000      -6.614825      -179.9985
  84   2.0000      -6.041686      -164.4026
  85   2.0000      -6.037377      -164.2854
  86   2.0000      -6.033174      -164.1710
  87   2.0000      -6.025819      -163.9709
  88   2.0000      -6.021589      -163.8558
  89   2.0000      -6.018283      -163.7658
  90   2.0000      -6.012951      -163.6207
  91   2.0000      -6.008758      -163.5066
  92   2.0000      -6.008083      -163.4882
  93   2.0000      -6.007405      -163.4698
  94   2.0000      -6.005088      -163.4068
  95   2.0000      -6.004838      -163.4000
  96   2.0000      -6.003993      -163.3769
  97   2.0000      -6.003378      -163.3602
  98   2.0000      -6.001153      -163.2997
  99   2.0000      -6.000870      -163.2920
 100   2.0000      -5.998579      -163.2296
 101   2.0000      -5.995914      -163.1571
 102   2.0000      -2.745448       -74.7075
 103   2.0000      -2.741435       -74.5982
 104   2.0000      -2.741262       -74.5935
 105   2.0000      -2.729653       -74.2776
 106   2.0000      -2.729640       -74.2773
 107   2.0000      -1.207662       -32.8622
 108   2.0000      -1.189452       -32.3666
 109   2.0000      -1.129056       -30.7232
 110   2.0000      -1.023189       -27.8424
 111   2.0000      -1.013773       -27.5862
 112   2.0000      -1.002947       -27.2916
 113   2.0000      -0.994361       -27.0579
 114   2.0000      -0.989628       -26.9292
 115   2.0000      -0.989491       -26.9254
 116   2.0000      -0.976054       -26.5598
 117   2.0000      -0.971809       -26.4443
 118   2.0000      -0.967989       -26.3403
 119   2.0000      -0.942958       -25.6592
 120   2.0000      -0.923109       -25.1191
 121   2.0000      -0.911413       -24.8008
 122   2.0000      -0.908783       -24.7292
 123   2.0000      -0.906855       -24.6768
 124   2.0000      -0.904789       -24.6206
 125   2.0000      -0.894821       -24.3493
 126   2.0000      -0.893975       -24.3263
 127   2.0000      -0.890201       -24.2236
 128   2.0000      -0.886295       -24.1173
 129   2.0000      -0.877631       -23.8816
 130   2.0000      -0.871669       -23.7193
 131   2.0000      -0.864380       -23.5210
 132   2.0000      -0.858388       -23.3579
 133   2.0000      -0.852313       -23.1926
 134   2.0000      -0.845177       -22.9984
 135   2.0000      -0.841641       -22.9022
 136   2.0000      -0.836948       -22.7745
 137   2.0000      -0.829900       -22.5827
 138   2.0000      -0.822730       -22.3876
 139   2.0000      -0.818223       -22.2650
 140   2.0000      -0.815938       -22.2028
 141   2.0000      -0.808832       -22.0094
 142   2.0000      -0.793422       -21.5901
 143   2.0000      -0.787338       -21.4246
 144   2.0000      -0.780531       -21.2393
 145   2.0000      -0.763645       -20.7798
 146   2.0000      -0.760331       -20.6896
 147   2.0000      -0.754598       -20.5336
 148   2.0000      -0.742114       -20.1939
 149   2.0000      -0.736033       -20.0285
 150   2.0000      -0.716696       -19.5023
 151   2.0000      -0.712955       -19.4005
 152   2.0000      -0.707785       -19.2598
 153   2.0000      -0.700906       -19.0726
 154   2.0000      -0.694742       -18.9049
 155   2.0000      -0.693031       -18.8583
 156   2.0000      -0.690587       -18.7918
 157   2.0000      -0.687092       -18.6967
 158   2.0000      -0.683678       -18.6038
 159   2.0000      -0.678195       -18.4546
 160   2.0000      -0.673728       -18.3331
 161   2.0000      -0.668563       -18.1925
 162   2.0000      -0.657749       -17.8982
 163   2.0000      -0.647060       -17.6074
 164   2.0000      -0.637820       -17.3560
 165   2.0000      -0.635139       -17.2830
 166   2.0000      -0.630651       -17.1609
 167   2.0000      -0.623842       -16.9756
 168   2.0000      -0.622098       -16.9282
 169   2.0000      -0.618208       -16.8223
 170   2.0000      -0.612660       -16.6713
 171   2.0000      -0.605682       -16.4814
 172   2.0000      -0.605292       -16.4708
 173   2.0000      -0.601256       -16.3610
 174   2.0000      -0.598608       -16.2889
 175   2.0000      -0.595398       -16.2016
 176   2.0000      -0.591242       -16.0885
 177   2.0000      -0.590774       -16.0758
 178   2.0000      -0.584787       -15.9129
 179   2.0000      -0.575602       -15.6629
 180   2.0000      -0.567290       -15.4367
 181   2.0000      -0.566654       -15.4194
 182   2.0000      -0.564708       -15.3665
 183   2.0000      -0.557577       -15.1724
 184   2.0000      -0.550333       -14.9753
 185   2.0000      -0.548127       -14.9153
 186   2.0000      -0.543910       -14.8006
 187   2.0000      -0.541175       -14.7261
 188   2.0000      -0.538144       -14.6436
 189   2.0000      -0.535322       -14.5668
 190   2.0000      -0.532160       -14.4808
 191   2.0000      -0.527463       -14.3530
 192   2.0000      -0.525976       -14.3125
 193   2.0000      -0.522925       -14.2295
 194   2.0000      -0.520860       -14.1733
 195   2.0000      -0.516315       -14.0496
 196   2.0000      -0.511853       -13.9282
 197   2.0000      -0.511039       -13.9061
 198   2.0000      -0.509290       -13.8585
 199   2.0000      -0.508071       -13.8253
 200   2.0000      -0.503284       -13.6951
 201   2.0000      -0.502980       -13.6868
 202   2.0000      -0.499908       -13.6032
 203   2.0000      -0.499123       -13.5818
 204   2.0000      -0.496038       -13.4979
 205   2.0000      -0.494236       -13.4488
 206   2.0000      -0.492729       -13.4078
 207   2.0000      -0.490978       -13.3602
 208   2.0000      -0.490816       -13.3558
 209   2.0000      -0.489650       -13.3241
 210   2.0000      -0.487639       -13.2693
 211   2.0000      -0.484513       -13.1843
 212   2.0000      -0.483811       -13.1652
 213   2.0000      -0.482083       -13.1182
 214   2.0000      -0.478330       -13.0160
 215   2.0000      -0.476806       -12.9746
 216   2.0000      -0.470992       -12.8163
 217   2.0000      -0.469712       -12.7815
 218   2.0000      -0.467351       -12.7173
 219   2.0000      -0.461136       -12.5481
 220   2.0000      -0.459820       -12.5123
 221   2.0000      -0.456627       -12.4255
 222   2.0000      -0.455131       -12.3847
 223   2.0000      -0.454236       -12.3604
 224   2.0000      -0.452062       -12.3012
 225   2.0000      -0.450274       -12.2526
 226   2.0000      -0.448884       -12.2147
 227   2.0000      -0.447221       -12.1695
 228   2.0000      -0.445986       -12.1359
 229   2.0000      -0.443588       -12.0706
 230   2.0000      -0.441858       -12.0236
 231   2.0000      -0.439458       -11.9583
 232   2.0000      -0.437833       -11.9140
 233   2.0000      -0.434617       -11.8265
 234   2.0000      -0.434161       -11.8141
 235   2.0000      -0.432570       -11.7708
 236   2.0000      -0.427965       -11.6455
 237   2.0000      -0.427835       -11.6420
 238   2.0000      -0.426199       -11.5975
 239   2.0000      -0.423718       -11.5300
 240   2.0000      -0.422131       -11.4868
 241   2.0000      -0.419776       -11.4227
 242   2.0000      -0.416905       -11.3446
 243   2.0000      -0.415223       -11.2988
 244   2.0000      -0.413970       -11.2647
 245   2.0000      -0.412367       -11.2211
 246   2.0000      -0.411134       -11.1875
 247   2.0000      -0.408560       -11.1175
 248   2.0000      -0.405650       -11.0383
 249   2.0000      -0.399101       -10.8601
 250   2.0000      -0.395109       -10.7515
 251   2.0000      -0.391826       -10.6621
 252   2.0000      -0.389119       -10.5885
 253   2.0000      -0.386805       -10.5255
 254   2.0000      -0.384310       -10.4576
 255   2.0000      -0.378747       -10.3062
 256   2.0000      -0.375920       -10.2293
 257   2.0000      -0.375122       -10.2076
 258   2.0000      -0.367317        -9.9952
 259   2.0000      -0.360548        -9.8110
 260   2.0000      -0.352041        -9.5795
 261   2.0000      -0.338652        -9.2152
 262   2.0000      -0.337580        -9.1860
 263   2.0000      -0.334165        -9.0931
 264   2.0000      -0.329728        -8.9724
 265   2.0000      -0.327469        -8.9109
 266   2.0000      -0.320334        -8.7167
 267   2.0000      -0.316210        -8.6045
 268   2.0000      -0.307551        -8.3689
 269   2.0000      -0.303541        -8.2598
 270   2.0000      -0.293374        -7.9831
 271   2.0000      -0.285285        -7.7630
 272   2.0000      -0.277199        -7.5430
 273   2.0000      -0.268580        -7.3084
 274   2.0000      -0.252693        -6.8761
 275   2.0000      -0.239553        -6.5186
 276   2.0000      -0.198121        -5.3911
 277   0.0000      -0.086271        -2.3475
 278   0.0000      -0.076285        -2.0758
 279   0.0000      -0.055587        -1.5126
 280   0.0000      -0.031338        -0.8528
 281   0.0000      -0.011815        -0.3215

MULLIKEN ATOMIC CHARGES
-----------------------
   0 C :    0.323694
   1 C :   -0.351402
   2 C :   -0.183497
   3 N :    0.152101
   4 C :   -0.197697
   5 N :    0.161110
   6 C :    0.015917
   7 C :   -0.017614
   8 C :   -0.070392
   9 C :    0.119215
  10 C :   -0.090677
  11 C :   -0.022842
  12 S :    0.186759
  13 C :   -0.122498
  14 C :    0.038416
  15 Br:    0.024216
  16 C :    0.131529
  17 O :   -0.125845
  18 C :   -0.097460
  19 C :   -0.085592
  20 C :    0.039640
  21 C :   -0.082127
  22 S :    0.153176
  23 C :   -0.160311
  24 C :    0.177352
  25 C :   -0.108000
  26 C :    0.064123
  27 C :    0.012233
  28 C :   -0.125006
  29 C :    0.003200
  30 C :    0.037907
  31 C :    0.116739
  32 C :    0.076931
  33 C :   -0.121152
  34 S :    0.122228
  35 C :   -0.139096
  36 C :   -0.045016
  37 C :    0.007633
  38 C :   -0.127683
  39 S :    0.085890
  40 C :   -0.117924
  41 C :   -0.078682
  42 C :    0.108218
  43 C :    0.113074
  44 C :   -0.053653
  45 C :    0.012085
  46 C :    0.002211
  47 C :    0.009185
  48 C :   -0.015904
  49 C :   -0.018936
  50 C :    0.033618
  51 C :    0.026881
  52 C :   -0.047725
  53 S :    0.067482
  54 C :   -0.041195
  55 C :    0.023523
  56 C :    0.038298
  57 C :   -0.032085
  58 S :    0.054997
  59 C :   -0.015151
  60 C :    0.155230
  61 O :   -0.207416
  62 C :    0.193381
  63 C :   -0.140903
  64 C :    0.154242
  65 O :   -0.202394
  66 C :    0.188809
  67 C :   -0.155028
  68 C :   -0.021807
  69 C :   -0.003273
  70 H :   -0.009882
  71 H :   -0.007201
  72 H :   -0.002569
  73 H :    0.037100
  74 H :    0.029058
  75 H :    0.005239
  76 H :   -0.009105
  77 H :    0.021352
  78 H :    0.015859
  79 H :    0.018142
  80 H :    0.008919
  81 H :    0.014671
  82 H :    0.007501
  83 H :    0.016629
  84 H :    0.018843
  85 H :    0.019322
  86 H :    0.006372
  87 H :   -0.008389
  88 H :    0.009931
  89 H :    0.008626
  90 H :    0.030294
  91 H :    0.031085
  92 H :    0.001449
  93 H :   -0.013490
  94 H :   -0.015570
  95 H :    0.001506
  96 H :   -0.018804
  97 H :   -0.014570
  98 H :   -0.014875
  99 H :   -0.015424
 100 H :   -0.014832
 101 H :   -0.006869
 102 H :   -0.010477
 103 H :    0.009807
 104 H :   -0.006101
 105 H :    0.028922
 106 H :    0.022273
Sum of atomic charges:   -0.0000000

LOEWDIN ATOMIC CHARGES
----------------------
   0 C :    0.076342
   1 C :   -0.139782
   2 C :   -0.018391
   3 N :   -0.052865
   4 C :   -0.022441
   5 N :   -0.050603
   6 C :   -0.022544
   7 C :   -0.049821
   8 C :    0.021581
   9 C :   -0.031601
  10 C :   -0.144173
  11 C :   -0.009217
  12 S :    0.432080
  13 C :   -0.270885
  14 C :   -0.070319
  15 Br:    0.137192
  16 C :    0.074145
  17 O :   -0.124190
  18 C :   -0.099861
  19 C :    0.074735
  20 C :   -0.068791
  21 C :   -0.139850
  22 S :    0.439907
  23 C :   -0.175640
  24 C :   -0.028366
  25 C :   -0.014773
  26 C :   -0.029659
  27 C :   -0.047493
  28 C :   -0.010795
  29 C :   -0.032053
  30 C :   -0.053112
  31 C :   -0.039874
  32 C :   -0.058777
  33 C :   -0.167713
  34 S :    0.410010
  35 C :   -0.175960
  36 C :   -0.028258
  37 C :   -0.037086
  38 C :   -0.167825
  39 S :    0.421551
  40 C :   -0.193367
  41 C :   -0.055978
  42 C :   -0.046281
  43 C :   -0.063642
  44 C :   -0.016258
  45 C :   -0.032304
  46 C :   -0.028667
  47 C :   -0.029026
  48 C :   -0.056279
  49 C :   -0.145590
  50 C :   -0.035447
  51 C :   -0.033165
  52 C :   -0.178683
  53 S :    0.363039
  54 C :   -0.179234
  55 C :   -0.040731
  56 C :   -0.032150
  57 C :   -0.148521
  58 S :    0.375254
  59 C :   -0.070539
  60 C :    0.036496
  61 O :   -0.001878
  62 C :   -0.002128
  63 C :   -0.077388
  64 C :    0.042020
  65 O :    0.004276
  66 C :   -0.000155
  67 C :   -0.082167
  68 C :   -0.041537
  69 C :   -0.038651
  70 H :    0.041513
  71 H :    0.040873
  72 H :    0.039226
  73 H :    0.047304
  74 H :    0.028873
  75 H :    0.025506
  76 H :    0.025936
  77 H :    0.023301
  78 H :    0.026441
  79 H :    0.026267
  80 H :    0.027068
  81 H :    0.030724
  82 H :    0.023314
  83 H :    0.025376
  84 H :    0.023009
  85 H :    0.023104
  86 H :    0.021970
  87 H :    0.032010
  88 H :    0.019688
  89 H :    0.031378
  90 H :    0.033161
  91 H :    0.035334
  92 H :    0.026307
  93 H :    0.028256
  94 H :    0.026591
  95 H :    0.020555
  96 H :    0.031553
  97 H :    0.032709
  98 H :    0.031196
  99 H :    0.030915
 100 H :    0.032737
 101 H :    0.042461
 102 H :    0.034667
 103 H :    0.025348
 104 H :    0.036878
 105 H :    0.026680
 106 H :    0.025625

  Mayer bond orders larger than 0.100000
B(  0-C ,  1-C ) :   1.6468 B(  0-C ,  6-C ) :   1.0092 B(  0-C , 18-C ) :   1.0471
B(  1-C ,  2-C ) :   1.1357 B(  1-C ,  4-C ) :   1.1542 B(  2-C ,  3-N ) :   2.9724
B(  4-C ,  5-N ) :   2.9679 B(  6-C ,  7-C ) :   1.2762 B(  6-C , 11-C ) :   1.4011
B(  7-C ,  8-C ) :   1.4269 B(  7-C , 16-C ) :   0.9318 B(  8-C ,  9-C ) :   1.2420
B(  8-C , 70-H ) :   1.0176 B(  9-C , 10-C ) :   1.3057 B(  9-C , 14-C ) :   1.1629
B( 10-C , 11-C ) :   1.3344 B( 10-C , 12-S ) :   1.0852 B( 11-C , 71-H ) :   0.9800
B( 12-S , 13-C ) :   1.0862 B( 13-C , 14-C ) :   1.6176 B( 13-C , 15-Br) :   1.0185
B( 14-C , 72-H ) :   1.0001 B( 16-C , 17-O ) :   2.2418 B( 16-C , 18-C ) :   0.9314
B( 18-C , 19-C ) :   1.6480 B( 19-C , 20-C ) :   1.0725 B( 19-C , 73-H ) :   0.9419
B( 20-C , 21-C ) :   1.5379 B( 20-C , 24-C ) :   1.1280 B( 21-C , 22-S ) :   1.1640
B( 21-C , 74-H ) :   0.9691 B( 22-S , 23-C ) :   1.0591 B( 23-C , 24-C ) :   1.3926
B( 23-C , 35-C ) :   1.3823 B( 24-C , 25-C ) :   1.2518 B( 25-C , 26-C ) :   1.0864
B( 25-C , 28-C ) :   1.5109 B( 26-C , 27-C ) :   1.0998 B( 26-C , 75-H ) :   0.9074
B( 26-C , 76-H ) :   0.9072 B( 27-C , 77-H ) :   0.9610 B( 27-C , 78-H ) :   0.9653
B( 27-C , 79-H ) :   0.9602 B( 28-C , 29-C ) :   1.0538 B( 28-C , 31-C ) :   1.2689
B( 29-C , 30-C ) :   1.1018 B( 29-C , 80-H ) :   0.9202 B( 29-C , 81-H ) :   0.9213
B( 30-C , 82-H ) :   0.9601 B( 30-C , 83-H ) :   0.9648 B( 30-C , 84-H ) :   0.9578
B( 31-C , 32-C ) :   1.1499 B( 31-C , 35-C ) :   1.3666 B( 32-C , 33-C ) :   1.6185
B( 32-C , 36-C ) :   1.0172 B( 33-C , 34-S ) :   1.1070 B( 33-C , 85-H ) :   0.9639
B( 34-S , 35-C ) :   1.0797 B( 36-C , 37-C ) :   1.7560 B( 36-C , 86-H ) :   0.9485
B( 37-C , 38-C ) :   1.1346 B( 37-C , 87-H ) :   0.9697 B( 38-C , 39-S ) :   1.1326
B( 38-C , 43-C ) :   1.4416 B( 39-S , 40-C ) :   1.1299 B( 40-C , 41-C ) :   1.6075
B( 40-C , 88-H ) :   0.9686 B( 41-C , 42-C ) :   1.0881 B( 41-C , 43-C ) :   1.2303
B( 42-C , 89-H ) :   0.9494 B( 42-C , 90-H ) :   0.9449 B( 42-C , 91-H ) :   0.9456
B( 43-C , 44-C ) :   1.0927 B( 44-C , 45-C ) :   1.7166 B( 44-C , 92-H ) :   0.9520
B( 45-C , 46-C ) :   1.1199 B( 45-C , 93-H ) :   0.9704 B( 46-C , 47-C ) :   1.6583
B( 46-C , 94-H ) :   0.9738 B( 47-C , 48-C ) :   1.1649 B( 47-C , 95-H ) :   0.9625
B( 48-C , 49-C ) :   1.5623 B( 48-C , 96-H ) :   0.9820 B( 49-C , 50-C ) :   1.1440
B( 49-C , 53-S ) :   1.0281 B( 50-C , 51-C ) :   1.5865 B( 50-C , 97-H ) :   0.9993
B( 51-C , 52-C ) :   1.1916 B( 51-C , 98-H ) :   0.9930 B( 52-C , 53-S ) :   1.0437
B( 52-C , 54-C ) :   1.5099 B( 54-C , 55-C ) :   1.1886 B( 54-C , 58-S ) :   1.0376
B( 55-C , 56-C ) :   1.5894 B( 55-C , 99-H ) :   0.9932 B( 56-C , 57-C ) :   1.1482
B( 56-C ,100-H ) :   0.9981 B( 57-C , 58-S ) :   1.0352 B( 57-C , 59-C ) :   1.5682
B( 59-C , 60-C ) :   1.1742 B( 59-C ,101-H ) :   0.9623 B( 60-C , 61-O ) :   1.0797
B( 60-C , 67-C ) :   1.4189 B( 61-O , 62-C ) :   1.1491 B( 62-C , 63-C ) :   1.2064
B( 62-C , 66-C ) :   1.3543 B( 63-C , 64-C ) :   1.4450 B( 63-C ,102-H ) :   1.0306
B( 64-C , 65-O ) :   1.1092 B( 64-C , 68-C ) :   1.1383 B( 65-O , 66-C ) :   1.1392
B( 66-C , 67-C ) :   1.2388 B( 67-C ,103-H ) :   1.0076 B( 68-C , 69-C ) :   1.9118
B( 68-C ,104-H ) :   0.9549 B( 69-C ,105-H ) :   0.9567 B( 69-C ,106-H ) :   0.9465

-----------------------------------------------------------------------------
         ABSORPTION SPECTRUM VIA TRANSITION ELECTRIC DIPOLE MOMENTS
-----------------------------------------------------------------------------
State   Energy  Wavelength   fosc         T2         TX        TY        TZ
        (cm-1)    (nm)                  (au**2)     (au)      (au)      (au)
-----------------------------------------------------------------------------
   0   13486.5    741.5   1.116421656  27.25229  -2.33672   2.41326  -3.99603
   1   17687.3    565.4   0.000595042   0.01108  -0.07932  -0.04312   0.05408
   2   21256.4    470.4   0.051944489   0.80450  -0.61605  -0.31769  -0.56926
   3   21904.3    456.5   0.066194571   0.99487  -0.92300  -0.12821  -0.35568
   4   22903.4    436.6   0.427175551   6.14018   1.78583   0.71458   1.56216
   5   23547.2    424.7   0.895420986  12.51883  -1.27219  -3.29743   0.16537
   6   23862.8    419.1   0.135885698   1.87468   0.39959   1.30770  -0.07017
   7   25163.2    397.4   0.159435982   2.08591   0.13345   1.01977   1.01399
   8   26739.6    374.0   0.051293945   0.63152  -0.71827  -0.12430  -0.31648
   9   27377.9    365.3   0.013814057   0.16611  -0.18135   0.36165   0.04932
  10   27797.0    359.8   0.021932660   0.25976  -0.48666   0.11362  -0.10006
  11   27850.6    359.1   0.049729467   0.58784   0.68890   0.33303   0.04837
  12   28473.5    351.2   0.587078412   6.78782  -0.05874   2.16097   1.45416
  13   28749.4    347.8   0.523798994   5.99808   0.00590   0.78511  -2.31984
  14   29820.0    335.3   0.137956471   1.52303  -0.14409  -1.20430  -0.22790
  15   29942.5    334.0   0.071554298   0.78672  -0.79900  -0.38466  -0.01897
  16   30440.6    328.5   0.017970054   0.19434   0.35681   0.09503   0.24083
  17   30666.0    326.1   0.057858843   0.62114  -0.38433  -0.50087   0.47176
  18   31684.1    315.6   0.395313331   4.10748  -1.43735   0.32388   1.39162
  19   32410.5    308.5   0.017108376   0.17378  -0.33605   0.01360   0.24630
  20   32637.8    306.4   0.036283271   0.36598   0.54483   0.25661  -0.05744
  21   32799.8    304.9   0.006867596   0.06893  -0.22118  -0.03723   0.13646
  22   32944.3    303.5   0.006905857   0.06901  -0.02578   0.20651   0.16032
  23   33153.4    301.6   0.030120488   0.29909  -0.11254  -0.23359  -0.48152
  24   33243.5    300.8   0.032218094   0.31906   0.52350   0.09416  -0.19010
  25   33598.4    297.6   0.008168087   0.08003   0.07127   0.04416   0.27019
  26   34106.5    293.2   0.469766933   4.53442  -1.19568  -1.33504   1.14997
  27   34324.0    291.3   0.256941707   2.46440   0.57707  -0.39412   1.40572
  28   34557.1    289.4   0.050720455   0.48319  -0.50467  -0.15550   0.45201
  29   35063.3    285.2   0.000201510   0.00189  -0.01869   0.00554   0.03888
  30   35372.6    282.7   0.032995873   0.30709  -0.10996  -0.37354  -0.39430
  31   35747.4    279.7   0.050835175   0.46816  -0.27901  -0.18064  -0.59807
  32   36206.8    276.2   0.014709643   0.13375  -0.10640   0.21532  -0.27580
  33   36430.2    274.5   0.078574822   0.71006  -0.17064   0.45203   0.69037
  34   36994.9    270.3   0.079553386   0.70793  -0.65540  -0.03583  -0.52640
  35   37176.9    269.0   0.056370538   0.49918  -0.05506   0.43896  -0.55087
  36   37642.3    265.7   0.092198120   0.80635  -0.47354  -0.34206   0.68198
  37   38601.8    259.1   0.139674544   1.19120  -1.07775   0.07403   0.15547
  38   38784.6    257.8   0.015368127   0.13045  -0.28035  -0.01901   0.22692
  39   39376.1    254.0   0.052156496   0.43607  -0.58109   0.00329  -0.31367
  40   39624.5    252.4   0.292971506   2.43409  -1.18160  -0.73953  -0.70072
  41   40055.3    249.7   0.115807611   0.95182   0.12486  -0.95991   0.12162
  42   40214.2    248.7   0.108572957   0.88883   0.65303  -0.47974   0.48190

FINAL SINGLE POINT ENERGY     -7526.563276930954

DIPOLE MOMENT
-------------
                                X             Y             Z
Electronic contribution:    135.24136     -61.50855     102.76117
Nuclear contribution   :   -137.63203      59.73656    -102.35685
                        -----------------------------------------
Total Dipole Moment    :     -2.39067      -1.77199       0.40432
                        -----------------------------------------
Magnitude (a.u.)       :      3.00312
Magnitude (Debye)      :      7.63333

Rotational constants in cm-1:     0.001095     0.000229     0.000213
Rotational constants in MHz :    32.828962     6.862833     6.374665

                             ****ORCA TERMINATED NORMALLY****
TOTAL RUN TIME: 0 days 0 hours 10 minutes 44 seconds 893 msec
