                         Program Version 4.2.0 -  RELEASE  -
|  1> # ORCA input file
|  2> # SCF done       -196.522515604433          0.000889566358
|  3> ! CAM-B3LYP def2-SVP def2/J RIJCOSX Grid4 TightSCF
|  4> %maxcore 5000
|  5> %tddft
|  6>     Mode sTDDFT
|  7>     Ethresh 5.0
|  8>     maxcore 5000
|  9> end
| 10>
| 11> %pal
| 12>   nprocs 6
| 13>   end
| 14> * xyz 0 1
| 15>    C       -5.09285         4.46970        -8.01059
| 16>    C       -4.88433         3.22101        -8.54675
| 17>    C       -3.98287         2.95113        -9.59543
| 18>    N       -3.26807         2.66412       -10.44785
| 19>    C       -5.53094         2.03414        -8.14821
| 20>    N       -6.00623         1.01996        -7.89195
| 21>    C       -4.41992         5.69065        -8.45157
| 22>    C       -4.90454         6.77595        -7.68405
| 23>    C       -4.46732         8.06504        -7.85994
| 24>    C       -3.50257         8.29785        -8.84589
| 25>    C       -3.02318         7.20857        -9.60877
| 26>    C       -3.46519         5.90298        -9.42828
| 27>    S       -1.83856         7.71850       -10.77560
| 28>    C       -2.00541         9.36535       -10.22885
| 29>    C       -2.89789         9.52816        -9.22445
| 30>   Br       -0.99060        10.72072       -11.03807
| 31>    C       -5.91015         6.28241        -6.71844
| 32>    O       -6.51925         6.96624        -5.91939
| 33>    C       -5.99924         4.82516        -6.94386
| 34>    C       -6.81182         3.97102        -6.23197
| 35>    C       -7.67963         4.36978        -5.20803
| 36>    C       -8.45859         3.48111        -4.51403
| 37>    C       -9.32997         3.87118        -3.48810
| 38>    O       -9.45960         5.17791        -3.13477
| 39>    C      -10.35451         5.26802        -2.12222
| 40>    C      -10.81819         3.98368        -1.80822
| 41>    C      -10.17092         3.09439        -2.67604
| 42>    O      -10.30971         1.75973        -2.73784
| 43>    O      -11.71808         3.59684        -0.86739
| 44>    C      -10.68777         6.51773        -1.56490
| 45>    C      -10.15685         7.69246        -2.02785
| 46>    C      -10.43167         8.98874        -1.55445
| 47>    C      -11.23199         9.29421        -0.48521
| 48>    C      -11.52877        10.59194        -0.02221
| 49>    C      -12.35157        10.75249         1.12903
| 50>    C      -12.70544        12.03940         1.65903
| 51>    N      -13.46325        12.13011         2.74984
| 52>    C      -13.89425        11.02693         3.33566
| 53>    C      -13.56148         9.75078         2.80086
| 54>    N      -12.80780         9.64155         1.72894
| 55>    C      -14.04025         8.56639         3.41468
| 56>    N      -14.43795         7.61891         3.92177
| 57>    C      -14.69317        11.13374         4.49729
| 58>    N      -15.34185        11.18737         5.44115
| 59>    C      -12.27128        13.26585         1.04187
| 60>    C      -11.44618        13.09568        -0.10515
| 61>    C      -11.07811        11.79911        -0.62119
| 62>    N      -10.29981        11.90435        -1.69349
| 63>    S      -10.04497        13.46000        -2.03113
| 64>    N      -10.92044        14.07694        -0.82100
| 65>    C      -12.68405        14.46908         1.59876
| 66>    C      -12.48075        15.79285         1.22126
| 67>    C      -13.02608        16.87458         1.94041
| 68>    C      -12.75461        18.10963         1.40869
| 69>    C      -11.98129        18.03967         0.24499
| 70>    S      -11.59321        16.38459        -0.15530
| 71>    C      -11.52809        19.08258        -0.56791
| 72>    C      -11.72683        20.46379        -0.42550
| 73>    C      -11.14084        21.20660        -1.41705
| 74>    C      -10.45410        20.44665        -2.38510
| 75>    S      -10.58279        18.74365        -1.98655
| 76>    C       -9.77509        20.95584        -3.47589
| 77>    C       -9.07016        20.26358        -4.46654
| 78>    C       -8.37001        20.92349        -5.53338
| 79>    C       -7.76381        19.97118        -6.32969
| 80>    C       -6.95726        20.08546        -7.47975
| 81>    C       -6.48820        18.92763        -8.04734
| 82>    C       -5.66051        18.69329        -9.17946
| 83>    C       -5.47252        17.32203        -9.32714
| 84>    C       -6.18485        16.66392        -8.28894
| 85>    C       -6.81374        17.62137        -7.49086
| 86>    C       -7.61258        17.49916        -6.35673
| 87>    C       -8.08540        18.66580        -5.77121
| 88>    C       -8.88260        18.87416        -4.63704
| 89>    C       -4.67839        16.70665       -10.36348
| 90>    C       -4.47592        15.39942       -10.50687
| 91>    H       -4.85767         8.86911        -7.25594
| 92>    H       -3.06619         5.10872       -10.03637
| 93>    H       -3.12223        10.47488        -8.76793
| 94>    H       -6.78624         2.91470        -6.46649
| 95>    H       -7.73458         5.41758        -4.95433
| 96>    H       -8.42813         2.42295        -4.73307
| 97>    H      -10.94925         1.48465        -2.06694
| 98>    H      -12.03377         4.36211        -0.37459
| 99>    H      -11.39956         6.51389        -0.75185
|100>    H       -9.46332         7.61542        -2.85429
|101>    H       -9.96533         9.80738        -2.08237
|102>    H      -11.69222         8.50351         0.09036
|103>    H      -13.29314        14.34778         2.48784
|104>    H      -13.60914        16.71719         2.83077
|105>    H      -13.09683        19.03738         1.83118
|106>    H      -12.28785        20.88096         0.39102
|107>    H      -11.18663        22.28007        -1.47345
|108>    H       -9.78764        22.03590        -3.56612
|109>    H       -8.33111        21.98927        -5.66971
|110>    H       -6.71970        21.05699        -7.88963
|111>    H       -5.24674        19.45650        -9.81310
|112>    H       -6.23364        15.60145        -8.13902
|113>    H       -7.85235        16.52987        -5.94361
|114>    H       -9.27831        18.09573        -4.01414
|115>    H       -4.22207        17.39847       -11.06029
|116>    H       -4.90749        14.67505        -9.83758
|117>    H       -3.86569        15.00791       -11.30186
|118> *
|119>
|120>                          ****END OF INPUT****

CARTESIAN COORDINATES (ANGSTROEM)
---------------------------------
  C     -5.092850    4.469700   -8.010590
  C     -4.884330    3.221010   -8.546750
  C     -3.982870    2.951130   -9.595430
  N     -3.268070    2.664120  -10.447850
  C     -5.530940    2.034140   -8.148210
  N     -6.006230    1.019960   -7.891950
  C     -4.419920    5.690650   -8.451570
  C     -4.904540    6.775950   -7.684050
  C     -4.467320    8.065040   -7.859940
  C     -3.502570    8.297850   -8.845890
  C     -3.023180    7.208570   -9.608770
  C     -3.465190    5.902980   -9.428280
  S     -1.838560    7.718500  -10.775600
  C     -2.005410    9.365350  -10.228850
  C     -2.897890    9.528160   -9.224450
  Br    -0.990600   10.720720  -11.038070
  C     -5.910150    6.282410   -6.718440
  O     -6.519250    6.966240   -5.919390
  C     -5.999240    4.825160   -6.943860
  C     -6.811820    3.971020   -6.231970
  C     -7.679630    4.369780   -5.208030
  C     -8.458590    3.481110   -4.514030
  C     -9.329970    3.871180   -3.488100
  O     -9.459600    5.177910   -3.134770
  C    -10.354510    5.268020   -2.122220
  C    -10.818190    3.983680   -1.808220
  C    -10.170920    3.094390   -2.676040
  O    -10.309710    1.759730   -2.737840
  O    -11.718080    3.596840   -0.867390
  C    -10.687770    6.517730   -1.564900
  C    -10.156850    7.692460   -2.027850
  C    -10.431670    8.988740   -1.554450
  C    -11.231990    9.294210   -0.485210
  C    -11.528770   10.591940   -0.022210
  C    -12.351570   10.752490    1.129030
  C    -12.705440   12.039400    1.659030
  N    -13.463250   12.130110    2.749840
  C    -13.894250   11.026930    3.335660
  C    -13.561480    9.750780    2.800860
  N    -12.807800    9.641550    1.728940
  C    -14.040250    8.566390    3.414680
  N    -14.437950    7.618910    3.921770
  C    -14.693170   11.133740    4.497290
  N    -15.341850   11.187370    5.441150
  C    -12.271280   13.265850    1.041870
  C    -11.446180   13.095680   -0.105150
  C    -11.078110   11.799110   -0.621190
  N    -10.299810   11.904350   -1.693490
  S    -10.044970   13.460000   -2.031130
  N    -10.920440   14.076940   -0.821000
  C    -12.684050   14.469080    1.598760
  C    -12.480750   15.792850    1.221260
  C    -13.026080   16.874580    1.940410
  C    -12.754610   18.109630    1.408690
  C    -11.981290   18.039670    0.244990
  S    -11.593210   16.384590   -0.155300
  C    -11.528090   19.082580   -0.567910
  C    -11.726830   20.463790   -0.425500
  C    -11.140840   21.206600   -1.417050
  C    -10.454100   20.446650   -2.385100
  S    -10.582790   18.743650   -1.986550
  C     -9.775090   20.955840   -3.475890
  C     -9.070160   20.263580   -4.466540
  C     -8.370010   20.923490   -5.533380
  C     -7.763810   19.971180   -6.329690
  C     -6.957260   20.085460   -7.479750
  C     -6.488200   18.927630   -8.047340
  C     -5.660510   18.693290   -9.179460
  C     -5.472520   17.322030   -9.327140
  C     -6.184850   16.663920   -8.288940
  C     -6.813740   17.621370   -7.490860
  C     -7.612580   17.499160   -6.356730
  C     -8.085400   18.665800   -5.771210
  C     -8.882600   18.874160   -4.637040
  C     -4.678390   16.706650  -10.363480
  C     -4.475920   15.399420  -10.506870
  H     -4.857670    8.869110   -7.255940
  H     -3.066190    5.108720  -10.036370
  H     -3.122230   10.474880   -8.767930
  H     -6.786240    2.914700   -6.466490
  H     -7.734580    5.417580   -4.954330
  H     -8.428130    2.422950   -4.733070
  H    -10.949250    1.484650   -2.066940
  H    -12.033770    4.362110   -0.374590
  H    -11.399560    6.513890   -0.751850
  H     -9.463320    7.615420   -2.854290
  H     -9.965330    9.807380   -2.082370
  H    -11.692220    8.503510    0.090360
  H    -13.293140   14.347780    2.487840
  H    -13.609140   16.717190    2.830770
  H    -13.096830   19.037380    1.831180
  H    -12.287850   20.880960    0.391020
  H    -11.186630   22.280070   -1.473450
  H     -9.787640   22.035900   -3.566120
  H     -8.331110   21.989270   -5.669710
  H     -6.719700   21.056990   -7.889630
  H     -5.246740   19.456500   -9.813100
  H     -6.233640   15.601450   -8.139020
  H     -7.852350   16.529870   -5.943610
  H     -9.278310   18.095730   -4.014140
  H     -4.222070   17.398470  -11.060290
  H     -4.907490   14.675050   -9.837580
  H     -3.865690   15.007910  -11.301860

 Total Charge           Charge          ....    0
 Multiplicity           Mult            ....    1
 Number of Electrons    NEL             ....  568
 Basis Dimension        Dim             .... 1233

ORBITAL ENERGIES
----------------

  NO   OCC          E(Eh)            E(eV)
   0   2.0000    -482.879468    -13139.8184
   1   2.0000     -89.026485     -2422.5338
   2   2.0000     -88.973882     -2421.1024
   3   2.0000     -88.964749     -2420.8539
   4   2.0000     -88.963778     -2420.8275
   5   2.0000     -62.557145     -1702.2665
   6   2.0000     -56.391075     -1534.4792
   7   2.0000     -56.388400     -1534.4064
   8   2.0000     -56.388359     -1534.4053
   9   2.0000     -19.285659      -524.7895
  10   2.0000     -19.265974      -524.2538
  11   2.0000     -19.265526      -524.2416
  12   2.0000     -19.194973      -522.3218
  13   2.0000     -14.448529      -393.1645
  14   2.0000     -14.447252      -393.1297
  15   2.0000     -14.441969      -392.9859
  16   2.0000     -14.435641      -392.8138
  17   2.0000     -14.419015      -392.3613
  18   2.0000     -14.412293      -392.1784
  19   2.0000     -14.395618      -391.7247
  20   2.0000     -14.394795      -391.7023
  21   2.0000     -10.366075      -282.0752
  22   2.0000     -10.357915      -281.8532
  23   2.0000     -10.349146      -281.6146
  24   2.0000     -10.347269      -281.5635
  25   2.0000     -10.345478      -281.5148
  26   2.0000     -10.341383      -281.4033
  27   2.0000     -10.341179      -281.3978
  28   2.0000     -10.338269      -281.3186
  29   2.0000     -10.335471      -281.2425
  30   2.0000     -10.333988      -281.2021
  31   2.0000     -10.333301      -281.1834
  32   2.0000     -10.329631      -281.0836
  33   2.0000     -10.329003      -281.0665
  34   2.0000     -10.327426      -281.0236
  35   2.0000     -10.327136      -281.0157
  36   2.0000     -10.326908      -281.0095
  37   2.0000     -10.326604      -281.0012
  38   2.0000     -10.320011      -280.8218
  39   2.0000     -10.318935      -280.7925
  40   2.0000     -10.317703      -280.7590
  41   2.0000     -10.314082      -280.6604
  42   2.0000     -10.313368      -280.6410
  43   2.0000     -10.313102      -280.6338
  44   2.0000     -10.313101      -280.6337
  45   2.0000     -10.312159      -280.6081
  46   2.0000     -10.310361      -280.5592
  47   2.0000     -10.309528      -280.5365
  48   2.0000     -10.307785      -280.4891
  49   2.0000     -10.304308      -280.3945
  50   2.0000     -10.304209      -280.3918
  51   2.0000     -10.303348      -280.3684
  52   2.0000     -10.300422      -280.2887
  53   2.0000     -10.299623      -280.2670
  54   2.0000     -10.299198      -280.2554
  55   2.0000     -10.297521      -280.2098
  56   2.0000     -10.294314      -280.1225
  57   2.0000     -10.293437      -280.0987
  58   2.0000     -10.292543      -280.0743
  59   2.0000     -10.292460      -280.0721
  60   2.0000     -10.291910      -280.0571
  61   2.0000     -10.291520      -280.0465
  62   2.0000     -10.291278      -280.0399
  63   2.0000     -10.290881      -280.0291
  64   2.0000     -10.290750      -280.0255
  65   2.0000     -10.290633      -280.0224
  66   2.0000     -10.289929      -280.0032
  67   2.0000     -10.289882      -280.0019
  68   2.0000     -10.287763      -279.9443
  69   2.0000     -10.286849      -279.9194
  70   2.0000     -10.286209      -279.9020
  71   2.0000     -10.281941      -279.7858
  72   2.0000     -10.279462      -279.7184
  73   2.0000     -10.276217      -279.6301
  74   2.0000     -10.275056      -279.5985
  75   2.0000     -10.275023      -279.5976
  76   2.0000     -10.269702      -279.4528
  77   2.0000     -10.269217      -279.4396
  78   2.0000     -10.258898      -279.1588
  79   2.0000     -10.256144      -279.0839
  80   2.0000      -8.786542      -239.0940
  81   2.0000      -8.118243      -220.9086
  82   2.0000      -8.069752      -219.5891
  83   2.0000      -8.060751      -219.3442
  84   2.0000      -8.057766      -219.2630
  85   2.0000      -6.622744      -180.2140
  86   2.0000      -6.608317      -179.8215
  87   2.0000      -6.608151      -179.8169
  88   2.0000      -6.089718      -165.7096
  89   2.0000      -6.081976      -165.4990
  90   2.0000      -6.080124      -165.4486
  91   2.0000      -6.039320      -164.3383
  92   2.0000      -6.035176      -164.2255
  93   2.0000      -6.031145      -164.1158
  94   2.0000      -6.030440      -164.0966
  95   2.0000      -6.027426      -164.0146
  96   2.0000      -6.026194      -163.9811
  97   2.0000      -6.022944      -163.8926
  98   2.0000      -6.021950      -163.8656
  99   2.0000      -6.019371      -163.7954
 100   2.0000      -2.738635       -74.5220
 101   2.0000      -2.734552       -74.4110
 102   2.0000      -2.734488       -74.4092
 103   2.0000      -2.722992       -74.0964
 104   2.0000      -2.722979       -74.0960
 105   2.0000      -1.208991       -32.8983
 106   2.0000      -1.164492       -31.6875
 107   2.0000      -1.148096       -31.2413
 108   2.0000      -1.128881       -30.7184
 109   2.0000      -1.108903       -30.1748
 110   2.0000      -1.103482       -30.0273
 111   2.0000      -1.029797       -28.0222
 112   2.0000      -1.017790       -27.6955
 113   2.0000      -1.012355       -27.5476
 114   2.0000      -1.008241       -27.4356
 115   2.0000      -1.000705       -27.2306
 116   2.0000      -0.995563       -27.0906
 117   2.0000      -0.995385       -27.0858
 118   2.0000      -0.989673       -26.9304
 119   2.0000      -0.986693       -26.8493
 120   2.0000      -0.982233       -26.7279
 121   2.0000      -0.974576       -26.5196
 122   2.0000      -0.971350       -26.4318
 123   2.0000      -0.961726       -26.1699
 124   2.0000      -0.929444       -25.2915
 125   2.0000      -0.927290       -25.2328
 126   2.0000      -0.919956       -25.0333
 127   2.0000      -0.908426       -24.7195
 128   2.0000      -0.902107       -24.5476
 129   2.0000      -0.894223       -24.3331
 130   2.0000      -0.893898       -24.3242
 131   2.0000      -0.892461       -24.2851
 132   2.0000      -0.890694       -24.2370
 133   2.0000      -0.889643       -24.2084
 134   2.0000      -0.876837       -23.8599
 135   2.0000      -0.872380       -23.7387
 136   2.0000      -0.870066       -23.6757
 137   2.0000      -0.862987       -23.4831
 138   2.0000      -0.859844       -23.3975
 139   2.0000      -0.847868       -23.0717
 140   2.0000      -0.839691       -22.8492
 141   2.0000      -0.832265       -22.6471
 142   2.0000      -0.824878       -22.4461
 143   2.0000      -0.819121       -22.2894
 144   2.0000      -0.815516       -22.1913
 145   2.0000      -0.813092       -22.1254
 146   2.0000      -0.792792       -21.5730
 147   2.0000      -0.788502       -21.4562
 148   2.0000      -0.777522       -21.1574
 149   2.0000      -0.772288       -21.0150
 150   2.0000      -0.762294       -20.7431
 151   2.0000      -0.747693       -20.3458
 152   2.0000      -0.740476       -20.1494
 153   2.0000      -0.736094       -20.0301
 154   2.0000      -0.723350       -19.6834
 155   2.0000      -0.719342       -19.5743
 156   2.0000      -0.711950       -19.3732
 157   2.0000      -0.704803       -19.1787
 158   2.0000      -0.697627       -18.9834
 159   2.0000      -0.693645       -18.8750
 160   2.0000      -0.692039       -18.8313
 161   2.0000      -0.689541       -18.7634
 162   2.0000      -0.680028       -18.5045
 163   2.0000      -0.675931       -18.3930
 164   2.0000      -0.675045       -18.3689
 165   2.0000      -0.667367       -18.1600
 166   2.0000      -0.662827       -18.0365
 167   2.0000      -0.659961       -17.9584
 168   2.0000      -0.650857       -17.7107
 169   2.0000      -0.649598       -17.6764
 170   2.0000      -0.645171       -17.5560
 171   2.0000      -0.642043       -17.4709
 172   2.0000      -0.639332       -17.3971
 173   2.0000      -0.636083       -17.3087
 174   2.0000      -0.630839       -17.1660
 175   2.0000      -0.622608       -16.9420
 176   2.0000      -0.616755       -16.7828
 177   2.0000      -0.611348       -16.6356
 178   2.0000      -0.609464       -16.5844
 179   2.0000      -0.604014       -16.4361
 180   2.0000      -0.602342       -16.3906
 181   2.0000      -0.599829       -16.3222
 182   2.0000      -0.595187       -16.1959
 183   2.0000      -0.587504       -15.9868
 184   2.0000      -0.580947       -15.8084
 185   2.0000      -0.577683       -15.7195
 186   2.0000      -0.576122       -15.6771
 187   2.0000      -0.572262       -15.5720
 188   2.0000      -0.568872       -15.4798
 189   2.0000      -0.564479       -15.3603
 190   2.0000      -0.562284       -15.3005
 191   2.0000      -0.558178       -15.1888
 192   2.0000      -0.552376       -15.0309
 193   2.0000      -0.544418       -14.8144
 194   2.0000      -0.543228       -14.7820
 195   2.0000      -0.540143       -14.6980
 196   2.0000      -0.537534       -14.6270
 197   2.0000      -0.533421       -14.5151
 198   2.0000      -0.531971       -14.4757
 199   2.0000      -0.525256       -14.2929
 200   2.0000      -0.522725       -14.2241
 201   2.0000      -0.522264       -14.2115
 202   2.0000      -0.521837       -14.1999
 203   2.0000      -0.519231       -14.1290
 204   2.0000      -0.514978       -14.0133
 205   2.0000      -0.513641       -13.9769
 206   2.0000      -0.511546       -13.9199
 207   2.0000      -0.509090       -13.8530
 208   2.0000      -0.503822       -13.7097
 209   2.0000      -0.503174       -13.6921
 210   2.0000      -0.500183       -13.6107
 211   2.0000      -0.497118       -13.5273
 212   2.0000      -0.495086       -13.4720
 213   2.0000      -0.491542       -13.3755
 214   2.0000      -0.491323       -13.3696
 215   2.0000      -0.490076       -13.3356
 216   2.0000      -0.489552       -13.3214
 217   2.0000      -0.488708       -13.2984
 218   2.0000      -0.483214       -13.1489
 219   2.0000      -0.482720       -13.1355
 220   2.0000      -0.480420       -13.0729
 221   2.0000      -0.478145       -13.0110
 222   2.0000      -0.477144       -12.9837
 223   2.0000      -0.475665       -12.9435
 224   2.0000      -0.474396       -12.9090
 225   2.0000      -0.473083       -12.8732
 226   2.0000      -0.471449       -12.8288
 227   2.0000      -0.467947       -12.7335
 228   2.0000      -0.467005       -12.7078
 229   2.0000      -0.464719       -12.6457
 230   2.0000      -0.459423       -12.5015
 231   2.0000      -0.456455       -12.4208
 232   2.0000      -0.454667       -12.3721
 233   2.0000      -0.449118       -12.2211
 234   2.0000      -0.446642       -12.1538
 235   2.0000      -0.445647       -12.1267
 236   2.0000      -0.442773       -12.0485
 237   2.0000      -0.440955       -11.9990
 238   2.0000      -0.440686       -11.9917
 239   2.0000      -0.439720       -11.9654
 240   2.0000      -0.436948       -11.8900
 241   2.0000      -0.434829       -11.8323
 242   2.0000      -0.433452       -11.7948
 243   2.0000      -0.430522       -11.7151
 244   2.0000      -0.430333       -11.7099
 245   2.0000      -0.426719       -11.6116
 246   2.0000      -0.426299       -11.6002
 247   2.0000      -0.425575       -11.5805
 248   2.0000      -0.423359       -11.5202
 249   2.0000      -0.423153       -11.5146
 250   2.0000      -0.421279       -11.4636
 251   2.0000      -0.417459       -11.3596
 252   2.0000      -0.411760       -11.2046
 253   2.0000      -0.407871       -11.0987
 254   2.0000      -0.404765       -11.0142
 255   2.0000      -0.403357       -10.9759
 256   2.0000      -0.400381       -10.8949
 257   2.0000      -0.394246       -10.7280
 258   2.0000      -0.392881       -10.6908
 259   2.0000      -0.392599       -10.6831
 260   2.0000      -0.389210       -10.5910
 261   2.0000      -0.388408       -10.5691
 262   2.0000      -0.382261       -10.4019
 263   2.0000      -0.374700       -10.1961
 264   2.0000      -0.369179       -10.0459
 265   2.0000      -0.365669        -9.9504
 266   2.0000      -0.357201        -9.7199
 267   2.0000      -0.354439        -9.6448
 268   2.0000      -0.351355        -9.5608
 269   2.0000      -0.345116        -9.3911
 270   2.0000      -0.343534        -9.3480
 271   2.0000      -0.339224        -9.2308
 272   2.0000      -0.336682        -9.1616
 273   2.0000      -0.327218        -8.9041
 274   2.0000      -0.317343        -8.6353
 275   2.0000      -0.314838        -8.5672
 276   2.0000      -0.302474        -8.2307
 277   2.0000      -0.301644        -8.2082
 278   2.0000      -0.294417        -8.0115
 279   2.0000      -0.284996        -7.7551
 280   2.0000      -0.279477        -7.6049
 281   2.0000      -0.262352        -7.1390
 282   2.0000      -0.238118        -6.4795
 283   2.0000      -0.200868        -5.4659
 284   0.0000      -0.132106        -3.5948
 285   0.0000      -0.118116        -3.2141
 286   0.0000      -0.080434        -2.1887
 287   0.0000      -0.072898        -1.9837
 288   0.0000      -0.048111        -1.3092

MULLIKEN ATOMIC CHARGES
-----------------------
   0 C :    0.331358
   1 C :   -0.365921
   2 C :   -0.187975
   3 N :    0.132362
   4 C :   -0.193249
   5 N :    0.139314
   6 C :    0.012238
   7 C :   -0.008183
   8 C :   -0.079304
   9 C :    0.120214
  10 C :   -0.092202
  11 C :   -0.023458
  12 S :    0.178168
  13 C :   -0.122656
  14 C :    0.035318
  15 Br:    0.007148
  16 C :    0.137254
  17 O :   -0.164566
  18 C :   -0.084988
  19 C :   -0.026097
  20 C :   -0.014838
  21 C :   -0.001982
  22 C :    0.082957
  23 O :   -0.216013
  24 C :    0.133079
  25 C :    0.069169
  26 C :    0.110501
  27 O :   -0.158741
  28 O :   -0.196940
  29 C :   -0.071572
  30 C :    0.032009
  31 C :    0.012151
  32 C :   -0.067354
  33 C :    0.074374
  34 C :   -0.042936
  35 C :   -0.058583
  36 N :    0.048031
  37 C :   -0.148111
  38 C :   -0.130085
  39 N :    0.031320
  40 C :   -0.221179
  41 N :    0.232157
  42 C :   -0.223835
  43 N :    0.222247
  44 C :    0.118718
  45 C :    0.051374
  46 C :    0.020047
  47 N :   -0.295327
  48 S :    0.498848
  49 N :   -0.334883
  50 C :   -0.134124
  51 C :    0.016500
  52 C :    0.014973
  53 C :    0.040968
  54 C :   -0.038557
  55 S :    0.139322
  56 C :   -0.012470
  57 C :    0.014352
  58 C :    0.049295
  59 C :   -0.042158
  60 S :    0.078872
  61 C :    0.018543
  62 C :    0.037615
  63 C :   -0.025273
  64 C :    0.057677
  65 C :    0.011531
  66 C :    0.055865
  67 C :   -0.009548
  68 C :    0.056249
  69 C :   -0.002354
  70 C :    0.042242
  71 C :    0.020697
  72 C :    0.037936
  73 C :   -0.018315
  74 C :    0.010838
  75 C :   -0.018889
  76 H :   -0.021096
  77 H :   -0.010969
  78 H :   -0.013679
  79 H :    0.004688
  80 H :    0.028998
  81 H :    0.021218
  82 H :    0.199792
  83 H :    0.197497
  84 H :   -0.025661
  85 H :    0.014228
  86 H :    0.000345
  87 H :   -0.017726
  88 H :    0.005806
  89 H :   -0.002525
  90 H :   -0.012346
  91 H :   -0.006885
  92 H :   -0.001431
  93 H :   -0.009053
  94 H :   -0.015226
  95 H :   -0.017613
  96 H :   -0.016232
  97 H :   -0.011223
  98 H :   -0.015100
  99 H :   -0.005657
 100 H :   -0.013429
 101 H :    0.011301
 102 H :    0.030813
Sum of atomic charges:   -0.0000000

LOEWDIN ATOMIC CHARGES
----------------------
   0 C :    0.075032
   1 C :   -0.156657
   2 C :   -0.018297
   3 N :   -0.070714
   4 C :   -0.020696
   5 N :   -0.065533
   6 C :   -0.017119
   7 C :   -0.046908
   8 C :    0.014175
   9 C :   -0.037386
  10 C :   -0.146185
  11 C :   -0.013524
  12 S :    0.426200
  13 C :   -0.276433
  14 C :   -0.072953
  15 Br:    0.124596
  16 C :    0.081176
  17 O :   -0.157930
  18 C :   -0.117816
  19 C :    0.065100
  20 C :   -0.049967
  21 C :    0.025325
  22 C :   -0.010342
  23 O :    0.008940
  24 C :    0.025513
  25 C :   -0.031717
  26 C :    0.022013
  27 O :   -0.030562
  28 O :   -0.059880
  29 C :   -0.067257
  30 C :    0.007771
  31 C :   -0.044692
  32 C :    0.006244
  33 C :   -0.079336
  34 C :    0.005645
  35 C :   -0.011693
  36 N :   -0.003445
  37 C :   -0.055633
  38 C :   -0.027180
  39 N :   -0.018480
  40 C :   -0.033401
  41 N :   -0.018320
  42 C :   -0.039564
  43 N :   -0.027031
  44 C :   -0.031351
  45 C :   -0.039916
  46 C :   -0.029253
  47 N :   -0.285517
  48 S :    0.615639
  49 N :   -0.291091
  50 C :   -0.035467
  51 C :   -0.130810
  52 C :   -0.039436
  53 C :   -0.022175
  54 C :   -0.210938
  55 S :    0.461879
  56 C :   -0.141192
  57 C :   -0.052383
  58 C :   -0.004901
  59 C :   -0.172261
  60 S :    0.414795
  61 C :    0.001165
  62 C :   -0.079739
  63 C :    0.047948
  64 C :   -0.067645
  65 C :    0.083078
  66 C :   -0.060602
  67 C :    0.037427
  68 C :   -0.055641
  69 C :    0.066956
  70 C :   -0.064646
  71 C :    0.090757
  72 C :   -0.062421
  73 C :    0.022029
  74 C :   -0.024714
  75 C :   -0.040391
  76 H :    0.036584
  77 H :    0.039912
  78 H :    0.034668
  79 H :    0.039722
  80 H :    0.032761
  81 H :    0.047143
  82 H :    0.109134
  83 H :    0.102840
  84 H :    0.024922
  85 H :    0.038676
  86 H :    0.026303
  87 H :    0.024213
  88 H :    0.042088
  89 H :    0.036486
  90 H :    0.031704
  91 H :    0.034935
  92 H :    0.037637
  93 H :    0.040423
  94 H :    0.028521
  95 H :    0.038277
  96 H :    0.029051
  97 H :    0.030311
  98 H :    0.039229
  99 H :    0.014428
 100 H :    0.031321
 101 H :    0.019374
 102 H :    0.029080

  Mayer bond orders larger than 0.100000
B(  0-C ,  1-C ) :   1.5905 B(  0-C ,  6-C ) :   0.9880 B(  0-C , 18-C ) :   1.1075
B(  1-C ,  2-C ) :   1.1474 B(  1-C ,  4-C ) :   1.1530 B(  2-C ,  3-N ) :   2.9602
B(  4-C ,  5-N ) :   2.9603 B(  6-C ,  7-C ) :   1.2819 B(  6-C , 11-C ) :   1.4175
B(  7-C ,  8-C ) :   1.4325 B(  7-C , 16-C ) :   0.9351 B(  8-C ,  9-C ) :   1.2389
B(  8-C , 76-H ) :   1.0153 B(  9-C , 10-C ) :   1.3171 B(  9-C , 14-C ) :   1.1581
B( 10-C , 11-C ) :   1.3237 B( 10-C , 12-S ) :   1.0801 B( 11-C , 77-H ) :   0.9788
B( 12-S , 13-C ) :   1.0863 B( 13-C , 14-C ) :   1.6205 B( 13-C , 15-Br) :   1.0086
B( 14-C , 78-H ) :   1.0004 B( 16-C , 17-O ) :   2.1879 B( 16-C , 18-C ) :   0.9707
B( 18-C , 19-C ) :   1.4390 B( 19-C , 20-C ) :   1.2355 B( 19-C , 79-H ) :   0.9614
B( 20-C , 21-C ) :   1.4213 B( 20-C , 80-H ) :   0.9918 B( 21-C , 22-C ) :   1.2433
B( 21-C , 81-H ) :   0.9796 B( 22-C , 23-O ) :   1.0966 B( 22-C , 26-C ) :   1.2963
B( 23-O , 24-C ) :   1.1414 B( 24-C , 25-C ) :   1.2515 B( 24-C , 29-C ) :   1.1990
B( 25-C , 26-C ) :   1.2753 B( 25-C , 28-O ) :   1.2346 B( 26-C , 27-O ) :   1.3010
B( 27-O , 82-H ) :   0.9493 B( 28-O , 83-H ) :   0.9552 B( 29-C , 30-C ) :   1.5906
B( 29-C , 84-H ) :   0.9520 B( 30-C , 31-C ) :   1.1766 B( 30-C , 85-H ) :   0.9844
B( 31-C , 32-C ) :   1.5283 B( 31-C , 86-H ) :   0.9618 B( 32-C , 33-C ) :   1.2614
B( 32-C , 87-H ) :   0.9438 B( 33-C , 34-C ) :   1.2093 B( 33-C , 46-C ) :   1.1391
B( 34-C , 35-C ) :   1.1298 B( 34-C , 39-N ) :   1.4459 B( 35-C , 36-N ) :   1.5360
B( 35-C , 44-C ) :   1.1252 B( 36-N , 37-C ) :   1.6504 B( 37-C , 38-C ) :   1.2569
B( 37-C , 42-C ) :   1.1664 B( 38-C , 39-N ) :   1.7085 B( 38-C , 40-C ) :   1.1550
B( 40-C , 41-N ) :   3.0562 B( 42-C , 43-N ) :   3.0416 B( 44-C , 45-C ) :   1.1078
B( 44-C , 50-C ) :   1.4116 B( 45-C , 46-C ) :   1.1167 B( 45-C , 49-N ) :   1.5128
B( 46-C , 47-N ) :   1.5449 B( 47-N , 48-S ) :   1.2242 B( 47-N , 49-N ) :   0.1275
B( 48-S , 49-N ) :   1.2229 B( 50-C , 51-C ) :   1.3178 B( 50-C , 88-H ) :   0.9423
B( 51-C , 52-C ) :   1.2400 B( 51-C , 55-S ) :   1.1061 B( 52-C , 53-C ) :   1.4753
B( 52-C , 89-H ) :   1.0036 B( 53-C , 54-C ) :   1.2709 B( 53-C , 90-H ) :   0.9953
B( 54-C , 55-S ) :   1.0306 B( 54-C , 56-C ) :   1.3634 B( 56-C , 57-C ) :   1.2593
B( 56-C , 60-S ) :   1.0988 B( 57-C , 58-C ) :   1.5064 B( 57-C , 91-H ) :   0.9954
B( 58-C , 59-C ) :   1.1996 B( 58-C , 92-H ) :   0.9997 B( 59-C , 60-S ) :   1.0332
B( 59-C , 61-C ) :   1.4839 B( 61-C , 62-C ) :   1.1987 B( 61-C , 93-H ) :   0.9704
B( 62-C , 63-C ) :   1.1456 B( 62-C , 73-C ) :   1.3390 B( 63-C , 64-C ) :   1.4122
B( 63-C , 94-H ) :   1.0165 B( 64-C , 65-C ) :   1.1374 B( 64-C , 72-C ) :   1.1357
B( 65-C , 66-C ) :   1.4363 B( 65-C , 95-H ) :   1.0059 B( 66-C , 67-C ) :   1.1209
B( 66-C , 70-C ) :   1.1195 B( 67-C , 68-C ) :   1.4418 B( 67-C , 96-H ) :   1.0166
B( 68-C , 69-C ) :   1.2080 B( 68-C , 74-C ) :   1.0789 B( 69-C , 70-C ) :   1.3451
B( 69-C , 97-H ) :   1.0092 B( 70-C , 71-C ) :   1.2146 B( 71-C , 72-C ) :   1.3314
B( 71-C , 98-H ) :   1.0043 B( 72-C , 73-C ) :   1.2279 B( 73-C , 99-H ) :   0.9916
B( 74-C , 75-C ) :   1.9383 B( 74-C ,100-H ) :   0.9674 B( 75-C ,101-H ) :   0.9540
B( 75-C ,102-H ) :   0.9496

-----------------------------------------------------------------------------
         ABSORPTION SPECTRUM VIA TRANSITION ELECTRIC DIPOLE MOMENTS
-----------------------------------------------------------------------------
State   Energy  Wavelength   fosc         T2         TX        TY        TZ
        (cm-1)    (nm)                  (au**2)     (au)      (au)      (au)
-----------------------------------------------------------------------------
   0    2784.8   3591.0   0.125276967  14.81011   0.37925   3.72255  -0.89937
   1    5303.6   1885.5   0.113792528   7.06342  -0.40536   2.60000   0.37295
   2    9726.8   1028.1   0.035262076   1.19348   0.60927  -0.13461  -0.89674
   3   12730.2    785.5   0.102969886   2.66286  -0.60167  -1.00480   1.13632
   4   13543.5    738.4   0.977780911  23.76770   2.77725  -2.11161  -3.40525
   5   14713.3    679.7   1.011410298  22.63049   2.73116   0.42610  -3.87165
   6   16117.0    620.5   0.079810029   1.63023  -0.67741  -0.24123   1.05506
   7   18580.9    538.2   0.059752886   1.05869   0.46073  -0.41713  -0.82001
   8   20453.8    488.9   0.018303831   0.29461  -0.07081  -0.53550   0.05328
   9   21001.5    476.2   0.075049044   1.17644   0.21174  -0.86544  -0.61856
  10   21508.8    464.9   0.050922471   0.77942  -0.45888   0.15806   0.73747
  11   22100.6    452.5   0.134243811   1.99971  -0.79526   0.24615   1.14310
  12   22242.7    449.6   0.163264021   2.41645  -0.95298  -0.87810   0.85861
  13   22280.6    448.8   0.187036596   2.76360  -1.09723   0.08799   1.24577
  14   23239.0    430.3   0.047556268   0.67370  -0.41424  -0.46708   0.53286
  15   23798.3    420.2   0.010228701   0.14150  -0.03572   0.37323   0.03032
  16   24125.0    414.5   0.094539711   1.29010   0.65732  -0.58911  -0.71483
  17   24358.4    410.5   0.144543517   1.95355   0.40063  -1.17784  -0.63698
  18   24716.4    404.6   0.652571036   8.69196   0.99016  -2.21784  -1.67115
  19   25881.2    386.4   0.225917224   2.87369   0.29519  -1.59701  -0.48592
  20   26823.4    372.8   0.000756553   0.00929  -0.06421   0.05765  -0.04288
  21   27511.2    363.5   0.131427567   1.57272   0.72234   0.78975  -0.65363
  22   27824.3    359.4   0.000006582   0.00008  -0.00357   0.00735   0.00333
  23   27977.2    357.4   0.012089064   0.14225  -0.03388  -0.35828   0.11287
  24   28178.3    354.9   0.048527665   0.56696   0.03378   0.74849  -0.07474
  25   28209.6    354.5   0.017740947   0.20704   0.12738   0.42742  -0.09014
  26   28275.9    353.7   0.092487757   1.07682   0.25481   1.00372  -0.06667
  27   28552.7    350.2   0.026745983   0.30838  -0.26287   0.36041   0.33074
  28   28704.4    348.4   0.069537266   0.79752   0.34638  -0.55996  -0.60332
  29   28792.1    347.3   0.120258850   1.37505   0.45784  -1.01199  -0.37591
  30   29073.4    344.0   0.253530993   2.87085  -0.82596   1.00507   1.08557
  31   29717.5    336.5   0.081989226   0.90828   0.45646   0.78183  -0.29777
  32   29969.9    333.7   0.238706862   2.62214  -0.82952  -1.28173   0.53963
  33   30658.3    326.2   0.031232894   0.33538  -0.32703  -0.39580   0.26790
  34   30726.7    325.5   0.042772911   0.45828   0.30904  -0.16226  -0.58003
  35   30919.1    323.4   0.249457194   2.65610   0.68497   1.31403  -0.67841
  36   31152.2    321.0   0.110569594   1.16849  -0.53280  -0.55522   0.75917
  37   31421.0    318.3   0.000397232   0.00416  -0.01543  -0.05528   0.02947
  38   31476.7    317.7   0.001416945   0.01482   0.00597   0.04198   0.11411
  39   31633.2    316.1   0.000064314   0.00067   0.00836   0.01412   0.02000
  40   31845.4    314.0   0.083977659   0.86814   0.02793  -0.92895  -0.06649
  41   32232.0    310.3   0.004786045   0.04888  -0.04680  -0.19328  -0.09663
  42   32319.6    309.4   0.036427958   0.37106   0.10436  -0.49403  -0.34074
  43   32407.4    308.6   0.390944278   3.97142  -1.21597  -0.40954   1.52483
  44   32849.7    304.4   0.113527663   1.13775   0.25129   1.01204  -0.22446
  45   33404.7    299.4   0.119298013   1.17571  -0.75266  -0.40836   0.66517
  46   33632.0    297.3   0.076910650   0.75285   0.46582   0.47794  -0.55447
  47   34027.8    293.9   0.097001012   0.93847   0.11338  -0.93248  -0.23684
  48   34090.4    293.3   0.045024189   0.43480   0.00521  -0.65564  -0.07009
  49   34319.7    291.4   0.000461100   0.00442   0.01079   0.06520  -0.00743
  50   34404.2    290.7   0.175820829   1.68242  -0.09316  -1.29193  -0.06821
  51   34756.9    287.7   0.246043200   2.33048  -0.32810  -1.48541  -0.12803
  52   34913.3    286.4   0.015680504   0.14786  -0.25954   0.24143   0.14903
  53   35215.8    284.0   0.004425589   0.04137   0.15356   0.05943  -0.11942
  54   35495.2    281.7   0.000951195   0.00882  -0.02086  -0.08995   0.01719
  55   35626.4    280.7   0.175555554   1.62225   0.26147   1.22770  -0.21598
  56   35942.9    278.2   0.002499060   0.02289   0.12442  -0.00153  -0.08607
  57   36295.4    275.5   0.159101682   1.44311  -0.48892   0.82497   0.72352
  58   36366.1    275.0   0.040018956   0.36228  -0.25301   0.40584   0.36546
  59   36424.7    274.5   0.002877845   0.02601  -0.01098   0.16047  -0.01182
  60   36691.5    272.5   0.001074793   0.00964  -0.07545  -0.01790  -0.06026
  61   36805.6    271.7   0.009846364   0.08807  -0.01151  -0.28277   0.08934
  62   37247.6    268.5   0.001157953   0.01023  -0.02565  -0.08636   0.04602
  63   37386.6    267.5   0.062715929   0.55225  -0.42744  -0.26216   0.54847
  64   37786.7    264.6   0.142282448   1.23962   0.22873   1.06111  -0.24768
  65   37976.4    263.3   0.005566664   0.04826   0.05811  -0.04894  -0.20612
  66   38115.9    262.4   0.000238203   0.00206  -0.02648  -0.01007   0.03543
  67   38145.9    262.2   0.282388330   2.43711  -0.99836   0.00464   1.20015
  68   38224.2    261.6   0.003542814   0.03051  -0.00254  -0.04405   0.16902
  69   38301.0    261.1   0.100252991   0.86171  -0.56703   0.05628   0.73282
  70   38586.7    259.2   0.078465162   0.66945  -0.14355   0.79720   0.11535
  71   38909.5    257.0   0.019588786   0.16574  -0.15057  -0.35765   0.12310
  72   39081.0    255.9   0.023534312   0.19825   0.30245   0.05103  -0.32275
  73   39140.9    255.5   0.005443258   0.04578   0.03587  -0.19281  -0.08557
  74   39453.5    253.5   0.130366112   1.08781  -0.44789   0.75803   0.55911
  75   39597.3    252.5   0.040665860   0.33810   0.25317   0.42236  -0.30921
  76   39835.7    251.0   0.046301155   0.38264   0.08118   0.61220  -0.03562
  77   39937.1    250.4   0.042120798   0.34721  -0.29168  -0.32579   0.39497
  78   40059.0    249.6   0.021055435   0.17304   0.30493  -0.09280  -0.26729
  79   40180.8    248.9   0.008447901   0.06922   0.11796   0.17001  -0.16247

FINAL SINGLE POINT ENERGY     -7165.648011042973

DIPOLE MOMENT
-------------
                                X             Y             Z
Electronic contribution:     72.65619     -35.48342     -56.41603
Nuclear contribution   :    -72.64016      44.90990      55.49768
                        -----------------------------------------
Total Dipole Moment    :      0.01602       9.42648      -0.91835
                        -----------------------------------------
Magnitude (a.u.)       :      9.47112
Magnitude (Debye)      :     24.07368

Rotational constants in cm-1:     0.000534     0.000354     0.000215
Rotational constants in MHz :    15.999739    10.602305     6.441102

                             ****ORCA TERMINATED NORMALLY****
TOTAL RUN TIME: 0 days 0 hours 13 minutes 52 seconds 268 msec
