                         Program Version 4.2.0 -  RELEASE  -
|  1> # ORCA input file
|  2> # SCF done       -193.784959004388          0.000913085945
|  3> ! CAM-B3LYP def2-SVP def2/J RIJCOSX Grid4 TightSCF
|  4> %maxcore 5000
|  5> %tddft
|  6>     Mode sTDDFT
|  7>     Ethresh 5.0
|  8>     maxcore 5000
|  9> end
| 10>
| 11> %pal
| 12>   nprocs 6
| 13>   end
| 14> * xyz 0 1
| 15>    C       -2.78191        -3.36181        -1.27310
| 16>    C       -3.00139        -4.60627        -1.80819
| 17>    C       -2.69002        -5.81292        -1.14779
| 18>    N       -2.46857        -6.82850        -0.65994
| 19>    C       -3.50580        -4.87749        -3.09821
| 20>    N       -3.86102        -5.19959        -4.14151
| 21>    C       -2.10613        -3.10029        -0.00844
| 22>    C       -1.93227        -1.70301         0.13208
| 23>    C       -1.29702        -1.13726         1.21046
| 24>    C       -0.80636        -1.99337         2.20150
| 25>    C       -0.98965        -3.38927         2.05703
| 26>    C       -1.63374        -3.96037         0.96672
| 27>    S       -0.30929        -4.26417         3.39548
| 28>    C        0.21160        -2.76426         4.11611
| 29>    C       -0.11128        -1.66332         3.39693
| 30>   Br        1.12658        -2.79232         5.75316
| 31>    C       -2.52430        -1.00623        -1.02859
| 32>    O       -2.56307         0.19245        -1.18570
| 33>    C       -3.08567        -2.08294        -1.89207
| 34>    C       -3.84879        -1.92321        -3.01435
| 35>    C       -4.11084        -0.74447        -3.74655
| 36>    O       -3.49628         0.44471        -3.51867
| 37>    C       -4.94904        -0.58324        -4.84284
| 38>    C       -5.92429        -1.26219        -5.70557
| 39>    O       -6.36909        -2.37729        -5.68010
| 40>    N       -6.28158        -0.27543        -6.62796
| 41>    C       -5.66412         0.95678        -6.44905
| 42>    O       -5.83074         1.92702        -7.14716
| 43>    C       -4.81345         0.75296        -5.27621
| 44>    C       -3.90325         1.35894        -4.41976
| 45>    C       -3.37494         2.67697        -4.36269
| 46>    C       -3.68013         3.60957        -5.28965
| 47>    C       -3.17128         4.95783        -5.25393
| 48>    C       -2.98511         5.57689        -4.04779
| 49>    S       -2.39340         7.17847        -4.14472
| 50>    C       -2.31799         7.04055        -5.87550
| 51>    C       -2.78242         5.80828        -6.36113
| 52>    C       -2.71601         5.56280        -7.75589
| 53>    C       -3.21714         4.25038        -8.30165
| 54>    C       -2.21115         3.12144        -8.06869
| 55>    C       -2.16008         6.51147        -8.60696
| 56>    C       -1.98749         6.22487       -10.07590
| 57>    C       -3.21873         6.64697       -10.88200
| 58>    C       -1.73112         7.76613        -8.11139
| 59>    C       -1.10755         8.89031        -8.77704
| 60>    C       -0.77085         9.87386        -7.88973
| 61>    S       -1.18116         9.54853        -6.25569
| 62>    C       -1.81912         8.00622        -6.73170
| 63>    C       -0.81989         9.07344       -10.18239
| 64>    C        0.30711         9.69018       -10.61082
| 65>    C        0.63080         9.92871       -11.96401
| 66>    C        1.79113        10.53508       -12.36189
| 67>    C        2.22677        10.79404       -13.68742
| 68>    C        3.43613        11.41054       -13.77127
| 69>    C        4.03112        11.68838       -12.51804
| 70>    S        2.99706        11.12416       -11.22157
| 71>    C        5.23200        12.30933       -12.25368
| 72>    C        6.17112        12.82704       -13.17985
| 73>    C        7.25896        13.38421       -12.59308
| 74>    C        7.25174        13.35915       -11.16433
| 75>    S        5.77409        12.59072       -10.61243
| 76>    C        8.29600        13.78762       -10.40023
| 77>    C        8.49660        13.78857        -8.97772
| 78>    C        7.45700        13.82028        -8.02361
| 79>    O        6.19318        13.96359        -8.50232
| 80>    C        5.10743        13.93684        -7.60902
| 81>    C        7.76973        13.76860        -6.67020
| 82>    C        9.08051        13.71267        -6.24502
| 83>    C       10.12580        13.72790        -7.17022
| 84>    C        9.82307        13.77460        -8.51847
| 85>    O       11.38451        13.69405        -6.64661
| 86>    C       12.47820        13.68244        -7.52982
| 87>    H       -1.17811        -0.06764         1.28389
| 88>    H       -1.74965        -5.02917         0.90620
| 89>    H        0.13021        -0.65936         3.69506
| 90>    H       -4.33418        -2.79090        -3.44256
| 91>    H       -6.94703        -0.44668        -7.36816
| 92>    H       -2.68458         2.86813        -3.55461
| 93>    H       -4.35261         3.33232        -6.08572
| 94>    H       -3.22386         5.17169        -3.08387
| 95>    H       -3.41255         4.32892        -9.36807
| 96>    H       -4.17095         4.00129        -7.84100
| 97>    H       -1.28751         3.31747        -8.60987
| 98>    H       -2.62475         2.17783        -8.41646
| 99>    H       -1.97105         3.02351        -7.01292
|100>    H       -1.79361         5.16511       -10.23741
|101>    H       -1.10793         6.76161       -10.43324
|102>    H       -4.08708         6.05737       -10.59754
|103>    H       -3.04123         6.50683       -11.94636
|104>    H       -3.46048         7.69191       -10.70057
|105>    H       -0.32700        10.82071        -8.12799
|106>    H       -1.54790         8.74933       -10.90955
|107>    H        1.04610        10.00164        -9.88328
|108>    H       -0.06435         9.61025       -12.72939
|109>    H        1.62747        10.51079       -14.53489
|110>    H        3.91679        11.67752       -14.69560
|111>    H        6.01420        12.77352       -14.24258
|112>    H        8.08074        13.82309       -13.13192
|113>    H        9.15699        14.12311       -10.96847
|114>    H        4.21792        14.00167        -8.23376
|115>    H        5.13404        14.78863        -6.92244
|116>    H        5.07752        13.00376        -7.03872
|117>    H        6.98622        13.77871        -5.92996
|118>    H        9.31919        13.67156        -5.19488
|119>    H       10.60723        13.77421        -9.25931
|120>    H       13.36484        13.63753        -6.89958
|121>    H       12.51417        14.59165        -8.13886
|122>    H       12.45623        12.80589        -8.18538
|123> *
|124>
|125>                          ****END OF INPUT****

CARTESIAN COORDINATES (ANGSTROEM)
---------------------------------
  C     -2.781910   -3.361810   -1.273100
  C     -3.001390   -4.606270   -1.808190
  C     -2.690020   -5.812920   -1.147790
  N     -2.468570   -6.828500   -0.659940
  C     -3.505800   -4.877490   -3.098210
  N     -3.861020   -5.199590   -4.141510
  C     -2.106130   -3.100290   -0.008440
  C     -1.932270   -1.703010    0.132080
  C     -1.297020   -1.137260    1.210460
  C     -0.806360   -1.993370    2.201500
  C     -0.989650   -3.389270    2.057030
  C     -1.633740   -3.960370    0.966720
  S     -0.309290   -4.264170    3.395480
  C      0.211600   -2.764260    4.116110
  C     -0.111280   -1.663320    3.396930
  Br     1.126580   -2.792320    5.753160
  C     -2.524300   -1.006230   -1.028590
  O     -2.563070    0.192450   -1.185700
  C     -3.085670   -2.082940   -1.892070
  C     -3.848790   -1.923210   -3.014350
  C     -4.110840   -0.744470   -3.746550
  O     -3.496280    0.444710   -3.518670
  C     -4.949040   -0.583240   -4.842840
  C     -5.924290   -1.262190   -5.705570
  O     -6.369090   -2.377290   -5.680100
  N     -6.281580   -0.275430   -6.627960
  C     -5.664120    0.956780   -6.449050
  O     -5.830740    1.927020   -7.147160
  C     -4.813450    0.752960   -5.276210
  C     -3.903250    1.358940   -4.419760
  C     -3.374940    2.676970   -4.362690
  C     -3.680130    3.609570   -5.289650
  C     -3.171280    4.957830   -5.253930
  C     -2.985110    5.576890   -4.047790
  S     -2.393400    7.178470   -4.144720
  C     -2.317990    7.040550   -5.875500
  C     -2.782420    5.808280   -6.361130
  C     -2.716010    5.562800   -7.755890
  C     -3.217140    4.250380   -8.301650
  C     -2.211150    3.121440   -8.068690
  C     -2.160080    6.511470   -8.606960
  C     -1.987490    6.224870  -10.075900
  C     -3.218730    6.646970  -10.882000
  C     -1.731120    7.766130   -8.111390
  C     -1.107550    8.890310   -8.777040
  C     -0.770850    9.873860   -7.889730
  S     -1.181160    9.548530   -6.255690
  C     -1.819120    8.006220   -6.731700
  C     -0.819890    9.073440  -10.182390
  C      0.307110    9.690180  -10.610820
  C      0.630800    9.928710  -11.964010
  C      1.791130   10.535080  -12.361890
  C      2.226770   10.794040  -13.687420
  C      3.436130   11.410540  -13.771270
  C      4.031120   11.688380  -12.518040
  S      2.997060   11.124160  -11.221570
  C      5.232000   12.309330  -12.253680
  C      6.171120   12.827040  -13.179850
  C      7.258960   13.384210  -12.593080
  C      7.251740   13.359150  -11.164330
  S      5.774090   12.590720  -10.612430
  C      8.296000   13.787620  -10.400230
  C      8.496600   13.788570   -8.977720
  C      7.457000   13.820280   -8.023610
  O      6.193180   13.963590   -8.502320
  C      5.107430   13.936840   -7.609020
  C      7.769730   13.768600   -6.670200
  C      9.080510   13.712670   -6.245020
  C     10.125800   13.727900   -7.170220
  C      9.823070   13.774600   -8.518470
  O     11.384510   13.694050   -6.646610
  C     12.478200   13.682440   -7.529820
  H     -1.178110   -0.067640    1.283890
  H     -1.749650   -5.029170    0.906200
  H      0.130210   -0.659360    3.695060
  H     -4.334180   -2.790900   -3.442560
  H     -6.947030   -0.446680   -7.368160
  H     -2.684580    2.868130   -3.554610
  H     -4.352610    3.332320   -6.085720
  H     -3.223860    5.171690   -3.083870
  H     -3.412550    4.328920   -9.368070
  H     -4.170950    4.001290   -7.841000
  H     -1.287510    3.317470   -8.609870
  H     -2.624750    2.177830   -8.416460
  H     -1.971050    3.023510   -7.012920
  H     -1.793610    5.165110  -10.237410
  H     -1.107930    6.761610  -10.433240
  H     -4.087080    6.057370  -10.597540
  H     -3.041230    6.506830  -11.946360
  H     -3.460480    7.691910  -10.700570
  H     -0.327000   10.820710   -8.127990
  H     -1.547900    8.749330  -10.909550
  H      1.046100   10.001640   -9.883280
  H     -0.064350    9.610250  -12.729390
  H      1.627470   10.510790  -14.534890
  H      3.916790   11.677520  -14.695600
  H      6.014200   12.773520  -14.242580
  H      8.080740   13.823090  -13.131920
  H      9.156990   14.123110  -10.968470
  H      4.217920   14.001670   -8.233760
  H      5.134040   14.788630   -6.922440
  H      5.077520   13.003760   -7.038720
  H      6.986220   13.778710   -5.929960
  H      9.319190   13.671560   -5.194880
  H     10.607230   13.774210   -9.259310
  H     13.364840   13.637530   -6.899580
  H     12.514170   14.591650   -8.138860
  H     12.456230   12.805890   -8.185380

 Total Charge           Charge          ....    0
 Multiplicity           Mult            ....    1
 Number of Electrons    NEL             ....  562
 Basis Dimension        Dim             .... 1226

ORBITAL ENERGIES
----------------

  NO   OCC          E(Eh)            E(eV)
   0   2.0000    -482.886508    -13140.0099
   1   2.0000     -88.976404     -2421.1710
   2   2.0000     -88.956655     -2420.6336
   3   2.0000     -88.948038     -2420.3992
   4   2.0000     -88.931500     -2419.9491
   5   2.0000     -88.928957     -2419.8800
   6   2.0000     -62.564232     -1702.4593
   7   2.0000     -56.398187     -1534.6727
   8   2.0000     -56.395463     -1534.5986
   9   2.0000     -56.395432     -1534.5977
  10   2.0000     -19.314196      -525.5660
  11   2.0000     -19.240910      -523.5718
  12   2.0000     -19.232582      -523.3452
  13   2.0000     -19.221665      -523.0481
  14   2.0000     -19.220466      -523.0155
  15   2.0000     -19.215400      -522.8776
  16   2.0000     -14.461840      -393.5267
  17   2.0000     -14.416151      -392.2834
  18   2.0000     -14.415084      -392.2544
  19   2.0000     -10.409268      -283.2506
  20   2.0000     -10.408777      -283.2372
  21   2.0000     -10.375071      -282.3200
  22   2.0000     -10.369310      -282.1633
  23   2.0000     -10.367198      -282.1058
  24   2.0000     -10.360148      -281.9140
  25   2.0000     -10.344680      -281.4931
  26   2.0000     -10.343189      -281.4525
  27   2.0000     -10.327240      -281.0185
  28   2.0000     -10.326709      -281.0040
  29   2.0000     -10.321969      -280.8751
  30   2.0000     -10.318749      -280.7874
  31   2.0000     -10.317715      -280.7593
  32   2.0000     -10.317491      -280.7532
  33   2.0000     -10.316790      -280.7341
  34   2.0000     -10.315960      -280.7115
  35   2.0000     -10.309447      -280.5343
  36   2.0000     -10.308919      -280.5199
  37   2.0000     -10.308793      -280.5165
  38   2.0000     -10.307764      -280.4885
  39   2.0000     -10.306514      -280.4545
  40   2.0000     -10.302075      -280.3337
  41   2.0000     -10.301780      -280.3257
  42   2.0000     -10.300344      -280.2866
  43   2.0000     -10.298655      -280.2406
  44   2.0000     -10.297777      -280.2168
  45   2.0000     -10.296875      -280.1922
  46   2.0000     -10.296759      -280.1890
  47   2.0000     -10.296122      -280.1717
  48   2.0000     -10.295399      -280.1521
  49   2.0000     -10.294889      -280.1382
  50   2.0000     -10.294716      -280.1335
  51   2.0000     -10.292890      -280.0838
  52   2.0000     -10.290937      -280.0306
  53   2.0000     -10.288745      -279.9710
  54   2.0000     -10.287980      -279.9502
  55   2.0000     -10.280988      -279.7599
  56   2.0000     -10.279667      -279.7240
  57   2.0000     -10.277026      -279.6521
  58   2.0000     -10.275718      -279.6165
  59   2.0000     -10.275426      -279.6085
  60   2.0000     -10.274508      -279.5836
  61   2.0000     -10.274492      -279.5831
  62   2.0000     -10.273900      -279.5670
  63   2.0000     -10.272865      -279.5389
  64   2.0000     -10.271924      -279.5133
  65   2.0000     -10.270919      -279.4859
  66   2.0000     -10.269172      -279.4384
  67   2.0000     -10.266866      -279.3756
  68   2.0000     -10.266429      -279.3637
  69   2.0000     -10.265517      -279.3389
  70   2.0000     -10.263492      -279.2838
  71   2.0000     -10.261154      -279.2202
  72   2.0000     -10.260638      -279.2062
  73   2.0000     -10.258981      -279.1611
  74   2.0000     -10.255316      -279.0613
  75   2.0000     -10.251823      -278.9663
  76   2.0000      -8.793666      -239.2878
  77   2.0000      -8.072394      -219.6610
  78   2.0000      -8.052968      -219.1324
  79   2.0000      -8.044232      -218.8947
  80   2.0000      -8.027908      -218.4505
  81   2.0000      -8.024163      -218.3486
  82   2.0000      -6.629996      -180.4114
  83   2.0000      -6.615387      -180.0138
  84   2.0000      -6.615184      -180.0083
  85   2.0000      -6.042076      -164.4132
  86   2.0000      -6.037820      -164.2974
  87   2.0000      -6.033609      -164.1829
  88   2.0000      -6.022385      -163.8774
  89   2.0000      -6.018158      -163.7624
  90   2.0000      -6.014769      -163.6702
  91   2.0000      -6.013722      -163.6417
  92   2.0000      -6.009523      -163.5274
  93   2.0000      -6.005940      -163.4299
  94   2.0000      -5.997654      -163.2045
  95   2.0000      -5.994081      -163.1072
  96   2.0000      -5.993745      -163.0981
  97   2.0000      -5.989805      -162.9909
  98   2.0000      -5.988668      -162.9599
  99   2.0000      -5.984994      -162.8600
 100   2.0000      -2.745821       -74.7176
 101   2.0000      -2.741787       -74.6078
 102   2.0000      -2.741623       -74.6034
 103   2.0000      -2.730009       -74.2873
 104   2.0000      -2.729998       -74.2870
 105   2.0000      -1.236945       -33.6590
 106   2.0000      -1.164473       -31.6869
 107   2.0000      -1.146819       -31.2065
 108   2.0000      -1.144288       -31.1377
 109   2.0000      -1.137006       -30.9395
 110   2.0000      -1.131832       -30.7987
 111   2.0000      -1.051380       -28.6095
 112   2.0000      -1.024147       -27.8685
 113   2.0000      -1.014122       -27.5957
 114   2.0000      -1.002175       -27.2706
 115   2.0000      -0.993852       -27.0441
 116   2.0000      -0.991094       -26.9690
 117   2.0000      -0.982018       -26.7221
 118   2.0000      -0.972200       -26.4549
 119   2.0000      -0.960517       -26.1370
 120   2.0000      -0.948113       -25.7995
 121   2.0000      -0.941321       -25.6146
 122   2.0000      -0.934693       -25.4343
 123   2.0000      -0.932360       -25.3708
 124   2.0000      -0.923597       -25.1323
 125   2.0000      -0.909302       -24.7434
 126   2.0000      -0.906572       -24.6691
 127   2.0000      -0.899832       -24.4857
 128   2.0000      -0.886851       -24.1324
 129   2.0000      -0.881412       -23.9844
 130   2.0000      -0.877843       -23.8873
 131   2.0000      -0.866668       -23.5832
 132   2.0000      -0.860859       -23.4252
 133   2.0000      -0.850657       -23.1476
 134   2.0000      -0.844750       -22.9868
 135   2.0000      -0.837818       -22.7982
 136   2.0000      -0.835526       -22.7358
 137   2.0000      -0.830271       -22.5928
 138   2.0000      -0.825210       -22.4551
 139   2.0000      -0.816749       -22.2249
 140   2.0000      -0.813505       -22.1366
 141   2.0000      -0.806102       -21.9351
 142   2.0000      -0.798094       -21.7172
 143   2.0000      -0.791693       -21.5431
 144   2.0000      -0.784235       -21.3401
 145   2.0000      -0.779680       -21.2162
 146   2.0000      -0.770380       -20.9631
 147   2.0000      -0.766786       -20.8653
 148   2.0000      -0.761144       -20.7118
 149   2.0000      -0.759511       -20.6673
 150   2.0000      -0.744273       -20.2527
 151   2.0000      -0.726712       -19.7748
 152   2.0000      -0.720619       -19.6090
 153   2.0000      -0.718928       -19.5630
 154   2.0000      -0.707043       -19.2396
 155   2.0000      -0.703364       -19.1395
 156   2.0000      -0.695721       -18.9315
 157   2.0000      -0.692046       -18.8315
 158   2.0000      -0.689229       -18.7549
 159   2.0000      -0.685772       -18.6608
 160   2.0000      -0.678100       -18.4520
 161   2.0000      -0.674580       -18.3562
 162   2.0000      -0.659946       -17.9580
 163   2.0000      -0.659521       -17.9465
 164   2.0000      -0.655680       -17.8420
 165   2.0000      -0.645212       -17.5571
 166   2.0000      -0.633364       -17.2347
 167   2.0000      -0.628497       -17.1023
 168   2.0000      -0.627415       -17.0728
 169   2.0000      -0.622482       -16.9386
 170   2.0000      -0.615693       -16.7538
 171   2.0000      -0.613642       -16.6980
 172   2.0000      -0.612859       -16.6767
 173   2.0000      -0.604614       -16.4524
 174   2.0000      -0.603854       -16.4317
 175   2.0000      -0.601602       -16.3704
 176   2.0000      -0.597939       -16.2707
 177   2.0000      -0.596119       -16.2212
 178   2.0000      -0.593028       -16.1371
 179   2.0000      -0.585218       -15.9246
 180   2.0000      -0.583817       -15.8865
 181   2.0000      -0.580681       -15.8011
 182   2.0000      -0.577886       -15.7251
 183   2.0000      -0.569108       -15.4862
 184   2.0000      -0.567237       -15.4353
 185   2.0000      -0.554238       -15.0816
 186   2.0000      -0.552391       -15.0313
 187   2.0000      -0.551472       -15.0063
 188   2.0000      -0.549553       -14.9541
 189   2.0000      -0.544401       -14.8139
 190   2.0000      -0.544018       -14.8035
 191   2.0000      -0.541649       -14.7390
 192   2.0000      -0.538971       -14.6662
 193   2.0000      -0.535074       -14.5601
 194   2.0000      -0.534093       -14.5334
 195   2.0000      -0.531280       -14.4569
 196   2.0000      -0.528112       -14.3707
 197   2.0000      -0.527013       -14.3408
 198   2.0000      -0.524444       -14.2708
 199   2.0000      -0.523450       -14.2438
 200   2.0000      -0.520582       -14.1658
 201   2.0000      -0.518642       -14.1130
 202   2.0000      -0.515037       -14.0149
 203   2.0000      -0.509395       -13.8613
 204   2.0000      -0.508386       -13.8339
 205   2.0000      -0.505046       -13.7430
 206   2.0000      -0.504298       -13.7226
 207   2.0000      -0.501176       -13.6377
 208   2.0000      -0.500603       -13.6221
 209   2.0000      -0.495134       -13.4733
 210   2.0000      -0.493837       -13.4380
 211   2.0000      -0.493172       -13.4199
 212   2.0000      -0.490299       -13.3417
 213   2.0000      -0.486964       -13.2510
 214   2.0000      -0.485665       -13.2156
 215   2.0000      -0.484934       -13.1957
 216   2.0000      -0.481752       -13.1091
 217   2.0000      -0.479469       -13.0470
 218   2.0000      -0.477567       -12.9952
 219   2.0000      -0.475603       -12.9418
 220   2.0000      -0.472909       -12.8685
 221   2.0000      -0.469431       -12.7739
 222   2.0000      -0.466453       -12.6928
 223   2.0000      -0.463815       -12.6210
 224   2.0000      -0.463200       -12.6043
 225   2.0000      -0.459333       -12.4991
 226   2.0000      -0.457754       -12.4561
 227   2.0000      -0.454546       -12.3688
 228   2.0000      -0.451842       -12.2952
 229   2.0000      -0.448427       -12.2023
 230   2.0000      -0.448350       -12.2002
 231   2.0000      -0.447873       -12.1872
 232   2.0000      -0.446554       -12.1513
 233   2.0000      -0.443483       -12.0678
 234   2.0000      -0.443061       -12.0563
 235   2.0000      -0.440087       -11.9754
 236   2.0000      -0.439911       -11.9706
 237   2.0000      -0.439556       -11.9609
 238   2.0000      -0.432483       -11.7685
 239   2.0000      -0.432023       -11.7559
 240   2.0000      -0.426569       -11.6075
 241   2.0000      -0.425584       -11.5807
 242   2.0000      -0.424088       -11.5400
 243   2.0000      -0.422918       -11.5082
 244   2.0000      -0.421892       -11.4803
 245   2.0000      -0.420702       -11.4479
 246   2.0000      -0.415532       -11.3072
 247   2.0000      -0.408548       -11.1172
 248   2.0000      -0.408138       -11.1060
 249   2.0000      -0.405743       -11.0408
 250   2.0000      -0.404451       -11.0057
 251   2.0000      -0.401858       -10.9351
 252   2.0000      -0.396389       -10.7863
 253   2.0000      -0.392013       -10.6672
 254   2.0000      -0.390487       -10.6257
 255   2.0000      -0.387745       -10.5511
 256   2.0000      -0.386003       -10.5037
 257   2.0000      -0.380382       -10.3507
 258   2.0000      -0.378487       -10.2992
 259   2.0000      -0.376897       -10.2559
 260   2.0000      -0.375882       -10.2283
 261   2.0000      -0.373643       -10.1674
 262   2.0000      -0.368293       -10.0218
 263   2.0000      -0.367611       -10.0032
 264   2.0000      -0.357514        -9.7285
 265   2.0000      -0.354614        -9.6495
 266   2.0000      -0.351847        -9.5742
 267   2.0000      -0.339979        -9.2513
 268   2.0000      -0.335518        -9.1299
 269   2.0000      -0.328266        -8.9326
 270   2.0000      -0.325438        -8.8556
 271   2.0000      -0.316580        -8.6146
 272   2.0000      -0.316064        -8.6005
 273   2.0000      -0.310946        -8.4613
 274   2.0000      -0.295749        -8.0477
 275   2.0000      -0.288843        -7.8598
 276   2.0000      -0.285673        -7.7736
 277   2.0000      -0.266340        -7.2475
 278   2.0000      -0.259634        -7.0650
 279   2.0000      -0.253849        -6.9076
 280   2.0000      -0.201763        -5.4903
 281   0.0000      -0.101747        -2.7687
 282   0.0000      -0.062540        -1.7018
 283   0.0000      -0.062205        -1.6927
 284   0.0000      -0.051742        -1.4080
 285   0.0000      -0.019765        -0.5378

MULLIKEN ATOMIC CHARGES
-----------------------
   0 C :    0.308687
   1 C :   -0.342744
   2 C :   -0.183523
   3 N :    0.148654
   4 C :   -0.205581
   5 N :    0.175374
   6 C :    0.022563
   7 C :   -0.019116
   8 C :   -0.074675
   9 C :    0.122417
  10 C :   -0.090540
  11 C :   -0.023953
  12 S :    0.187985
  13 C :   -0.121858
  14 C :    0.036191
  15 Br:    0.024715
  16 C :    0.134176
  17 O :   -0.129617
  18 C :   -0.061472
  19 C :   -0.054604
  20 C :    0.073855
  21 O :   -0.158036
  22 C :   -0.011667
  23 C :    0.175010
  24 O :   -0.120645
  25 N :   -0.164183
  26 C :    0.197075
  27 O :   -0.157495
  28 C :   -0.101827
  29 C :    0.145277
  30 C :   -0.018307
  31 C :   -0.021207
  32 C :    0.062558
  33 C :   -0.110660
  34 S :    0.141269
  35 C :   -0.152571
  36 C :    0.126766
  37 C :   -0.117014
  38 C :    0.024534
  39 C :    0.036921
  40 C :   -0.122645
  41 C :    0.011515
  42 C :    0.040633
  43 C :    0.115061
  44 C :    0.077743
  45 C :   -0.123797
  46 S :    0.120672
  47 C :   -0.143921
  48 C :   -0.031604
  49 C :   -0.004481
  50 C :   -0.024298
  51 C :   -0.010422
  52 C :    0.033589
  53 C :    0.029338
  54 C :   -0.056556
  55 S :    0.048508
  56 C :   -0.045246
  57 C :    0.025472
  58 C :    0.027578
  59 C :    0.006997
  60 S :    0.095703
  61 C :   -0.061916
  62 C :    0.076113
  63 C :    0.196804
  64 O :   -0.323682
  65 C :    0.181505
  66 C :   -0.079407
  67 C :   -0.021247
  68 C :    0.256320
  69 C :   -0.157345
  70 O :   -0.316783
  71 C :    0.178320
  72 H :   -0.010544
  73 H :   -0.006040
  74 H :   -0.002905
  75 H :    0.035061
  76 H :    0.142059
  77 H :    0.001429
  78 H :    0.039720
  79 H :    0.024953
  80 H :   -0.003406
  81 H :    0.018377
  82 H :    0.005185
  83 H :    0.013377
  84 H :    0.015508
  85 H :    0.002663
  86 H :    0.014555
  87 H :    0.009622
  88 H :    0.015633
  89 H :    0.016586
  90 H :    0.020241
  91 H :   -0.008057
  92 H :    0.000683
  93 H :   -0.023530
  94 H :   -0.018458
  95 H :   -0.017510
  96 H :   -0.018706
  97 H :   -0.017414
  98 H :   -0.020968
  99 H :    0.037530
 100 H :    0.025536
 101 H :    0.023622
 102 H :   -0.027959
 103 H :   -0.019122
 104 H :   -0.040918
 105 H :    0.033427
 106 H :    0.018293
 107 H :    0.020228
Sum of atomic charges:   -0.0000000

LOEWDIN ATOMIC CHARGES
----------------------
   0 C :    0.071955
   1 C :   -0.133736
   2 C :   -0.016677
   3 N :   -0.050874
   4 C :   -0.029375
   5 N :   -0.036669
   6 C :   -0.021697
   7 C :   -0.051064
   8 C :    0.021124
   9 C :   -0.031631
  10 C :   -0.143274
  11 C :   -0.009877
  12 S :    0.433291
  13 C :   -0.270648
  14 C :   -0.070644
  15 Br:    0.137729
  16 C :    0.075235
  17 O :   -0.133797
  18 C :   -0.079977
  19 C :    0.048134
  20 C :    0.037875
  21 O :    0.051849
  22 C :   -0.055815
  23 C :    0.087264
  24 O :   -0.135875
  25 N :   -0.003006
  26 C :    0.090991
  27 O :   -0.162421
  28 C :   -0.115790
  29 C :    0.096514
  30 C :   -0.057504
  31 C :    0.045130
  32 C :   -0.068909
  33 C :   -0.156559
  34 S :    0.427617
  35 C :   -0.177430
  36 C :   -0.039452
  37 C :   -0.019258
  38 C :   -0.031644
  39 C :   -0.049926
  40 C :   -0.017018
  41 C :   -0.032751
  42 C :   -0.051398
  43 C :   -0.039944
  44 C :   -0.059362
  45 C :   -0.169612
  46 S :    0.408602
  47 C :   -0.179033
  48 C :   -0.028786
  49 C :   -0.029984
  50 C :   -0.068469
  51 C :   -0.139866
  52 C :   -0.041773
  53 C :   -0.028958
  54 C :   -0.186262
  55 S :    0.352490
  56 C :   -0.181070
  57 C :   -0.040743
  58 C :   -0.029180
  59 C :   -0.145270
  60 S :    0.393641
  61 C :   -0.050886
  62 C :   -0.044441
  63 C :    0.039251
  64 O :   -0.103904
  65 C :    0.074196
  66 C :   -0.061043
  67 C :   -0.033724
  68 C :    0.038833
  69 C :   -0.060697
  70 O :   -0.111857
  71 C :    0.074214
  72 H :    0.040547
  73 H :    0.041085
  74 H :    0.038922
  75 H :    0.059537
  76 H :    0.097029
  77 H :    0.041344
  78 H :    0.035497
  79 H :    0.025264
  80 H :    0.026807
  81 H :    0.028807
  82 H :    0.023187
  83 H :    0.024442
  84 H :    0.021995
  85 H :    0.026149
  86 H :    0.030867
  87 H :    0.024286
  88 H :    0.024368
  89 H :    0.022379
  90 H :    0.022771
  91 H :    0.027609
  92 H :    0.020263
  93 H :    0.029314
  94 H :    0.031176
  95 H :    0.030462
  96 H :    0.028852
  97 H :    0.030274
  98 H :    0.031579
  99 H :    0.026405
 100 H :    0.016093
 101 H :    0.015322
 102 H :    0.029745
 103 H :    0.032522
 104 H :    0.025455
 105 H :    0.027553
 106 H :    0.012478
 107 H :    0.013239

  Mayer bond orders larger than 0.100000
B(  0-C ,  1-C ) :   1.6353 B(  0-C ,  6-C ) :   1.0069 B(  0-C , 18-C ) :   1.0601
B(  1-C ,  2-C ) :   1.1454 B(  1-C ,  4-C ) :   1.1386 B(  2-C ,  3-N ) :   2.9662
B(  4-C ,  5-N ) :   2.9899 B(  6-C ,  7-C ) :   1.2747 B(  6-C , 11-C ) :   1.4010
B(  7-C ,  8-C ) :   1.4230 B(  7-C , 16-C ) :   0.9409 B(  8-C ,  9-C ) :   1.2456
B(  8-C , 72-H ) :   1.0173 B(  9-C , 10-C ) :   1.3023 B(  9-C , 14-C ) :   1.1622
B( 10-C , 11-C ) :   1.3347 B( 10-C , 12-S ) :   1.0861 B( 11-C , 73-H ) :   0.9809
B( 12-S , 13-C ) :   1.0865 B( 13-C , 14-C ) :   1.6179 B( 13-C , 15-Br) :   1.0192
B( 14-C , 74-H ) :   1.0009 B( 16-C , 17-O ) :   2.2718 B( 16-C , 18-C ) :   0.9173
B( 18-C , 19-C ) :   1.5587 B( 19-C , 20-C ) :   1.2118 B( 19-C , 75-H ) :   0.9325
B( 20-C , 21-O ) :   1.1461 B( 20-C , 22-C ) :   1.3683 B( 21-O , 29-C ) :   1.1967
B( 22-C , 23-C ) :   0.8679 B( 22-C , 28-C ) :   1.3245 B( 23-C , 24-O ) :   2.2687
B( 23-C , 25-N ) :   1.0751 B( 25-N , 26-C ) :   1.1015 B( 25-N , 76-H ) :   0.9149
B( 26-C , 27-O ) :   2.1658 B( 26-C , 28-C ) :   0.8883 B( 28-C , 29-C ) :   1.3602
B( 29-C , 30-C ) :   1.1545 B( 30-C , 31-C ) :   1.6694 B( 30-C , 77-H ) :   0.9723
B( 31-C , 32-C ) :   1.0400 B( 31-C , 78-H ) :   0.9442 B( 32-C , 33-C ) :   1.5853
B( 32-C , 36-C ) :   1.1423 B( 33-C , 34-S ) :   1.1371 B( 33-C , 79-H ) :   0.9640
B( 34-S , 35-C ) :   1.0733 B( 35-C , 36-C ) :   1.3739 B( 35-C , 47-C ) :   1.3803
B( 36-C , 37-C ) :   1.2585 B( 37-C , 38-C ) :   1.0582 B( 37-C , 40-C ) :   1.5197
B( 38-C , 39-C ) :   1.1075 B( 38-C , 80-H ) :   0.9065 B( 38-C , 81-H ) :   0.9286
B( 39-C , 82-H ) :   0.9565 B( 39-C , 83-H ) :   0.9653 B( 39-C , 84-H ) :   0.9635
B( 40-C , 41-C ) :   1.0583 B( 40-C , 43-C ) :   1.2624 B( 41-C , 42-C ) :   1.1091
B( 41-C , 85-H ) :   0.9132 B( 41-C , 86-H ) :   0.9202 B( 42-C , 87-H ) :   0.9579
B( 42-C , 88-H ) :   0.9670 B( 42-C , 89-H ) :   0.9585 B( 43-C , 44-C ) :   1.1450
B( 43-C , 47-C ) :   1.3726 B( 44-C , 45-C ) :   1.6103 B( 44-C , 48-C ) :   1.0116
B( 45-C , 46-S ) :   1.1090 B( 45-C , 90-H ) :   0.9617 B( 46-S , 47-C ) :   1.0791
B( 48-C , 49-C ) :   1.7139 B( 48-C , 91-H ) :   0.9619 B( 49-C , 50-C ) :   1.1229
B( 49-C , 92-H ) :   0.9718 B( 50-C , 51-C ) :   1.5937 B( 50-C , 93-H ) :   0.9827
B( 51-C , 52-C ) :   1.1299 B( 51-C , 55-S ) :   1.0268 B( 52-C , 53-C ) :   1.6005
B( 52-C , 94-H ) :   0.9987 B( 53-C , 54-C ) :   1.1814 B( 53-C , 95-H ) :   0.9934
B( 54-C , 55-S ) :   1.0298 B( 54-C , 56-C ) :   1.5348 B( 56-C , 57-C ) :   1.1605
B( 56-C , 60-S ) :   1.0370 B( 57-C , 58-C ) :   1.6218 B( 57-C , 96-H ) :   0.9944
B( 58-C , 59-C ) :   1.1142 B( 58-C , 97-H ) :   0.9974 B( 59-C , 60-S ) :   1.0311
B( 59-C , 61-C ) :   1.6472 B( 61-C , 62-C ) :   1.0737 B( 61-C , 98-H ) :   0.9580
B( 62-C , 63-C ) :   1.3415 B( 62-C , 69-C ) :   1.3004 B( 63-C , 64-O ) :   1.1300
B( 63-C , 66-C ) :   1.3076 B( 64-O , 65-C ) :   0.9528 B( 65-C , 99-H ) :   0.9737
B( 65-C ,100-H ) :   0.9714 B( 65-C ,101-H ) :   0.9685 B( 66-C , 67-C ) :   1.3630
B( 66-C ,102-H ) :   0.9939 B( 67-C , 68-C ) :   1.3532 B( 67-C ,103-H ) :   0.9980
B( 68-C , 69-C ) :   1.3104 B( 68-C , 70-O ) :   1.1247 B( 69-C ,104-H ) :   1.0016
B( 70-O , 71-C ) :   0.9770 B( 71-C ,105-H ) :   0.9789 B( 71-C ,106-H ) :   0.9683
B( 71-C ,107-H ) :   0.9682

-----------------------------------------------------------------------------
         ABSORPTION SPECTRUM VIA TRANSITION ELECTRIC DIPOLE MOMENTS
-----------------------------------------------------------------------------
State   Energy  Wavelength   fosc         T2         TX        TY        TZ
        (cm-1)    (nm)                  (au**2)     (au)      (au)      (au)
-----------------------------------------------------------------------------
   0   15300.3    653.6   0.000198280   0.00427  -0.05934  -0.02051   0.01801
   1   16664.3    600.1   1.348920154  26.64854   4.39991   2.69196   0.20671
   2   19897.2    502.6   0.873042745  14.44506   0.96523  -2.93889   2.20824
   3   23838.9    419.5   0.003407441   0.04706   0.14238   0.15047  -0.06435
   4   24493.0    408.3   0.000775964   0.01043   0.05322   0.07759  -0.03972
   5   24976.6    400.4   0.001034476   0.01364  -0.11323   0.02522   0.01337
   6   25621.5    390.3   0.049037707   0.63009  -0.48663  -0.20987   0.59096
   7   25654.4    389.8   0.051420105   0.65985  -0.19404  -0.48920  -0.61878
   8   26351.1    379.5   0.130232348   1.62703   0.72218  -0.06164   1.04961
   9   26972.4    370.7   0.110991156   1.35470  -0.80581   0.31034  -0.78042
  10   27447.6    364.3   0.478731383   5.74201   0.71419   0.69578  -2.17895
  11   28014.9    357.0   0.393887260   4.62869  -0.45148  -2.10219  -0.07526
  12   28462.6    351.3   0.153199682   1.77198   0.56412  -0.26234   1.17683
  13   28884.6    346.2   0.089588242   1.02108  -0.42188  -0.12514  -0.90964
  14   29069.5    344.0   0.049838456   0.56442   0.33887   0.05890   0.66792
  15   30015.8    333.2   0.380080524   4.16871  -0.15572  -0.05807  -2.03497
  16   30400.7    328.9   0.055709716   0.60329  -0.56025  -0.48486  -0.23308
  17   31739.3    315.1   0.002438167   0.02529  -0.03857  -0.10109  -0.11654
  18   31952.0    313.0   0.015635118   0.16109   0.13499   0.15694   0.34387
  19   32143.3    311.1   0.009524666   0.09755  -0.17570  -0.25413  -0.04584
  20   32783.5    305.0   0.654206696   6.56955  -1.09175  -1.02841  -2.07846
  21   32824.7    304.6   0.032511937   0.32607   0.37266   0.43201   0.02381
  22   33122.4    301.9   0.001609912   0.01600  -0.01126   0.12411   0.02173
  23   33175.2    301.4   0.001802472   0.01789  -0.11617  -0.06565   0.00902
  24   33649.4    297.2   0.003934543   0.03849   0.08785   0.03535   0.17183
  25   34508.3    289.8   0.082531766   0.78736  -0.46806  -0.75102   0.06514
  26   34568.3    289.3   0.021656970   0.20625   0.24554   0.38011  -0.03846
  27   35071.4    285.1   0.000365366   0.00343  -0.01894  -0.02556   0.04917
  28   35272.9    283.5   0.002753567   0.02570  -0.14053   0.05793   0.05094
  29   35718.9    280.0   0.045541861   0.41975  -0.11125  -0.34759   0.53530
  30   35788.6    279.4   0.188382468   1.73289   0.80615   0.24174   1.01221
  31   36664.4    272.7   0.193292274   1.73558  -0.37858   0.02780  -1.26154
  32   37474.5    266.8   0.103354169   0.90796  -0.59590  -0.57544   0.47089
  33   37794.9    264.6   0.012330360   0.10740  -0.01154  -0.12312  -0.30350
  34   37936.5    263.6   0.039768912   0.34511  -0.41722   0.37525   0.17387
  35   38079.5    262.6   0.145263794   1.25586   0.14006  -0.05539  -1.11049
  36   38317.2    261.0   0.066717318   0.57322   0.41971   0.55923  -0.29039
  37   38470.1    259.9   0.084471029   0.72287   0.43111   0.61765   0.39437
  38   38775.9    257.9   0.021573929   0.18317  -0.14690  -0.27426   0.29388
  39   38909.8    257.0   0.246854048   2.08861   0.21973  -1.32237   0.54005
  40   39776.4    251.4   0.062811593   0.51986  -0.16209   0.48192  -0.51122
  41   39824.4    251.1   0.079921229   0.66068   0.22284  -0.39074   0.67700
  42   39963.5    250.2   0.022271228   0.18347  -0.03175   0.42713   0.00437
  43   40090.9    249.4   0.040347959   0.33132   0.06972   0.57120   0.01395
  44   40302.0    248.1   0.004792113   0.03914  -0.01616  -0.05557   0.18920

FINAL SINGLE POINT ENERGY     -7370.044371070763

DIPOLE MOMENT
-------------
                                X             Y             Z
Electronic contribution:    -33.45813    -168.60379     197.23049
Nuclear contribution   :     34.88699     171.62574    -197.28466
                        -----------------------------------------
Total Dipole Moment    :      1.42886       3.02196      -0.05417
                        -----------------------------------------
Magnitude (a.u.)       :      3.34317
Magnitude (Debye)      :      8.49767

Rotational constants in cm-1:     0.000806     0.000199     0.000168
Rotational constants in MHz :    24.174000     5.956268     5.043540

                             ****ORCA TERMINATED NORMALLY****
TOTAL RUN TIME: 0 days 0 hours 10 minutes 58 seconds 710 msec
