                         Program Version 4.2.0 -  RELEASE  -
|  1> # ORCA input file
|  2> # SCF done       -166.731066899216          0.000778473456
|  3> ! CAM-B3LYP def2-SVP def2/J RIJCOSX Grid4 TightSCF
|  4> %maxcore 5000
|  5> %tddft
|  6>     Mode sTDDFT
|  7>     Ethresh 5.0
|  8>     maxcore 5000
|  9> end
| 10>
| 11> %pal
| 12>   nprocs 6
| 13>   end
| 14> * xyz 0 1
| 15>    C       -9.62577        -1.16193        -5.16408
| 16>    C       -8.83372        -2.18545        -5.62211
| 17>    C       -9.32823        -3.41012        -6.11380
| 18>    N       -9.67115        -4.42309        -6.53254
| 19>    C       -7.42465        -2.16784        -5.65691
| 20>    N       -6.27921        -2.23910        -5.70981
| 21>    C      -11.07996        -1.19316        -5.07096
| 22>    C      -11.52444         0.01510        -4.48139
| 23>    C      -12.85237         0.28774        -4.26227
| 24>    C      -13.78925        -0.68202        -4.63507
| 25>    C      -13.33638        -1.88573        -5.22461
| 26>    C      -11.99354        -2.15943        -5.45170
| 27>    S      -14.66016        -2.94141        -5.61888
| 28>    C      -15.78717        -1.76708        -4.99329
| 29>    C      -15.20552        -0.64262        -4.51349
| 30>   Br      -17.62612        -2.13579        -5.03383
| 31>    C      -10.36311         0.88378        -4.20034
| 32>    O      -10.41397         2.03756        -3.82836
| 33>    C       -9.17238         0.10162        -4.61915
| 34>    C       -7.89948         0.58827        -4.63364
| 35>    C       -7.46552         1.73634        -3.90129
| 36>    C       -6.48868         2.58742        -4.40690
| 37>    C       -6.12300         3.76764        -3.77694
| 38>    C       -6.71244         4.14182        -2.57718
| 39>    C       -7.61183         3.22028        -1.95211
| 40>    N       -8.09522         3.53069        -0.73574
| 41>    C       -8.89623         2.66763        -0.16379
| 42>    C       -9.18371         1.43015        -0.76514
| 43>    N       -8.73288         1.11319        -1.94923
| 44>    C       -7.97981         2.01638        -2.60076
| 45>    N       -6.48569         5.28609        -1.88238
| 46>    C       -5.95306         6.49422        -2.28119
| 47>    C       -5.76115         6.94625        -3.55576
| 48>    S       -5.20206         8.56957        -3.60241
| 49>    C       -5.21299         8.66548        -1.88907
| 50>    C       -5.62092         7.50076        -1.30548
| 51>    N       -5.75346         7.33029         0.06188
| 52>    C       -5.42033         6.20558         0.76555
| 53>    C       -5.55117         6.11285         2.11075
| 54>    C       -5.15808         4.98450         2.85765
| 55>    C       -5.28034         4.87983         4.21734
| 56>    C       -4.83158         3.82009         5.04334
| 57>    C       -5.06829         4.00234         6.37181
| 58>    C       -5.74180         5.20540         6.67809
| 59>    S       -6.04391         6.11700         5.21326
| 60>    C       -6.15626         5.65612         7.91573
| 61>    C       -5.92784         5.06648         9.17823
| 62>    C       -6.48705         5.74827        10.21487
| 63>    C       -7.21164         6.91004         9.84208
| 64>    S       -7.10872         7.11389         8.09740
| 65>    C       -7.90081         7.71532        10.71056
| 66>    C       -8.71819         8.83450        10.44277
| 67>    C       -9.43131         9.53774        11.41548
| 68>    C      -10.18891        10.55695        10.78384
| 69>    C      -11.07043        11.48933        11.27791
| 70>    C      -11.69393        12.35399        10.35919
| 71>    C      -12.62614        13.36253        10.53298
| 72>    C      -12.94447        13.93094         9.25536
| 73>    C      -12.20177        13.27124         8.29684
| 74>    C      -11.40409        12.27027         8.93781
| 75>    C      -10.52368        11.34921         8.44230
| 76>    C       -9.90620        10.47069         9.36098
| 77>    C       -9.01779         9.43352         9.16849
| 78>    C      -13.87877        14.99836         8.99300
| 79>    C      -14.62338        15.61986         9.90382
| 80>    H      -13.15973         1.22048        -3.81569
| 81>    H      -11.70002        -3.08844        -5.91109
| 82>    H      -15.75086         0.18242        -4.09275
| 83>    H       -7.15254         0.10221        -5.24825
| 84>    H       -6.03599         2.34454        -5.35743
| 85>    H       -5.36886         4.39362        -4.22464
| 86>    H       -9.29256         2.93892         0.80479
| 87>    H       -9.77586         0.68129        -0.25646
| 88>    H       -6.95454         5.28104        -0.97882
| 89>    H       -5.97350         6.44785        -4.47790
| 90>    H       -4.91955         9.57355        -1.40264
| 91>    H       -5.88183         8.17306         0.60508
| 92>    H       -5.02608         5.38272         0.18782
| 93>    H       -5.95862         6.95101         2.66165
| 94>    H       -4.70821         4.15383         2.33030
| 95>    H       -4.33840         2.95968         4.62577
| 96>    H       -4.78953         3.30036         7.13737
| 97>    H       -5.35427         4.16341         9.28711
| 98>    H       -6.41524         5.44783        11.24575
| 99>    H       -7.83507         7.43085        11.75471
|100>    H       -9.42056         9.33403        12.47055
|101>    H      -11.29106        11.55827        12.33394
|102>    H      -13.04735        13.67294        11.47162
|103>    H      -12.21492        13.46422         7.23947
|104>    H      -10.30363        11.27600         7.38631
|105>    H       -8.61658         9.11780         8.22360
|106>    H      -13.95825        15.28665         7.95161
|107>    H      -14.58500        15.36512        10.94902
|108>    H      -15.30639        16.40590         9.63160
|109> *
|110>
|111>                          ****END OF INPUT****

CARTESIAN COORDINATES (ANGSTROEM)
---------------------------------
  C     -9.625770   -1.161930   -5.164080
  C     -8.833720   -2.185450   -5.622110
  C     -9.328230   -3.410120   -6.113800
  N     -9.671150   -4.423090   -6.532540
  C     -7.424650   -2.167840   -5.656910
  N     -6.279210   -2.239100   -5.709810
  C    -11.079960   -1.193160   -5.070960
  C    -11.524440    0.015100   -4.481390
  C    -12.852370    0.287740   -4.262270
  C    -13.789250   -0.682020   -4.635070
  C    -13.336380   -1.885730   -5.224610
  C    -11.993540   -2.159430   -5.451700
  S    -14.660160   -2.941410   -5.618880
  C    -15.787170   -1.767080   -4.993290
  C    -15.205520   -0.642620   -4.513490
  Br   -17.626120   -2.135790   -5.033830
  C    -10.363110    0.883780   -4.200340
  O    -10.413970    2.037560   -3.828360
  C     -9.172380    0.101620   -4.619150
  C     -7.899480    0.588270   -4.633640
  C     -7.465520    1.736340   -3.901290
  C     -6.488680    2.587420   -4.406900
  C     -6.123000    3.767640   -3.776940
  C     -6.712440    4.141820   -2.577180
  C     -7.611830    3.220280   -1.952110
  N     -8.095220    3.530690   -0.735740
  C     -8.896230    2.667630   -0.163790
  C     -9.183710    1.430150   -0.765140
  N     -8.732880    1.113190   -1.949230
  C     -7.979810    2.016380   -2.600760
  N     -6.485690    5.286090   -1.882380
  C     -5.953060    6.494220   -2.281190
  C     -5.761150    6.946250   -3.555760
  S     -5.202060    8.569570   -3.602410
  C     -5.212990    8.665480   -1.889070
  C     -5.620920    7.500760   -1.305480
  N     -5.753460    7.330290    0.061880
  C     -5.420330    6.205580    0.765550
  C     -5.551170    6.112850    2.110750
  C     -5.158080    4.984500    2.857650
  C     -5.280340    4.879830    4.217340
  C     -4.831580    3.820090    5.043340
  C     -5.068290    4.002340    6.371810
  C     -5.741800    5.205400    6.678090
  S     -6.043910    6.117000    5.213260
  C     -6.156260    5.656120    7.915730
  C     -5.927840    5.066480    9.178230
  C     -6.487050    5.748270   10.214870
  C     -7.211640    6.910040    9.842080
  S     -7.108720    7.113890    8.097400
  C     -7.900810    7.715320   10.710560
  C     -8.718190    8.834500   10.442770
  C     -9.431310    9.537740   11.415480
  C    -10.188910   10.556950   10.783840
  C    -11.070430   11.489330   11.277910
  C    -11.693930   12.353990   10.359190
  C    -12.626140   13.362530   10.532980
  C    -12.944470   13.930940    9.255360
  C    -12.201770   13.271240    8.296840
  C    -11.404090   12.270270    8.937810
  C    -10.523680   11.349210    8.442300
  C     -9.906200   10.470690    9.360980
  C     -9.017790    9.433520    9.168490
  C    -13.878770   14.998360    8.993000
  C    -14.623380   15.619860    9.903820
  H    -13.159730    1.220480   -3.815690
  H    -11.700020   -3.088440   -5.911090
  H    -15.750860    0.182420   -4.092750
  H     -7.152540    0.102210   -5.248250
  H     -6.035990    2.344540   -5.357430
  H     -5.368860    4.393620   -4.224640
  H     -9.292560    2.938920    0.804790
  H     -9.775860    0.681290   -0.256460
  H     -6.954540    5.281040   -0.978820
  H     -5.973500    6.447850   -4.477900
  H     -4.919550    9.573550   -1.402640
  H     -5.881830    8.173060    0.605080
  H     -5.026080    5.382720    0.187820
  H     -5.958620    6.951010    2.661650
  H     -4.708210    4.153830    2.330300
  H     -4.338400    2.959680    4.625770
  H     -4.789530    3.300360    7.137370
  H     -5.354270    4.163410    9.287110
  H     -6.415240    5.447830   11.245750
  H     -7.835070    7.430850   11.754710
  H     -9.420560    9.334030   12.470550
  H    -11.291060   11.558270   12.333940
  H    -13.047350   13.672940   11.471620
  H    -12.214920   13.464220    7.239470
  H    -10.303630   11.276000    7.386310
  H     -8.616580    9.117800    8.223600
  H    -13.958250   15.286650    7.951610
  H    -14.585000   15.365120   10.949020
  H    -15.306390   16.405900    9.631600

 Total Charge           Charge          ....    0
 Multiplicity           Mult            ....    1
 Number of Electrons    NEL             ....  496
 Basis Dimension        Dim             .... 1089

ORBITAL ENERGIES
----------------

  NO   OCC          E(Eh)            E(eV)
   0   2.0000    -482.883588    -13139.9305
   1   2.0000     -88.972299     -2421.0593
   2   2.0000     -88.959138     -2420.7012
   3   2.0000     -88.930678     -2419.9268
   4   2.0000     -88.929732     -2419.9010
   5   2.0000     -62.561323     -1702.3802
   6   2.0000     -56.395270     -1534.5933
   7   2.0000     -56.392557     -1534.5195
   8   2.0000     -56.392525     -1534.5186
   9   2.0000     -19.207980      -522.6757
  10   2.0000     -14.457068      -393.3968
  11   2.0000     -14.455496      -393.3541
  12   2.0000     -14.438961      -392.9041
  13   2.0000     -14.427293      -392.5866
  14   2.0000     -14.409548      -392.1037
  15   2.0000     -14.409409      -392.0999
  16   2.0000     -10.359806      -281.9046
  17   2.0000     -10.356286      -281.8089
  18   2.0000     -10.343395      -281.4581
  19   2.0000     -10.335120      -281.2329
  20   2.0000     -10.334471      -281.2152
  21   2.0000     -10.328462      -281.0517
  22   2.0000     -10.326248      -280.9915
  23   2.0000     -10.325431      -280.9693
  24   2.0000     -10.324188      -280.9354
  25   2.0000     -10.323759      -280.9238
  26   2.0000     -10.322724      -280.8956
  27   2.0000     -10.321910      -280.8734
  28   2.0000     -10.319215      -280.8001
  29   2.0000     -10.312759      -280.6244
  30   2.0000     -10.312644      -280.6213
  31   2.0000     -10.308402      -280.5059
  32   2.0000     -10.304303      -280.3943
  33   2.0000     -10.303284      -280.3666
  34   2.0000     -10.301406      -280.3155
  35   2.0000     -10.299442      -280.2621
  36   2.0000     -10.296865      -280.1919
  37   2.0000     -10.296345      -280.1778
  38   2.0000     -10.295395      -280.1519
  39   2.0000     -10.295145      -280.1451
  40   2.0000     -10.294192      -280.1192
  41   2.0000     -10.293028      -280.0875
  42   2.0000     -10.291603      -280.0487
  43   2.0000     -10.291581      -280.0482
  44   2.0000     -10.291138      -280.0361
  45   2.0000     -10.289730      -279.9978
  46   2.0000     -10.288338      -279.9599
  47   2.0000     -10.287160      -279.9278
  48   2.0000     -10.285758      -279.8897
  49   2.0000     -10.283836      -279.8374
  50   2.0000     -10.277394      -279.6621
  51   2.0000     -10.275061      -279.5986
  52   2.0000     -10.273422      -279.5540
  53   2.0000     -10.273308      -279.5509
  54   2.0000     -10.272789      -279.5368
  55   2.0000     -10.272533      -279.5298
  56   2.0000     -10.269656      -279.4516
  57   2.0000     -10.265949      -279.3507
  58   2.0000     -10.265371      -279.3350
  59   2.0000     -10.264333      -279.3067
  60   2.0000     -10.264330      -279.3066
  61   2.0000     -10.263450      -279.2827
  62   2.0000     -10.262324      -279.2520
  63   2.0000     -10.261712      -279.2354
  64   2.0000     -10.259117      -279.1648
  65   2.0000     -10.258315      -279.1429
  66   2.0000     -10.258228      -279.1406
  67   2.0000     -10.257644      -279.1247
  68   2.0000     -10.252981      -278.9978
  69   2.0000      -8.790766      -239.2089
  70   2.0000      -8.068373      -219.5516
  71   2.0000      -8.055110      -219.1907
  72   2.0000      -8.026619      -218.4154
  73   2.0000      -8.026126      -218.4020
  74   2.0000      -6.627061      -180.3315
  75   2.0000      -6.612503      -179.9354
  76   2.0000      -6.612305      -179.9300
  77   2.0000      -6.038076      -164.3044
  78   2.0000      -6.033798      -164.1880
  79   2.0000      -6.029547      -164.0723
  80   2.0000      -6.024551      -163.9364
  81   2.0000      -6.020261      -163.8196
  82   2.0000      -6.017069      -163.7328
  83   2.0000      -5.996422      -163.1710
  84   2.0000      -5.995891      -163.1565
  85   2.0000      -5.992425      -163.0622
  86   2.0000      -5.991970      -163.0498
  87   2.0000      -5.987448      -162.9268
  88   2.0000      -5.986891      -162.9116
  89   2.0000      -2.742920       -74.6386
  90   2.0000      -2.738866       -74.5283
  91   2.0000      -2.738696       -74.5237
  92   2.0000      -2.727128       -74.2089
  93   2.0000      -2.727127       -74.2089
  94   2.0000      -1.123646       -30.5760
  95   2.0000      -1.093720       -29.7616
  96   2.0000      -1.073111       -29.2008
  97   2.0000      -1.047858       -28.5137
  98   2.0000      -1.018321       -27.7099
  99   2.0000      -1.009142       -27.4602
 100   2.0000      -1.007800       -27.4236
 101   2.0000      -0.988154       -26.8890
 102   2.0000      -0.984026       -26.7767
 103   2.0000      -0.981021       -26.6950
 104   2.0000      -0.978358       -26.6225
 105   2.0000      -0.977010       -26.5858
 106   2.0000      -0.959352       -26.1053
 107   2.0000      -0.955391       -25.9975
 108   2.0000      -0.951281       -25.8857
 109   2.0000      -0.936919       -25.4949
 110   2.0000      -0.904012       -24.5994
 111   2.0000      -0.897143       -24.4125
 112   2.0000      -0.896034       -24.3823
 113   2.0000      -0.889797       -24.2126
 114   2.0000      -0.881959       -23.9993
 115   2.0000      -0.870508       -23.6877
 116   2.0000      -0.865947       -23.5636
 117   2.0000      -0.864282       -23.5183
 118   2.0000      -0.855965       -23.2920
 119   2.0000      -0.847366       -23.0580
 120   2.0000      -0.838789       -22.8246
 121   2.0000      -0.833457       -22.6795
 122   2.0000      -0.829290       -22.5661
 123   2.0000      -0.825376       -22.4596
 124   2.0000      -0.808837       -22.0096
 125   2.0000      -0.807597       -21.9758
 126   2.0000      -0.803710       -21.8701
 127   2.0000      -0.789948       -21.4956
 128   2.0000      -0.778345       -21.1799
 129   2.0000      -0.768453       -20.9107
 130   2.0000      -0.762534       -20.7496
 131   2.0000      -0.757421       -20.6105
 132   2.0000      -0.752556       -20.4781
 133   2.0000      -0.749778       -20.4025
 134   2.0000      -0.736717       -20.0471
 135   2.0000      -0.727148       -19.7867
 136   2.0000      -0.718016       -19.5382
 137   2.0000      -0.704083       -19.1591
 138   2.0000      -0.693094       -18.8600
 139   2.0000      -0.692629       -18.8474
 140   2.0000      -0.684920       -18.6376
 141   2.0000      -0.674164       -18.3449
 142   2.0000      -0.669812       -18.2265
 143   2.0000      -0.662158       -18.0182
 144   2.0000      -0.659237       -17.9388
 145   2.0000      -0.657001       -17.8779
 146   2.0000      -0.653893       -17.7933
 147   2.0000      -0.650630       -17.7045
 148   2.0000      -0.636326       -17.3153
 149   2.0000      -0.634115       -17.2551
 150   2.0000      -0.632134       -17.2012
 151   2.0000      -0.631036       -17.1714
 152   2.0000      -0.618934       -16.8420
 153   2.0000      -0.616341       -16.7715
 154   2.0000      -0.611770       -16.6471
 155   2.0000      -0.609677       -16.5902
 156   2.0000      -0.605238       -16.4694
 157   2.0000      -0.600191       -16.3320
 158   2.0000      -0.597966       -16.2715
 159   2.0000      -0.591241       -16.0885
 160   2.0000      -0.582907       -15.8617
 161   2.0000      -0.577782       -15.7223
 162   2.0000      -0.573333       -15.6012
 163   2.0000      -0.570346       -15.5199
 164   2.0000      -0.569207       -15.4889
 165   2.0000      -0.565645       -15.3920
 166   2.0000      -0.552913       -15.0455
 167   2.0000      -0.550576       -14.9819
 168   2.0000      -0.544185       -14.8080
 169   2.0000      -0.541978       -14.7480
 170   2.0000      -0.537043       -14.6137
 171   2.0000      -0.534974       -14.5574
 172   2.0000      -0.533464       -14.5163
 173   2.0000      -0.531147       -14.4533
 174   2.0000      -0.527478       -14.3534
 175   2.0000      -0.522981       -14.2310
 176   2.0000      -0.518429       -14.1072
 177   2.0000      -0.515728       -14.0337
 178   2.0000      -0.514390       -13.9973
 179   2.0000      -0.511812       -13.9271
 180   2.0000      -0.510658       -13.8957
 181   2.0000      -0.504307       -13.7229
 182   2.0000      -0.503507       -13.7011
 183   2.0000      -0.499779       -13.5997
 184   2.0000      -0.495076       -13.4717
 185   2.0000      -0.490181       -13.3385
 186   2.0000      -0.488058       -13.2807
 187   2.0000      -0.487975       -13.2785
 188   2.0000      -0.487134       -13.2556
 189   2.0000      -0.485345       -13.2069
 190   2.0000      -0.482444       -13.1280
 191   2.0000      -0.481171       -13.0933
 192   2.0000      -0.478251       -13.0139
 193   2.0000      -0.476990       -12.9796
 194   2.0000      -0.471220       -12.8225
 195   2.0000      -0.467056       -12.7092
 196   2.0000      -0.465631       -12.6705
 197   2.0000      -0.465148       -12.6573
 198   2.0000      -0.461123       -12.5478
 199   2.0000      -0.457142       -12.4395
 200   2.0000      -0.454546       -12.3688
 201   2.0000      -0.454316       -12.3626
 202   2.0000      -0.449639       -12.2353
 203   2.0000      -0.448763       -12.2115
 204   2.0000      -0.444115       -12.0850
 205   2.0000      -0.443316       -12.0632
 206   2.0000      -0.442575       -12.0431
 207   2.0000      -0.441603       -12.0166
 208   2.0000      -0.440590       -11.9891
 209   2.0000      -0.439131       -11.9494
 210   2.0000      -0.437350       -11.9009
 211   2.0000      -0.434543       -11.8245
 212   2.0000      -0.431975       -11.7546
 213   2.0000      -0.430002       -11.7010
 214   2.0000      -0.421227       -11.4622
 215   2.0000      -0.418204       -11.3799
 216   2.0000      -0.416335       -11.3290
 217   2.0000      -0.414732       -11.2854
 218   2.0000      -0.407904       -11.0996
 219   2.0000      -0.406843       -11.0708
 220   2.0000      -0.402454       -10.9513
 221   2.0000      -0.402032       -10.9399
 222   2.0000      -0.397098       -10.8056
 223   2.0000      -0.396910       -10.8005
 224   2.0000      -0.395249       -10.7553
 225   2.0000      -0.383690       -10.4407
 226   2.0000      -0.382746       -10.4150
 227   2.0000      -0.377601       -10.2751
 228   2.0000      -0.373015       -10.1503
 229   2.0000      -0.368963       -10.0400
 230   2.0000      -0.359370        -9.7790
 231   2.0000      -0.352136        -9.5821
 232   2.0000      -0.344705        -9.3799
 233   2.0000      -0.340547        -9.2667
 234   2.0000      -0.331287        -9.0148
 235   2.0000      -0.327180        -8.9030
 236   2.0000      -0.326553        -8.8860
 237   2.0000      -0.321972        -8.7613
 238   2.0000      -0.311689        -8.4815
 239   2.0000      -0.311232        -8.4691
 240   2.0000      -0.305653        -8.3172
 241   2.0000      -0.298219        -8.1150
 242   2.0000      -0.289694        -7.8830
 243   2.0000      -0.269564        -7.3352
 244   2.0000      -0.261669        -7.1204
 245   2.0000      -0.255339        -6.9481
 246   2.0000      -0.238195        -6.4816
 247   2.0000      -0.188883        -5.1398
 248   0.0000      -0.088419        -2.4060
 249   0.0000      -0.085306        -2.3213
 250   0.0000      -0.055828        -1.5192
 251   0.0000      -0.055467        -1.5093
 252   0.0000      -0.038112        -1.0371

MULLIKEN ATOMIC CHARGES
-----------------------
   0 C :    0.304620
   1 C :   -0.348999
   2 C :   -0.186001
   3 N :    0.148514
   4 C :   -0.198819
   5 N :    0.150899
   6 C :    0.016329
   7 C :   -0.016617
   8 C :   -0.075984
   9 C :    0.118918
  10 C :   -0.089783
  11 C :   -0.024058
  12 S :    0.184279
  13 C :   -0.122987
  14 C :    0.036272
  15 Br:    0.021157
  16 C :    0.148956
  17 O :   -0.157354
  18 C :   -0.060675
  19 C :   -0.047169
  20 C :    0.093136
  21 C :   -0.007562
  22 C :   -0.130840
  23 C :    0.129731
  24 C :   -0.013578
  25 N :   -0.053358
  26 C :    0.035953
  27 C :    0.035896
  28 N :   -0.015728
  29 C :   -0.014467
  30 N :   -0.018334
  31 C :    0.125794
  32 C :   -0.205936
  33 S :    0.121855
  34 C :   -0.177088
  35 C :    0.106527
  36 N :   -0.062892
  37 C :    0.044780
  38 C :   -0.014319
  39 C :   -0.017793
  40 C :   -0.031979
  41 C :    0.035279
  42 C :    0.016652
  43 C :   -0.045143
  44 S :    0.046422
  45 C :   -0.039820
  46 C :    0.026879
  47 C :    0.025803
  48 C :   -0.018363
  49 S :    0.033277
  50 C :   -0.025674
  51 C :    0.068128
  52 C :   -0.049413
  53 C :    0.073635
  54 C :   -0.007837
  55 C :    0.049458
  56 C :   -0.024980
  57 C :    0.063666
  58 C :   -0.034240
  59 C :    0.059942
  60 C :   -0.002827
  61 C :    0.038609
  62 C :   -0.027000
  63 C :    0.012471
  64 C :   -0.029738
  65 H :   -0.014473
  66 H :   -0.007390
  67 H :   -0.004280
  68 H :    0.027102
  69 H :   -0.008660
  70 H :   -0.022539
  71 H :    0.017222
  72 H :    0.015685
  73 H :    0.142963
  74 H :    0.022639
  75 H :    0.007713
  76 H :    0.128535
  77 H :    0.018756
  78 H :   -0.013938
  79 H :   -0.022398
  80 H :   -0.020010
  81 H :   -0.019803
  82 H :   -0.019695
  83 H :   -0.019309
  84 H :   -0.029261
  85 H :   -0.033489
  86 H :   -0.028827
  87 H :   -0.027631
  88 H :   -0.031358
  89 H :   -0.027647
  90 H :   -0.010764
  91 H :   -0.021307
  92 H :    0.007093
  93 H :    0.018589
Sum of atomic charges:   -0.0000000

LOEWDIN ATOMIC CHARGES
----------------------
   0 C :    0.077787
   1 C :   -0.143698
   2 C :   -0.018191
   3 N :   -0.058277
   4 C :   -0.021269
   5 N :   -0.056320
   6 C :   -0.020197
   7 C :   -0.047165
   8 C :    0.018642
   9 C :   -0.033346
  10 C :   -0.144480
  11 C :   -0.010529
  12 S :    0.430181
  13 C :   -0.272122
  14 C :   -0.071361
  15 Br:    0.134624
  16 C :    0.085872
  17 O :   -0.149595
  18 C :   -0.089246
  19 C :    0.082474
  20 C :   -0.067184
  21 C :    0.035182
  22 C :   -0.077694
  23 C :    0.056494
  24 C :   -0.024832
  25 N :   -0.042162
  26 C :    0.007498
  27 C :    0.014590
  28 N :   -0.026142
  29 C :    0.023424
  30 N :    0.041366
  31 C :   -0.027655
  32 C :   -0.225215
  33 S :    0.442533
  34 C :   -0.223761
  35 C :   -0.033183
  36 N :    0.019546
  37 C :    0.030429
  38 C :   -0.101702
  39 C :   -0.049396
  40 C :   -0.164715
  41 C :   -0.035520
  42 C :   -0.043875
  43 C :   -0.178650
  44 S :    0.346213
  45 C :   -0.188784
  46 C :   -0.039894
  47 C :   -0.038432
  48 C :   -0.151865
  49 S :    0.360343
  50 C :   -0.057812
  51 C :   -0.058539
  52 C :   -0.000296
  53 C :   -0.054855
  54 C :    0.062552
  55 C :   -0.060434
  56 C :    0.040093
  57 C :   -0.059339
  58 C :    0.007581
  59 C :   -0.058124
  60 C :    0.066231
  61 C :   -0.061544
  62 C :    0.030733
  63 C :   -0.020472
  64 C :   -0.058463
  65 H :    0.039219
  66 H :    0.040653
  67 H :    0.038286
  68 H :    0.043960
  69 H :    0.037680
  70 H :    0.032308
  71 H :    0.029238
  72 H :    0.028335
  73 H :    0.080391
  74 H :    0.022276
  75 H :    0.022080
  76 H :    0.091397
  77 H :    0.029207
  78 H :    0.018313
  79 H :    0.030117
  80 H :    0.030373
  81 H :    0.029228
  82 H :    0.029404
  83 H :    0.030302
  84 H :    0.032725
  85 H :    0.021402
  86 H :    0.032993
  87 H :    0.023477
  88 H :    0.022442
  89 H :    0.033740
  90 H :    0.013333
  91 H :    0.028466
  92 H :    0.017196
  93 H :    0.023406

  Mayer bond orders larger than 0.100000
B(  0-C ,  1-C ) :   1.6288 B(  0-C ,  6-C ) :   1.0025 B(  0-C , 18-C ) :   1.0846
B(  1-C ,  2-C ) :   1.1430 B(  1-C ,  4-C ) :   1.1451 B(  2-C ,  3-N ) :   2.9690
B(  4-C ,  5-N ) :   2.9782 B(  6-C ,  7-C ) :   1.2751 B(  6-C , 11-C ) :   1.4083
B(  7-C ,  8-C ) :   1.4240 B(  7-C , 16-C ) :   0.9434 B(  8-C ,  9-C ) :   1.2461
B(  8-C , 65-H ) :   1.0162 B(  9-C , 10-C ) :   1.3074 B(  9-C , 14-C ) :   1.1605
B( 10-C , 11-C ) :   1.3310 B( 10-C , 12-S ) :   1.0839 B( 11-C , 66-H ) :   0.9791
B( 12-S , 13-C ) :   1.0859 B( 13-C , 14-C ) :   1.6205 B( 13-C , 15-Br) :   1.0178
B( 14-C , 67-H ) :   0.9997 B( 16-C , 17-O ) :   2.2144 B( 16-C , 18-C ) :   0.9389
B( 18-C , 19-C ) :   1.6170 B( 19-C , 20-C ) :   1.1167 B( 19-C , 68-H ) :   0.9435
B( 20-C , 21-C ) :   1.3600 B( 20-C , 29-C ) :   1.1924 B( 21-C , 22-C ) :   1.2534
B( 21-C , 69-H ) :   1.0016 B( 22-C , 23-C ) :   1.3588 B( 22-C , 70-H ) :   1.0205
B( 23-C , 24-C ) :   1.1918 B( 23-C , 30-N ) :   1.2712 B( 24-C , 25-N ) :   1.4339
B( 24-C , 29-C ) :   1.2868 B( 25-N , 26-C ) :   1.6344 B( 26-C , 27-C ) :   1.2412
B( 26-C , 71-H ) :   0.9755 B( 27-C , 28-N ) :   1.6413 B( 27-C , 72-H ) :   0.9745
B( 28-N , 29-C ) :   1.4592 B( 30-N , 31-C ) :   1.0883 B( 30-N , 73-H ) :   0.8607
B( 31-C , 32-C ) :   1.5198 B( 31-C , 35-C ) :   1.2509 B( 32-C , 33-S ) :   1.1549
B( 32-C , 74-H ) :   0.9714 B( 33-S , 34-C ) :   1.1517 B( 34-C , 35-C ) :   1.5340
B( 34-C , 75-H ) :   0.9784 B( 35-C , 36-N ) :   1.0864 B( 36-N , 37-C ) :   1.1320
B( 36-N , 76-H ) :   0.9232 B( 37-C , 38-C ) :   1.6508 B( 37-C , 77-H ) :   0.9657
B( 38-C , 39-C ) :   1.1558 B( 38-C , 78-H ) :   0.9633 B( 39-C , 40-C ) :   1.5991
B( 39-C , 79-H ) :   0.9788 B( 40-C , 41-C ) :   1.1412 B( 40-C , 44-S ) :   1.0135
B( 41-C , 42-C ) :   1.5929 B( 41-C , 80-H ) :   0.9976 B( 42-C , 43-C ) :   1.1885
B( 42-C , 81-H ) :   0.9930 B( 43-C , 44-S ) :   1.0397 B( 43-C , 45-C ) :   1.5146
B( 45-C , 46-C ) :   1.1884 B( 45-C , 49-S ) :   1.0294 B( 46-C , 47-C ) :   1.5902
B( 46-C , 82-H ) :   0.9925 B( 47-C , 48-C ) :   1.1399 B( 47-C , 83-H ) :   0.9994
B( 48-C , 49-S ) :   1.0195 B( 48-C , 50-C ) :   1.5798 B( 50-C , 51-C ) :   1.1315
B( 50-C , 84-H ) :   0.9689 B( 51-C , 52-C ) :   1.4483 B( 51-C , 62-C ) :   1.1244
B( 52-C , 53-C ) :   1.1037 B( 52-C , 85-H ) :   1.0199 B( 53-C , 54-C ) :   1.4491
B( 53-C , 61-C ) :   1.1245 B( 54-C , 55-C ) :   1.1269 B( 54-C , 86-H ) :   1.0043
B( 55-C , 56-C ) :   1.4486 B( 55-C , 59-C ) :   1.1258 B( 56-C , 57-C ) :   1.1382
B( 56-C , 87-H ) :   1.0079 B( 57-C , 58-C ) :   1.5137 B( 57-C , 63-C ) :   1.0865
B( 58-C , 59-C ) :   1.0813 B( 58-C , 88-H ) :   1.0167 B( 59-C , 60-C ) :   1.4724
B( 60-C , 61-C ) :   1.1213 B( 60-C , 89-H ) :   1.0036 B( 61-C , 62-C ) :   1.4678
B( 62-C , 90-H ) :   0.9913 B( 63-C , 64-C ) :   1.9290 B( 63-C , 91-H ) :   0.9666
B( 64-C , 92-H ) :   0.9528 B( 64-C , 93-H ) :   0.9501

-----------------------------------------------------------------------------
         ABSORPTION SPECTRUM VIA TRANSITION ELECTRIC DIPOLE MOMENTS
-----------------------------------------------------------------------------
State   Energy  Wavelength   fosc         T2         TX        TY        TZ
        (cm-1)    (nm)                  (au**2)     (au)      (au)      (au)
-----------------------------------------------------------------------------
   0    5840.3   1712.2   0.021116830   1.19033  -0.50113   0.57871   0.77736
   1   13458.0    743.1   0.010777470   0.26364  -0.12142  -0.41269  -0.28032
   2   14599.8    684.9   0.125928563   2.83957   0.60477  -0.67645  -1.41994
   3   15929.6    627.8   1.629399178  33.67419  -2.15375   2.77253   4.62046
   4   19407.2    515.3   0.010436571   0.17704   0.14660   0.36646   0.14579
   5   20562.1    486.3   0.731894509  11.71811  -2.02717  -2.60008  -0.92102
   6   22503.9    444.4   0.139122132   2.03523  -0.98672   1.02521  -0.10282
   7   22675.3    441.0   0.000971071   0.01410  -0.09502  -0.02615  -0.06622
   8   24661.6    405.5   0.014087975   0.18806   0.21386  -0.31029  -0.21458
   9   25236.6    396.3   0.005315331   0.06934   0.05531   0.21745   0.13783
  10   25568.7    391.1   0.095067489   1.22405  -0.14493   0.43047  -1.00883
  11   26013.7    384.4   0.017451255   0.22085   0.46727   0.04743   0.01607
  12   27080.3    369.3   0.017736399   0.21562  -0.41987   0.19052   0.05500
  13   27882.2    358.7   1.373900914  16.22200   1.91458  -2.96686   1.93757
  14   28455.2    351.4   0.319303506   3.69417  -1.90621   0.20736   0.13241
  15   28824.4    346.9   0.148535045   1.69647   0.99232   0.81661  -0.21192
  16   29241.0    342.0   0.238133196   2.68104   0.73120  -1.33403   0.60560
  17   29568.1    338.2   0.022601375   0.25164   0.23913  -0.39300   0.20004
  18   30022.0    333.1   0.036606875   0.40142   0.29553  -0.53635   0.16250
  19   30352.9    329.5   0.035042827   0.38008   0.37937  -0.45299  -0.17596
  20   30523.3    327.6   0.007798609   0.08411  -0.28651  -0.03831   0.02360
  21   30712.9    325.6   0.003667645   0.03931  -0.10238  -0.11041  -0.12900
  22   31046.8    322.1   0.018044397   0.19134   0.41848   0.00781   0.12710
  23   31564.5    316.8   0.025316938   0.26405  -0.13412   0.47191   0.15287
  24   31740.5    315.1   0.005712045   0.05925  -0.06924  -0.18507  -0.14213
  25   32062.9    311.9   0.060285154   0.61899   0.72926  -0.28492   0.07741
  26   32330.3    309.3   0.047105007   0.47966  -0.51408   0.45805   0.07466
  27   32433.4    308.3   0.008364454   0.08490   0.04849   0.26701   0.10611
  28   32511.4    307.6   0.000272537   0.00276   0.01866  -0.04856  -0.00730
  29   32706.2    305.8   0.157784009   1.58821   0.72468  -1.03047   0.03435
  30   33401.0    299.4   0.005194758   0.05120   0.08596   0.20887   0.01353
  31   33477.5    298.7   0.156724422   1.54120  -1.19336   0.00100  -0.34219
  32   33706.1    296.7   0.029518260   0.28831  -0.40542   0.16703  -0.30991
  33   34078.4    293.4   0.299898514   2.89715   1.41783  -0.73283  -0.59151
  34   34171.1    292.6   0.178835123   1.72293  -1.29188   0.21831   0.07955
  35   34482.4    290.0   0.003587445   0.03425  -0.08789  -0.12523  -0.10414
  36   34864.2    286.8   0.050470521   0.47658   0.56474  -0.35317  -0.18144
  37   35921.2    278.4   0.034583524   0.31695   0.15135  -0.23092   0.49063
  38   36395.4    274.8   0.010084888   0.09122  -0.01966   0.09476   0.28610
  39   36486.0    274.1   0.013287357   0.11989   0.01644   0.34055  -0.06041
  40   37138.5    269.3   0.041093980   0.36427   0.16276   0.52260  -0.25431
  41   37500.6    266.7   0.066052849   0.57987   0.48662  -0.57330   0.11999
  42   37722.3    265.1   0.215060432   1.87689   1.07108  -0.83319  -0.18832
  43   37945.0    263.5   0.062779712   0.54468  -0.41544  -0.51779   0.32246
  44   38120.2    262.3   0.063219398   0.54597   0.36334   0.00624  -0.64336
  45   38344.8    260.8   0.000438857   0.00377   0.00698  -0.05296   0.03023
  46   38448.8    260.1   0.043470526   0.37221   0.44930   0.40875   0.05714
  47   38574.8    259.2   0.021658824   0.18484  -0.19180   0.20983   0.32254
  48   38687.2    258.5   0.000206041   0.00175   0.01712  -0.00089  -0.03820
  49   38753.2    258.0   0.009308223   0.07907   0.20930  -0.18688   0.01862
  50   38855.2    257.4   0.108840791   0.92218   0.67210  -0.25568  -0.63647
  51   39154.9    255.4   0.066382517   0.55814   0.42378  -0.42364  -0.44618
  52   39684.0    252.0   0.015706817   0.13030   0.34096  -0.04566   0.10939
  53   39804.8    251.2   0.286968151   2.37341   0.41682   1.43796   0.36323
  54   40097.1    249.4   0.118667205   0.97430   0.25130  -0.95259  -0.06107

FINAL SINGLE POINT ENERGY     -6603.799444192138

DIPOLE MOMENT
-------------
                                X             Y             Z
Electronic contribution:    -95.71284    -124.58104    -126.15505
Nuclear contribution   :     95.12011     126.72665     127.10765
                        -----------------------------------------
Total Dipole Moment    :     -0.59273       2.14561       0.95260
                        -----------------------------------------
Magnitude (a.u.)       :      2.42124
Magnitude (Debye)      :      6.15430

Rotational constants in cm-1:     0.000920     0.000260     0.000232
Rotational constants in MHz :    27.570385     7.802399     6.969956

                             ****ORCA TERMINATED NORMALLY****
TOTAL RUN TIME: 0 days 0 hours 16 minutes 41 seconds 193 msec
