                         Program Version 4.2.0 -  RELEASE  -
|  1> # ORCA input file
|  2> # SCF done       -172.736904638065          0.000504639421
|  3> ! CAM-B3LYP def2-SVP def2/J RIJCOSX Grid4 TightSCF
|  4> %maxcore 5000
|  5> %tddft
|  6>     Mode sTDDFT
|  7>     Ethresh 5.0
|  8>     maxcore 5000
|  9> end
| 10>
| 11> %pal
| 12>   nprocs 6
| 13>   end
| 14> * xyz 0 1
| 15>    C      -11.30447         3.63263        -7.38734
| 16>    C      -11.38224         2.34441        -7.85873
| 17>    C      -10.94810         1.94119        -9.13750
| 18>    N      -10.61825         1.54527       -10.16415
| 19>    C      -11.89346         1.23755        -7.15188
| 20>    N      -12.28891         0.28045        -6.65370
| 21>    C      -10.76071         4.76513        -8.13341
| 22>    C      -10.82517         5.91932        -7.31678
| 23>    C      -10.38784         7.15190        -7.73521
| 24>    C       -9.86166         7.25302        -9.02733
| 25>    C       -9.80244         6.09550        -9.83796
| 26>    C      -10.24349         4.84803        -9.41265
| 27>    S       -9.12058         6.44372       -11.39864
| 28>    C       -8.92728         8.11656       -10.94460
| 29>    C       -9.35048         8.40236        -9.69098
| 30>   Br       -8.18723         9.32650       -12.17231
| 31>    C      -11.42164         5.56356        -6.01269
| 32>    O      -11.61061         6.32865        -5.08730
| 33>    C      -11.72449         4.11746        -6.09147
| 34>    C      -12.32224         3.38754        -5.09134
| 35>    C      -12.71798         3.92295        -3.85706
| 36>    C      -13.33220         3.18940        -2.88033
| 37>    C      -13.73041         3.76688        -1.66185
| 38>    O      -13.49319         5.08394        -1.42402
| 39>    C      -13.98423         5.40105        -0.20732
| 40>    C      -14.56537         4.26950         0.36241
| 41>    C      -14.39789         3.22173        -0.55899
| 42>    O      -14.79879         1.94409        -0.42569
| 43>    O      -15.19819         4.14232         1.55843
| 44>    C      -13.85093         6.72099         0.28909
| 45>    C      -13.24931         7.70770        -0.42303
| 46>    C      -13.06422         9.02576         0.05642
| 47>    C      -12.42513         9.98648        -0.65057
| 48>    N      -12.22607        11.23478        -0.14354
| 49>    C      -11.57222        12.26893        -0.71330
| 50>    S      -10.93919        12.18283        -2.32156
| 51>    C      -10.34666        13.81153        -2.15571
| 52>    N       -9.66912        14.35692        -3.24287
| 53>    O       -9.24675        15.49673        -3.14051
| 54>    O       -9.54638        13.64287        -4.22819
| 55>    C      -10.62160        14.37428        -0.93743
| 56>    C      -11.32697        13.50779        -0.08258
| 57>    C      -11.74743        13.76230         1.25572
| 58>    C      -11.52678        14.87377         2.00363
| 59>    C      -11.94554        15.03406         3.34437
| 60>    C      -12.67849        14.19008         4.14107
| 61>    C      -12.99594        14.43990         5.50369
| 62>    C      -13.73082        13.47269         6.11437
| 63>    C      -14.06688        12.38579         5.27432
| 64>    S      -13.38908        12.64568         3.67955
| 65>    C      -14.81342        11.26968         5.57404
| 66>    C      -15.37942        10.92272         6.82523
| 67>    C      -16.09342         9.76904         6.81106
| 68>    C      -16.15773         9.12711         5.54307
| 69>    S      -15.21635        10.05419         4.37372
| 70>    C      -16.87038         8.00440         5.24490
| 71>    C      -16.98744         7.43308         3.94894
| 72>    C      -17.81073         6.41130         3.63494
| 73>    C      -18.67696         5.73370         4.65644
| 74>    C      -18.00041         5.89015         2.23958
| 75>    N      -17.11087         6.45609         1.24613
| 76>    C      -17.20478         5.96218        -0.05065
| 77>    C      -16.90252         6.64827        -1.14350
| 78>    H      -10.45037         8.01202        -7.08710
| 79>    H      -10.17600         3.99815       -10.07070
| 80>    H       -9.30546         9.38127        -9.24948
| 81>    H      -12.51419         2.33499        -5.25472
| 82>    H      -12.53412         4.97052        -3.67272
| 83>    H      -13.54304         2.13747        -3.00947
| 84>    H      -15.22027         1.84643         0.43859
| 85>    H      -15.43671         5.02261         1.88134
| 86>    H      -14.24039         6.91497         1.27854
| 87>    H      -12.87412         7.47531        -1.40909
| 88>    H      -13.43860         9.26035         1.04588
| 89>    H      -12.03398         9.80426        -1.64058
| 90>    H      -12.58611        11.39162         0.79251
| 91>    H      -10.31731        15.37372        -0.68793
| 92>    H      -12.28401        12.95593         1.72834
| 93>    H      -10.97722        15.70103         1.57796
| 94>    H      -11.63836        15.95283         3.82807
| 95>    H      -12.65984        15.33851         5.99081
| 96>    H      -14.04958        13.51519         7.14035
| 97>    H      -15.23850        11.53787         7.69580
| 98>    H      -16.59549         9.35310         7.66681
| 99>    H      -17.41656         7.55073         6.05902
|100>    H      -16.38108         7.89685         3.18218
|101>    H      -19.40102         6.43318         5.07379
|102>    H      -18.07472         5.34739         5.47713
|103>    H      -19.22201         4.90487         4.21215
|104>    H      -19.06214         6.05286         1.97550
|105>    H      -17.84317         4.80364         2.24394
|106>    H      -17.09177         7.46903         1.26035
|107>    H      -17.49047         4.92000        -0.10602
|108>    H      -16.61415         7.68466        -1.10136
|109>    H      -16.91121         6.18537        -2.11139
|110> *
|111>
|112>                          ****END OF INPUT****

CARTESIAN COORDINATES (ANGSTROEM)
---------------------------------
  C    -11.304470    3.632630   -7.387340
  C    -11.382240    2.344410   -7.858730
  C    -10.948100    1.941190   -9.137500
  N    -10.618250    1.545270  -10.164150
  C    -11.893460    1.237550   -7.151880
  N    -12.288910    0.280450   -6.653700
  C    -10.760710    4.765130   -8.133410
  C    -10.825170    5.919320   -7.316780
  C    -10.387840    7.151900   -7.735210
  C     -9.861660    7.253020   -9.027330
  C     -9.802440    6.095500   -9.837960
  C    -10.243490    4.848030   -9.412650
  S     -9.120580    6.443720  -11.398640
  C     -8.927280    8.116560  -10.944600
  C     -9.350480    8.402360   -9.690980
  Br    -8.187230    9.326500  -12.172310
  C    -11.421640    5.563560   -6.012690
  O    -11.610610    6.328650   -5.087300
  C    -11.724490    4.117460   -6.091470
  C    -12.322240    3.387540   -5.091340
  C    -12.717980    3.922950   -3.857060
  C    -13.332200    3.189400   -2.880330
  C    -13.730410    3.766880   -1.661850
  O    -13.493190    5.083940   -1.424020
  C    -13.984230    5.401050   -0.207320
  C    -14.565370    4.269500    0.362410
  C    -14.397890    3.221730   -0.558990
  O    -14.798790    1.944090   -0.425690
  O    -15.198190    4.142320    1.558430
  C    -13.850930    6.720990    0.289090
  C    -13.249310    7.707700   -0.423030
  C    -13.064220    9.025760    0.056420
  C    -12.425130    9.986480   -0.650570
  N    -12.226070   11.234780   -0.143540
  C    -11.572220   12.268930   -0.713300
  S    -10.939190   12.182830   -2.321560
  C    -10.346660   13.811530   -2.155710
  N     -9.669120   14.356920   -3.242870
  O     -9.246750   15.496730   -3.140510
  O     -9.546380   13.642870   -4.228190
  C    -10.621600   14.374280   -0.937430
  C    -11.326970   13.507790   -0.082580
  C    -11.747430   13.762300    1.255720
  C    -11.526780   14.873770    2.003630
  C    -11.945540   15.034060    3.344370
  C    -12.678490   14.190080    4.141070
  C    -12.995940   14.439900    5.503690
  C    -13.730820   13.472690    6.114370
  C    -14.066880   12.385790    5.274320
  S    -13.389080   12.645680    3.679550
  C    -14.813420   11.269680    5.574040
  C    -15.379420   10.922720    6.825230
  C    -16.093420    9.769040    6.811060
  C    -16.157730    9.127110    5.543070
  S    -15.216350   10.054190    4.373720
  C    -16.870380    8.004400    5.244900
  C    -16.987440    7.433080    3.948940
  C    -17.810730    6.411300    3.634940
  C    -18.676960    5.733700    4.656440
  C    -18.000410    5.890150    2.239580
  N    -17.110870    6.456090    1.246130
  C    -17.204780    5.962180   -0.050650
  C    -16.902520    6.648270   -1.143500
  H    -10.450370    8.012020   -7.087100
  H    -10.176000    3.998150  -10.070700
  H     -9.305460    9.381270   -9.249480
  H    -12.514190    2.334990   -5.254720
  H    -12.534120    4.970520   -3.672720
  H    -13.543040    2.137470   -3.009470
  H    -15.220270    1.846430    0.438590
  H    -15.436710    5.022610    1.881340
  H    -14.240390    6.914970    1.278540
  H    -12.874120    7.475310   -1.409090
  H    -13.438600    9.260350    1.045880
  H    -12.033980    9.804260   -1.640580
  H    -12.586110   11.391620    0.792510
  H    -10.317310   15.373720   -0.687930
  H    -12.284010   12.955930    1.728340
  H    -10.977220   15.701030    1.577960
  H    -11.638360   15.952830    3.828070
  H    -12.659840   15.338510    5.990810
  H    -14.049580   13.515190    7.140350
  H    -15.238500   11.537870    7.695800
  H    -16.595490    9.353100    7.666810
  H    -17.416560    7.550730    6.059020
  H    -16.381080    7.896850    3.182180
  H    -19.401020    6.433180    5.073790
  H    -18.074720    5.347390    5.477130
  H    -19.222010    4.904870    4.212150
  H    -19.062140    6.052860    1.975500
  H    -17.843170    4.803640    2.243940
  H    -17.091770    7.469030    1.260350
  H    -17.490470    4.920000   -0.106020
  H    -16.614150    7.684660   -1.101360
  H    -16.911210    6.185370   -2.111390

 Total Charge           Charge          ....    0
 Multiplicity           Mult            ....    1
 Number of Electrons    NEL             ....  496
 Basis Dimension        Dim             .... 1076

ORBITAL ENERGIES
----------------

  NO   OCC          E(Eh)            E(eV)
   0   2.0000    -482.874324    -13139.6784
   1   2.0000     -88.982333     -2421.3324
   2   2.0000     -88.962463     -2420.7917
   3   2.0000     -88.959973     -2420.7239
   4   2.0000     -88.956812     -2420.6379
   5   2.0000     -62.552037     -1702.1275
   6   2.0000     -56.385978     -1534.3405
   7   2.0000     -56.383281     -1534.2671
   8   2.0000     -56.383242     -1534.2660
   9   2.0000     -19.289612      -524.8970
  10   2.0000     -19.268867      -524.3325
  11   2.0000     -19.263697      -524.1919
  12   2.0000     -19.229379      -523.2580
  13   2.0000     -19.228648      -523.2381
  14   2.0000     -19.198497      -522.4177
  15   2.0000     -14.641089      -398.4043
  16   2.0000     -14.487676      -394.2297
  17   2.0000     -14.436544      -392.8383
  18   2.0000     -14.399017      -391.8172
  19   2.0000     -14.397277      -391.7698
  20   2.0000     -10.369486      -282.1681
  21   2.0000     -10.349227      -281.6168
  22   2.0000     -10.349058      -281.6122
  23   2.0000     -10.346046      -281.5302
  24   2.0000     -10.341145      -281.3969
  25   2.0000     -10.338074      -281.3133
  26   2.0000     -10.337453      -281.2964
  27   2.0000     -10.336819      -281.2791
  28   2.0000     -10.329899      -281.0908
  29   2.0000     -10.323637      -280.9204
  30   2.0000     -10.323071      -280.9050
  31   2.0000     -10.322249      -280.8827
  32   2.0000     -10.321196      -280.8540
  33   2.0000     -10.320008      -280.8217
  34   2.0000     -10.318145      -280.7710
  35   2.0000     -10.315426      -280.6970
  36   2.0000     -10.311139      -280.5804
  37   2.0000     -10.306614      -280.4572
  38   2.0000     -10.305966      -280.4396
  39   2.0000     -10.302853      -280.3549
  40   2.0000     -10.301369      -280.3145
  41   2.0000     -10.300449      -280.2895
  42   2.0000     -10.298318      -280.2315
  43   2.0000     -10.296785      -280.1898
  44   2.0000     -10.296471      -280.1812
  45   2.0000     -10.295773      -280.1622
  46   2.0000     -10.294939      -280.1395
  47   2.0000     -10.294074      -280.1160
  48   2.0000     -10.293221      -280.0928
  49   2.0000     -10.293176      -280.0916
  50   2.0000     -10.292117      -280.0627
  51   2.0000     -10.291687      -280.0511
  52   2.0000     -10.290240      -280.0117
  53   2.0000     -10.290037      -280.0061
  54   2.0000     -10.288000      -279.9507
  55   2.0000     -10.287919      -279.9485
  56   2.0000     -10.285963      -279.8953
  57   2.0000     -10.285884      -279.8931
  58   2.0000     -10.285693      -279.8879
  59   2.0000     -10.284476      -279.8548
  60   2.0000     -10.284000      -279.8419
  61   2.0000     -10.283846      -279.8377
  62   2.0000     -10.283292      -279.8226
  63   2.0000     -10.275749      -279.6174
  64   2.0000     -10.273970      -279.5689
  65   2.0000     -10.262345      -279.2526
  66   2.0000     -10.251439      -278.9558
  67   2.0000      -8.781455      -238.9556
  68   2.0000      -8.077849      -219.8094
  69   2.0000      -8.058439      -219.2813
  70   2.0000      -8.055251      -219.1945
  71   2.0000      -8.052771      -219.1270
  72   2.0000      -6.617721      -180.0774
  73   2.0000      -6.603194      -179.6820
  74   2.0000      -6.603037      -179.6778
  75   2.0000      -6.047546      -164.5621
  76   2.0000      -6.043184      -164.4434
  77   2.0000      -6.039156      -164.3338
  78   2.0000      -6.028157      -164.0345
  79   2.0000      -6.025001      -163.9486
  80   2.0000      -6.023860      -163.9176
  81   2.0000      -6.022584      -163.8828
  82   2.0000      -6.021118      -163.8429
  83   2.0000      -6.019650      -163.8030
  84   2.0000      -6.018656      -163.7759
  85   2.0000      -6.016274      -163.7111
  86   2.0000      -6.013562      -163.6373
  87   2.0000      -2.733595       -74.3849
  88   2.0000      -2.729527       -74.2742
  89   2.0000      -2.729380       -74.2702
  90   2.0000      -2.717862       -73.9568
  91   2.0000      -2.717842       -73.9562
  92   2.0000      -1.308737       -35.6125
  93   2.0000      -1.213489       -33.0207
  94   2.0000      -1.165869       -31.7249
  95   2.0000      -1.147570       -31.2270
  96   2.0000      -1.127623       -30.6842
  97   2.0000      -1.112352       -30.2686
  98   2.0000      -1.094867       -29.7928
  99   2.0000      -1.035513       -28.1778
 100   2.0000      -1.007453       -27.4142
 101   2.0000      -1.004570       -27.3357
 102   2.0000      -1.001330       -27.2476
 103   2.0000      -0.997442       -27.1418
 104   2.0000      -0.982401       -26.7325
 105   2.0000      -0.977295       -26.5935
 106   2.0000      -0.972631       -26.4666
 107   2.0000      -0.931916       -25.3587
 108   2.0000      -0.930435       -25.3184
 109   2.0000      -0.927293       -25.2329
 110   2.0000      -0.922696       -25.1078
 111   2.0000      -0.911038       -24.7906
 112   2.0000      -0.897739       -24.4287
 113   2.0000      -0.893480       -24.3128
 114   2.0000      -0.893084       -24.3021
 115   2.0000      -0.887632       -24.1537
 116   2.0000      -0.877089       -23.8668
 117   2.0000      -0.871146       -23.7051
 118   2.0000      -0.869011       -23.6470
 119   2.0000      -0.860102       -23.4046
 120   2.0000      -0.857446       -23.3323
 121   2.0000      -0.841849       -22.9079
 122   2.0000      -0.838184       -22.8081
 123   2.0000      -0.834405       -22.7053
 124   2.0000      -0.830057       -22.5870
 125   2.0000      -0.814857       -22.1734
 126   2.0000      -0.809726       -22.0338
 127   2.0000      -0.803511       -21.8646
 128   2.0000      -0.783587       -21.3225
 129   2.0000      -0.774436       -21.0735
 130   2.0000      -0.768868       -20.9220
 131   2.0000      -0.753081       -20.4924
 132   2.0000      -0.742929       -20.2161
 133   2.0000      -0.737811       -20.0768
 134   2.0000      -0.728186       -19.8150
 135   2.0000      -0.720298       -19.6003
 136   2.0000      -0.712897       -19.3989
 137   2.0000      -0.703607       -19.1461
 138   2.0000      -0.694583       -18.9006
 139   2.0000      -0.689470       -18.7614
 140   2.0000      -0.684345       -18.6220
 141   2.0000      -0.676096       -18.3975
 142   2.0000      -0.674541       -18.3552
 143   2.0000      -0.668848       -18.2003
 144   2.0000      -0.660374       -17.9697
 145   2.0000      -0.648643       -17.6505
 146   2.0000      -0.647286       -17.6136
 147   2.0000      -0.644605       -17.5406
 148   2.0000      -0.641443       -17.4546
 149   2.0000      -0.635217       -17.2851
 150   2.0000      -0.628733       -17.1087
 151   2.0000      -0.625659       -17.0251
 152   2.0000      -0.623122       -16.9560
 153   2.0000      -0.622281       -16.9331
 154   2.0000      -0.618144       -16.8205
 155   2.0000      -0.610325       -16.6078
 156   2.0000      -0.608838       -16.5673
 157   2.0000      -0.601624       -16.3710
 158   2.0000      -0.598097       -16.2750
 159   2.0000      -0.593194       -16.1416
 160   2.0000      -0.589047       -16.0288
 161   2.0000      -0.586164       -15.9503
 162   2.0000      -0.580058       -15.7842
 163   2.0000      -0.575689       -15.6653
 164   2.0000      -0.572837       -15.5877
 165   2.0000      -0.570172       -15.5152
 166   2.0000      -0.567590       -15.4449
 167   2.0000      -0.562787       -15.3142
 168   2.0000      -0.555668       -15.1205
 169   2.0000      -0.552012       -15.0210
 170   2.0000      -0.546455       -14.8698
 171   2.0000      -0.540744       -14.7144
 172   2.0000      -0.538011       -14.6400
 173   2.0000      -0.533775       -14.5248
 174   2.0000      -0.531259       -14.4563
 175   2.0000      -0.526618       -14.3300
 176   2.0000      -0.523452       -14.2439
 177   2.0000      -0.523088       -14.2340
 178   2.0000      -0.519528       -14.1371
 179   2.0000      -0.513418       -13.9708
 180   2.0000      -0.511756       -13.9256
 181   2.0000      -0.510028       -13.8786
 182   2.0000      -0.506744       -13.7892
 183   2.0000      -0.506052       -13.7704
 184   2.0000      -0.503794       -13.7089
 185   2.0000      -0.501581       -13.6487
 186   2.0000      -0.499238       -13.5850
 187   2.0000      -0.496591       -13.5129
 188   2.0000      -0.494412       -13.4536
 189   2.0000      -0.493942       -13.4408
 190   2.0000      -0.493379       -13.4255
 191   2.0000      -0.490395       -13.3443
 192   2.0000      -0.486675       -13.2431
 193   2.0000      -0.484974       -13.1968
 194   2.0000      -0.482683       -13.1345
 195   2.0000      -0.478093       -13.0096
 196   2.0000      -0.477060       -12.9815
 197   2.0000      -0.476620       -12.9695
 198   2.0000      -0.473346       -12.8804
 199   2.0000      -0.472267       -12.8510
 200   2.0000      -0.466276       -12.6880
 201   2.0000      -0.464685       -12.6447
 202   2.0000      -0.458812       -12.4849
 203   2.0000      -0.457631       -12.4528
 204   2.0000      -0.455129       -12.3847
 205   2.0000      -0.451094       -12.2749
 206   2.0000      -0.450564       -12.2605
 207   2.0000      -0.447597       -12.1797
 208   2.0000      -0.444731       -12.1017
 209   2.0000      -0.442772       -12.0484
 210   2.0000      -0.437491       -11.9047
 211   2.0000      -0.434206       -11.8154
 212   2.0000      -0.433127       -11.7860
 213   2.0000      -0.429114       -11.6768
 214   2.0000      -0.427970       -11.6457
 215   2.0000      -0.426959       -11.6181
 216   2.0000      -0.425063       -11.5666
 217   2.0000      -0.424165       -11.5421
 218   2.0000      -0.422433       -11.4950
 219   2.0000      -0.413190       -11.2435
 220   2.0000      -0.410254       -11.1636
 221   2.0000      -0.407174       -11.0798
 222   2.0000      -0.406723       -11.0675
 223   2.0000      -0.404377       -11.0037
 224   2.0000      -0.400182       -10.8895
 225   2.0000      -0.391028       -10.6404
 226   2.0000      -0.390883       -10.6365
 227   2.0000      -0.377882       -10.2827
 228   2.0000      -0.373526       -10.1642
 229   2.0000      -0.371918       -10.1204
 230   2.0000      -0.365859        -9.9555
 231   2.0000      -0.363879        -9.9017
 232   2.0000      -0.358224        -9.7478
 233   2.0000      -0.358024        -9.7423
 234   2.0000      -0.349267        -9.5040
 235   2.0000      -0.343655        -9.3513
 236   2.0000      -0.336784        -9.1644
 237   2.0000      -0.332329        -9.0431
 238   2.0000      -0.320433        -8.7194
 239   2.0000      -0.317798        -8.6477
 240   2.0000      -0.310419        -8.4469
 241   2.0000      -0.301398        -8.2015
 242   2.0000      -0.292297        -7.9538
 243   2.0000      -0.287777        -7.8308
 244   2.0000      -0.280079        -7.6213
 245   2.0000      -0.267719        -7.2850
 246   2.0000      -0.232987        -6.3399
 247   2.0000      -0.217996        -5.9320
 248   0.0000      -0.087432        -2.3791
 249   0.0000      -0.081602        -2.2205
 250   0.0000      -0.054954        -1.4954
 251   0.0000      -0.044151        -1.2014
 252   0.0000      -0.027604        -0.7511

MULLIKEN ATOMIC CHARGES
-----------------------
   0 C :    0.333671
   1 C :   -0.370231
   2 C :   -0.187042
   3 N :    0.140438
   4 C :   -0.191501
   5 N :    0.137360
   6 C :    0.014853
   7 C :   -0.006333
   8 C :   -0.080493
   9 C :    0.119975
  10 C :   -0.089233
  11 C :   -0.029245
  12 S :    0.179087
  13 C :   -0.122090
  14 C :    0.034266
  15 Br:    0.016122
  16 C :    0.140865
  17 O :   -0.168392
  18 C :   -0.085257
  19 C :   -0.023122
  20 C :   -0.011485
  21 C :   -0.005255
  22 C :    0.076697
  23 O :   -0.215500
  24 C :    0.138613
  25 C :    0.073551
  26 C :    0.102636
  27 O :   -0.161139
  28 O :   -0.223287
  29 C :   -0.067171
  30 C :    0.025148
  31 C :   -0.010437
  32 C :    0.063075
  33 N :   -0.012659
  34 C :   -0.117655
  35 S :    0.159926
  36 C :   -0.015228
  37 N :    0.279401
  38 O :   -0.259233
  39 O :   -0.273640
  40 C :    0.006905
  41 C :    0.133389
  42 C :   -0.014775
  43 C :    0.014859
  44 C :   -0.011685
  45 C :   -0.011512
  46 C :    0.039068
  47 C :    0.026246
  48 C :   -0.024041
  49 S :   -0.000847
  50 C :   -0.041435
  51 C :    0.026211
  52 C :    0.037826
  53 C :   -0.012526
  54 S :    0.050426
  55 C :   -0.024643
  56 C :   -0.010772
  57 C :   -0.211150
  58 C :    0.081850
  59 C :    0.174481
  60 N :   -0.244380
  61 C :    0.027390
  62 C :   -0.038188
  63 H :   -0.014577
  64 H :   -0.009524
  65 H :   -0.002484
  66 H :    0.003813
  67 H :    0.028717
  68 H :    0.018686
  69 H :    0.196308
  70 H :    0.200784
  71 H :   -0.025859
  72 H :    0.020804
  73 H :   -0.013404
  74 H :    0.035624
  75 H :    0.141475
  76 H :    0.008636
  77 H :   -0.050617
  78 H :   -0.020150
  79 H :   -0.013681
  80 H :   -0.010400
  81 H :   -0.013600
  82 H :   -0.010192
  83 H :   -0.011409
  84 H :   -0.020450
  85 H :   -0.032443
  86 H :    0.039213
  87 H :    0.039460
  88 H :    0.013181
  89 H :    0.025955
  90 H :    0.025888
  91 H :    0.129226
  92 H :    0.009212
  93 H :    0.005634
  94 H :    0.023419
Sum of atomic charges:   -0.0000000

LOEWDIN ATOMIC CHARGES
----------------------
   0 C :    0.076262
   1 C :   -0.154044
   2 C :   -0.018413
   3 N :   -0.066745
   4 C :   -0.019853
   5 N :   -0.065048
   6 C :   -0.019410
   7 C :   -0.049027
   8 C :    0.017589
   9 C :   -0.034849
  10 C :   -0.145507
  11 C :   -0.012940
  12 S :    0.426501
  13 C :   -0.273835
  14 C :   -0.070275
  15 Br:    0.131105
  16 C :    0.083411
  17 O :   -0.159129
  18 C :   -0.113054
  19 C :    0.066085
  20 C :   -0.050151
  21 C :    0.025162
  22 C :   -0.013275
  23 O :    0.014861
  24 C :    0.026429
  25 C :   -0.029233
  26 C :    0.017985
  27 O :   -0.034772
  28 O :   -0.066365
  29 C :   -0.062964
  30 C :    0.002603
  31 C :   -0.074557
  32 C :    0.031106
  33 N :    0.051849
  34 C :   -0.097390
  35 S :    0.454442
  36 C :   -0.212812
  37 N :    0.274077
  38 O :   -0.225063
  39 O :   -0.240479
  40 C :    0.008364
  41 C :   -0.107135
  42 C :   -0.034275
  43 C :   -0.038126
  44 C :   -0.055265
  45 C :   -0.144941
  46 C :   -0.026634
  47 C :   -0.041642
  48 C :   -0.178791
  49 S :    0.362769
  50 C :   -0.174983
  51 C :   -0.030971
  52 C :   -0.030296
  53 C :   -0.141704
  54 S :    0.343767
  55 C :   -0.055944
  56 C :   -0.071971
  57 C :   -0.024999
  58 C :   -0.048681
  59 C :    0.028377
  60 N :   -0.060286
  61 C :    0.012748
  62 C :   -0.113881
  63 H :    0.038954
  64 H :    0.039976
  65 H :    0.039048
  66 H :    0.039761
  67 H :    0.031405
  68 H :    0.046141
  69 H :    0.106316
  70 H :    0.082826
  71 H :    0.025316
  72 H :    0.038869
  73 H :    0.025383
  74 H :    0.031963
  75 H :    0.096464
  76 H :    0.044570
  77 H :   -0.003980
  78 H :    0.029650
  79 H :    0.036008
  80 H :    0.034774
  81 H :    0.032125
  82 H :    0.033481
  83 H :    0.034114
  84 H :    0.030976
  85 H :    0.012416
  86 H :    0.040530
  87 H :    0.040149
  88 H :    0.030711
  89 H :    0.024719
  90 H :    0.028538
  91 H :    0.071782
  92 H :    0.023885
  93 H :    0.018126
  94 H :    0.029230

  Mayer bond orders larger than 0.100000
B(  0-C ,  1-C ) :   1.5986 B(  0-C ,  6-C ) :   0.9928 B(  0-C , 18-C ) :   1.0945
B(  1-C ,  2-C ) :   1.1479 B(  1-C ,  4-C ) :   1.1531 B(  2-C ,  3-N ) :   2.9640
B(  4-C ,  5-N ) :   2.9588 B(  6-C ,  7-C ) :   1.2807 B(  6-C , 11-C ) :   1.4122
B(  7-C ,  8-C ) :   1.4241 B(  7-C , 16-C ) :   0.9414 B(  8-C ,  9-C ) :   1.2410
B(  8-C , 63-H ) :   1.0174 B(  9-C , 10-C ) :   1.3134 B(  9-C , 14-C ) :   1.1586
B( 10-C , 11-C ) :   1.3247 B( 10-C , 12-S ) :   1.0832 B( 11-C , 64-H ) :   0.9800
B( 12-S , 13-C ) :   1.0847 B( 13-C , 14-C ) :   1.6207 B( 13-C , 15-Br) :   1.0145
B( 14-C , 65-H ) :   1.0011 B( 16-C , 17-O ) :   2.1814 B( 16-C , 18-C ) :   0.9641
B( 18-C , 19-C ) :   1.4675 B( 19-C , 20-C ) :   1.2118 B( 19-C , 66-H ) :   0.9617
B( 20-C , 21-C ) :   1.4543 B( 20-C , 67-H ) :   0.9877 B( 21-C , 22-C ) :   1.2191
B( 21-C , 68-H ) :   0.9828 B( 22-C , 23-O ) :   1.0984 B( 22-C , 24-C ) :   0.1080
B( 22-C , 26-C ) :   1.3139 B( 23-O , 24-C ) :   1.1463 B( 24-C , 25-C ) :   1.2922
B( 24-C , 29-C ) :   1.1540 B( 25-C , 26-C ) :   1.2605 B( 25-C , 28-O ) :   1.2285
B( 26-C , 27-O ) :   1.2996 B( 27-O , 69-H ) :   0.9505 B( 28-O , 70-H ) :   0.9234
B( 29-C , 30-C ) :   1.6282 B( 29-C , 71-H ) :   0.9667 B( 30-C , 31-C ) :   1.1504
B( 30-C , 72-H ) :   0.9921 B( 31-C , 32-C ) :   1.6386 B( 31-C , 73-H ) :   0.9734
B( 32-C , 33-N ) :   1.1192 B( 32-C , 74-H ) :   0.9672 B( 33-N , 34-C ) :   1.2565
B( 33-N , 75-H ) :   0.9108 B( 34-C , 35-S ) :   1.1347 B( 34-C , 41-C ) :   1.3065
B( 35-S , 36-C ) :   1.0598 B( 36-C , 37-N ) :   0.9877 B( 36-C , 40-C ) :   1.4878
B( 37-N , 38-O ) :   1.5235 B( 37-N , 39-O ) :   1.4992 B( 38-O , 39-O ) :   0.2513
B( 40-C , 41-C ) :   1.2284 B( 40-C , 76-H ) :   1.0023 B( 41-C , 42-C ) :   1.1384
B( 42-C , 43-C ) :   1.6662 B( 42-C , 77-H ) :   0.9372 B( 43-C , 44-C ) :   1.1865
B( 43-C , 78-H ) :   0.9737 B( 44-C , 45-C ) :   1.5862 B( 44-C , 79-H ) :   0.9616
B( 45-C , 46-C ) :   1.1479 B( 45-C , 49-S ) :   1.0236 B( 46-C , 47-C ) :   1.6004
B( 46-C , 80-H ) :   0.9979 B( 47-C , 48-C ) :   1.1771 B( 47-C , 81-H ) :   0.9911
B( 48-C , 49-S ) :   1.0330 B( 48-C , 50-C ) :   1.5371 B( 50-C , 51-C ) :   1.1737
B( 50-C , 54-S ) :   1.0342 B( 51-C , 52-C ) :   1.6110 B( 51-C , 82-H ) :   0.9936
B( 52-C , 53-C ) :   1.1212 B( 52-C , 83-H ) :   0.9983 B( 53-C , 54-S ) :   1.0187
B( 53-C , 55-C ) :   1.6338 B( 55-C , 56-C ) :   1.1072 B( 55-C , 84-H ) :   0.9682
B( 56-C , 57-C ) :   1.7685 B( 56-C , 85-H ) :   0.9623 B( 57-C , 58-C ) :   1.0837
B( 57-C , 59-C ) :   1.0245 B( 58-C , 86-H ) :   0.9460 B( 58-C , 87-H ) :   0.9456
B( 58-C , 88-H ) :   0.9567 B( 59-C , 60-N ) :   1.0223 B( 59-C , 89-H ) :   0.9188
B( 59-C , 90-H ) :   0.9215 B( 60-N , 61-C ) :   1.0938 B( 60-N , 91-H ) :   0.9195
B( 61-C , 62-C ) :   1.9499 B( 61-C , 92-H ) :   0.9519 B( 62-C , 93-H ) :   0.9565
B( 62-C , 94-H ) :   0.9486

-----------------------------------------------------------------------------
         ABSORPTION SPECTRUM VIA TRANSITION ELECTRIC DIPOLE MOMENTS
-----------------------------------------------------------------------------
State   Energy  Wavelength   fosc         T2         TX        TY        TZ
        (cm-1)    (nm)                  (au**2)     (au)      (au)      (au)
-----------------------------------------------------------------------------
   0   14360.8    696.3   0.795149314  18.22834   1.94441  -0.74008  -3.72826
   1   16494.5    606.3   0.645296821  12.87944  -1.07897  -3.24433  -1.09068
   2   18913.1    528.7   0.139877118   2.43477   0.00990   0.95703   1.23239
   3   20850.3    479.6   0.566355870   8.94238  -1.76519  -1.95461   1.41633
   4   22666.0    441.2   0.225261783   3.27181   0.84041   1.07024  -1.19169
   5   24020.4    416.3   0.011594594   0.15891  -0.05948   0.08056   0.38585
   6   25041.1    399.3   0.030245645   0.39764   0.32764   0.20452  -0.49846
   7   26347.4    379.5   0.422392963   5.27783   1.13342   1.55240  -1.25828
   8   26656.8    375.1   0.380658670   4.70114   1.19467   1.59828  -0.84817
   9   27690.1    361.1   0.629301754   7.48185   0.70534   2.22061   1.43291
  10   28035.3    356.7   0.505421528   5.93505  -1.01258  -1.42094   1.70020
  11   28297.4    353.4   0.001183450   0.01377   0.04500   0.08932  -0.06136
  12   28436.9    351.7   0.184164526   2.13206   0.53913   1.32071  -0.31165
  13   29546.2    338.5   0.205159067   2.28594   0.64852   1.11474  -0.78912
  14   30203.3    331.1   0.025232103   0.27503   0.08146   0.47126   0.21518
  15   30564.7    327.2   0.028603874   0.30809  -0.00542   0.26042   0.49015
  16   30802.9    324.6   0.061949125   0.66209  -0.19624  -0.76405  -0.19953
  17   31844.3    314.0   0.000216916   0.00224   0.00128  -0.03541   0.03141
  18   31977.3    312.7   0.058299184   0.60020  -0.02780   0.28103   0.72142
  19   32235.8    310.2   0.170956198   1.74591   0.18343  -0.06676  -1.30683
  20   32587.6    306.9   0.141181875   1.42627  -0.06316   0.38840   1.12757
  21   33059.4    302.5   0.030024286   0.29899  -0.01418  -0.25818  -0.48180
  22   33301.3    300.3   0.692602475   6.84697   1.02668   2.09938  -1.17706
  23   33481.2    298.7   0.184082341   1.81004   0.31054   1.13871  -0.64571
  24   34182.8    292.5   0.011378822   0.10959   0.16120   0.14598  -0.24958
  25   34520.5    289.7   0.182572207   1.74114  -0.28322  -1.27941   0.15502
  26   34882.3    286.7   0.090637740   0.85542  -0.12347   0.24213   0.88405
  27   35455.3    282.0   0.022502148   0.20894  -0.05640   0.15865   0.42496
  28   35604.8    280.9   0.032967936   0.30483   0.21461   0.49539  -0.11560
  29   35859.0    278.9   0.184419967   1.69311   0.29405   1.12657   0.58094
  30   36850.8    271.4   0.023595345   0.21079   0.13779  -0.28381  -0.33355
  31   37214.0    268.7   0.034512278   0.30531  -0.02250   0.48360   0.26634
  32   37347.1    267.8   0.011913817   0.10502   0.02097  -0.14978   0.28661
  33   37710.1    265.2   0.003735946   0.03262   0.12560  -0.10519  -0.07599
  34   37967.2    263.4   0.098651636   0.85540  -0.53296  -0.63232   0.41416
  35   38201.8    261.8   0.011734051   0.10112   0.08519  -0.27652  -0.13190
  36   38798.7    257.7   0.109178153   0.92639  -0.14228   0.41962   0.85444
  37   39160.3    255.4   0.044317591   0.37257  -0.32883   0.02836   0.51346
  38   39277.6    254.6   0.090685126   0.76009   0.30045  -0.15275  -0.80404
  39   39331.3    254.3   0.025673995   0.21490  -0.06511  -0.41340  -0.19939
  40   39982.4    250.1   0.032587883   0.26833  -0.19332   0.00934   0.48048

FINAL SINGLE POINT ENERGY     -6698.179808866405

DIPOLE MOMENT
-------------
                                X             Y             Z
Electronic contribution:     97.12505      14.80525    -180.20072
Nuclear contribution   :   -100.42921     -12.71563     186.86840
                        -----------------------------------------
Total Dipole Moment    :     -3.30416       2.08962       6.66768
                        -----------------------------------------
Magnitude (a.u.)       :      7.72929
Magnitude (Debye)      :     19.64630

Rotational constants in cm-1:     0.001062     0.000424     0.000309
Rotational constants in MHz :    31.830481    12.710935     9.274193

                             ****ORCA TERMINATED NORMALLY****
TOTAL RUN TIME: 0 days 0 hours 18 minutes 29 seconds 563 msec
