                         Program Version 4.2.0 -  RELEASE  -
|  1> # ORCA input file
|  2> # SCF done       -170.707912989783          0.000695066293
|  3> ! CAM-B3LYP def2-SVP def2/J RIJCOSX Grid4 TightSCF
|  4> %maxcore 5000
|  5> %tddft
|  6>     Mode sTDDFT
|  7>     Ethresh 5.0
|  8>     maxcore 5000
|  9> end
| 10>
| 11> %pal
| 12>   nprocs 6
| 13>   end
| 14> * xyz 0 1
| 15>    C      -14.34217       -10.20983        -7.29311
| 16>    C      -13.41038       -10.50720        -6.32423
| 17>    C      -12.49784       -11.57661        -6.40591
| 18>    N      -11.72670       -12.42864        -6.40674
| 19>    C      -13.23786        -9.82110        -5.10550
| 20>    N      -13.03657        -9.34321        -4.07970
| 21>    C      -14.55213       -10.98037        -8.51802
| 22>    C      -15.63430       -10.41096        -9.23149
| 23>    C      -16.08222       -10.91650       -10.42636
| 24>    C      -15.42859       -12.03962       -10.94635
| 25>    C      -14.34754       -12.59966       -10.22836
| 26>    C      -13.89545       -12.08833        -9.01722
| 27>    S      -13.68113       -13.97943       -11.04954
| 28>    C      -14.85067       -13.78691       -12.32842
| 29>    C      -15.69603       -12.74458       -12.15246
| 30>   Br      -14.84325       -14.98095       -13.77588
| 31>    C      -16.14557        -9.23988        -8.48609
| 32>    O      -17.07478        -8.52877        -8.81685
| 33>    C      -15.29277        -9.12894        -7.28764
| 34>    C      -15.38029        -8.11599        -6.35204
| 35>    C      -16.30635        -7.07922        -6.37312
| 36>    C      -16.31338        -6.06999        -5.42569
| 37>    C      -17.19974        -4.97198        -5.35766
| 38>    C      -16.95454        -4.12297        -4.31516
| 39>    C      -15.86162        -4.51412        -3.51656
| 40>    S      -15.15764        -5.99353        -4.11597
| 41>    C      -15.32239        -3.88647        -2.40102
| 42>    C      -15.71964        -2.68403        -1.77431
| 43>    C      -14.94505        -2.35739        -0.70147
| 44>    C      -13.89176        -3.27353        -0.44637
| 45>    S      -13.93622        -4.56901        -1.60573
| 46>    C      -13.02580        -3.22688         0.63006
| 47>    C      -11.94725        -4.07936         0.86671
| 48>    C      -11.19119        -4.87255         0.01314
| 49>    C      -10.26733        -5.73836         0.65431
| 50>    C      -10.20995        -5.63905         2.08103
| 51>    O       -9.55388        -6.22695         2.90051
| 52>    S      -11.39173        -4.32715         2.53260
| 53>    C       -9.61512        -6.45959        -0.34594
| 54>    O      -10.03353        -6.02099        -1.56454
| 55>    C      -10.97342        -5.01718        -1.41136
| 56>    O      -11.42282        -4.42145        -2.35778
| 57>    C       -8.71329        -7.52394        -0.29753
| 58>    C       -8.15774        -8.14232         0.82751
| 59>    C       -7.37295        -9.21799         0.47828
| 60>    C       -7.32252        -9.43386        -0.91523
| 61>    S       -8.23410        -8.29302        -1.80338
| 62>    C       -6.53823       -10.57049        -1.17008
| 63>    C       -6.07410       -11.09584         0.04459
| 64>    C       -6.56313       -10.26100         1.19048
| 65>    C       -5.31411       -12.24199        -0.11793
| 66>    C       -5.18795       -12.60931        -1.45377
| 67>    S       -6.02881       -11.50014        -2.51916
| 68>    C       -4.52829       -13.72283        -2.03277
| 69>    C       -3.79330       -14.63313        -1.34616
| 70>    C       -3.17357       -15.78132        -1.90625
| 71>    S       -1.83945       -16.50421        -1.04760
| 72>    C       -1.62529       -17.65942        -2.29510
| 73>    C       -2.51411       -17.52487        -3.31816
| 74>    C       -2.53878       -18.45403        -4.48619
| 75>    C       -3.42422       -16.44711        -3.10304
| 76>    C       -4.56778       -16.14401        -3.93334
| 77>    C       -4.61888       -16.20890        -5.27310
| 78>    C       -5.81177       -15.91993        -6.02598
| 79>    C       -5.87033       -15.96184        -7.35534
| 80>    H      -16.91074       -10.46079       -10.94555
| 81>    H      -13.06609       -12.55199        -8.51016
| 82>    H      -16.47657       -12.48134       -12.84278
| 83>    H      -14.66523        -8.11124        -5.53819
| 84>    H      -17.04651        -7.04923        -7.15962
| 85>    H      -17.98556        -4.84039        -6.08006
| 86>    H      -17.52444        -3.23491        -4.10861
| 87>    H      -16.55206        -2.10096        -2.12451
| 88>    H      -15.08584        -1.48253        -0.09160
| 89>    H      -13.25091        -2.50722         1.40685
| 90>    H       -8.35265        -7.79117         1.82505
| 91>    H       -5.73969        -9.81970         1.75557
| 92>    H       -7.17047       -10.84006         1.88867
| 93>    H       -4.87343       -12.80167         0.68624
| 94>    H       -4.61945       -13.81442        -3.10554
| 95>    H       -3.61097       -14.47706        -0.29133
| 96>    H       -0.84741       -18.39193        -2.20170
| 97>    H       -2.04113       -19.38713        -4.23257
| 98>    H       -2.01854       -18.01504        -5.33723
| 99>    H       -3.56429       -18.66404        -4.78284
|100>    H       -5.45772       -15.84144        -3.39257
|101>    H       -3.73595       -16.44846        -5.84745
|102>    H       -6.69240       -15.66015        -5.45245
|103>    H       -5.00850       -16.21812        -7.95006
|104>    H       -6.77622       -15.74236        -7.89251
|105> *
|106>
|107>                          ****END OF INPUT****

CARTESIAN COORDINATES (ANGSTROEM)
---------------------------------
  C    -14.342170  -10.209830   -7.293110
  C    -13.410380  -10.507200   -6.324230
  C    -12.497840  -11.576610   -6.405910
  N    -11.726700  -12.428640   -6.406740
  C    -13.237860   -9.821100   -5.105500
  N    -13.036570   -9.343210   -4.079700
  C    -14.552130  -10.980370   -8.518020
  C    -15.634300  -10.410960   -9.231490
  C    -16.082220  -10.916500  -10.426360
  C    -15.428590  -12.039620  -10.946350
  C    -14.347540  -12.599660  -10.228360
  C    -13.895450  -12.088330   -9.017220
  S    -13.681130  -13.979430  -11.049540
  C    -14.850670  -13.786910  -12.328420
  C    -15.696030  -12.744580  -12.152460
  Br   -14.843250  -14.980950  -13.775880
  C    -16.145570   -9.239880   -8.486090
  O    -17.074780   -8.528770   -8.816850
  C    -15.292770   -9.128940   -7.287640
  C    -15.380290   -8.115990   -6.352040
  C    -16.306350   -7.079220   -6.373120
  C    -16.313380   -6.069990   -5.425690
  C    -17.199740   -4.971980   -5.357660
  C    -16.954540   -4.122970   -4.315160
  C    -15.861620   -4.514120   -3.516560
  S    -15.157640   -5.993530   -4.115970
  C    -15.322390   -3.886470   -2.401020
  C    -15.719640   -2.684030   -1.774310
  C    -14.945050   -2.357390   -0.701470
  C    -13.891760   -3.273530   -0.446370
  S    -13.936220   -4.569010   -1.605730
  C    -13.025800   -3.226880    0.630060
  C    -11.947250   -4.079360    0.866710
  C    -11.191190   -4.872550    0.013140
  C    -10.267330   -5.738360    0.654310
  C    -10.209950   -5.639050    2.081030
  O     -9.553880   -6.226950    2.900510
  S    -11.391730   -4.327150    2.532600
  C     -9.615120   -6.459590   -0.345940
  O    -10.033530   -6.020990   -1.564540
  C    -10.973420   -5.017180   -1.411360
  O    -11.422820   -4.421450   -2.357780
  C     -8.713290   -7.523940   -0.297530
  C     -8.157740   -8.142320    0.827510
  C     -7.372950   -9.217990    0.478280
  C     -7.322520   -9.433860   -0.915230
  S     -8.234100   -8.293020   -1.803380
  C     -6.538230  -10.570490   -1.170080
  C     -6.074100  -11.095840    0.044590
  C     -6.563130  -10.261000    1.190480
  C     -5.314110  -12.241990   -0.117930
  C     -5.187950  -12.609310   -1.453770
  S     -6.028810  -11.500140   -2.519160
  C     -4.528290  -13.722830   -2.032770
  C     -3.793300  -14.633130   -1.346160
  C     -3.173570  -15.781320   -1.906250
  S     -1.839450  -16.504210   -1.047600
  C     -1.625290  -17.659420   -2.295100
  C     -2.514110  -17.524870   -3.318160
  C     -2.538780  -18.454030   -4.486190
  C     -3.424220  -16.447110   -3.103040
  C     -4.567780  -16.144010   -3.933340
  C     -4.618880  -16.208900   -5.273100
  C     -5.811770  -15.919930   -6.025980
  C     -5.870330  -15.961840   -7.355340
  H    -16.910740  -10.460790  -10.945550
  H    -13.066090  -12.551990   -8.510160
  H    -16.476570  -12.481340  -12.842780
  H    -14.665230   -8.111240   -5.538190
  H    -17.046510   -7.049230   -7.159620
  H    -17.985560   -4.840390   -6.080060
  H    -17.524440   -3.234910   -4.108610
  H    -16.552060   -2.100960   -2.124510
  H    -15.085840   -1.482530   -0.091600
  H    -13.250910   -2.507220    1.406850
  H     -8.352650   -7.791170    1.825050
  H     -5.739690   -9.819700    1.755570
  H     -7.170470  -10.840060    1.888670
  H     -4.873430  -12.801670    0.686240
  H     -4.619450  -13.814420   -3.105540
  H     -3.610970  -14.477060   -0.291330
  H     -0.847410  -18.391930   -2.201700
  H     -2.041130  -19.387130   -4.232570
  H     -2.018540  -18.015040   -5.337230
  H     -3.564290  -18.664040   -4.782840
  H     -5.457720  -15.841440   -3.392570
  H     -3.735950  -16.448460   -5.847450
  H     -6.692400  -15.660150   -5.452450
  H     -5.008500  -16.218120   -7.950060
  H     -6.776220  -15.742360   -7.892510

 Total Charge           Charge          ....    0
 Multiplicity           Mult            ....    1
 Number of Electrons    NEL             ....  524
 Basis Dimension        Dim             .... 1081

ORBITAL ENERGIES
----------------

  NO   OCC          E(Eh)            E(eV)
   0   2.0000    -482.878071    -13139.7803
   1   2.0000     -88.971101     -2421.0267
   2   2.0000     -88.966144     -2420.8919
   3   2.0000     -88.965669     -2420.8789
   4   2.0000     -88.957684     -2420.6617
   5   2.0000     -88.957413     -2420.6543
   6   2.0000     -88.948827     -2420.4206
   7   2.0000     -88.937520     -2420.1130
   8   2.0000     -62.555766     -1702.2289
   9   2.0000     -56.389702     -1534.4418
  10   2.0000     -56.387014     -1534.3686
  11   2.0000     -56.386974     -1534.3676
  12   2.0000     -19.284876      -524.7682
  13   2.0000     -19.209165      -522.7079
  14   2.0000     -19.205259      -522.6017
  15   2.0000     -19.201025      -522.4865
  16   2.0000     -14.400550      -391.8589
  17   2.0000     -14.399780      -391.8379
  18   2.0000     -10.403968      -283.1064
  19   2.0000     -10.376261      -282.3524
  20   2.0000     -10.372480      -282.2495
  21   2.0000     -10.351286      -281.6728
  22   2.0000     -10.349307      -281.6190
  23   2.0000     -10.329269      -281.0737
  24   2.0000     -10.325803      -280.9794
  25   2.0000     -10.324535      -280.9449
  26   2.0000     -10.323140      -280.9069
  27   2.0000     -10.323008      -280.9033
  28   2.0000     -10.322930      -280.9012
  29   2.0000     -10.321909      -280.8734
  30   2.0000     -10.319913      -280.8191
  31   2.0000     -10.313934      -280.6564
  32   2.0000     -10.312113      -280.6069
  33   2.0000     -10.311073      -280.5786
  34   2.0000     -10.306088      -280.4429
  35   2.0000     -10.304830      -280.4087
  36   2.0000     -10.304225      -280.3922
  37   2.0000     -10.304152      -280.3902
  38   2.0000     -10.301363      -280.3143
  39   2.0000     -10.300402      -280.2882
  40   2.0000     -10.298838      -280.2456
  41   2.0000     -10.298265      -280.2300
  42   2.0000     -10.296067      -280.1702
  43   2.0000     -10.295857      -280.1645
  44   2.0000     -10.294677      -280.1324
  45   2.0000     -10.293869      -280.1104
  46   2.0000     -10.293299      -280.0949
  47   2.0000     -10.292554      -280.0746
  48   2.0000     -10.290090      -280.0076
  49   2.0000     -10.290064      -280.0069
  50   2.0000     -10.289287      -279.9857
  51   2.0000     -10.288616      -279.9675
  52   2.0000     -10.287962      -279.9497
  53   2.0000     -10.287455      -279.9359
  54   2.0000     -10.285610      -279.8857
  55   2.0000     -10.284839      -279.8647
  56   2.0000     -10.283674      -279.8330
  57   2.0000     -10.280860      -279.7564
  58   2.0000     -10.278546      -279.6934
  59   2.0000     -10.278108      -279.6815
  60   2.0000     -10.277624      -279.6684
  61   2.0000     -10.275870      -279.6206
  62   2.0000     -10.275807      -279.6189
  63   2.0000     -10.274984      -279.5965
  64   2.0000     -10.271285      -279.4959
  65   2.0000     -10.267919      -279.4043
  66   2.0000     -10.265315      -279.3334
  67   2.0000     -10.262997      -279.2703
  68   2.0000     -10.257552      -279.1222
  69   2.0000      -8.785184      -239.0570
  70   2.0000      -8.065760      -219.4805
  71   2.0000      -8.061662      -219.3690
  72   2.0000      -8.061297      -219.3590
  73   2.0000      -8.053624      -219.1503
  74   2.0000      -8.053502      -219.1469
  75   2.0000      -8.045058      -218.9172
  76   2.0000      -8.034741      -218.6364
  77   2.0000      -6.621403      -180.1775
  78   2.0000      -6.606942      -179.7840
  79   2.0000      -6.606781      -179.7797
  80   2.0000      -6.035107      -164.2236
  81   2.0000      -6.031365      -164.1218
  82   2.0000      -6.030960      -164.1108
  83   2.0000      -6.030606      -164.1011
  84   2.0000      -6.027816      -164.0252
  85   2.0000      -6.027092      -164.0055
  86   2.0000      -6.026529      -163.9902
  87   2.0000      -6.023375      -163.9044
  88   2.0000      -6.023157      -163.8984
  89   2.0000      -6.023055      -163.8957
  90   2.0000      -6.022874      -163.8907
  91   2.0000      -6.019015      -163.7857
  92   2.0000      -6.018837      -163.7809
  93   2.0000      -6.015012      -163.6768
  94   2.0000      -6.014738      -163.6693
  95   2.0000      -6.014242      -163.6558
  96   2.0000      -6.010144      -163.5443
  97   2.0000      -6.007308      -163.4672
  98   2.0000      -6.004236      -163.3836
  99   2.0000      -6.000273      -163.2757
 100   2.0000      -5.995783      -163.1535
 101   2.0000      -2.737331       -74.4866
 102   2.0000      -2.733205       -74.3743
 103   2.0000      -2.733090       -74.3712
 104   2.0000      -2.721595       -74.0584
 105   2.0000      -2.721578       -74.0579
 106   2.0000      -1.217503       -33.1299
 107   2.0000      -1.127511       -30.6811
 108   2.0000      -1.117730       -30.4150
 109   2.0000      -1.114351       -30.3230
 110   2.0000      -1.018251       -27.7080
 111   2.0000      -1.010877       -27.5074
 112   2.0000      -1.010184       -27.4885
 113   2.0000      -0.999719       -27.2037
 114   2.0000      -0.989136       -26.9158
 115   2.0000      -0.983000       -26.7488
 116   2.0000      -0.979216       -26.6458
 117   2.0000      -0.979127       -26.6434
 118   2.0000      -0.975500       -26.5447
 119   2.0000      -0.971261       -26.4294
 120   2.0000      -0.931524       -25.3480
 121   2.0000      -0.926110       -25.2007
 122   2.0000      -0.910774       -24.7834
 123   2.0000      -0.899586       -24.4790
 124   2.0000      -0.897129       -24.4121
 125   2.0000      -0.895066       -24.3560
 126   2.0000      -0.891735       -24.2653
 127   2.0000      -0.876813       -23.8593
 128   2.0000      -0.873755       -23.7761
 129   2.0000      -0.867120       -23.5955
 130   2.0000      -0.861897       -23.4534
 131   2.0000      -0.858027       -23.3481
 132   2.0000      -0.855291       -23.2736
 133   2.0000      -0.847089       -23.0505
 134   2.0000      -0.837141       -22.7798
 135   2.0000      -0.835905       -22.7461
 136   2.0000      -0.831412       -22.6239
 137   2.0000      -0.826632       -22.4938
 138   2.0000      -0.817624       -22.2487
 139   2.0000      -0.805786       -21.9265
 140   2.0000      -0.795369       -21.6431
 141   2.0000      -0.781161       -21.2565
 142   2.0000      -0.777658       -21.1612
 143   2.0000      -0.769234       -20.9319
 144   2.0000      -0.754674       -20.5357
 145   2.0000      -0.745105       -20.2753
 146   2.0000      -0.740831       -20.1590
 147   2.0000      -0.725157       -19.7325
 148   2.0000      -0.714165       -19.4334
 149   2.0000      -0.707093       -19.2410
 150   2.0000      -0.700251       -19.0548
 151   2.0000      -0.688423       -18.7330
 152   2.0000      -0.683651       -18.6031
 153   2.0000      -0.678309       -18.4577
 154   2.0000      -0.672754       -18.3066
 155   2.0000      -0.666965       -18.1490
 156   2.0000      -0.657736       -17.8979
 157   2.0000      -0.654355       -17.8059
 158   2.0000      -0.645722       -17.5710
 159   2.0000      -0.645303       -17.5596
 160   2.0000      -0.640054       -17.4167
 161   2.0000      -0.631783       -17.1917
 162   2.0000      -0.624975       -17.0064
 163   2.0000      -0.624421       -16.9913
 164   2.0000      -0.618407       -16.8277
 165   2.0000      -0.616312       -16.7707
 166   2.0000      -0.610786       -16.6203
 167   2.0000      -0.609460       -16.5843
 168   2.0000      -0.598061       -16.2741
 169   2.0000      -0.590898       -16.0792
 170   2.0000      -0.587245       -15.9798
 171   2.0000      -0.582747       -15.8573
 172   2.0000      -0.579962       -15.7816
 173   2.0000      -0.575806       -15.6685
 174   2.0000      -0.572626       -15.5819
 175   2.0000      -0.563492       -15.3334
 176   2.0000      -0.557149       -15.1608
 177   2.0000      -0.554336       -15.0843
 178   2.0000      -0.548992       -14.9388
 179   2.0000      -0.545348       -14.8397
 180   2.0000      -0.543237       -14.7822
 181   2.0000      -0.539189       -14.6721
 182   2.0000      -0.532620       -14.4933
 183   2.0000      -0.529609       -14.4114
 184   2.0000      -0.525992       -14.3130
 185   2.0000      -0.522535       -14.2189
 186   2.0000      -0.521905       -14.2017
 187   2.0000      -0.517311       -14.0767
 188   2.0000      -0.516147       -14.0451
 189   2.0000      -0.512029       -13.9330
 190   2.0000      -0.508177       -13.8282
 191   2.0000      -0.507476       -13.8091
 192   2.0000      -0.505370       -13.7518
 193   2.0000      -0.502443       -13.6722
 194   2.0000      -0.500852       -13.6289
 195   2.0000      -0.498397       -13.5621
 196   2.0000      -0.497051       -13.5254
 197   2.0000      -0.495369       -13.4797
 198   2.0000      -0.492147       -13.3920
 199   2.0000      -0.491300       -13.3690
 200   2.0000      -0.484227       -13.1765
 201   2.0000      -0.483036       -13.1441
 202   2.0000      -0.482327       -13.1248
 203   2.0000      -0.481159       -13.0930
 204   2.0000      -0.480030       -13.0623
 205   2.0000      -0.479038       -13.0353
 206   2.0000      -0.478989       -13.0340
 207   2.0000      -0.473961       -12.8971
 208   2.0000      -0.471951       -12.8424
 209   2.0000      -0.470943       -12.8150
 210   2.0000      -0.467030       -12.7085
 211   2.0000      -0.460754       -12.5378
 212   2.0000      -0.459682       -12.5086
 213   2.0000      -0.455799       -12.4029
 214   2.0000      -0.452841       -12.3224
 215   2.0000      -0.451765       -12.2932
 216   2.0000      -0.448550       -12.2057
 217   2.0000      -0.447073       -12.1655
 218   2.0000      -0.445659       -12.1270
 219   2.0000      -0.441026       -12.0009
 220   2.0000      -0.436947       -11.8899
 221   2.0000      -0.436306       -11.8725
 222   2.0000      -0.432801       -11.7771
 223   2.0000      -0.432097       -11.7580
 224   2.0000      -0.430659       -11.7188
 225   2.0000      -0.429018       -11.6742
 226   2.0000      -0.427526       -11.6336
 227   2.0000      -0.425419       -11.5762
 228   2.0000      -0.423108       -11.5134
 229   2.0000      -0.419006       -11.4017
 230   2.0000      -0.414055       -11.2670
 231   2.0000      -0.413580       -11.2541
 232   2.0000      -0.410863       -11.1801
 233   2.0000      -0.410492       -11.1701
 234   2.0000      -0.409499       -11.1430
 235   2.0000      -0.404114       -10.9965
 236   2.0000      -0.398544       -10.8449
 237   2.0000      -0.394289       -10.7291
 238   2.0000      -0.393516       -10.7081
 239   2.0000      -0.393123       -10.6974
 240   2.0000      -0.377517       -10.2727
 241   2.0000      -0.369298       -10.0491
 242   2.0000      -0.367583       -10.0024
 243   2.0000      -0.364188        -9.9101
 244   2.0000      -0.358895        -9.7660
 245   2.0000      -0.347074        -9.4444
 246   2.0000      -0.341672        -9.2974
 247   2.0000      -0.335015        -9.1162
 248   2.0000      -0.333087        -9.0638
 249   2.0000      -0.330582        -8.9956
 250   2.0000      -0.328857        -8.9487
 251   2.0000      -0.325125        -8.8471
 252   2.0000      -0.324027        -8.8172
 253   2.0000      -0.321337        -8.7440
 254   2.0000      -0.304384        -8.2827
 255   2.0000      -0.301421        -8.2021
 256   2.0000      -0.300911        -8.1882
 257   2.0000      -0.282847        -7.6967
 258   2.0000      -0.279766        -7.6128
 259   2.0000      -0.264516        -7.1978
 260   2.0000      -0.240182        -6.5357
 261   2.0000      -0.217112        -5.9079
 262   0.0000      -0.117294        -3.1917
 263   0.0000      -0.075390        -2.0515
 264   0.0000      -0.056879        -1.5478
 265   0.0000      -0.041371        -1.1258
 266   0.0000      -0.026344        -0.7169

MULLIKEN ATOMIC CHARGES
-----------------------
   0 C :    0.325079
   1 C :   -0.359301
   2 C :   -0.188309
   3 N :    0.133420
   4 C :   -0.198497
   5 N :    0.138778
   6 C :    0.013409
   7 C :   -0.009087
   8 C :   -0.076084
   9 C :    0.115723
  10 C :   -0.090054
  11 C :   -0.025475
  12 S :    0.177111
  13 C :   -0.122964
  14 C :    0.037444
  15 Br:    0.014490
  16 C :    0.138614
  17 O :   -0.165552
  18 C :   -0.086329
  19 C :   -0.041028
  20 C :   -0.017981
  21 C :    0.002513
  22 C :    0.026839
  23 C :    0.043854
  24 C :   -0.042501
  25 S :    0.117063
  26 C :   -0.040214
  27 C :    0.029402
  28 C :    0.046188
  29 C :   -0.034857
  30 S :    0.168675
  31 C :    0.033011
  32 C :   -0.142064
  33 C :   -0.014862
  34 C :   -0.026752
  35 C :    0.032016
  36 O :   -0.172613
  37 S :    0.028178
  38 C :    0.190741
  39 O :   -0.232945
  40 C :    0.216974
  41 O :   -0.140105
  42 C :   -0.152671
  43 C :   -0.014527
  44 C :   -0.148579
  45 C :   -0.055294
  46 S :    0.219317
  47 C :   -0.091805
  48 C :   -0.132291
  49 C :    0.386561
  50 C :   -0.027082
  51 C :   -0.078163
  52 S :    0.172160
  53 C :    0.016714
  54 C :    0.042879
  55 C :   -0.146426
  56 S :    0.112499
  57 C :   -0.124915
  58 C :   -0.077582
  59 C :    0.106944
  60 C :    0.113792
  61 C :   -0.070604
  62 C :    0.001723
  63 C :    0.000376
  64 C :   -0.017188
  65 H :   -0.015388
  66 H :   -0.010633
  67 H :   -0.006169
  68 H :    0.019340
  69 H :    0.018582
  70 H :    0.001511
  71 H :   -0.004875
  72 H :   -0.008203
  73 H :   -0.003366
  74 H :   -0.000947
  75 H :    0.005097
  76 H :    0.038165
  77 H :    0.038297
  78 H :   -0.021557
  79 H :    0.004436
  80 H :   -0.013106
  81 H :    0.015074
  82 H :    0.007798
  83 H :    0.033427
  84 H :    0.033401
  85 H :    0.010938
  86 H :   -0.014301
  87 H :   -0.003188
  88 H :    0.011332
  89 H :    0.026544
Sum of atomic charges:   -0.0000000

LOEWDIN ATOMIC CHARGES
----------------------
   0 C :    0.072228
   1 C :   -0.154745
   2 C :   -0.017733
   3 N :   -0.071512
   4 C :   -0.023100
   5 N :   -0.063159
   6 C :   -0.017572
   7 C :   -0.048527
   8 C :    0.017639
   9 C :   -0.035986
  10 C :   -0.145442
  11 C :   -0.014238
  12 S :    0.425792
  13 C :   -0.274746
  14 C :   -0.070774
  15 Br:    0.129678
  16 C :    0.082021
  17 O :   -0.157630
  18 C :   -0.104886
  19 C :    0.048504
  20 C :   -0.066246
  21 C :   -0.105661
  22 C :   -0.037160
  23 C :   -0.009263
  24 C :   -0.181014
  25 S :    0.423917
  26 C :   -0.154595
  27 C :   -0.037167
  28 C :   -0.014018
  29 C :   -0.143053
  30 S :    0.480491
  31 C :   -0.058347
  32 C :   -0.135806
  33 C :   -0.116641
  34 C :   -0.155874
  35 C :   -0.050666
  36 O :   -0.173197
  37 S :    0.324342
  38 C :    0.100757
  39 O :   -0.042069
  40 C :    0.082632
  41 O :   -0.145432
  42 C :   -0.203798
  43 C :    0.000564
  44 C :   -0.056344
  45 C :   -0.161471
  46 S :    0.482204
  47 C :   -0.212153
  48 C :   -0.027782
  49 C :   -0.006385
  50 C :   -0.060176
  51 C :   -0.147109
  52 S :    0.452969
  53 C :   -0.051384
  54 C :   -0.028038
  55 C :   -0.173093
  56 S :    0.428723
  57 C :   -0.193030
  58 C :   -0.054095
  59 C :   -0.045467
  60 C :   -0.055850
  61 C :   -0.026128
  62 C :   -0.025132
  63 C :   -0.027079
  64 C :   -0.043735
  65 H :    0.038869
  66 H :    0.039662
  67 H :    0.037630
  68 H :    0.031785
  69 H :    0.039112
  70 H :    0.039089
  71 H :    0.035842
  72 H :    0.033929
  73 H :    0.037082
  74 H :    0.039182
  75 H :    0.039275
  76 H :    0.055578
  77 H :    0.055373
  78 H :    0.030572
  79 H :    0.033258
  80 H :    0.027051
  81 H :    0.021006
  82 H :    0.031647
  83 H :    0.034540
  84 H :    0.036423
  85 H :    0.031600
  86 H :    0.026487
  87 H :    0.030156
  88 H :    0.020479
  89 H :    0.026419

  Mayer bond orders larger than 0.100000
B(  0-C ,  1-C ) :   1.5811 B(  0-C ,  6-C ) :   0.9884 B(  0-C , 18-C ) :   1.1159
B(  1-C ,  2-C ) :   1.1510 B(  1-C ,  4-C ) :   1.1535 B(  2-C ,  3-N ) :   2.9610
B(  4-C ,  5-N ) :   2.9633 B(  6-C ,  7-C ) :   1.2812 B(  6-C , 11-C ) :   1.4212
B(  7-C ,  8-C ) :   1.4299 B(  7-C , 16-C ) :   0.9347 B(  8-C ,  9-C ) :   1.2408
B(  8-C , 65-H ) :   1.0161 B(  9-C , 10-C ) :   1.3187 B(  9-C , 14-C ) :   1.1582
B( 10-C , 11-C ) :   1.3201 B( 10-C , 12-S ) :   1.0816 B( 11-C , 66-H ) :   0.9789
B( 12-S , 13-C ) :   1.0849 B( 13-C , 14-C ) :   1.6210 B( 13-C , 15-Br) :   1.0139
B( 14-C , 67-H ) :   1.0005 B( 16-C , 17-O ) :   2.1877 B( 16-C , 18-C ) :   0.9647
B( 18-C , 19-C ) :   1.4810 B( 19-C , 20-C ) :   1.2624 B( 19-C , 68-H ) :   0.9428
B( 20-C , 21-C ) :   1.4111 B( 20-C , 69-H ) :   0.9791 B( 21-C , 22-C ) :   1.1829
B( 21-C , 25-S ) :   1.0894 B( 22-C , 23-C ) :   1.5344 B( 22-C , 70-H ) :   1.0020
B( 23-C , 24-C ) :   1.2218 B( 23-C , 71-H ) :   0.9959 B( 24-C , 25-S ) :   1.0603
B( 24-C , 26-C ) :   1.4411 B( 26-C , 27-C ) :   1.1901 B( 26-C , 30-S ) :   1.1168
B( 27-C , 28-C ) :   1.5801 B( 27-C , 72-H ) :   0.9941 B( 28-C , 29-C ) :   1.1569
B( 28-C , 73-H ) :   0.9975 B( 29-C , 30-S ) :   1.0894 B( 29-C , 31-C ) :   1.5142
B( 31-C , 32-C ) :   1.2521 B( 31-C , 74-H ) :   0.9507 B( 32-C , 33-C ) :   1.3953
B( 32-C , 37-S ) :   1.0507 B( 33-C , 34-C ) :   1.1885 B( 33-C , 40-C ) :   0.9894
B( 34-C , 35-C ) :   0.9676 B( 34-C , 38-C ) :   1.3441 B( 35-C , 36-O ) :   2.0998
B( 35-C , 37-S ) :   1.0127 B( 36-O , 37-S ) :   0.1164 B( 38-C , 39-O ) :   1.1777
B( 38-C , 42-C ) :   1.2741 B( 39-O , 40-C ) :   1.0027 B( 40-C , 41-O ) :   2.1890
B( 42-C , 43-C ) :   1.3757 B( 42-C , 46-S ) :   1.0533 B( 43-C , 44-C ) :   1.3674
B( 43-C , 75-H ) :   0.9836 B( 44-C , 45-C ) :   1.4409 B( 44-C , 49-C ) :   1.0051
B( 45-C , 46-S ) :   1.1250 B( 45-C , 47-C ) :   1.2234 B( 47-C , 48-C ) :   1.4855
B( 47-C , 52-S ) :   1.0747 B( 48-C , 49-C ) :   1.0109 B( 48-C , 50-C ) :   1.3248
B( 49-C , 76-H ) :   0.8645 B( 49-C , 77-H ) :   0.8684 B( 50-C , 51-C ) :   1.4436
B( 50-C , 78-H ) :   0.9986 B( 51-C , 52-S ) :   1.1264 B( 51-C , 53-C ) :   1.1293
B( 53-C , 54-C ) :   1.6899 B( 53-C , 79-H ) :   0.9564 B( 54-C , 55-C ) :   1.1449
B( 54-C , 80-H ) :   0.9518 B( 55-C , 56-S ) :   1.1299 B( 55-C , 60-C ) :   1.4423
B( 56-S , 57-C ) :   1.1461 B( 57-C , 58-C ) :   1.5801 B( 57-C , 81-H ) :   0.9680
B( 58-C , 59-C ) :   1.0911 B( 58-C , 60-C ) :   1.2619 B( 59-C , 82-H ) :   0.9483
B( 59-C , 83-H ) :   0.9447 B( 59-C , 84-H ) :   0.9444 B( 60-C , 61-C ) :   1.0566
B( 61-C , 62-C ) :   1.7400 B( 61-C , 64-C ) :   0.1007 B( 61-C , 85-H ) :   0.9599
B( 62-C , 63-C ) :   1.0947 B( 62-C , 86-H ) :   0.9785 B( 63-C , 64-C ) :   1.9124
B( 63-C , 87-H ) :   0.9762 B( 64-C , 88-H ) :   0.9583 B( 64-C , 89-H ) :   0.9512

-----------------------------------------------------------------------------
         ABSORPTION SPECTRUM VIA TRANSITION ELECTRIC DIPOLE MOMENTS
-----------------------------------------------------------------------------
State   Energy  Wavelength   fosc         T2         TX        TY        TZ
        (cm-1)    (nm)                  (au**2)     (au)      (au)      (au)
-----------------------------------------------------------------------------
   0    8302.2   1204.5   0.556639771  22.07289   3.61021   0.05243   3.00608
   1   15165.1    659.4   0.658538540  14.29591   1.07068  -3.13600  -1.82073
   2   17416.5    574.2   1.798311335  33.99218  -2.77555   4.69846   2.05255
   3   19819.7    504.5   0.147485255   2.44978   0.85636  -1.08136  -0.73966
   4   21415.1    467.0   0.181854037   2.79562   0.15532  -1.23245  -1.11918
   5   22848.1    437.7   0.145533915   2.09696  -1.06979   0.60080  -0.76912
   6   23325.9    428.7   0.119855550   1.69159   0.40458   0.68268   1.03046
   7   24022.4    416.3   0.096652469   1.32456   0.15690  -0.81163  -0.80075
   8   24592.1    406.6   0.065962658   0.88303  -0.17543   0.64686   0.65866
   9   25842.4    387.0   0.040419589   0.51491  -0.33407   0.27600  -0.57196
  10   26233.6    381.2   0.000289986   0.00364   0.01971  -0.03841   0.04214
  11   27252.0    366.9   0.005380656   0.06500   0.07507  -0.20582   0.13040
  12   27666.4    361.4   0.125113714   1.48877  -0.84615   0.67150  -0.56736
  13   27959.0    357.7   0.022292142   0.26249  -0.38249   0.18586  -0.28573
  14   28581.4    349.9   0.132677672   1.52823  -0.71750   0.96525   0.28587
  15   28806.3    347.1   0.014169581   0.16194  -0.12072   0.35496  -0.14618
  16   29354.1    340.7   0.083279545   0.93400  -0.24037   0.78879   0.50401
  17   29570.6    338.2   0.045550543   0.50712  -0.48591   0.51922  -0.03764
  18   30102.1    332.2   0.042594711   0.46584  -0.46856   0.02752  -0.49551
  19   31179.6    320.7   0.304602396   3.21616  -0.81771  -0.08893  -1.59361
  20   31586.5    316.6   0.255579005   2.66379   0.10979  -1.09829  -1.20229
  21   31947.0    313.0   0.017306032   0.17834  -0.30715  -0.17960  -0.22746
  22   32098.5    311.5   0.134559749   1.38009   0.05258   0.65918   0.97098
  23   32242.7    310.1   0.118350241   1.20841   0.20827   0.46632   0.97344
  24   32562.9    307.1   0.005892324   0.05957   0.02510   0.14337   0.19592
  25   33108.9    302.0   0.016179990   0.16088  -0.11431   0.37816   0.06933
  26   33319.9    300.1   0.015060588   0.14880   0.10190   0.23178   0.29103
  27   33654.9    297.1   0.007298797   0.07140   0.15057  -0.20865  -0.07205
  28   34073.0    293.5   0.002589235   0.02502  -0.03669   0.07651   0.13348
  29   34489.2    289.9   0.015739871   0.15024   0.16925   0.03225   0.34721
  30   34637.5    288.7   0.034033133   0.32347  -0.05813  -0.27388  -0.49505
  31   34965.5    286.0   0.023751375   0.22363  -0.12797   0.03065  -0.45422
  32   35468.3    281.9   0.005666909   0.05260  -0.08772   0.15778   0.14146
  33   35916.4    278.4   0.255763958   2.34435  -0.79162   0.16431  -1.30027
  34   36204.4    276.2   0.050428690   0.45856   0.31615   0.13987   0.58227
  35   36324.4    275.3   0.002575045   0.02334   0.00437  -0.06787  -0.13679
  36   36448.9    274.4   0.137725601   1.24396   0.77856  -0.59831   0.52899
  37   36713.1    272.4   0.089001393   0.79809   0.63484  -0.09801   0.62085
  38   37066.0    269.8   0.070394031   0.62522  -0.49718   0.09866  -0.60688
  39   37296.9    268.1   0.033023220   0.29149  -0.26924   0.21663  -0.41482
  40   37748.9    264.9   0.014597002   0.12730  -0.14021   0.28884   0.15561
  41   38187.8    261.9   0.080233936   0.69169   0.60432  -0.34630   0.45449
  42   38966.2    256.6   0.050460866   0.42633   0.48969  -0.26593   0.34031
  43   39132.1    255.5   0.026099623   0.21957  -0.06305  -0.19365  -0.42201
  44   39226.7    254.9   0.044696359   0.37512   0.12330  -0.46791  -0.37546
  45   39543.7    252.9   0.081910063   0.68192   0.57820  -0.23052   0.54265
  46   39837.5    251.0   0.069148807   0.57144  -0.29137   0.10079  -0.69020
  47   39925.9    250.5   0.008099839   0.06679   0.11891  -0.09482   0.20894
  48   40006.9    250.0   0.004241741   0.03490   0.18660  -0.00859   0.00360
  49   40230.2    248.6   0.024196256   0.19800  -0.09089  -0.22396  -0.37361

FINAL SINGLE POINT ENERGY     -7726.220598564555

DIPOLE MOMENT
-------------
                                X             Y             Z
Electronic contribution:    -77.71108     -10.32328     -95.63256
Nuclear contribution   :     77.79404      10.55687      95.80441
                        -----------------------------------------
Total Dipole Moment    :      0.08297       0.23359       0.17185
                        -----------------------------------------
Magnitude (a.u.)       :      0.30163
Magnitude (Debye)      :      0.76668

Rotational constants in cm-1:     0.000534     0.000508     0.000263
Rotational constants in MHz :    15.996579    15.225545     7.882912

                             ****ORCA TERMINATED NORMALLY****
TOTAL RUN TIME: 0 days 0 hours 8 minutes 57 seconds 536 msec
