                         Program Version 4.2.0 -  RELEASE  -
|  1> # ORCA input file
|  2> # SCF done       -191.497140935530          0.000589844917
|  3> ! CAM-B3LYP def2-SVP def2/J RIJCOSX Grid4 TightSCF
|  4> %maxcore 5000
|  5> %tddft
|  6>     Mode sTDDFT
|  7>     Ethresh 5.0
|  8>     maxcore 5000
|  9> end
| 10>
| 11> %pal
| 12>   nprocs 6
| 13>   end
| 14> * xyz 0 1
| 15>    C       -3.42811         2.11611        -0.93270
| 16>    C       -3.25030         0.79843        -1.31185
| 17>    C       -2.01488         0.13580        -1.30333
| 18>    N       -1.03984        -0.47635        -1.30515
| 19>    C       -4.24865        -0.08580        -1.74780
| 20>    N       -4.97833        -0.91332        -2.07743
| 21>    C       -2.36348         2.99691        -0.45466
| 22>    C       -2.91643         4.27464        -0.20560
| 23>    C       -2.17102         5.32418         0.26602
| 24>    C       -0.81444         5.09430         0.52615
| 25>    C       -0.27918         3.80882         0.29931
| 26>    C       -1.03031         2.75160        -0.20117
| 27>    S        1.39942         3.72542         0.74315
| 28>    C        1.36471         5.40632         1.20673
| 29>    C        0.15690         5.99686         1.04296
| 30>   Br        2.91492         6.21679         1.89475
| 31>    C       -4.37147         4.23189        -0.48768
| 32>    O       -5.15482         5.15270        -0.34918
| 33>    C       -4.64786         2.85501        -0.91883
| 34>    C       -5.91470         2.33577        -1.15511
| 35>    C       -7.10512         3.02699        -1.07295
| 36>    C       -8.33525         2.37501        -1.10765
| 37>    C       -9.61170         2.94344        -0.98159
| 38>    C      -10.63018         2.02327        -0.92826
| 39>    C      -10.18968         0.69613        -1.01280
| 40>    S       -8.45597         0.63414        -1.20339
| 41>    C      -10.93366        -0.47590        -0.87789
| 42>    C      -12.28251        -0.61159        -0.52163
| 43>    C      -12.66687        -1.91344        -0.33951
| 44>    C      -11.64839        -2.86462        -0.55695
| 45>    S      -10.17833        -2.03969        -1.02716
| 46>    C      -11.87984        -4.22887        -0.44665
| 47>    C      -11.14188        -5.37538        -0.74800
| 48>    S      -12.27118        -6.75306        -0.92669
| 49>    C      -11.25734        -8.14191        -0.58276
| 50>    C      -11.65136        -9.26253         0.07789
| 51>    S      -10.40095       -10.44336         0.12359
| 52>    C       -9.32850        -9.40714        -0.73422
| 53>    C       -9.92136        -8.22684        -1.05118
| 54>    S       -9.17133        -6.91131        -1.94368
| 55>    C       -9.77286        -5.52735        -0.97514
| 56>    C       -8.79444        -4.65564        -0.48465
| 57>    C       -7.45072        -4.77811        -0.73770
| 58>    C       -6.45295        -3.90331        -0.30575
| 59>    S       -6.70835        -2.37821         0.52778
| 60>    C       -5.01475        -1.97814         0.61671
| 61>    C       -4.26845        -3.00192         0.01476
| 62>    C       -5.08138        -4.04604        -0.49366
| 63>    O       -4.34258        -4.99720        -1.08545
| 64>    C       -3.05610        -4.56776        -0.98003
| 65>    N       -2.03560        -5.38944        -1.50794
| 66>    O       -0.89150        -5.00944        -1.33709
| 67>    O       -2.36194        -6.40988        -2.07650
| 68>    C       -2.94229        -3.36378        -0.33127
| 69>    C       -4.56162        -0.76203         1.20179
| 70>    C       -3.22574        -0.60169         1.53859
| 71>    C       -2.76579         0.61103         2.07686
| 72>    C       -1.50915         1.02786         2.51290
| 73>    C       -0.20385         0.32143         2.65716
| 74>    C        0.01572        -0.06779         4.14055
| 75>    N        1.43787        -0.10082         4.41783
| 76>    C        0.00278        -0.90066         1.75363
| 77>    N        1.41211        -1.27499         1.74148
| 78>    C       -1.66428         2.39402         2.95837
| 79>    C       -0.77927         3.24255         3.52100
| 80>    C       -1.18537         4.59977         3.94700
| 81>    C       -2.59853         4.96527         3.65337
| 82>    C       -3.47290         4.10677         3.09778
| 83>    C       -3.05841         2.79666         2.75313
| 84>    C       -3.72168         1.70610         2.23268
| 85>    C       -5.08253         1.50738         1.90070
| 86>    C       -5.49102         0.30792         1.42171
| 87>    H       -2.61828         6.28983         0.44147
| 88>    H       -0.57191         1.79211        -0.36696
| 89>    H       -0.04238         7.02857         1.27081
| 90>    H       -5.98229         1.27633        -1.37069
| 91>    H       -7.09713         4.09640        -0.92284
| 92>    H       -9.75154         4.00793        -0.91912
| 93>    H      -11.66959         2.27890        -0.82560
| 94>    H      -12.93049         0.23478        -0.38472
| 95>    H      -13.65944        -2.21102        -0.05069
| 96>    H      -12.91270        -4.44792        -0.19156
| 97>    H      -12.60587        -9.46593         0.51818
| 98>    H       -8.33691        -9.73143        -0.97476
| 99>    H       -9.11830        -3.86409         0.17494
|100>    H       -7.09454        -5.61231        -1.32887
|101>    H       -2.02269        -2.83658        -0.18069
|102>    H       -2.55095        -1.42987         1.42085
|103>    H        0.59039         1.03995         2.41906
|104>    H       -0.50156        -1.02393         4.32795
|105>    H       -0.43980         0.68548         4.79310
|106>    H        1.88028        -0.72755         3.74824
|107>    H        1.60816        -0.45799         5.35193
|108>    H       -0.38040        -0.67964         0.74582
|109>    H       -0.54836        -1.75559         2.15603
|110>    H        1.95569        -0.56098         1.26612
|111>    H        1.53390        -2.14026         1.22587
|112>    H        0.24743         2.95469         3.70190
|113>    H       -0.51016         5.33765         3.49373
|114>    H       -1.00294         4.69088         5.02705
|115>    H       -2.89833         5.96623         3.92389
|116>    H       -4.49283         4.40264         2.90216
|117>    H       -5.78402         2.31674         2.03870
|118>    H       -6.52569         0.13570         1.16481
|119> *
|120>
|121>                          ****END OF INPUT****

CARTESIAN COORDINATES (ANGSTROEM)
---------------------------------
  C     -3.428110    2.116110   -0.932700
  C     -3.250300    0.798430   -1.311850
  C     -2.014880    0.135800   -1.303330
  N     -1.039840   -0.476350   -1.305150
  C     -4.248650   -0.085800   -1.747800
  N     -4.978330   -0.913320   -2.077430
  C     -2.363480    2.996910   -0.454660
  C     -2.916430    4.274640   -0.205600
  C     -2.171020    5.324180    0.266020
  C     -0.814440    5.094300    0.526150
  C     -0.279180    3.808820    0.299310
  C     -1.030310    2.751600   -0.201170
  S      1.399420    3.725420    0.743150
  C      1.364710    5.406320    1.206730
  C      0.156900    5.996860    1.042960
  Br     2.914920    6.216790    1.894750
  C     -4.371470    4.231890   -0.487680
  O     -5.154820    5.152700   -0.349180
  C     -4.647860    2.855010   -0.918830
  C     -5.914700    2.335770   -1.155110
  C     -7.105120    3.026990   -1.072950
  C     -8.335250    2.375010   -1.107650
  C     -9.611700    2.943440   -0.981590
  C    -10.630180    2.023270   -0.928260
  C    -10.189680    0.696130   -1.012800
  S     -8.455970    0.634140   -1.203390
  C    -10.933660   -0.475900   -0.877890
  C    -12.282510   -0.611590   -0.521630
  C    -12.666870   -1.913440   -0.339510
  C    -11.648390   -2.864620   -0.556950
  S    -10.178330   -2.039690   -1.027160
  C    -11.879840   -4.228870   -0.446650
  C    -11.141880   -5.375380   -0.748000
  S    -12.271180   -6.753060   -0.926690
  C    -11.257340   -8.141910   -0.582760
  C    -11.651360   -9.262530    0.077890
  S    -10.400950  -10.443360    0.123590
  C     -9.328500   -9.407140   -0.734220
  C     -9.921360   -8.226840   -1.051180
  S     -9.171330   -6.911310   -1.943680
  C     -9.772860   -5.527350   -0.975140
  C     -8.794440   -4.655640   -0.484650
  C     -7.450720   -4.778110   -0.737700
  C     -6.452950   -3.903310   -0.305750
  S     -6.708350   -2.378210    0.527780
  C     -5.014750   -1.978140    0.616710
  C     -4.268450   -3.001920    0.014760
  C     -5.081380   -4.046040   -0.493660
  O     -4.342580   -4.997200   -1.085450
  C     -3.056100   -4.567760   -0.980030
  N     -2.035600   -5.389440   -1.507940
  O     -0.891500   -5.009440   -1.337090
  O     -2.361940   -6.409880   -2.076500
  C     -2.942290   -3.363780   -0.331270
  C     -4.561620   -0.762030    1.201790
  C     -3.225740   -0.601690    1.538590
  C     -2.765790    0.611030    2.076860
  C     -1.509150    1.027860    2.512900
  C     -0.203850    0.321430    2.657160
  C      0.015720   -0.067790    4.140550
  N      1.437870   -0.100820    4.417830
  C      0.002780   -0.900660    1.753630
  N      1.412110   -1.274990    1.741480
  C     -1.664280    2.394020    2.958370
  C     -0.779270    3.242550    3.521000
  C     -1.185370    4.599770    3.947000
  C     -2.598530    4.965270    3.653370
  C     -3.472900    4.106770    3.097780
  C     -3.058410    2.796660    2.753130
  C     -3.721680    1.706100    2.232680
  C     -5.082530    1.507380    1.900700
  C     -5.491020    0.307920    1.421710
  H     -2.618280    6.289830    0.441470
  H     -0.571910    1.792110   -0.366960
  H     -0.042380    7.028570    1.270810
  H     -5.982290    1.276330   -1.370690
  H     -7.097130    4.096400   -0.922840
  H     -9.751540    4.007930   -0.919120
  H    -11.669590    2.278900   -0.825600
  H    -12.930490    0.234780   -0.384720
  H    -13.659440   -2.211020   -0.050690
  H    -12.912700   -4.447920   -0.191560
  H    -12.605870   -9.465930    0.518180
  H     -8.336910   -9.731430   -0.974760
  H     -9.118300   -3.864090    0.174940
  H     -7.094540   -5.612310   -1.328870
  H     -2.022690   -2.836580   -0.180690
  H     -2.550950   -1.429870    1.420850
  H      0.590390    1.039950    2.419060
  H     -0.501560   -1.023930    4.327950
  H     -0.439800    0.685480    4.793100
  H      1.880280   -0.727550    3.748240
  H      1.608160   -0.457990    5.351930
  H     -0.380400   -0.679640    0.745820
  H     -0.548360   -1.755590    2.156030
  H      1.955690   -0.560980    1.266120
  H      1.533900   -2.140260    1.225870
  H      0.247430    2.954690    3.701900
  H     -0.510160    5.337650    3.493730
  H     -1.002940    4.690880    5.027050
  H     -2.898330    5.966230    3.923890
  H     -4.492830    4.402640    2.902160
  H     -5.784020    2.316740    2.038700
  H     -6.525690    0.135700    1.164810

 Total Charge           Charge          ....    0
 Multiplicity           Mult            ....    1
 Number of Electrons    NEL             ....  576
 Basis Dimension        Dim             .... 1214

ORBITAL ENERGIES
----------------

  NO   OCC          E(Eh)            E(eV)
   0   2.0000    -482.880814    -13139.8550
   1   2.0000     -88.972620     -2421.0681
   2   2.0000     -88.969139     -2420.9734
   3   2.0000     -88.967866     -2420.9387
   4   2.0000     -88.964341     -2420.8428
   5   2.0000     -88.958226     -2420.6764
   6   2.0000     -88.943731     -2420.2820
   7   2.0000     -88.943328     -2420.2710
   8   2.0000     -62.558495     -1702.3032
   9   2.0000     -56.392430     -1534.5160
  10   2.0000     -56.389747     -1534.4430
  11   2.0000     -56.389709     -1534.4420
  12   2.0000     -19.313001      -525.5335
  13   2.0000     -19.236462      -523.4507
  14   2.0000     -19.234385      -523.3942
  15   2.0000     -19.194275      -522.3028
  16   2.0000     -14.648789      -398.6138
  17   2.0000     -14.401816      -391.8933
  18   2.0000     -14.400047      -391.8452
  19   2.0000     -14.379878      -391.2964
  20   2.0000     -14.351550      -390.5255
  21   2.0000     -10.380788      -282.4756
  22   2.0000     -10.354502      -281.7603
  23   2.0000     -10.350821      -281.6602
  24   2.0000     -10.343171      -281.4520
  25   2.0000     -10.333389      -281.1858
  26   2.0000     -10.333029      -281.1760
  27   2.0000     -10.328735      -281.0592
  28   2.0000     -10.321826      -280.8712
  29   2.0000     -10.319751      -280.8147
  30   2.0000     -10.319635      -280.8115
  31   2.0000     -10.316115      -280.7158
  32   2.0000     -10.315608      -280.7020
  33   2.0000     -10.315355      -280.6951
  34   2.0000     -10.313888      -280.6552
  35   2.0000     -10.311513      -280.5905
  36   2.0000     -10.310576      -280.5650
  37   2.0000     -10.309576      -280.5378
  38   2.0000     -10.308391      -280.5056
  39   2.0000     -10.307029      -280.4685
  40   2.0000     -10.305660      -280.4313
  41   2.0000     -10.305097      -280.4160
  42   2.0000     -10.303282      -280.3666
  43   2.0000     -10.303227      -280.3651
  44   2.0000     -10.303164      -280.3634
  45   2.0000     -10.302391      -280.3423
  46   2.0000     -10.301903      -280.3290
  47   2.0000     -10.299151      -280.2542
  48   2.0000     -10.296369      -280.1784
  49   2.0000     -10.295109      -280.1441
  50   2.0000     -10.292490      -280.0729
  51   2.0000     -10.291502      -280.0460
  52   2.0000     -10.290749      -280.0255
  53   2.0000     -10.289728      -279.9977
  54   2.0000     -10.289311      -279.9864
  55   2.0000     -10.288036      -279.9517
  56   2.0000     -10.287506      -279.9373
  57   2.0000     -10.286226      -279.9024
  58   2.0000     -10.284314      -279.8504
  59   2.0000     -10.284308      -279.8503
  60   2.0000     -10.284164      -279.8463
  61   2.0000     -10.273717      -279.5621
  62   2.0000     -10.273374      -279.5527
  63   2.0000     -10.272815      -279.5375
  64   2.0000     -10.272192      -279.5205
  65   2.0000     -10.270868      -279.4845
  66   2.0000     -10.270609      -279.4775
  67   2.0000     -10.269582      -279.4495
  68   2.0000     -10.269439      -279.4456
  69   2.0000     -10.268113      -279.4096
  70   2.0000     -10.267370      -279.3893
  71   2.0000     -10.266461      -279.3646
  72   2.0000     -10.264791      -279.3192
  73   2.0000     -10.263728      -279.2902
  74   2.0000     -10.261903      -279.2406
  75   2.0000     -10.261090      -279.2185
  76   2.0000      -8.787884      -239.1305
  77   2.0000      -8.067043      -219.5154
  78   2.0000      -8.064423      -219.4441
  79   2.0000      -8.063381      -219.4157
  80   2.0000      -8.060203      -219.3293
  81   2.0000      -8.053589      -219.1493
  82   2.0000      -8.039123      -218.7557
  83   2.0000      -8.038690      -218.7439
  84   2.0000      -6.624103      -180.2510
  85   2.0000      -6.609642      -179.8575
  86   2.0000      -6.609482      -179.8532
  87   2.0000      -6.036381      -164.2583
  88   2.0000      -6.034096      -164.1961
  89   2.0000      -6.032947      -164.1648
  90   2.0000      -6.032349      -164.1486
  91   2.0000      -6.029887      -164.0816
  92   2.0000      -6.029552      -164.0724
  93   2.0000      -6.029036      -164.0584
  94   2.0000      -6.028749      -164.0506
  95   2.0000      -6.025782      -163.9699
  96   2.0000      -6.025170      -163.9532
  97   2.0000      -6.024811      -163.9434
  98   2.0000      -6.023094      -163.8967
  99   2.0000      -6.022456      -163.8794
 100   2.0000      -6.019027      -163.7861
 101   2.0000      -6.015136      -163.6802
 102   2.0000      -6.009500      -163.5268
 103   2.0000      -6.009100      -163.5159
 104   2.0000      -6.005451      -163.4166
 105   2.0000      -6.005360      -163.4142
 106   2.0000      -5.998823      -163.2363
 107   2.0000      -5.998017      -163.2143
 108   2.0000      -2.739991       -74.5589
 109   2.0000      -2.735911       -74.4479
 110   2.0000      -2.735808       -74.4451
 111   2.0000      -2.724314       -74.1323
 112   2.0000      -2.724288       -74.1316
 113   2.0000      -1.319559       -35.9070
 114   2.0000      -1.233055       -33.5531
 115   2.0000      -1.135604       -30.9013
 116   2.0000      -1.106832       -30.1184
 117   2.0000      -1.010810       -27.5055
 118   2.0000      -1.009929       -27.4816
 119   2.0000      -1.004325       -27.3291
 120   2.0000      -1.002802       -27.2876
 121   2.0000      -0.998989       -27.1839
 122   2.0000      -0.986671       -26.8487
 123   2.0000      -0.983415       -26.7601
 124   2.0000      -0.981387       -26.7049
 125   2.0000      -0.972130       -26.4530
 126   2.0000      -0.964146       -26.2357
 127   2.0000      -0.961663       -26.1682
 128   2.0000      -0.943445       -25.6724
 129   2.0000      -0.932859       -25.3844
 130   2.0000      -0.931674       -25.3521
 131   2.0000      -0.928100       -25.2549
 132   2.0000      -0.916089       -24.9281
 133   2.0000      -0.905313       -24.6348
 134   2.0000      -0.903224       -24.5780
 135   2.0000      -0.895082       -24.3564
 136   2.0000      -0.892338       -24.2817
 137   2.0000      -0.884426       -24.0664
 138   2.0000      -0.877243       -23.8710
 139   2.0000      -0.871924       -23.7263
 140   2.0000      -0.870883       -23.6979
 141   2.0000      -0.864451       -23.5229
 142   2.0000      -0.859466       -23.3873
 143   2.0000      -0.849659       -23.1204
 144   2.0000      -0.841753       -22.9053
 145   2.0000      -0.836705       -22.7679
 146   2.0000      -0.832881       -22.6639
 147   2.0000      -0.827738       -22.5239
 148   2.0000      -0.820152       -22.3175
 149   2.0000      -0.816823       -22.2269
 150   2.0000      -0.808256       -21.9938
 151   2.0000      -0.797774       -21.7085
 152   2.0000      -0.786040       -21.3892
 153   2.0000      -0.778104       -21.1733
 154   2.0000      -0.765494       -20.8301
 155   2.0000      -0.759150       -20.6575
 156   2.0000      -0.755988       -20.5715
 157   2.0000      -0.741434       -20.1754
 158   2.0000      -0.737715       -20.0742
 159   2.0000      -0.727339       -19.7919
 160   2.0000      -0.715234       -19.4625
 161   2.0000      -0.710466       -19.3328
 162   2.0000      -0.699035       -19.0217
 163   2.0000      -0.697049       -18.9677
 164   2.0000      -0.680490       -18.5171
 165   2.0000      -0.676180       -18.3998
 166   2.0000      -0.672819       -18.3083
 167   2.0000      -0.670207       -18.2373
 168   2.0000      -0.668735       -18.1972
 169   2.0000      -0.665875       -18.1194
 170   2.0000      -0.665475       -18.1085
 171   2.0000      -0.654066       -17.7981
 172   2.0000      -0.649713       -17.6796
 173   2.0000      -0.644621       -17.5410
 174   2.0000      -0.641180       -17.4474
 175   2.0000      -0.635391       -17.2899
 176   2.0000      -0.634298       -17.2601
 177   2.0000      -0.633550       -17.2398
 178   2.0000      -0.628809       -17.1108
 179   2.0000      -0.622937       -16.9510
 180   2.0000      -0.614729       -16.7276
 181   2.0000      -0.611770       -16.6471
 182   2.0000      -0.608179       -16.5494
 183   2.0000      -0.600691       -16.3456
 184   2.0000      -0.596048       -16.2193
 185   2.0000      -0.586447       -15.9580
 186   2.0000      -0.584673       -15.9098
 187   2.0000      -0.582510       -15.8509
 188   2.0000      -0.581544       -15.8246
 189   2.0000      -0.577900       -15.7255
 190   2.0000      -0.574795       -15.6410
 191   2.0000      -0.568126       -15.4595
 192   2.0000      -0.567774       -15.4499
 193   2.0000      -0.558620       -15.2008
 194   2.0000      -0.558381       -15.1943
 195   2.0000      -0.554414       -15.0864
 196   2.0000      -0.552233       -15.0270
 197   2.0000      -0.544477       -14.8160
 198   2.0000      -0.541219       -14.7273
 199   2.0000      -0.538796       -14.6614
 200   2.0000      -0.533731       -14.5236
 201   2.0000      -0.531856       -14.4725
 202   2.0000      -0.526419       -14.3246
 203   2.0000      -0.525049       -14.2873
 204   2.0000      -0.523171       -14.2362
 205   2.0000      -0.520928       -14.1752
 206   2.0000      -0.517845       -14.0913
 207   2.0000      -0.513571       -13.9750
 208   2.0000      -0.511994       -13.9321
 209   2.0000      -0.510338       -13.8870
 210   2.0000      -0.509572       -13.8662
 211   2.0000      -0.506739       -13.7891
 212   2.0000      -0.505521       -13.7559
 213   2.0000      -0.503978       -13.7139
 214   2.0000      -0.500584       -13.6216
 215   2.0000      -0.499788       -13.5999
 216   2.0000      -0.498267       -13.5585
 217   2.0000      -0.496301       -13.5050
 218   2.0000      -0.494805       -13.4643
 219   2.0000      -0.491846       -13.3838
 220   2.0000      -0.489697       -13.3253
 221   2.0000      -0.488979       -13.3058
 222   2.0000      -0.480331       -13.0705
 223   2.0000      -0.479939       -13.0598
 224   2.0000      -0.477807       -13.0018
 225   2.0000      -0.476118       -12.9558
 226   2.0000      -0.475624       -12.9424
 227   2.0000      -0.471653       -12.8343
 228   2.0000      -0.468399       -12.7458
 229   2.0000      -0.466372       -12.6906
 230   2.0000      -0.463889       -12.6231
 231   2.0000      -0.459393       -12.5007
 232   2.0000      -0.457745       -12.4559
 233   2.0000      -0.456051       -12.4098
 234   2.0000      -0.454536       -12.3685
 235   2.0000      -0.450503       -12.2588
 236   2.0000      -0.447103       -12.1663
 237   2.0000      -0.446534       -12.1508
 238   2.0000      -0.441063       -12.0019
 239   2.0000      -0.440951       -11.9989
 240   2.0000      -0.438660       -11.9365
 241   2.0000      -0.436732       -11.8841
 242   2.0000      -0.435412       -11.8482
 243   2.0000      -0.432856       -11.7786
 244   2.0000      -0.431343       -11.7374
 245   2.0000      -0.429069       -11.6756
 246   2.0000      -0.427869       -11.6429
 247   2.0000      -0.421341       -11.4653
 248   2.0000      -0.418486       -11.3876
 249   2.0000      -0.415632       -11.3099
 250   2.0000      -0.414178       -11.2704
 251   2.0000      -0.411385       -11.1943
 252   2.0000      -0.408925       -11.1274
 253   2.0000      -0.407976       -11.1016
 254   2.0000      -0.404652       -11.0111
 255   2.0000      -0.402531       -10.9534
 256   2.0000      -0.396669       -10.7939
 257   2.0000      -0.395500       -10.7621
 258   2.0000      -0.392022       -10.6675
 259   2.0000      -0.389591       -10.6013
 260   2.0000      -0.387601       -10.5472
 261   2.0000      -0.383074       -10.4240
 262   2.0000      -0.380087       -10.3427
 263   2.0000      -0.375213       -10.2101
 264   2.0000      -0.372485       -10.1358
 265   2.0000      -0.370332       -10.0773
 266   2.0000      -0.368671       -10.0320
 267   2.0000      -0.364387        -9.9155
 268   2.0000      -0.358274        -9.7491
 269   2.0000      -0.353125        -9.6090
 270   2.0000      -0.351414        -9.5625
 271   2.0000      -0.347915        -9.4673
 272   2.0000      -0.336170        -9.1476
 273   2.0000      -0.332451        -9.0465
 274   2.0000      -0.327531        -8.9126
 275   2.0000      -0.321229        -8.7411
 276   2.0000      -0.316207        -8.6044
 277   2.0000      -0.314361        -8.5542
 278   2.0000      -0.303661        -8.2630
 279   2.0000      -0.300970        -8.1898
 280   2.0000      -0.296875        -8.0784
 281   2.0000      -0.293087        -7.9753
 282   2.0000      -0.285211        -7.7610
 283   2.0000      -0.279445        -7.6041
 284   2.0000      -0.277238        -7.5440
 285   2.0000      -0.248786        -6.7698
 286   2.0000      -0.223700        -6.0872
 287   2.0000      -0.213152        -5.8001
 288   0.0000      -0.115706        -3.1485
 289   0.0000      -0.081349        -2.2136
 290   0.0000      -0.066598        -1.8122
 291   0.0000      -0.049276        -1.3409
 292   0.0000      -0.042866        -1.1664

MULLIKEN ATOMIC CHARGES
-----------------------
   0 C :    0.351173
   1 C :   -0.401783
   2 C :   -0.152347
   3 N :    0.102633
   4 C :   -0.180010
   5 N :    0.118772
   6 C :    0.017070
   7 C :    0.006048
   8 C :   -0.084106
   9 C :    0.116470
  10 C :   -0.099102
  11 C :   -0.000917
  12 S :    0.166906
  13 C :   -0.136746
  14 C :    0.026859
  15 Br:    0.012544
  16 C :    0.118764
  17 O :   -0.168901
  18 C :   -0.081900
  19 C :   -0.062311
  20 C :   -0.015681
  21 C :    0.000208
  22 C :    0.012556
  23 C :    0.042636
  24 C :   -0.058327
  25 S :    0.098680
  26 C :   -0.018979
  27 C :    0.014928
  28 C :    0.042889
  29 C :   -0.040659
  30 S :    0.108329
  31 C :    0.030233
  32 C :   -0.059177
  33 S :    0.077837
  34 C :    0.004110
  35 C :   -0.123532
  36 S :    0.125519
  37 C :   -0.119322
  38 C :   -0.011044
  39 S :    0.098699
  40 C :   -0.077065
  41 C :   -0.037752
  42 C :    0.019548
  43 C :   -0.148813
  44 S :    0.157763
  45 C :   -0.121897
  46 C :    0.135378
  47 C :    0.214517
  48 O :   -0.171673
  49 C :    0.230005
  50 N :    0.275911
  51 O :   -0.249162
  52 O :   -0.235863
  53 C :   -0.083499
  54 C :    0.152203
  55 C :   -0.093056
  56 C :    0.032216
  57 C :   -0.012008
  58 C :   -0.068909
  59 C :    0.164256
  60 N :   -0.231004
  61 C :    0.096669
  62 N :   -0.208298
  63 C :    0.072934
  64 C :   -0.177699
  65 C :    0.203978
  66 C :   -0.111690
  67 C :    0.041123
  68 C :    0.025351
  69 C :   -0.001016
  70 C :    0.045542
  71 C :   -0.069698
  72 H :   -0.025096
  73 H :   -0.029625
  74 H :   -0.007114
  75 H :    0.017958
  76 H :    0.009490
  77 H :   -0.005097
  78 H :   -0.008876
  79 H :   -0.009432
  80 H :   -0.002742
  81 H :    0.005856
  82 H :    0.026308
  83 H :    0.030999
  84 H :    0.012631
  85 H :    0.028664
  86 H :    0.012678
  87 H :   -0.058644
  88 H :   -0.022825
  89 H :   -0.029531
  90 H :   -0.013946
  91 H :    0.083298
  92 H :    0.079715
  93 H :    0.015943
  94 H :    0.007386
  95 H :    0.099973
  96 H :    0.103869
  97 H :    0.019735
  98 H :    0.045823
  99 H :    0.052058
 100 H :   -0.007422
 101 H :   -0.029581
 102 H :   -0.029322
 103 H :   -0.020440
Sum of atomic charges:   -0.0000000

LOEWDIN ATOMIC CHARGES
----------------------
   0 C :    0.073665
   1 C :   -0.174903
   2 C :    0.001552
   3 N :   -0.094456
   4 C :   -0.014435
   5 N :   -0.084851
   6 C :   -0.005909
   7 C :   -0.044403
   8 C :    0.018216
   9 C :   -0.045022
  10 C :   -0.146752
  11 C :   -0.018965
  12 S :    0.426287
  13 C :   -0.284884
  14 C :   -0.073433
  15 Br:    0.124899
  16 C :    0.078846
  17 O :   -0.166829
  18 C :   -0.118593
  19 C :    0.037305
  20 C :   -0.079658
  21 C :   -0.108809
  22 C :   -0.056260
  23 C :   -0.011831
  24 C :   -0.204761
  25 S :    0.422275
  26 C :   -0.144990
  27 C :   -0.055917
  28 C :   -0.008032
  29 C :   -0.173879
  30 S :    0.437214
  31 C :   -0.041747
  32 C :   -0.187372
  33 S :    0.350457
  34 C :   -0.221390
  35 C :   -0.201072
  36 S :    0.451406
  37 C :   -0.198298
  38 C :   -0.217416
  39 S :    0.356575
  40 C :   -0.138181
  41 C :   -0.081995
  42 C :    0.001660
  43 C :   -0.204189
  44 S :    0.478496
  45 C :   -0.106163
  46 C :   -0.080292
  47 C :    0.052547
  48 O :    0.018122
  49 C :    0.022427
  50 N :    0.272434
  51 O :   -0.211253
  52 O :   -0.197527
  53 C :   -0.001077
  54 C :   -0.054256
  55 C :    0.020558
  56 C :   -0.031282
  57 C :   -0.015255
  58 C :   -0.042955
  59 C :    0.033273
  60 N :   -0.135084
  61 C :    0.015482
  62 N :   -0.096123
  63 C :   -0.025892
  64 C :    0.075437
  65 C :   -0.034314
  66 C :   -0.030267
  67 C :   -0.014910
  68 C :   -0.025784
  69 C :   -0.042374
  70 C :    0.009827
  71 C :   -0.050591
  72 H :    0.035394
  73 H :    0.034923
  74 H :    0.035892
  75 H :    0.025920
  76 H :    0.036887
  77 H :    0.036326
  78 H :    0.033834
  79 H :    0.033458
  80 H :    0.036792
  81 H :    0.036418
  82 H :    0.026285
  83 H :    0.028309
  84 H :    0.015862
  85 H :    0.034359
  86 H :    0.045729
  87 H :    0.027335
  88 H :    0.019630
  89 H :   -0.002837
  90 H :    0.008272
  91 H :    0.033982
  92 H :    0.048640
  93 H :    0.001963
  94 H :    0.013166
  95 H :    0.056751
  96 H :    0.061879
  97 H :    0.035920
  98 H :    0.059009
  99 H :    0.065341
 100 H :    0.024681
 101 H :    0.031366
 102 H :    0.031636
 103 H :    0.012554

  Mayer bond orders larger than 0.100000
B(  0-C ,  1-C ) :   1.5165 B(  0-C ,  6-C ) :   0.9706 B(  0-C , 18-C ) :   1.1912
B(  1-C ,  2-C ) :   1.1898 B(  1-C ,  4-C ) :   1.1698 B(  2-C ,  3-N ) :   2.8015
B(  4-C ,  5-N ) :   2.8860 B(  6-C ,  7-C ) :   1.2875 B(  6-C , 11-C ) :   1.4460
B(  7-C ,  8-C ) :   1.4272 B(  7-C , 16-C ) :   0.9253 B(  8-C ,  9-C ) :   1.2185
B(  8-C , 72-H ) :   1.0188 B(  9-C , 10-C ) :   1.3430 B(  9-C , 14-C ) :   1.1553
B( 10-C , 11-C ) :   1.3005 B( 10-C , 12-S ) :   1.0758 B( 11-C , 73-H ) :   0.9725
B( 12-S , 13-C ) :   1.0866 B( 13-C , 14-C ) :   1.6022 B( 13-C , 15-Br) :   1.0134
B( 14-C , 74-H ) :   1.0015 B( 16-C , 17-O ) :   2.1893 B( 16-C , 18-C ) :   0.9791
B( 18-C , 19-C ) :   1.3687 B( 19-C , 20-C ) :   1.3739 B( 19-C , 75-H ) :   0.9324
B( 20-C , 21-C ) :   1.3086 B( 20-C , 76-H ) :   0.9835 B( 21-C , 22-C ) :   1.2600
B( 21-C , 25-S ) :   1.1034 B( 22-C , 23-C ) :   1.4440 B( 22-C , 77-H ) :   1.0021
B( 23-C , 24-C ) :   1.3016 B( 23-C , 78-H ) :   0.9959 B( 24-C , 25-S ) :   1.0626
B( 24-C , 26-C ) :   1.3473 B( 26-C , 27-C ) :   1.2731 B( 26-C , 30-S ) :   1.0983
B( 27-C , 28-C ) :   1.4844 B( 27-C , 79-H ) :   0.9949 B( 28-C , 29-C ) :   1.2305
B( 28-C , 80-H ) :   0.9989 B( 29-C , 30-S ) :   1.0400 B( 29-C , 31-C ) :   1.4541
B( 31-C , 32-C ) :   1.3411 B( 31-C , 81-H ) :   0.9323 B( 32-C , 33-S ) :   1.0171
B( 32-C , 40-C ) :   1.3831 B( 33-S , 34-C ) :   0.9840 B( 34-C , 35-C ) :   1.5892
B( 34-C , 38-C ) :   1.2580 B( 35-C , 36-S ) :   1.1773 B( 35-C , 82-H ) :   0.9716
B( 36-S , 37-C ) :   1.1785 B( 37-C , 38-C ) :   1.5967 B( 37-C , 83-H ) :   0.9719
B( 38-C , 39-S ) :   0.9886 B( 39-S , 40-C ) :   1.0227 B( 40-C , 41-C ) :   1.3355
B( 41-C , 42-C ) :   1.4407 B( 41-C , 84-H ) :   0.9592 B( 42-C , 43-C ) :   1.3002
B( 42-C , 85-H ) :   0.9630 B( 43-C , 44-S ) :   1.0474 B( 43-C , 47-C ) :   1.3491
B( 44-S , 45-C ) :   1.1746 B( 45-C , 46-C ) :   1.2980 B( 45-C , 54-C ) :   1.1476
B( 46-C , 47-C ) :   1.2619 B( 46-C , 53-C ) :   1.0966 B( 47-C , 48-O ) :   1.1595
B( 48-O , 49-C ) :   1.1128 B( 49-C , 50-N ) :   0.9237 B( 49-C , 53-C ) :   1.5541
B( 50-N , 51-O ) :   1.5287 B( 50-N , 52-O ) :   1.5046 B( 51-O , 52-O ) :   0.2767
B( 53-C , 86-H ) :   1.0097 B( 54-C , 55-C ) :   1.4350 B( 54-C , 71-C ) :   1.1023
B( 55-C , 56-C ) :   1.1514 B( 55-C , 87-H ) :   0.9990 B( 56-C , 57-C ) :   1.4362
B( 56-C , 69-C ) :   1.1271 B( 57-C , 58-C ) :   1.0315 B( 57-C , 63-C ) :   1.1147
B( 58-C , 59-C ) :   1.0246 B( 58-C , 61-C ) :   1.0433 B( 58-C , 88-H ) :   0.8790
B( 59-C , 60-N ) :   1.0889 B( 59-C , 89-H ) :   0.9220 B( 59-C , 90-H ) :   0.9471
B( 60-N , 91-H ) :   0.9370 B( 60-N , 92-H ) :   0.9656 B( 61-C , 62-N ) :   1.0789
B( 61-C , 93-H ) :   0.9420 B( 61-C , 94-H ) :   0.9143 B( 62-N , 91-H ) :   0.1141
B( 62-N , 95-H ) :   0.9628 B( 62-N , 96-H ) :   0.9650 B( 63-C , 64-C ) :   1.6429
B( 63-C , 68-C ) :   1.0663 B( 64-C , 65-C ) :   1.0187 B( 64-C , 97-H ) :   0.9649
B( 65-C , 66-C ) :   1.0424 B( 65-C , 98-H ) :   0.8650 B( 65-C , 99-H ) :   0.8700
B( 66-C , 67-C ) :   1.7105 B( 66-C ,100-H ) :   0.9708 B( 67-C , 68-C ) :   1.1442
B( 67-C ,101-H ) :   0.9908 B( 68-C , 69-C ) :   1.4247 B( 69-C , 70-C ) :   1.1527
B( 70-C , 71-C ) :   1.6001 B( 70-C ,102-H ) :   0.9876 B( 71-C ,103-H ) :   0.9822

-----------------------------------------------------------------------------
         ABSORPTION SPECTRUM VIA TRANSITION ELECTRIC DIPOLE MOMENTS
-----------------------------------------------------------------------------
State   Energy  Wavelength   fosc         T2         TX        TY        TZ
        (cm-1)    (nm)                  (au**2)     (au)      (au)      (au)
-----------------------------------------------------------------------------
   0    6085.8   1643.2   0.083255689   4.50369   0.46301  -1.90291   0.81746
   1    9397.2   1064.2   0.192522740   6.74467   1.81674   1.85576   0.01730
   2   12406.4    806.0   0.013716139   0.36397   0.31402   0.50055   0.12168
   3   14539.4    687.8   0.055337976   1.25301  -0.76288  -0.73000  -0.37166
   4   15908.6    628.6   0.517220544  10.70335   2.94166   1.39535   0.32091
   5   16144.0    619.4   0.775314057  15.81041  -3.32861  -2.07313  -0.65797
   6   17920.7    558.0   0.264886181   4.86608   2.08383  -0.71573   0.10709
   7   19905.9    502.4   0.395407537   6.53941  -0.50408   2.39443   0.74299
   8   20231.1    494.3   0.066434841   1.08106  -0.39915  -0.81279  -0.51099
   9   21071.1    474.6   0.017891105   0.27953   0.35252  -0.16708   0.35685
  10   21414.0    467.0   0.518361027   7.96913   2.38228   1.50936   0.12526
  11   21822.0    458.3   0.063420176   0.95677  -0.05857  -0.94974  -0.22655
  12   22575.0    443.0   0.134777813   1.96547   0.48831   1.28588   0.27116
  13   22873.6    437.2   0.011290804   0.16250   0.18157  -0.34200  -0.11212
  14   22987.3    435.0   0.074414256   1.06572  -0.21124   0.98672   0.21790
  15   24150.7    414.1   0.129397581   1.76389   1.02999  -0.83699  -0.04956
  16   24508.2    408.0   0.063533929   0.85343   0.59882  -0.13027   0.69128
  17   25082.2    398.7   0.306089482   4.01752  -1.02480  -1.68361  -0.36440
  18   26586.4    376.1   0.006175626   0.07647  -0.08372   0.26327  -0.01232
  19   26744.7    373.9   0.010992548   0.13531  -0.28110   0.16437   0.17110
  20   27044.5    369.8   0.201029368   2.44712   0.09087   1.55733  -0.11652
  21   27199.6    367.7   0.185160070   2.24109   0.28646   1.46203   0.14668
  22   27538.7    363.1   0.060453654   0.72269   0.53058   0.65855   0.08655
  23   27814.9    359.5   0.034946672   0.41362   0.43862   0.12297  -0.45399
  24   28141.7    355.3   0.089736049   1.04976   0.55874   0.83574   0.19776
  25   28380.6    352.4   0.018274133   0.21198   0.01603   0.29541   0.35278
  26   28688.9    348.6   0.050408551   0.57845  -0.60363  -0.44322   0.13283
  27   28901.3    346.0   0.023695325   0.26991   0.29803   0.42101  -0.06195
  28   29257.6    341.8   0.046224807   0.52013   0.18022  -0.22341  -0.66162
  29   29511.4    338.9   0.009892644   0.11036   0.28556   0.05010   0.16217
  30   30170.0    331.5   0.021651582   0.23626  -0.12048  -0.42808  -0.19620
  31   30739.2    325.3   0.007309213   0.07828  -0.02250   0.27746  -0.02808
  32   30841.9    324.2   0.000212765   0.00227  -0.02180   0.04006   0.01384
  33   31138.2    321.1   0.023516601   0.24863   0.02733   0.07159   0.49271
  34   31681.4    315.6   0.042185936   0.43837  -0.58990   0.07885  -0.29011
  35   31704.9    315.4   0.008373586   0.08695   0.28313  -0.05505   0.06126
  36   31942.7    313.1   0.071096418   0.73274  -0.46820  -0.70035  -0.15179
  37   32007.5    312.4   0.013118480   0.13493   0.05149  -0.14774  -0.33234
  38   32248.1    310.1   0.082555213   0.84278  -0.70438   0.42398   0.40850
  39   32402.0    308.6   0.019072374   0.19378  -0.28133   0.32293   0.10171
  40   32799.8    304.9   0.071941990   0.72208  -0.25601  -0.49995  -0.63764
  41   32960.5    303.4   0.080563148   0.80467  -0.83115  -0.29503  -0.16373
  42   33135.1    301.8   0.076602058   0.76108   0.86416   0.11388   0.03641
  43   33458.6    298.9   0.029867351   0.29388   0.27057   0.35568   0.30685
  44   34008.8    294.0   0.060559758   0.58623  -0.63482  -0.42717  -0.02753
  45   34250.9    292.0   0.028391569   0.27289   0.04741   0.39030   0.34397
  46   34406.7    290.6   0.000748957   0.00717  -0.08407  -0.00948   0.00300
  47   34660.4    288.5   0.258056721   2.45108  -1.25519   0.82615   0.43938
  48   34771.5    287.6   0.036309381   0.34377  -0.28230  -0.36071   0.36601
  49   35061.9    285.2   0.044405990   0.41695  -0.63127  -0.02265   0.13391
  50   35304.9    283.2   0.014967823   0.13957   0.16645   0.28656  -0.17248
  51   35431.9    282.2   0.037793344   0.35115  -0.49257   0.31071  -0.10950
  52   35490.3    281.8   0.028518450   0.26454   0.00526   0.42508   0.28951
  53   35786.2    279.4   0.039676844   0.36500  -0.40690   0.39786   0.20284
  54   35915.7    278.4   0.008884091   0.08143  -0.25331  -0.02931   0.12810
  55   35977.4    278.0   0.016144061   0.14773  -0.07013   0.32659   0.19013
  56   36095.5    277.0   0.048085721   0.43857  -0.03956  -0.65571  -0.08398
  57   36260.2    275.8   0.117457368   1.06641   0.41567   0.77040   0.54783
  58   36664.4    272.7   0.109550708   0.98366   0.47371   0.77297   0.40221
  59   36815.1    271.6   0.007274744   0.06505  -0.23606  -0.09489  -0.01802
  60   37192.6    268.9   0.049632616   0.43932  -0.62388   0.20866   0.08103
  61   37400.6    267.4   0.075374672   0.66347  -0.59829   0.55227   0.02283
  62   37494.0    266.7   0.019079930   0.16753   0.33142  -0.23776  -0.03406
  63   37936.2    263.6   0.092755652   0.80494   0.53029   0.70444   0.16583
  64   37973.1    263.3   0.014136406   0.12256   0.14290  -0.31860   0.02511
  65   38175.5    261.9   0.066624798   0.57455   0.06787  -0.60552  -0.45087
  66   38241.4    261.5   0.009530287   0.08204  -0.27199   0.05579  -0.07037
  67   38308.5    261.0   0.003901790   0.03353  -0.05007  -0.17049   0.04423
  68   38470.7    259.9   0.034909270   0.29873  -0.25043  -0.45852  -0.16055
  69   38710.9    258.3   0.103679366   0.88173  -0.70750  -0.58470  -0.19821
  70   38863.5    257.3   0.002916776   0.02471   0.07510  -0.05316  -0.12744
  71   38919.0    256.9   0.005904800   0.04995  -0.07500   0.19384   0.08215
  72   39161.8    255.4   0.010467977   0.08800   0.02869   0.29247   0.04044
  73   39396.6    253.8   0.030795409   0.25734   0.25499   0.36024   0.25010
  74   39415.4    253.7   0.030887100   0.25798   0.03936   0.49211   0.11939
  75   39638.9    252.3   0.126179409   1.04795   0.63987   0.56825   0.56180
  76   39759.6    251.5   0.004284084   0.03547  -0.15304  -0.06789  -0.08627
  77   39867.7    250.8   0.025007239   0.20650  -0.19849   0.36668   0.18069
  78   39969.7    250.2   0.006748992   0.05559   0.03787  -0.22001   0.07583
  79   40128.6    249.2   0.010978914   0.09007  -0.28498   0.03397  -0.08778
  80   40295.2    248.2   0.013909379   0.11364  -0.08116   0.31806  -0.07675

FINAL SINGLE POINT ENERGY     -8046.546556981503

DIPOLE MOMENT
-------------
                                X             Y             Z
Electronic contribution:     50.21767      40.63263     -16.80864
Nuclear contribution   :    -52.97003     -39.38684      19.27404
                        -----------------------------------------
Total Dipole Moment    :     -2.75236       1.24579       2.46540
                        -----------------------------------------
Magnitude (a.u.)       :      3.89945
Magnitude (Debye)      :      9.91161

Rotational constants in cm-1:     0.001608     0.000408     0.000351
Rotational constants in MHz :    48.212466    12.235248    10.534196

                             ****ORCA TERMINATED NORMALLY****
TOTAL RUN TIME: 0 days 0 hours 15 minutes 33 seconds 136 msec
