                         Program Version 4.2.0 -  RELEASE  -
|  1> # ORCA input file
|  2> # SCF done       -198.972498182006          0.000816773993
|  3> ! CAM-B3LYP def2-SVP def2/J RIJCOSX Grid4 TightSCF
|  4> %maxcore 5000
|  5> %tddft
|  6>     Mode sTDDFT
|  7>     Ethresh 5.0
|  8>     maxcore 5000
|  9> end
| 10>
| 11> %pal
| 12>   nprocs 6
| 13>   end
| 14> * xyz 0 1
| 15>    C       -8.70280        -1.60306         0.43880
| 16>    C       -8.32896        -2.64664        -0.36687
| 17>    C       -9.16580        -3.73732        -0.67761
| 18>    N       -9.81249        -4.64369        -0.95694
| 19>    C       -7.03304        -2.78661        -0.90550
| 20>    N       -5.98146        -2.96669        -1.33017
| 21>    C       -9.96291        -1.46702         1.15092
| 22>    C       -9.84089        -0.40904         2.08704
| 23>    C      -10.88191        -0.02639         2.89872
| 24>    C      -12.10391        -0.69603         2.75924
| 25>    C      -12.21537        -1.73967         1.80886
| 26>    C      -11.15617        -2.14865         1.00885
| 27>    S      -13.82528        -2.38413         1.75217
| 28>    C      -14.32254        -1.26406         2.98581
| 29>    C      -13.33448        -0.44961         3.42669
| 30>   Br      -16.11369        -1.24839         3.53314
| 31>    C       -8.49470         0.19359         1.97726
| 32>    O       -8.04678         1.10002         2.64700
| 33>    C       -7.85887        -0.48952         0.82503
| 34>    C       -6.82124        -0.00379         0.08268
| 35>    C       -5.96834         1.08437         0.39161
| 36>    S       -5.53323         2.14460        -0.92655
| 37>    C       -4.75102         3.22097         0.15391
| 38>    C       -4.76672         2.79625         1.44581
| 39>    C       -4.13064         3.53953         2.57152
| 40>    C       -5.43430         1.54231         1.59657
| 41>    C       -5.39934         0.80397         2.82214
| 42>    C       -5.42249        -0.54796         2.90875
| 43>    C       -5.37640        -1.25088         4.13485
| 44>    C       -5.54359        -2.60113         4.20131
| 45>    C       -5.60743        -3.39096         5.36797
| 46>    S       -6.50438        -4.86771         5.30100
| 47>    C       -6.38170        -5.15793         7.01875
| 48>    C       -5.56065        -4.16527         7.61166
| 49>    C       -5.12186        -3.17734         6.67650
| 50>    C       -4.23830        -2.16533         7.08805
| 51>    C       -3.85199        -2.10886         8.39884
| 52>    F       -3.00005        -1.15270         8.80193
| 53>    C       -4.32795        -3.04756         9.33303
| 54>    F       -3.93815        -2.95545        10.61398
| 55>    C       -5.16144        -4.06552         8.95218
| 56>    C       -7.18713        -6.18041         7.51353
| 57>    C       -7.37803        -6.63602         8.80374
| 58>    C       -8.46710        -7.40557         9.20699
| 59>    C       -9.66380        -7.61212         8.53383
| 60>    C      -10.79232        -8.27278         9.06176
| 61>    C      -11.91158        -8.20695         8.27477
| 62>    C      -11.71122        -7.50744         7.07338
| 63>    S      -10.06935        -6.94423         6.96568
| 64>    C      -12.61758        -7.21357         6.05825
| 65>    C      -13.99997        -7.45614         6.02547
| 66>    C      -14.62263        -6.93720         4.92118
| 67>    C      -13.75536        -6.27562         4.02944
| 68>    S      -12.11120        -6.37736         4.61248
| 69>    C      -14.03005        -5.64228         2.82598
| 70>    C      -15.27105        -5.25802         2.32681
| 71>    C      -16.48772        -5.05174         2.95195
| 72>    C      -17.71375        -5.06802         2.11987
| 73>    O      -17.77105        -5.07196         0.90868
| 74>    C      -18.83716        -5.13059         3.07735
| 75>    C      -20.17002        -5.28139         2.83456
| 76>    C      -21.06503        -5.35945         3.92683
| 77>    C      -20.55403        -5.27459         5.25380
| 78>    C      -21.44914        -5.36453         6.33686
| 79>    C      -22.78428        -5.52902         6.09291
| 80>    C      -23.30655        -5.61262         4.79618
| 81>    C      -22.45060        -5.52684         3.73289
| 82>    F      -23.64115        -5.61768         7.12919
| 83>    C      -19.16616        -5.10305         5.47406
| 84>    C      -18.32167        -5.03141         4.40121
| 85>    C      -16.87272        -4.84867         4.31740
| 86>    C      -16.08208        -4.37238         5.34284
| 87>    C      -14.77647        -3.89468         5.15416
| 88>    N      -13.73095        -3.42932         5.03701
| 89>    C      -16.51436        -4.21784         6.67095
| 90>    N      -16.78989        -4.11564         7.78220
| 91>    H      -10.76559         0.77902         3.60694
| 92>    H      -11.28642        -2.94342         0.29296
| 93>    H      -13.46886         0.29697         4.18788
| 94>    H       -6.69441        -0.40471        -0.91805
| 95>    H       -4.31459         4.12218        -0.23119
| 96>    H       -3.70402         4.47321         2.21492
| 97>    H       -3.33851         2.94335         3.02270
| 98>    H       -4.87025         3.76282         3.33916
| 99>    H       -5.28031         1.38533         3.72570
|100>    H       -5.48197        -1.14049         2.00516
|101>    H       -5.28456        -0.66705         5.03880
|102>    H       -5.75813        -3.12723         3.27819
|103>    H       -3.83301        -1.45748         6.38539
|104>    H       -5.48277        -4.77462         9.69399
|105>    H       -7.77348        -6.66524         6.74392
|106>    H       -6.66470        -6.38639         9.57398
|107>    H       -8.43612        -7.81056        10.21080
|108>    H      -10.75938        -8.76290        10.01898
|109>    H      -12.86124        -8.63590         8.53837
|110>    H      -14.50974        -7.98298         6.81225
|111>    H      -15.66969        -7.06126         4.71134
|112>    H      -13.17721        -5.45676         2.18533
|113>    H      -15.31861        -5.11107         1.25097
|114>    H      -20.54035        -5.34488         1.82239
|115>    H      -21.08288        -5.30076         7.34965
|116>    H      -24.36903        -5.74261         4.66446
|117>    H      -22.82890        -5.58884         2.72353
|118>    H      -18.80695        -5.04391         6.48931
|119> *
|120>
|121>                          ****END OF INPUT****

CARTESIAN COORDINATES (ANGSTROEM)
---------------------------------
  C     -8.702800   -1.603060    0.438800
  C     -8.328960   -2.646640   -0.366870
  C     -9.165800   -3.737320   -0.677610
  N     -9.812490   -4.643690   -0.956940
  C     -7.033040   -2.786610   -0.905500
  N     -5.981460   -2.966690   -1.330170
  C     -9.962910   -1.467020    1.150920
  C     -9.840890   -0.409040    2.087040
  C    -10.881910   -0.026390    2.898720
  C    -12.103910   -0.696030    2.759240
  C    -12.215370   -1.739670    1.808860
  C    -11.156170   -2.148650    1.008850
  S    -13.825280   -2.384130    1.752170
  C    -14.322540   -1.264060    2.985810
  C    -13.334480   -0.449610    3.426690
  Br   -16.113690   -1.248390    3.533140
  C     -8.494700    0.193590    1.977260
  O     -8.046780    1.100020    2.647000
  C     -7.858870   -0.489520    0.825030
  C     -6.821240   -0.003790    0.082680
  C     -5.968340    1.084370    0.391610
  S     -5.533230    2.144600   -0.926550
  C     -4.751020    3.220970    0.153910
  C     -4.766720    2.796250    1.445810
  C     -4.130640    3.539530    2.571520
  C     -5.434300    1.542310    1.596570
  C     -5.399340    0.803970    2.822140
  C     -5.422490   -0.547960    2.908750
  C     -5.376400   -1.250880    4.134850
  C     -5.543590   -2.601130    4.201310
  C     -5.607430   -3.390960    5.367970
  S     -6.504380   -4.867710    5.301000
  C     -6.381700   -5.157930    7.018750
  C     -5.560650   -4.165270    7.611660
  C     -5.121860   -3.177340    6.676500
  C     -4.238300   -2.165330    7.088050
  C     -3.851990   -2.108860    8.398840
  F     -3.000050   -1.152700    8.801930
  C     -4.327950   -3.047560    9.333030
  F     -3.938150   -2.955450   10.613980
  C     -5.161440   -4.065520    8.952180
  C     -7.187130   -6.180410    7.513530
  C     -7.378030   -6.636020    8.803740
  C     -8.467100   -7.405570    9.206990
  C     -9.663800   -7.612120    8.533830
  C    -10.792320   -8.272780    9.061760
  C    -11.911580   -8.206950    8.274770
  C    -11.711220   -7.507440    7.073380
  S    -10.069350   -6.944230    6.965680
  C    -12.617580   -7.213570    6.058250
  C    -13.999970   -7.456140    6.025470
  C    -14.622630   -6.937200    4.921180
  C    -13.755360   -6.275620    4.029440
  S    -12.111200   -6.377360    4.612480
  C    -14.030050   -5.642280    2.825980
  C    -15.271050   -5.258020    2.326810
  C    -16.487720   -5.051740    2.951950
  C    -17.713750   -5.068020    2.119870
  O    -17.771050   -5.071960    0.908680
  C    -18.837160   -5.130590    3.077350
  C    -20.170020   -5.281390    2.834560
  C    -21.065030   -5.359450    3.926830
  C    -20.554030   -5.274590    5.253800
  C    -21.449140   -5.364530    6.336860
  C    -22.784280   -5.529020    6.092910
  C    -23.306550   -5.612620    4.796180
  C    -22.450600   -5.526840    3.732890
  F    -23.641150   -5.617680    7.129190
  C    -19.166160   -5.103050    5.474060
  C    -18.321670   -5.031410    4.401210
  C    -16.872720   -4.848670    4.317400
  C    -16.082080   -4.372380    5.342840
  C    -14.776470   -3.894680    5.154160
  N    -13.730950   -3.429320    5.037010
  C    -16.514360   -4.217840    6.670950
  N    -16.789890   -4.115640    7.782200
  H    -10.765590    0.779020    3.606940
  H    -11.286420   -2.943420    0.292960
  H    -13.468860    0.296970    4.187880
  H     -6.694410   -0.404710   -0.918050
  H     -4.314590    4.122180   -0.231190
  H     -3.704020    4.473210    2.214920
  H     -3.338510    2.943350    3.022700
  H     -4.870250    3.762820    3.339160
  H     -5.280310    1.385330    3.725700
  H     -5.481970   -1.140490    2.005160
  H     -5.284560   -0.667050    5.038800
  H     -5.758130   -3.127230    3.278190
  H     -3.833010   -1.457480    6.385390
  H     -5.482770   -4.774620    9.693990
  H     -7.773480   -6.665240    6.743920
  H     -6.664700   -6.386390    9.573980
  H     -8.436120   -7.810560   10.210800
  H    -10.759380   -8.762900   10.018980
  H    -12.861240   -8.635900    8.538370
  H    -14.509740   -7.982980    6.812250
  H    -15.669690   -7.061260    4.711340
  H    -13.177210   -5.456760    2.185330
  H    -15.318610   -5.111070    1.250970
  H    -20.540350   -5.344880    1.822390
  H    -21.082880   -5.300760    7.349650
  H    -24.369030   -5.742610    4.664460
  H    -22.828900   -5.588840    2.723530
  H    -18.806950   -5.043910    6.489310

 Total Charge           Charge          ....    0
 Multiplicity           Mult            ....    1
 Number of Electrons    NEL             ....  580
 Basis Dimension        Dim             .... 1242

ORBITAL ENERGIES
----------------

  NO   OCC          E(Eh)            E(eV)
   0   2.0000    -482.873683    -13139.6609
   1   2.0000     -88.983054     -2421.3520
   2   2.0000     -88.967098     -2420.9178
   3   2.0000     -88.965759     -2420.8814
   4   2.0000     -88.964876     -2420.8574
   5   2.0000     -88.950634     -2420.4698
   6   2.0000     -62.550892     -1702.0963
   7   2.0000     -56.384869     -1534.3103
   8   2.0000     -56.382174     -1534.2369
   9   2.0000     -56.382094     -1534.2348
  10   2.0000     -24.800730      -674.8622
  11   2.0000     -24.798452      -674.8002
  12   2.0000     -24.772618      -674.0972
  13   2.0000     -19.215451      -522.8790
  14   2.0000     -19.188246      -522.1387
  15   2.0000     -14.413852      -392.2209
  16   2.0000     -14.413543      -392.2124
  17   2.0000     -14.392839      -391.6491
  18   2.0000     -14.392544      -391.6410
  19   2.0000     -10.384031      -282.5639
  20   2.0000     -10.381041      -282.4825
  21   2.0000     -10.365637      -282.0633
  22   2.0000     -10.354570      -281.7622
  23   2.0000     -10.346874      -281.5527
  24   2.0000     -10.340075      -281.3677
  25   2.0000     -10.339402      -281.3494
  26   2.0000     -10.338881      -281.3352
  27   2.0000     -10.333302      -281.1834
  28   2.0000     -10.333077      -281.1773
  29   2.0000     -10.324373      -280.9405
  30   2.0000     -10.324149      -280.9344
  31   2.0000     -10.319256      -280.8012
  32   2.0000     -10.318577      -280.7828
  33   2.0000     -10.317209      -280.7455
  34   2.0000     -10.316567      -280.7281
  35   2.0000     -10.316438      -280.7245
  36   2.0000     -10.314906      -280.6829
  37   2.0000     -10.314124      -280.6616
  38   2.0000     -10.313388      -280.6416
  39   2.0000     -10.312900      -280.6283
  40   2.0000     -10.311873      -280.6003
  41   2.0000     -10.310807      -280.5713
  42   2.0000     -10.309160      -280.5265
  43   2.0000     -10.307640      -280.4851
  44   2.0000     -10.306869      -280.4642
  45   2.0000     -10.305078      -280.4154
  46   2.0000     -10.304244      -280.3927
  47   2.0000     -10.304046      -280.3874
  48   2.0000     -10.302199      -280.3371
  49   2.0000     -10.300739      -280.2974
  50   2.0000     -10.300425      -280.2888
  51   2.0000     -10.299553      -280.2651
  52   2.0000     -10.299068      -280.2519
  53   2.0000     -10.299064      -280.2518
  54   2.0000     -10.298768      -280.2437
  55   2.0000     -10.298147      -280.2268
  56   2.0000     -10.297786      -280.2170
  57   2.0000     -10.296310      -280.1768
  58   2.0000     -10.296135      -280.1721
  59   2.0000     -10.294645      -280.1315
  60   2.0000     -10.292784      -280.0809
  61   2.0000     -10.292360      -280.0694
  62   2.0000     -10.291981      -280.0590
  63   2.0000     -10.289006      -279.9781
  64   2.0000     -10.287979      -279.9501
  65   2.0000     -10.287976      -279.9500
  66   2.0000     -10.285816      -279.8913
  67   2.0000     -10.285100      -279.8718
  68   2.0000     -10.283659      -279.8326
  69   2.0000     -10.283632      -279.8319
  70   2.0000     -10.282901      -279.8120
  71   2.0000     -10.282761      -279.8082
  72   2.0000     -10.280665      -279.7511
  73   2.0000     -10.279536      -279.7204
  74   2.0000     -10.278953      -279.7045
  75   2.0000     -10.278093      -279.6811
  76   2.0000     -10.274298      -279.5779
  77   2.0000     -10.272245      -279.5220
  78   2.0000     -10.269345      -279.4431
  79   2.0000     -10.265947      -279.3506
  80   2.0000      -8.780141      -238.9198
  81   2.0000      -8.078671      -219.8318
  82   2.0000      -8.063219      -219.4114
  83   2.0000      -8.061624      -219.3679
  84   2.0000      -8.060292      -219.3317
  85   2.0000      -8.047104      -218.9728
  86   2.0000      -6.616426      -180.0421
  87   2.0000      -6.601875      -179.6462
  88   2.0000      -6.601691      -179.6412
  89   2.0000      -6.047563      -164.5626
  90   2.0000      -6.043553      -164.4534
  91   2.0000      -6.041392      -164.3946
  92   2.0000      -6.032503      -164.1528
  93   2.0000      -6.031229      -164.1181
  94   2.0000      -6.029986      -164.0843
  95   2.0000      -6.028195      -164.0355
  96   2.0000      -6.026993      -164.0028
  97   2.0000      -6.025713      -163.9680
  98   2.0000      -6.025430      -163.9603
  99   2.0000      -6.023011      -163.8945
 100   2.0000      -6.021576      -163.8554
 101   2.0000      -6.016733      -163.7236
 102   2.0000      -6.012642      -163.6123
 103   2.0000      -6.008202      -163.4915
 104   2.0000      -2.732289       -74.3494
 105   2.0000      -2.728238       -74.2391
 106   2.0000      -2.728091       -74.2351
 107   2.0000      -2.716533       -73.9206
 108   2.0000      -2.716516       -73.9201
 109   2.0000      -1.321675       -35.9646
 110   2.0000      -1.306760       -35.5587
 111   2.0000      -1.286882       -35.0178
 112   2.0000      -1.129516       -30.7357
 113   2.0000      -1.103055       -30.0156
 114   2.0000      -1.020208       -27.7613
 115   2.0000      -1.018772       -27.7222
 116   2.0000      -1.009693       -27.4752
 117   2.0000      -1.007326       -27.4107
 118   2.0000      -1.000112       -27.2144
 119   2.0000      -0.996823       -27.1249
 120   2.0000      -0.992567       -27.0091
 121   2.0000      -0.985062       -26.8049
 122   2.0000      -0.984130       -26.7796
 123   2.0000      -0.980472       -26.6800
 124   2.0000      -0.971727       -26.4420
 125   2.0000      -0.960446       -26.1351
 126   2.0000      -0.956056       -26.0156
 127   2.0000      -0.938129       -25.5278
 128   2.0000      -0.936779       -25.4910
 129   2.0000      -0.922642       -25.1064
 130   2.0000      -0.910474       -24.7753
 131   2.0000      -0.906013       -24.6539
 132   2.0000      -0.901729       -24.5373
 133   2.0000      -0.900149       -24.4943
 134   2.0000      -0.891128       -24.2488
 135   2.0000      -0.878224       -23.8977
 136   2.0000      -0.878070       -23.8935
 137   2.0000      -0.875032       -23.8108
 138   2.0000      -0.869495       -23.6601
 139   2.0000      -0.868317       -23.6281
 140   2.0000      -0.861675       -23.4474
 141   2.0000      -0.854933       -23.2639
 142   2.0000      -0.852164       -23.1886
 143   2.0000      -0.845514       -23.0076
 144   2.0000      -0.838578       -22.8189
 145   2.0000      -0.832553       -22.6549
 146   2.0000      -0.821194       -22.3458
 147   2.0000      -0.819456       -22.2985
 148   2.0000      -0.816346       -22.2139
 149   2.0000      -0.804849       -21.9011
 150   2.0000      -0.789961       -21.4959
 151   2.0000      -0.782852       -21.3025
 152   2.0000      -0.765376       -20.8269
 153   2.0000      -0.756989       -20.5987
 154   2.0000      -0.751248       -20.4425
 155   2.0000      -0.749594       -20.3975
 156   2.0000      -0.745319       -20.2812
 157   2.0000      -0.735793       -20.0220
 158   2.0000      -0.731065       -19.8933
 159   2.0000      -0.716802       -19.5052
 160   2.0000      -0.706012       -19.2116
 161   2.0000      -0.701114       -19.0783
 162   2.0000      -0.691726       -18.8228
 163   2.0000      -0.689181       -18.7536
 164   2.0000      -0.688324       -18.7303
 165   2.0000      -0.683883       -18.6094
 166   2.0000      -0.680599       -18.5200
 167   2.0000      -0.673634       -18.3305
 168   2.0000      -0.670345       -18.2410
 169   2.0000      -0.664625       -18.0854
 170   2.0000      -0.656967       -17.8770
 171   2.0000      -0.653124       -17.7724
 172   2.0000      -0.648644       -17.6505
 173   2.0000      -0.645166       -17.5558
 174   2.0000      -0.642909       -17.4944
 175   2.0000      -0.632527       -17.2119
 176   2.0000      -0.630543       -17.1579
 177   2.0000      -0.625495       -17.0206
 178   2.0000      -0.623632       -16.9699
 179   2.0000      -0.620946       -16.8968
 180   2.0000      -0.615296       -16.7431
 181   2.0000      -0.614459       -16.7203
 182   2.0000      -0.610049       -16.6003
 183   2.0000      -0.604448       -16.4479
 184   2.0000      -0.593859       -16.1597
 185   2.0000      -0.589142       -16.0314
 186   2.0000      -0.586871       -15.9696
 187   2.0000      -0.583263       -15.8714
 188   2.0000      -0.580882       -15.8066
 189   2.0000      -0.578203       -15.7337
 190   2.0000      -0.576915       -15.6987
 191   2.0000      -0.567511       -15.4428
 192   2.0000      -0.564351       -15.3568
 193   2.0000      -0.557358       -15.1665
 194   2.0000      -0.551448       -15.0057
 195   2.0000      -0.549333       -14.9481
 196   2.0000      -0.548461       -14.9244
 197   2.0000      -0.547689       -14.9034
 198   2.0000      -0.544709       -14.8223
 199   2.0000      -0.543828       -14.7983
 200   2.0000      -0.541249       -14.7281
 201   2.0000      -0.537930       -14.6378
 202   2.0000      -0.537587       -14.6285
 203   2.0000      -0.534304       -14.5392
 204   2.0000      -0.531888       -14.4734
 205   2.0000      -0.530482       -14.4351
 206   2.0000      -0.526046       -14.3144
 207   2.0000      -0.521888       -14.2013
 208   2.0000      -0.519328       -14.1316
 209   2.0000      -0.518175       -14.1002
 210   2.0000      -0.516214       -14.0469
 211   2.0000      -0.516097       -14.0437
 212   2.0000      -0.512196       -13.9376
 213   2.0000      -0.509475       -13.8635
 214   2.0000      -0.507685       -13.8148
 215   2.0000      -0.507064       -13.7979
 216   2.0000      -0.505301       -13.7499
 217   2.0000      -0.503230       -13.6936
 218   2.0000      -0.500579       -13.6214
 219   2.0000      -0.499991       -13.6054
 220   2.0000      -0.497559       -13.5393
 221   2.0000      -0.494131       -13.4460
 222   2.0000      -0.493279       -13.4228
 223   2.0000      -0.489428       -13.3180
 224   2.0000      -0.488552       -13.2942
 225   2.0000      -0.486534       -13.2393
 226   2.0000      -0.485930       -13.2228
 227   2.0000      -0.479445       -13.0464
 228   2.0000      -0.476631       -12.9698
 229   2.0000      -0.476220       -12.9586
 230   2.0000      -0.471391       -12.8272
 231   2.0000      -0.469188       -12.7673
 232   2.0000      -0.466021       -12.6811
 233   2.0000      -0.463276       -12.6064
 234   2.0000      -0.461187       -12.5495
 235   2.0000      -0.460044       -12.5184
 236   2.0000      -0.458461       -12.4754
 237   2.0000      -0.453263       -12.3339
 238   2.0000      -0.452845       -12.3225
 239   2.0000      -0.449389       -12.2285
 240   2.0000      -0.447156       -12.1677
 241   2.0000      -0.446195       -12.1416
 242   2.0000      -0.444356       -12.0915
 243   2.0000      -0.443745       -12.0749
 244   2.0000      -0.442123       -12.0308
 245   2.0000      -0.441698       -12.0192
 246   2.0000      -0.441334       -12.0093
 247   2.0000      -0.438906       -11.9432
 248   2.0000      -0.437374       -11.9015
 249   2.0000      -0.434182       -11.8147
 250   2.0000      -0.432590       -11.7714
 251   2.0000      -0.430620       -11.7178
 252   2.0000      -0.429238       -11.6802
 253   2.0000      -0.427834       -11.6420
 254   2.0000      -0.426016       -11.5925
 255   2.0000      -0.423607       -11.5269
 256   2.0000      -0.422189       -11.4883
 257   2.0000      -0.419895       -11.4259
 258   2.0000      -0.417003       -11.3472
 259   2.0000      -0.412955       -11.2371
 260   2.0000      -0.409505       -11.1432
 261   2.0000      -0.408302       -11.1105
 262   2.0000      -0.407302       -11.0833
 263   2.0000      -0.403057       -10.9677
 264   2.0000      -0.397450       -10.8152
 265   2.0000      -0.395355       -10.7582
 266   2.0000      -0.389849       -10.6083
 267   2.0000      -0.381324       -10.3764
 268   2.0000      -0.376506       -10.2452
 269   2.0000      -0.370517       -10.0823
 270   2.0000      -0.365239        -9.9387
 271   2.0000      -0.363107        -9.8806
 272   2.0000      -0.357602        -9.7308
 273   2.0000      -0.356101        -9.6900
 274   2.0000      -0.346102        -9.4179
 275   2.0000      -0.342456        -9.3187
 276   2.0000      -0.337271        -9.1776
 277   2.0000      -0.331491        -9.0203
 278   2.0000      -0.329669        -8.9707
 279   2.0000      -0.328585        -8.9413
 280   2.0000      -0.314517        -8.5585
 281   2.0000      -0.311803        -8.4846
 282   2.0000      -0.305646        -8.3170
 283   2.0000      -0.299568        -8.1517
 284   2.0000      -0.290256        -7.8983
 285   2.0000      -0.285273        -7.7627
 286   2.0000      -0.283427        -7.7124
 287   2.0000      -0.276208        -7.5160
 288   2.0000      -0.252566        -6.8727
 289   2.0000      -0.214088        -5.8256
 290   0.0000      -0.119418        -3.2495
 291   0.0000      -0.090324        -2.4578
 292   0.0000      -0.070719        -1.9244
 293   0.0000      -0.057473        -1.5639
 294   0.0000      -0.045192        -1.2297

MULLIKEN ATOMIC CHARGES
-----------------------
   0 C :    0.275373
   1 C :   -0.339970
   2 C :   -0.184913
   3 N :    0.149511
   4 C :   -0.213172
   5 N :    0.163190
   6 C :    0.017385
   7 C :   -0.010031
   8 C :   -0.078683
   9 C :    0.125548
  10 C :   -0.071817
  11 C :   -0.028786
  12 S :    0.180981
  13 C :   -0.107604
  14 C :    0.055276
  15 Br:    0.029653
  16 C :    0.160389
  17 O :   -0.147360
  18 C :   -0.112570
  19 C :    0.007983
  20 C :   -0.193102
  21 S :    0.143091
  22 C :   -0.109275
  23 C :   -0.092917
  24 C :    0.115736
  25 C :    0.179701
  26 C :    0.001952
  27 C :    0.012164
  28 C :    0.004764
  29 C :    0.026272
  30 C :   -0.110350
  31 S :    0.185428
  32 C :   -0.128234
  33 C :    0.134602
  34 C :    0.125011
  35 C :   -0.119705
  36 C :    0.224320
  37 F :   -0.176508
  38 C :    0.228672
  39 F :   -0.171747
  40 C :   -0.113225
  41 C :    0.057023
  42 C :   -0.037346
  43 C :    0.042549
  44 C :   -0.055009
  45 C :    0.053815
  46 C :    0.018113
  47 C :   -0.012520
  48 S :    0.083534
  49 C :   -0.053613
  50 C :    0.011024
  51 C :    0.078758
  52 C :   -0.098862
  53 S :    0.136834
  54 C :    0.039320
  55 C :    0.021930
  56 C :   -0.165134
  57 C :    0.133673
  58 O :   -0.160586
  59 C :    0.015473
  60 C :   -0.090236
  61 C :    0.098009
  62 C :    0.103668
  63 C :   -0.101297
  64 C :    0.300437
  65 C :   -0.035296
  66 C :   -0.010132
  67 F :   -0.197243
  68 C :   -0.105780
  69 C :    0.046933
  70 C :    0.260577
  71 C :   -0.370832
  72 C :   -0.184761
  73 N :    0.139277
  74 C :   -0.182414
  75 N :    0.129931
  76 H :   -0.012322
  77 H :   -0.006729
  78 H :   -0.006236
  79 H :    0.032764
  80 H :    0.025985
  81 H :    0.011848
  82 H :    0.032398
  83 H :    0.040795
  84 H :   -0.013632
  85 H :    0.014638
  86 H :    0.003082
  87 H :    0.000877
  88 H :   -0.002899
  89 H :   -0.021288
  90 H :    0.016733
  91 H :   -0.008042
  92 H :   -0.003751
  93 H :   -0.003283
  94 H :   -0.005957
  95 H :   -0.003218
  96 H :    0.004616
  97 H :   -0.007444
  98 H :    0.021025
  99 H :   -0.018451
 100 H :   -0.008529
 101 H :   -0.002329
 102 H :   -0.014007
 103 H :   -0.013494
Sum of atomic charges:   -0.0000000

LOEWDIN ATOMIC CHARGES
----------------------
   0 C :    0.076469
   1 C :   -0.148104
   2 C :   -0.019979
   3 N :   -0.054515
   4 C :   -0.029127
   5 N :   -0.056971
   6 C :   -0.026722
   7 C :   -0.051299
   8 C :    0.021414
   9 C :   -0.024228
  10 C :   -0.141159
  11 C :   -0.010838
  12 S :    0.463288
  13 C :   -0.258685
  14 C :   -0.063783
  15 Br:    0.155416
  16 C :    0.083355
  17 O :   -0.133573
  18 C :   -0.092001
  19 C :    0.042066
  20 C :   -0.179448
  21 S :    0.453933
  22 C :   -0.171169
  23 C :   -0.053921
  24 C :   -0.043703
  25 C :   -0.023116
  26 C :    0.008033
  27 C :   -0.016619
  28 C :   -0.002511
  29 C :   -0.052356
  30 C :   -0.148988
  31 S :    0.501990
  32 C :   -0.178840
  33 C :   -0.030086
  34 C :   -0.045980
  35 C :   -0.031826
  36 C :    0.060150
  37 F :   -0.054663
  38 C :    0.071051
  39 F :   -0.051343
  40 C :   -0.038372
  41 C :   -0.026485
  42 C :   -0.063710
  43 C :   -0.012451
  44 C :   -0.167981
  45 C :   -0.006096
  46 C :   -0.050605
  47 C :   -0.140383
  48 S :    0.420999
  49 C :   -0.197286
  50 C :    0.000251
  51 C :   -0.046745
  52 C :   -0.109366
  53 S :    0.416288
  54 C :   -0.087493
  55 C :    0.036349
  56 C :   -0.127837
  57 C :    0.076792
  58 O :   -0.161515
  59 C :   -0.056471
  60 C :    0.025809
  61 C :   -0.022670
  62 C :    0.001090
  63 C :   -0.045940
  64 C :    0.089141
  65 C :   -0.044531
  66 C :    0.002085
  67 F :   -0.071060
  68 C :   -0.002700
  69 C :   -0.013772
  70 C :    0.050032
  71 C :   -0.168245
  72 C :   -0.017984
  73 N :   -0.078241
  74 C :   -0.020995
  75 N :   -0.082178
  76 H :    0.039940
  77 H :    0.039506
  78 H :    0.038532
  79 H :    0.045699
  80 H :    0.026390
  81 H :    0.034953
  82 H :    0.037742
  83 H :    0.039586
  84 H :    0.031096
  85 H :    0.032876
  86 H :    0.030617
  87 H :    0.034662
  88 H :    0.042982
  89 H :    0.039698
  90 H :    0.014144
  91 H :    0.029208
  92 H :    0.040056
  93 H :    0.037426
  94 H :    0.035066
  95 H :    0.036827
  96 H :    0.037997
  97 H :    0.028933
  98 H :    0.040092
  99 H :    0.036850
 100 H :    0.040623
 101 H :    0.039179
 102 H :    0.033675
 103 H :    0.036307

  Mayer bond orders larger than 0.100000
B(  0-C ,  1-C ) :   1.6452 B(  0-C ,  6-C ) :   1.0184 B(  0-C , 18-C ) :   1.0457
B(  1-C ,  2-C ) :   1.1336 B(  1-C ,  4-C ) :   1.1463 B(  2-C ,  3-N ) :   2.9852
B(  4-C ,  5-N ) :   3.0011 B(  6-C ,  7-C ) :   1.2639 B(  6-C , 11-C ) :   1.4052
B(  7-C ,  8-C ) :   1.4237 B(  7-C , 16-C ) :   0.9469 B(  8-C ,  9-C ) :   1.2425
B(  8-C , 76-H ) :   1.0179 B(  9-C , 10-C ) :   1.3018 B(  9-C , 14-C ) :   1.1715
B( 10-C , 11-C ) :   1.3256 B( 10-C , 12-S ) :   1.0894 B( 11-C , 77-H ) :   0.9847
B( 12-S , 13-C ) :   1.0961 B( 13-C , 14-C ) :   1.6131 B( 13-C , 15-Br) :   1.0243
B( 14-C , 78-H ) :   0.9989 B( 16-C , 17-O ) :   2.1975 B( 16-C , 18-C ) :   0.9453
B( 18-C , 19-C ) :   1.6344 B( 19-C , 20-C ) :   1.1609 B( 19-C , 79-H ) :   0.9383
B( 20-C , 21-S ) :   1.1216 B( 20-C , 25-C ) :   1.4165 B( 21-S , 22-C ) :   1.1658
B( 22-C , 23-C ) :   1.5710 B( 22-C , 80-H ) :   0.9663 B( 23-C , 24-C ) :   1.0956
B( 23-C , 25-C ) :   1.2477 B( 24-C , 81-H ) :   0.9495 B( 24-C , 82-H ) :   0.9423
B( 24-C , 83-H ) :   0.9443 B( 25-C , 26-C ) :   1.0949 B( 26-C , 27-C ) :   1.6628
B( 26-C , 84-H ) :   0.9548 B( 27-C , 28-C ) :   1.1660 B( 27-C , 85-H ) :   0.9777
B( 28-C , 29-C ) :   1.6084 B( 28-C , 86-H ) :   0.9834 B( 29-C , 30-C ) :   1.1491
B( 29-C , 87-H ) :   0.9555 B( 30-C , 31-S ) :   1.1934 B( 30-C , 34-C ) :   1.2879
B( 31-S , 32-C ) :   1.1246 B( 32-C , 33-C ) :   1.2585 B( 32-C , 41-C ) :   1.3052
B( 33-C , 34-C ) :   1.2436 B( 33-C , 40-C ) :   1.1917 B( 34-C , 35-C ) :   1.1846
B( 35-C , 36-C ) :   1.4745 B( 35-C , 40-C ) :   0.1091 B( 35-C , 88-H ) :   0.9983
B( 36-C , 37-F ) :   1.1286 B( 36-C , 38-C ) :   1.1789 B( 38-C , 39-F ) :   1.1426
B( 38-C , 40-C ) :   1.4731 B( 40-C , 89-H ) :   1.0043 B( 41-C , 42-C ) :   1.4717
B( 41-C , 90-H ) :   0.9129 B( 42-C , 43-C ) :   1.3089 B( 42-C , 91-H ) :   0.9712
B( 43-C , 44-C ) :   1.4704 B( 43-C , 92-H ) :   0.9611 B( 44-C , 45-C ) :   1.2089
B( 44-C , 48-S ) :   1.0394 B( 45-C , 46-C ) :   1.5187 B( 45-C , 93-H ) :   0.9978
B( 46-C , 47-C ) :   1.2471 B( 46-C , 94-H ) :   0.9949 B( 47-C , 48-S ) :   1.0932
B( 47-C , 49-C ) :   1.3876 B( 49-C , 50-C ) :   1.2638 B( 49-C , 53-S ) :   1.0615
B( 50-C , 51-C ) :   1.4947 B( 50-C , 95-H ) :   0.9966 B( 51-C , 52-C ) :   1.2541
B( 51-C , 96-H ) :   0.9782 B( 52-C , 53-S ) :   1.1062 B( 52-C , 54-C ) :   1.3909
B( 54-C , 55-C ) :   1.3687 B( 54-C , 97-H ) :   0.9382 B( 55-C , 56-C ) :   1.4521
B( 55-C , 98-H ) :   0.9281 B( 56-C , 57-C ) :   0.9707 B( 56-C , 70-C ) :   1.1235
B( 57-C , 58-O ) :   2.2497 B( 57-C , 59-C ) :   0.9098 B( 59-C , 60-C ) :   1.4837
B( 59-C , 69-C ) :   1.2181 B( 60-C , 61-C ) :   1.1741 B( 60-C , 99-H ) :   1.0163
B( 61-C , 62-C ) :   1.2643 B( 61-C , 66-C ) :   1.2419 B( 62-C , 63-C ) :   1.2035
B( 62-C , 68-C ) :   1.1894 B( 63-C , 64-C ) :   1.4379 B( 63-C ,100-H ) :   1.0075
B( 64-C , 65-C ) :   1.2612 B( 64-C , 67-F ) :   1.0812 B( 65-C , 66-C ) :   1.4512
B( 65-C ,101-H ) :   0.9933 B( 66-C ,102-H ) :   0.9972 B( 68-C , 69-C ) :   1.4696
B( 68-C ,103-H ) :   0.9967 B( 69-C , 70-C ) :   0.9882 B( 70-C , 71-C ) :   1.5658
B( 71-C , 72-C ) :   1.1844 B( 71-C , 74-C ) :   1.1475 B( 72-C , 73-N ) :   2.9491
B( 74-C , 75-N ) :   2.9695

-----------------------------------------------------------------------------
         ABSORPTION SPECTRUM VIA TRANSITION ELECTRIC DIPOLE MOMENTS
-----------------------------------------------------------------------------
State   Energy  Wavelength   fosc         T2         TX        TY        TZ
        (cm-1)    (nm)                  (au**2)     (au)      (au)      (au)
-----------------------------------------------------------------------------
   0    7007.0   1427.1   0.534906059  25.13168   4.84730   1.21434   0.40093
   1   13805.7    724.3   0.143508702   3.42212   1.34309  -0.51641   1.16256
   2   15022.0    665.7   0.441778195   9.68168   0.79957  -2.17501   2.07646
   3   17434.3    573.6   0.321539791   6.07163  -0.68346   2.08222  -1.12644
   4   20004.8    499.9   0.109220188   1.79740   1.13316  -0.29719   0.65195
   5   20221.3    494.5   0.390186748   6.35241   2.10984   0.98740   0.96230
   6   21385.0    467.6   0.092573564   1.42513  -0.83006  -0.74882  -0.41881
   7   22010.0    454.3   0.064650188   0.96700   0.41051   0.27089   0.85152
   8   22658.9    441.3   0.035273766   0.51249   0.43314  -0.21488   0.52793
   9   23072.4    433.4   0.358996184   5.12239   0.17336  -1.34932   1.80878
  10   24260.9    412.2   0.071396961   0.96883   0.06747  -0.80817   0.55780
  11   25166.6    397.4   0.080124505   1.04813  -0.05523   0.37318  -0.95175
  12   25236.1    396.3   0.105974115   1.38246  -0.34473  -0.88984   0.68688
  13   25699.4    389.1   0.052940571   0.67817  -0.26627  -0.20154   0.75276
  14   26375.6    379.1   0.246235743   3.07344   1.64287  -0.32374  -0.51925
  15   26623.3    375.6   0.017576542   0.21734   0.31921   0.04270   0.33709
  16   26957.7    371.0   0.170960618   2.08780   1.20536   0.71960  -0.34216
  17   27045.5    369.7   0.083307343   1.01406  -0.95774  -0.21103   0.22860
  18   27445.3    364.4   0.049779732   0.59712   0.39385  -0.03370  -0.66398
  19   27842.5    359.2   0.055276227   0.65359   0.15467   0.53250  -0.58831
  20   28353.9    352.7   0.028398419   0.32973  -0.32161  -0.44769   0.16083
  21   28783.0    347.4   0.050991460   0.58323   0.02105  -0.23035   0.72782
  22   29050.3    344.2   0.079572584   0.90175   0.05320   0.26952  -0.90900
  23   29360.9    340.6   0.017531484   0.19657  -0.10437   0.01169  -0.43075
  24   29444.9    339.6   0.028297889   0.31639   0.46918   0.20580   0.23217
  25   29749.2    336.1   0.275184232   3.04525   0.63907   1.37280  -0.86733
  26   30379.4    329.2   0.126379989   1.36954   1.11751   0.34492   0.04171
  27   30829.5    324.4   0.155270873   1.65806   1.24350   0.14178  -0.30274
  28   31139.8    321.1   0.082180817   0.86882   0.22754   0.18349   0.88509
  29   31222.6    320.3   0.083162607   0.87687   0.80630   0.22911  -0.41744
  30   31391.0    318.6   0.182287297   1.91173  -0.67529   0.73372   0.95780
  31   31667.7    315.8   0.145070263   1.50813   1.13027  -0.35190  -0.32677
  32   31868.8    313.8   0.052005669   0.53723   0.06299   0.56506   0.46257
  33   32607.8    306.7   0.178299656   1.80013   1.23637  -0.11103  -0.50912
  34   32874.2    304.2   0.022557801   0.22590  -0.17827   0.43551  -0.06669
  35   32903.6    303.9   0.042288318   0.42311  -0.16570   0.19588  -0.59773
  36   33132.5    301.8   0.064932222   0.64518   0.32881  -0.72656  -0.09580
  37   33467.8    298.8   0.064998816   0.63937   0.07622   0.34895  -0.71540
  38   33511.2    298.4   0.106093980   1.04226  -0.66358  -0.01060   0.77577
  39   33809.0    295.8   0.018831974   0.18337   0.11217  -0.10350  -0.40010
  40   34188.6    292.5   0.132046149   1.27151  -0.98695  -0.52874   0.13366
  41   34312.8    291.4   0.075521508   0.72459   0.72005   0.33573  -0.30562
  42   34470.1    290.1   0.005769687   0.05510   0.16224   0.10473   0.13347
  43   34843.2    287.0   0.147373036   1.39244  -0.96176  -0.14429   0.66831
  44   35222.2    283.9   0.004179775   0.03907   0.13970   0.02950  -0.13668
  45   35452.2    282.1   0.089910117   0.83491  -0.30302   0.38426  -0.77164
  46   35608.6    280.8   0.023770258   0.21976   0.04620  -0.10224  -0.45517
  47   35807.4    279.3   0.192885161   1.77338   1.20262   0.57054   0.03955
  48   36191.7    276.3   0.019842077   0.18049   0.04954  -0.39151  -0.15735
  49   36455.0    274.3   0.116270194   1.04999   0.93386   0.35001  -0.23536
  50   36659.4    272.8   0.015642497   0.14047   0.32972   0.15200  -0.09303
  51   36738.8    272.2   0.149581339   1.34038   0.81196   0.53379   0.62942
  52   36942.9    270.7   0.011669576   0.10399  -0.24592  -0.13179   0.16170
  53   36999.0    270.3   0.104326534   0.92828  -0.78409  -0.32743   0.45417
  54   37354.4    267.7   0.040813515   0.35970  -0.46624  -0.35965   0.11388
  55   37618.9    265.8   0.048970130   0.42855   0.44902  -0.40586   0.24943
  56   37803.1    264.5   0.059475721   0.51795   0.13876   0.16575  -0.68646
  57   37864.5    264.1   0.048503021   0.42171  -0.48525   0.04180  -0.42953
  58   38275.8    261.3   0.014507995   0.12478  -0.26078   0.03879  -0.23510
  59   38457.5    260.0   0.032594302   0.27902  -0.32404   0.31198  -0.27692
  60   38538.1    259.5   0.065314696   0.55795   0.16129   0.63565   0.35762
  61   38642.6    258.8   0.008309464   0.07079   0.23985  -0.02761   0.11182
  62   38764.7    258.0   0.158110929   1.34277   0.82478   0.79370  -0.18041
  63   38891.3    257.1   0.054808670   0.46395   0.58385   0.21760   0.27518
  64   39191.6    255.2   0.000301147   0.00253   0.03568   0.00699  -0.03475
  65   39393.4    253.8   0.020928546   0.17490  -0.03141   0.15367   0.38768
  66   39582.6    252.6   0.057961506   0.48207  -0.57850  -0.38066   0.05008
  67   39819.5    251.1   0.006360246   0.05258   0.19109  -0.10359  -0.07306
  68   39970.0    250.2   0.056264008   0.46342  -0.25249  -0.23196   0.58810

FINAL SINGLE POINT ENERGY     -7570.696004819129

DIPOLE MOMENT
-------------
                                X             Y             Z
Electronic contribution:    -54.29524      15.57279      -2.38933
Nuclear contribution   :     56.63941     -15.03022       4.13703
                        -----------------------------------------
Total Dipole Moment    :      2.34418       0.54257       1.74770
                        -----------------------------------------
Magnitude (a.u.)       :      2.97389
Magnitude (Debye)      :      7.55902

Rotational constants in cm-1:     0.000991     0.000412     0.000329
Rotational constants in MHz :    29.701548    12.344939     9.853622

                             ****ORCA TERMINATED NORMALLY****
TOTAL RUN TIME: 0 days 0 hours 21 minutes 6 seconds 992 msec
