                         Program Version 4.2.0 -  RELEASE  -
|  1> # ORCA input file
|  2> # SCF done       -183.334033671029          0.003704872471
|  3> ! CAM-B3LYP def2-SVP def2/J RIJCOSX Grid4 TightSCF
|  4> %maxcore 5000
|  5> %tddft
|  6>     Mode sTDDFT
|  7>     Ethresh 5.0
|  8>     maxcore 5000
|  9> end
| 10>
| 11> %pal
| 12>   nprocs 6
| 13>   end
| 14> * xyz 0 1
| 15>    C       -7.84037        -2.74319         0.00080
| 16>    C       -7.09324        -3.26356        -1.02460
| 17>    C       -6.98044        -4.64258        -1.30095
| 18>    N       -6.85901        -5.74972        -1.58161
| 19>    C       -6.31872        -2.50723        -1.92854
| 20>    N       -5.65508        -1.95924        -2.68908
| 21>    C       -8.56109        -3.51974         1.00313
| 22>    C       -9.12696        -2.62955         1.94672
| 23>    C       -9.81106        -3.05743         3.05764
| 24>    C       -9.94311        -4.43566         3.24837
| 25>    C       -9.39956        -5.32035         2.28656
| 26>    C       -8.70896        -4.88559         1.16243
| 27>    S       -9.68130        -6.98177         2.72618
| 28>    C      -10.50019        -6.46549         4.17679
| 29>    C      -10.56672        -5.12161         4.32542
| 30>   Br      -11.20982        -7.73927         5.34972
| 31>    C       -8.82096        -1.24348         1.55953
| 32>    O       -9.27148        -0.23816         2.06868
| 33>    C       -7.95024        -1.34065         0.36114
| 34>    C       -7.45839        -0.26810        -0.33478
| 35>    C       -7.27683         1.03833         0.17634
| 36>    S       -7.34667         2.41053        -0.89159
| 37>    C       -7.04248         3.47806         0.41304
| 38>    C       -6.86628         2.84801         1.60983
| 39>    C       -6.55357         3.56244         2.88069
| 40>    C       -6.98163         1.43644         1.48699
| 41>    C       -6.74891         0.44405         2.49192
| 42>    C       -7.09765         0.44902         3.79742
| 43>    C       -7.06517        -0.79072         4.49398
| 44>    C       -7.68695        -1.07029         5.66380
| 45>    C       -7.81249        -2.41672         6.10267
| 46>    O       -8.37765        -2.69957         7.30643
| 47>    C       -7.51054        -3.61290         5.47244
| 48>    C       -6.96480        -4.21962         4.26161
| 49>    O       -6.50354        -3.72876         3.25657
| 50>    N       -7.08537        -5.58590         4.48730
| 51>    C       -7.66139        -5.93910         5.71210
| 52>    O       -7.86979        -7.06878         6.06994
| 53>    C       -7.92473        -4.65102         6.34914
| 54>    C       -8.45202        -4.04869         7.47238
| 55>    C       -8.98928        -4.62600         8.65860
| 56>    C       -9.55124        -3.89522         9.64167
| 57>    C      -10.14333        -4.40467        10.85048
| 58>    C       -9.78544        -5.48876        11.55434
| 59>    C       -8.63484        -6.38270        11.23623
| 60>    C      -10.59667        -5.89625        12.76452
| 61>    N      -11.26866        -7.15920        12.53587
| 62>    C      -12.25756        -7.29086        11.64805
| 63>    C      -12.87524        -8.47245        11.34944
| 64>    C      -13.95552        -8.62013        10.46845
| 65>    C      -14.46368        -7.78618         9.49841
| 66>    C      -13.94326        -6.66601         8.76586
| 67>    C      -12.61972        -6.37371         8.51040
| 68>    C      -12.18019        -5.29181         7.73601
| 69>    N      -11.75307        -4.39998         7.14694
| 70>    C      -11.55271        -7.17287         8.94831
| 71>    N      -10.65877        -7.80569         9.29637
| 72>    C      -15.06851        -6.00685         8.10186
| 73>    C      -16.22134        -6.81261         8.26009
| 74>    C      -15.87065        -7.99289         9.08111
| 75>    O      -16.59567        -8.91486         9.38589
| 76>    C      -17.43837        -6.47692         7.71996
| 77>    C      -17.52276        -5.28242         6.99425
| 78>    C      -16.36805        -4.47949         6.84994
| 79>    C      -15.13446        -4.82384         7.39170
| 80>    S      -16.69855        -3.04561         5.92457
| 81>    C      -18.36092        -3.54148         5.74356
| 82>    C      -18.65490        -4.71775         6.34442
| 83>   Br      -19.54944        -2.45777         4.77833
| 84>    H      -10.21599        -2.35391         3.76694
| 85>    H       -8.30396        -5.59913         0.46443
| 86>    H      -11.03207        -4.63639         5.16573
| 87>    H       -7.17160        -0.40470        -1.37032
| 88>    H       -7.00824         4.53374         0.22573
| 89>    H       -6.17301         4.55895         2.67144
| 90>    H       -5.81349         3.00812         3.45380
| 91>    H       -7.45241         3.66062         3.48766
| 92>    H       -6.36712        -0.49503         2.10079
| 93>    H       -7.55308         1.30640         4.26739
| 94>    H       -6.60129        -1.61351         3.96394
| 95>    H       -8.15774        -0.30671         6.26690
| 96>    H       -6.76977        -6.27532         3.81938
| 97>    H       -8.96531        -5.70393         8.68315
| 98>    H       -9.62850        -2.82487         9.49762
| 99>    H      -10.95145        -3.79242        11.23686
|100>    H       -7.85308        -5.83701        10.71373
|101>    H       -8.96487        -7.19954        10.59172
|102>    H       -8.22205        -6.81336        12.14704
|103>    H      -11.35150        -5.13645        12.98895
|104>    H       -9.95142        -6.01146        13.63888
|105>    H      -10.80783        -8.00250        12.84491
|106>    H      -12.62777        -6.36178        11.23518
|107>    H      -12.55764        -9.35872        11.88090
|108>    H      -14.55352        -9.51625        10.60823
|109>    H      -18.29831        -7.11514         7.84937
|110>    H      -14.28333        -4.17644         7.25983
|111>    H      -19.62932        -5.17106         6.33326
|112> *
|113>
|114>                          ****END OF INPUT****

CARTESIAN COORDINATES (ANGSTROEM)
---------------------------------
  C     -7.840370   -2.743190    0.000800
  C     -7.093240   -3.263560   -1.024600
  C     -6.980440   -4.642580   -1.300950
  N     -6.859010   -5.749720   -1.581610
  C     -6.318720   -2.507230   -1.928540
  N     -5.655080   -1.959240   -2.689080
  C     -8.561090   -3.519740    1.003130
  C     -9.126960   -2.629550    1.946720
  C     -9.811060   -3.057430    3.057640
  C     -9.943110   -4.435660    3.248370
  C     -9.399560   -5.320350    2.286560
  C     -8.708960   -4.885590    1.162430
  S     -9.681300   -6.981770    2.726180
  C    -10.500190   -6.465490    4.176790
  C    -10.566720   -5.121610    4.325420
  Br   -11.209820   -7.739270    5.349720
  C     -8.820960   -1.243480    1.559530
  O     -9.271480   -0.238160    2.068680
  C     -7.950240   -1.340650    0.361140
  C     -7.458390   -0.268100   -0.334780
  C     -7.276830    1.038330    0.176340
  S     -7.346670    2.410530   -0.891590
  C     -7.042480    3.478060    0.413040
  C     -6.866280    2.848010    1.609830
  C     -6.553570    3.562440    2.880690
  C     -6.981630    1.436440    1.486990
  C     -6.748910    0.444050    2.491920
  C     -7.097650    0.449020    3.797420
  C     -7.065170   -0.790720    4.493980
  C     -7.686950   -1.070290    5.663800
  C     -7.812490   -2.416720    6.102670
  O     -8.377650   -2.699570    7.306430
  C     -7.510540   -3.612900    5.472440
  C     -6.964800   -4.219620    4.261610
  O     -6.503540   -3.728760    3.256570
  N     -7.085370   -5.585900    4.487300
  C     -7.661390   -5.939100    5.712100
  O     -7.869790   -7.068780    6.069940
  C     -7.924730   -4.651020    6.349140
  C     -8.452020   -4.048690    7.472380
  C     -8.989280   -4.626000    8.658600
  C     -9.551240   -3.895220    9.641670
  C    -10.143330   -4.404670   10.850480
  C     -9.785440   -5.488760   11.554340
  C     -8.634840   -6.382700   11.236230
  C    -10.596670   -5.896250   12.764520
  N    -11.268660   -7.159200   12.535870
  C    -12.257560   -7.290860   11.648050
  C    -12.875240   -8.472450   11.349440
  C    -13.955520   -8.620130   10.468450
  C    -14.463680   -7.786180    9.498410
  C    -13.943260   -6.666010    8.765860
  C    -12.619720   -6.373710    8.510400
  C    -12.180190   -5.291810    7.736010
  N    -11.753070   -4.399980    7.146940
  C    -11.552710   -7.172870    8.948310
  N    -10.658770   -7.805690    9.296370
  C    -15.068510   -6.006850    8.101860
  C    -16.221340   -6.812610    8.260090
  C    -15.870650   -7.992890    9.081110
  O    -16.595670   -8.914860    9.385890
  C    -17.438370   -6.476920    7.719960
  C    -17.522760   -5.282420    6.994250
  C    -16.368050   -4.479490    6.849940
  C    -15.134460   -4.823840    7.391700
  S    -16.698550   -3.045610    5.924570
  C    -18.360920   -3.541480    5.743560
  C    -18.654900   -4.717750    6.344420
  Br   -19.549440   -2.457770    4.778330
  H    -10.215990   -2.353910    3.766940
  H     -8.303960   -5.599130    0.464430
  H    -11.032070   -4.636390    5.165730
  H     -7.171600   -0.404700   -1.370320
  H     -7.008240    4.533740    0.225730
  H     -6.173010    4.558950    2.671440
  H     -5.813490    3.008120    3.453800
  H     -7.452410    3.660620    3.487660
  H     -6.367120   -0.495030    2.100790
  H     -7.553080    1.306400    4.267390
  H     -6.601290   -1.613510    3.963940
  H     -8.157740   -0.306710    6.266900
  H     -6.769770   -6.275320    3.819380
  H     -8.965310   -5.703930    8.683150
  H     -9.628500   -2.824870    9.497620
  H    -10.951450   -3.792420   11.236860
  H     -7.853080   -5.837010   10.713730
  H     -8.964870   -7.199540   10.591720
  H     -8.222050   -6.813360   12.147040
  H    -11.351500   -5.136450   12.988950
  H     -9.951420   -6.011460   13.638880
  H    -10.807830   -8.002500   12.844910
  H    -12.627770   -6.361780   11.235180
  H    -12.557640   -9.358720   11.880900
  H    -14.553520   -9.516250   10.608230
  H    -18.298310   -7.115140    7.849370
  H    -14.283330   -4.176440    7.259830
  H    -19.629320   -5.171060    6.333260

 Total Charge           Charge          ....    0
 Multiplicity           Mult            ....    1
 Number of Electrons    NEL             ....  546
 Basis Dimension        Dim             .... 1154

ORBITAL ENERGIES
----------------

  NO   OCC          E(Eh)            E(eV)
   0   2.0000    -482.883208    -13139.9201
   1   2.0000    -482.869942    -13139.5591
   2   2.0000     -88.972299     -2421.0593
   3   2.0000     -88.961717     -2420.7714
   4   2.0000     -88.960976     -2420.7512
   5   2.0000     -62.560884     -1702.3682
   6   2.0000     -62.547176     -1701.9952
   7   2.0000     -56.394830     -1534.5813
   8   2.0000     -56.392127     -1534.5078
   9   2.0000     -56.392089     -1534.5067
  10   2.0000     -56.381148     -1534.2090
  11   2.0000     -56.378423     -1534.1349
  12   2.0000     -56.378402     -1534.1343
  13   2.0000     -19.300800      -525.2015
  14   2.0000     -19.205186      -522.5997
  15   2.0000     -19.203738      -522.5603
  16   2.0000     -19.203612      -522.5568
  17   2.0000     -19.199441      -522.4433
  18   2.0000     -14.473931      -393.8557
  19   2.0000     -14.444956      -393.0672
  20   2.0000     -14.417204      -392.3121
  21   2.0000     -14.416982      -392.3060
  22   2.0000     -14.406599      -392.0235
  23   2.0000     -14.405469      -391.9927
  24   2.0000     -10.392490      -282.7940
  25   2.0000     -10.388364      -282.6818
  26   2.0000     -10.355461      -281.7864
  27   2.0000     -10.355061      -281.7755
  28   2.0000     -10.354963      -281.7729
  29   2.0000     -10.353554      -281.7345
  30   2.0000     -10.353299      -281.7276
  31   2.0000     -10.348287      -281.5912
  32   2.0000     -10.342725      -281.4399
  33   2.0000     -10.338907      -281.3360
  34   2.0000     -10.332722      -281.1677
  35   2.0000     -10.331895      -281.1451
  36   2.0000     -10.331286      -281.1286
  37   2.0000     -10.331045      -281.1220
  38   2.0000     -10.324208      -280.9360
  39   2.0000     -10.321374      -280.8589
  40   2.0000     -10.321038      -280.8497
  41   2.0000     -10.313438      -280.6429
  42   2.0000     -10.312025      -280.6045
  43   2.0000     -10.311712      -280.5960
  44   2.0000     -10.309557      -280.5373
  45   2.0000     -10.308639      -280.5123
  46   2.0000     -10.307439      -280.4797
  47   2.0000     -10.303076      -280.3610
  48   2.0000     -10.302934      -280.3571
  49   2.0000     -10.302145      -280.3356
  50   2.0000     -10.301697      -280.3234
  51   2.0000     -10.296029      -280.1692
  52   2.0000     -10.293802      -280.1086
  53   2.0000     -10.293430      -280.0985
  54   2.0000     -10.292774      -280.0806
  55   2.0000     -10.292581      -280.0754
  56   2.0000     -10.291941      -280.0580
  57   2.0000     -10.291885      -280.0564
  58   2.0000     -10.291233      -280.0387
  59   2.0000     -10.286682      -279.9148
  60   2.0000     -10.286059      -279.8979
  61   2.0000     -10.286056      -279.8978
  62   2.0000     -10.282975      -279.8140
  63   2.0000     -10.282224      -279.7935
  64   2.0000     -10.282175      -279.7922
  65   2.0000     -10.282117      -279.7906
  66   2.0000     -10.280963      -279.7592
  67   2.0000     -10.279480      -279.7189
  68   2.0000     -10.279357      -279.7155
  69   2.0000     -10.278788      -279.7000
  70   2.0000     -10.278630      -279.6957
  71   2.0000     -10.277993      -279.6784
  72   2.0000     -10.277948      -279.6772
  73   2.0000     -10.277439      -279.6633
  74   2.0000     -10.274150      -279.5738
  75   2.0000     -10.271706      -279.5073
  76   2.0000     -10.263197      -279.2758
  77   2.0000      -8.790289      -239.1959
  78   2.0000      -8.776461      -238.8196
  79   2.0000      -8.068342      -219.5508
  80   2.0000      -8.057376      -219.2524
  81   2.0000      -8.057088      -219.2445
  82   2.0000      -6.626543      -180.3174
  83   2.0000      -6.612727      -179.9415
  84   2.0000      -6.612032      -179.9225
  85   2.0000      -6.611860      -179.9179
  86   2.0000      -6.598180      -179.5456
  87   2.0000      -6.598053      -179.5421
  88   2.0000      -6.038047      -164.3036
  89   2.0000      -6.033780      -164.1875
  90   2.0000      -6.029529      -164.0718
  91   2.0000      -6.027056      -164.0045
  92   2.0000      -6.026309      -163.9842
  93   2.0000      -6.022853      -163.8902
  94   2.0000      -6.022096      -163.8696
  95   2.0000      -6.019335      -163.7944
  96   2.0000      -6.018627      -163.7752
  97   2.0000      -2.742456       -74.6260
  98   2.0000      -2.738318       -74.5134
  99   2.0000      -2.738211       -74.5105
 100   2.0000      -2.728613       -74.2493
 101   2.0000      -2.726664       -74.1963
 102   2.0000      -2.726654       -74.1960
 103   2.0000      -2.724501       -74.1374
 104   2.0000      -2.724440       -74.1358
 105   2.0000      -2.712868       -73.8209
 106   2.0000      -2.712849       -73.8204
 107   2.0000      -1.215934       -33.0872
 108   2.0000      -1.146115       -31.1874
 109   2.0000      -1.125140       -30.6166
 110   2.0000      -1.119165       -30.4540
 111   2.0000      -1.118748       -30.4427
 112   2.0000      -1.072454       -29.1830
 113   2.0000      -1.032482       -28.0953
 114   2.0000      -1.020387       -27.7661
 115   2.0000      -1.012731       -27.5578
 116   2.0000      -1.010461       -27.4960
 117   2.0000      -1.001181       -27.2435
 118   2.0000      -0.997707       -27.1490
 119   2.0000      -0.994020       -27.0486
 120   2.0000      -0.985125       -26.8066
 121   2.0000      -0.984572       -26.7916
 122   2.0000      -0.976442       -26.5703
 123   2.0000      -0.940149       -25.5828
 124   2.0000      -0.933378       -25.3985
 125   2.0000      -0.929993       -25.3064
 126   2.0000      -0.925225       -25.1766
 127   2.0000      -0.913373       -24.8542
 128   2.0000      -0.908035       -24.7089
 129   2.0000      -0.904958       -24.6252
 130   2.0000      -0.898857       -24.4591
 131   2.0000      -0.897458       -24.4211
 132   2.0000      -0.894356       -24.3367
 133   2.0000      -0.881953       -23.9992
 134   2.0000      -0.878607       -23.9081
 135   2.0000      -0.871429       -23.7128
 136   2.0000      -0.869591       -23.6628
 137   2.0000      -0.863219       -23.4894
 138   2.0000      -0.847799       -23.0698
 139   2.0000      -0.833338       -22.6763
 140   2.0000      -0.825320       -22.4581
 141   2.0000      -0.821325       -22.3494
 142   2.0000      -0.814112       -22.1531
 143   2.0000      -0.804386       -21.8884
 144   2.0000      -0.791833       -21.5469
 145   2.0000      -0.782281       -21.2870
 146   2.0000      -0.775125       -21.0922
 147   2.0000      -0.763218       -20.7682
 148   2.0000      -0.756582       -20.5876
 149   2.0000      -0.754673       -20.5357
 150   2.0000      -0.750258       -20.4156
 151   2.0000      -0.747933       -20.3523
 152   2.0000      -0.741934       -20.1891
 153   2.0000      -0.726421       -19.7669
 154   2.0000      -0.714591       -19.4450
 155   2.0000      -0.699171       -19.0254
 156   2.0000      -0.697811       -18.9884
 157   2.0000      -0.692253       -18.8372
 158   2.0000      -0.685506       -18.6536
 159   2.0000      -0.682759       -18.5788
 160   2.0000      -0.679511       -18.4904
 161   2.0000      -0.668193       -18.1824
 162   2.0000      -0.664921       -18.0934
 163   2.0000      -0.655745       -17.8437
 164   2.0000      -0.652101       -17.7446
 165   2.0000      -0.645576       -17.5670
 166   2.0000      -0.633257       -17.2318
 167   2.0000      -0.627727       -17.0813
 168   2.0000      -0.623401       -16.9636
 169   2.0000      -0.619810       -16.8659
 170   2.0000      -0.617764       -16.8102
 171   2.0000      -0.611739       -16.6463
 172   2.0000      -0.607834       -16.5400
 173   2.0000      -0.601436       -16.3659
 174   2.0000      -0.591914       -16.1068
 175   2.0000      -0.590417       -16.0661
 176   2.0000      -0.588915       -16.0252
 177   2.0000      -0.584918       -15.9164
 178   2.0000      -0.583244       -15.8709
 179   2.0000      -0.576769       -15.6947
 180   2.0000      -0.571674       -15.5560
 181   2.0000      -0.568761       -15.4768
 182   2.0000      -0.568033       -15.4570
 183   2.0000      -0.561765       -15.2864
 184   2.0000      -0.551886       -15.0176
 185   2.0000      -0.547273       -14.8920
 186   2.0000      -0.545354       -14.8398
 187   2.0000      -0.544981       -14.8297
 188   2.0000      -0.542486       -14.7618
 189   2.0000      -0.537003       -14.6126
 190   2.0000      -0.533732       -14.5236
 191   2.0000      -0.531836       -14.4720
 192   2.0000      -0.529655       -14.4126
 193   2.0000      -0.528444       -14.3797
 194   2.0000      -0.525393       -14.2967
 195   2.0000      -0.525068       -14.2878
 196   2.0000      -0.522351       -14.2139
 197   2.0000      -0.515658       -14.0318
 198   2.0000      -0.514403       -13.9976
 199   2.0000      -0.512278       -13.9398
 200   2.0000      -0.510379       -13.8881
 201   2.0000      -0.508157       -13.8277
 202   2.0000      -0.505053       -13.7432
 203   2.0000      -0.502701       -13.6792
 204   2.0000      -0.499772       -13.5995
 205   2.0000      -0.496405       -13.5079
 206   2.0000      -0.495948       -13.4954
 207   2.0000      -0.494459       -13.4549
 208   2.0000      -0.491147       -13.3648
 209   2.0000      -0.488558       -13.2943
 210   2.0000      -0.487214       -13.2578
 211   2.0000      -0.484735       -13.1903
 212   2.0000      -0.482649       -13.1336
 213   2.0000      -0.481412       -13.0999
 214   2.0000      -0.479417       -13.0456
 215   2.0000      -0.478296       -13.0151
 216   2.0000      -0.477867       -13.0034
 217   2.0000      -0.477350       -12.9893
 218   2.0000      -0.470057       -12.7909
 219   2.0000      -0.464236       -12.6325
 220   2.0000      -0.462199       -12.5771
 221   2.0000      -0.459703       -12.5092
 222   2.0000      -0.458181       -12.4677
 223   2.0000      -0.457506       -12.4494
 224   2.0000      -0.454223       -12.3600
 225   2.0000      -0.452821       -12.3219
 226   2.0000      -0.450624       -12.2621
 227   2.0000      -0.447164       -12.1680
 228   2.0000      -0.442158       -12.0317
 229   2.0000      -0.441085       -12.0025
 230   2.0000      -0.440173       -11.9777
 231   2.0000      -0.438130       -11.9221
 232   2.0000      -0.437144       -11.8953
 233   2.0000      -0.436739       -11.8843
 234   2.0000      -0.434369       -11.8198
 235   2.0000      -0.431997       -11.7552
 236   2.0000      -0.429940       -11.6993
 237   2.0000      -0.427687       -11.6380
 238   2.0000      -0.424583       -11.5535
 239   2.0000      -0.423785       -11.5318
 240   2.0000      -0.423117       -11.5136
 241   2.0000      -0.418009       -11.3746
 242   2.0000      -0.413491       -11.2517
 243   2.0000      -0.412198       -11.2165
 244   2.0000      -0.408672       -11.1205
 245   2.0000      -0.404241       -11.0000
 246   2.0000      -0.401593       -10.9279
 247   2.0000      -0.397746       -10.8232
 248   2.0000      -0.391375       -10.6498
 249   2.0000      -0.384628       -10.4663
 250   2.0000      -0.382360       -10.4045
 251   2.0000      -0.375348       -10.2137
 252   2.0000      -0.373065       -10.1516
 253   2.0000      -0.372606       -10.1391
 254   2.0000      -0.360616        -9.8129
 255   2.0000      -0.360072        -9.7981
 256   2.0000      -0.357920        -9.7395
 257   2.0000      -0.354929        -9.6581
 258   2.0000      -0.348035        -9.4705
 259   2.0000      -0.347642        -9.4598
 260   2.0000      -0.337977        -9.1968
 261   2.0000      -0.335772        -9.1368
 262   2.0000      -0.330950        -9.0056
 263   2.0000      -0.326175        -8.8757
 264   2.0000      -0.321844        -8.7578
 265   2.0000      -0.311420        -8.4742
 266   2.0000      -0.303690        -8.2638
 267   2.0000      -0.294973        -8.0266
 268   2.0000      -0.291773        -7.9395
 269   2.0000      -0.283834        -7.7235
 270   2.0000      -0.275665        -7.5012
 271   2.0000      -0.269119        -7.3231
 272   2.0000      -0.244532        -6.6541
 273   0.0000      -0.086144        -2.3441
 274   0.0000      -0.080478        -2.1899
 275   0.0000      -0.052687        -1.4337
 276   0.0000      -0.047217        -1.2848
 277   0.0000      -0.041502        -1.1293

MULLIKEN ATOMIC CHARGES
-----------------------
   0 C :    0.319486
   1 C :   -0.346535
   2 C :   -0.184226
   3 N :    0.144715
   4 C :   -0.203985
   5 N :    0.155067
   6 C :    0.056456
   7 C :    0.002132
   8 C :   -0.079750
   9 C :    0.110753
  10 C :   -0.102884
  11 C :   -0.028589
  12 S :    0.162992
  13 C :   -0.125529
  14 C :    0.053484
  15 Br:    0.032568
  16 C :    0.122698
  17 O :   -0.145363
  18 C :   -0.138052
  19 C :    0.035583
  20 C :   -0.159588
  21 S :    0.148387
  22 C :   -0.108122
  23 C :   -0.093219
  24 C :    0.116664
  25 C :    0.176764
  26 C :   -0.059200
  27 C :    0.037697
  28 C :    0.000758
  29 C :   -0.007877
  30 C :    0.115023
  31 O :   -0.207754
  32 C :   -0.074736
  33 C :    0.204424
  34 O :   -0.175865
  35 N :   -0.164450
  36 C :    0.162472
  37 O :   -0.139792
  38 C :   -0.016675
  39 C :    0.065421
  40 C :   -0.022713
  41 C :    0.021242
  42 C :   -0.000179
  43 C :   -0.189746
  44 C :    0.087137
  45 C :    0.179933
  46 N :   -0.125931
  47 C :    0.097220
  48 C :   -0.019970
  49 C :    0.048916
  50 C :   -0.162960
  51 C :    0.292430
  52 C :   -0.406541
  53 C :   -0.075172
  54 N :    0.091535
  55 C :   -0.175950
  56 N :    0.148149
  57 C :   -0.005495
  58 C :    0.008889
  59 C :    0.131303
  60 O :   -0.155598
  61 C :   -0.078302
  62 C :    0.113743
  63 C :   -0.086997
  64 C :   -0.029657
  65 S :    0.176849
  66 C :   -0.123596
  67 C :    0.039353
  68 Br:    0.019438
  69 H :   -0.012306
  70 H :   -0.014725
  71 H :   -0.029581
  72 H :    0.031666
  73 H :    0.023863
  74 H :    0.010714
  75 H :    0.029759
  76 H :    0.039848
  77 H :    0.032842
  78 H :   -0.013614
  79 H :    0.023549
  80 H :   -0.016105
  81 H :    0.137043
  82 H :    0.016644
  83 H :    0.006126
  84 H :   -0.016420
  85 H :    0.031586
  86 H :    0.062433
  87 H :   -0.006042
  88 H :    0.017503
  89 H :    0.029615
  90 H :    0.136384
  91 H :    0.033853
  92 H :   -0.012609
  93 H :    0.026334
  94 H :   -0.011380
  95 H :   -0.011676
  96 H :   -0.003987
Sum of atomic charges:   -0.0000000

LOEWDIN ATOMIC CHARGES
----------------------
   0 C :    0.080694
   1 C :   -0.139616
   2 C :   -0.015534
   3 N :   -0.057717
   4 C :   -0.022260
   5 N :   -0.054982
   6 C :   -0.015273
   7 C :   -0.046339
   8 C :    0.020133
   9 C :   -0.038018
  10 C :   -0.149036
  11 C :   -0.010210
  12 S :    0.420338
  13 C :   -0.271479
  14 C :   -0.071177
  15 Br:    0.154439
  16 C :    0.077734
  17 O :   -0.137986
  18 C :   -0.093168
  19 C :    0.047232
  20 C :   -0.175516
  21 S :    0.456453
  22 C :   -0.168195
  23 C :   -0.054028
  24 C :   -0.044044
  25 C :   -0.018974
  26 C :    0.003953
  27 C :   -0.014440
  28 C :    0.016808
  29 C :   -0.056847
  30 C :    0.072857
  31 O :    0.016218
  32 C :   -0.110873
  33 C :    0.088229
  34 O :   -0.175533
  35 N :    0.001196
  36 C :    0.081949
  37 O :   -0.158435
  38 C :   -0.094560
  39 C :    0.069149
  40 C :   -0.031242
  41 C :   -0.009753
  42 C :   -0.057197
  43 C :   -0.025960
  44 C :   -0.060826
  45 C :    0.046658
  46 N :    0.043516
  47 C :    0.114786
  48 C :   -0.122837
  49 C :    0.082879
  50 C :   -0.140572
  51 C :    0.074802
  52 C :   -0.181820
  53 C :    0.004153
  54 N :   -0.082080
  55 C :   -0.001024
  56 N :   -0.059548
  57 C :   -0.020200
  58 C :   -0.049301
  59 C :    0.080895
  60 O :   -0.155907
  61 C :    0.019991
  62 C :   -0.035031
  63 C :   -0.146247
  64 C :   -0.017664
  65 S :    0.425441
  66 C :   -0.273400
  67 C :   -0.069999
  68 Br:    0.133572
  69 H :    0.039889
  70 H :    0.038525
  71 H :    0.030390
  72 H :    0.044374
  73 H :    0.025656
  74 H :    0.033506
  75 H :    0.036776
  76 H :    0.038129
  77 H :    0.040087
  78 H :    0.027043
  79 H :    0.034033
  80 H :    0.034279
  81 H :    0.089397
  82 H :    0.044625
  83 H :    0.032138
  84 H :    0.025227
  85 H :    0.038558
  86 H :    0.040115
  87 H :    0.022336
  88 H :    0.029827
  89 H :    0.034022
  90 H :    0.090005
  91 H :    0.038198
  92 H :    0.030117
  93 H :    0.046849
  94 H :    0.040507
  95 H :    0.037539
  96 H :    0.038626

  Mayer bond orders larger than 0.100000
B(  0-C ,  1-C ) :   1.6325 B(  0-C ,  6-C ) :   1.0068 B(  0-C , 18-C ) :   1.0671
B(  1-C ,  2-C ) :   1.1431 B(  1-C ,  4-C ) :   1.1445 B(  2-C ,  3-N ) :   2.9689
B(  4-C ,  5-N ) :   2.9817 B(  6-C ,  7-C ) :   1.2736 B(  6-C , 11-C ) :   1.3982
B(  7-C ,  8-C ) :   1.4047 B(  7-C , 16-C ) :   0.9371 B(  8-C ,  9-C ) :   1.2401
B(  8-C , 69-H ) :   1.0248 B(  9-C , 10-C ) :   1.2923 B(  9-C , 14-C ) :   1.1712
B( 10-C , 11-C ) :   1.3297 B( 10-C , 12-S ) :   1.0787 B( 11-C , 70-H ) :   0.9794
B( 12-S , 13-C ) :   1.0733 B( 13-C , 14-C ) :   1.6038 B( 13-C , 15-Br) :   1.0303
B( 14-C , 71-H ) :   0.9734 B( 16-C , 17-O ) :   2.2141 B( 16-C , 18-C ) :   0.9561
B( 18-C , 19-C ) :   1.5898 B( 19-C , 20-C ) :   1.1903 B( 19-C , 72-H ) :   0.9296
B( 20-C , 21-S ) :   1.1216 B( 20-C , 25-C ) :   1.3961 B( 21-S , 22-C ) :   1.1702
B( 22-C , 23-C ) :   1.5520 B( 22-C , 73-H ) :   0.9676 B( 23-C , 24-C ) :   1.0971
B( 23-C , 25-C ) :   1.2725 B( 24-C , 74-H ) :   0.9471 B( 24-C , 75-H ) :   0.9423
B( 24-C , 76-H ) :   0.9436 B( 25-C , 26-C ) :   1.0959 B( 26-C , 27-C ) :   1.6751
B( 26-C , 77-H ) :   0.9425 B( 27-C , 28-C ) :   1.1294 B( 27-C , 78-H ) :   0.9868
B( 28-C , 29-C ) :   1.6061 B( 28-C , 79-H ) :   0.9601 B( 29-C , 30-C ) :   1.1521
B( 29-C , 80-H ) :   0.9766 B( 30-C , 31-O ) :   1.1417 B( 30-C , 32-C ) :   1.4155
B( 31-O , 39-C ) :   1.1467 B( 32-C , 33-C ) :   0.8995 B( 32-C , 38-C ) :   1.2682
B( 33-C , 34-O ) :   2.1083 B( 33-C , 35-N ) :   1.1063 B( 35-N , 36-C ) :   1.0691
B( 35-N , 81-H ) :   0.9108 B( 36-C , 37-O ) :   2.2584 B( 36-C , 38-C ) :   0.8817
B( 38-C , 39-C ) :   1.4062 B( 39-C , 40-C ) :   1.1771 B( 40-C , 41-C ) :   1.6904
B( 40-C , 82-H ) :   0.9502 B( 41-C , 42-C ) :   1.0736 B( 41-C , 83-H ) :   0.9629
B( 42-C , 43-C ) :   1.8228 B( 42-C , 84-H ) :   0.9492 B( 43-C , 44-C ) :   1.0746
B( 43-C , 45-C ) :   1.0447 B( 44-C , 85-H ) :   0.9382 B( 44-C , 86-H ) :   0.9192
B( 44-C , 87-H ) :   0.9430 B( 45-C , 46-N ) :   0.9889 B( 45-C , 88-H ) :   0.9425
B( 45-C , 89-H ) :   0.9383 B( 46-N , 47-C ) :   1.3565 B( 46-N , 90-H ) :   0.9332
B( 47-C , 48-C ) :   1.4410 B( 47-C , 91-H ) :   0.9568 B( 48-C , 49-C ) :   1.3292
B( 48-C , 92-H ) :   0.9560 B( 49-C , 50-C ) :   1.4918 B( 49-C , 93-H ) :   0.9313
B( 50-C , 51-C ) :   1.1137 B( 50-C , 59-C ) :   0.9712 B( 51-C , 52-C ) :   1.5458
B( 51-C , 57-C ) :   1.0042 B( 52-C , 53-C ) :   1.1622 B( 52-C , 55-C ) :   1.2175
B( 53-C , 54-N ) :   2.7732 B( 54-N , 71-H ) :   0.1030 B( 55-C , 56-N ) :   2.8652
B( 57-C , 58-C ) :   1.2823 B( 57-C , 64-C ) :   1.4194 B( 58-C , 59-C ) :   0.9132
B( 58-C , 61-C ) :   1.4345 B( 59-C , 60-O ) :   2.2504 B( 61-C , 62-C ) :   1.2420
B( 61-C , 94-H ) :   1.0163 B( 62-C , 63-C ) :   1.3195 B( 62-C , 67-C ) :   1.1599
B( 63-C , 64-C ) :   1.3198 B( 63-C , 65-S ) :   1.0802 B( 64-C , 95-H ) :   0.9823
B( 65-S , 66-C ) :   1.0862 B( 66-C , 67-C ) :   1.6215 B( 66-C , 68-Br) :   1.0169
B( 67-C , 96-H ) :   1.0003

-----------------------------------------------------------------------------
         ABSORPTION SPECTRUM VIA TRANSITION ELECTRIC DIPOLE MOMENTS
-----------------------------------------------------------------------------
State   Energy  Wavelength   fosc         T2         TX        TY        TZ
        (cm-1)    (nm)                  (au**2)     (au)      (au)      (au)
-----------------------------------------------------------------------------
   0   17605.0    568.0   0.124787030   2.33351   0.15628   0.29172   1.49130
   1   20906.7    478.3   0.127955110   2.01487  -0.45299   0.54086  -1.23172
   2   22634.2    441.8   0.169905581   2.47125   0.37448  -0.62932   1.39103
   3   23922.5    418.0   0.148962582   2.04996  -0.16348  -0.87495   1.12147
   4   24200.0    413.2   0.225781997   3.07150   0.02033  -1.50312  -0.90095
   5   25441.2    393.1   0.082836496   1.07191   0.59282   0.27695  -0.80235
   6   27178.6    367.9   0.502116496   6.08209   0.92363   1.80399  -1.40521
   7   27751.0    360.3   0.399622527   4.74074  -1.26889  -0.56621   1.67633
   8   27927.5    358.1   0.101108856   1.19188  -0.55033  -0.83747   0.43320
   9   28298.7    353.4   0.280472756   3.26287  -1.11737   0.53941   1.31278
  10   28645.6    349.1   0.358353888   4.11841   0.52008   1.95990  -0.08206
  11   29510.5    338.9   0.001559680   0.01740  -0.01971   0.03512  -0.12561
  12   29877.4    334.7   0.471818922   5.19886  -1.45588   0.95863  -1.46980
  13   30052.6    332.8   0.086428735   0.94679  -0.52502   0.27797  -0.77063
  14   30677.3    326.0   0.512985611   5.50507   0.93144   1.70282  -1.31829
  15   30978.0    322.8   0.045534859   0.48391   0.47250   0.34799  -0.37358
  16   31026.0    322.3   0.128058928   1.35881  -0.72297  -0.64661   0.64655
  17   31347.1    319.0   0.015154673   0.15916   0.07378  -0.33015   0.21145
  18   31549.1    317.0   0.358620785   3.74217  -1.64904   0.29940  -0.96602
  19   31906.6    313.4   0.018061747   0.18636   0.13965   0.06800  -0.40278
  20   31962.9    312.9   0.290492316   2.99202  -0.81414  -0.45980   1.45526
  21   32273.5    309.9   0.159944751   1.63155  -0.93274   0.43021  -0.75925
  22   32811.9    304.8   0.013436221   0.13481   0.36107  -0.04859   0.04559
  23   33204.7    301.2   0.073671683   0.73043  -0.13862   0.44082  -0.71895
  24   33508.2    298.4   0.017019829   0.16722   0.11578  -0.09030   0.38165
  25   34253.1    291.9   0.064197119   0.61701   0.38365   0.68530   0.01377
  26   34904.0    286.5   0.015129905   0.14270  -0.08312  -0.35216   0.10852
  27   35025.4    285.5   0.347618850   3.26735   1.73537  -0.25231   0.43837
  28   35279.5    283.5   0.038380832   0.35815  -0.12876   0.15363   0.56389
  29   35459.2    282.0   0.010135587   0.09410   0.28640   0.09833  -0.04910
  30   35552.1    281.3   0.044045384   0.40786  -0.16953  -0.20620   0.58017
  31   35739.4    279.8   0.005615572   0.05173   0.14108  -0.06669  -0.16546
  32   35984.7    277.9   0.000560820   0.00513   0.06383  -0.00537  -0.03206
  33   36223.5    276.1   0.132797816   1.20691  -0.59455  -0.01425   0.92370
  34   36883.4    271.1   0.016360036   0.14603  -0.03370  -0.16574   0.34266
  35   37201.0    268.8   0.092766885   0.82095  -0.26168  -0.36789   0.78558
  36   37322.8    267.9   0.127967855   1.12876  -0.09281   1.04189   0.18602
  37   37893.9    263.9   0.057482857   0.49939  -0.18474  -0.63826   0.24061
  38   38251.4    261.4   0.102467621   0.88189  -0.07602   0.86679   0.35325
  39   38475.3    259.9   0.108563725   0.92892  -0.17804   0.38528   0.86532
  40   38608.2    259.0   0.000099972   0.00085  -0.02049  -0.02017   0.00508
  41   38856.2    257.4   0.007756751   0.06572   0.22691  -0.09955  -0.06574
  42   39379.2    253.9   0.024264647   0.20285  -0.07551  -0.44188   0.04346
  43   39599.5    252.5   0.004622401   0.03843   0.05965   0.14348   0.11951
  44   39734.3    251.7   0.011099677   0.09196   0.02046  -0.28641   0.09754
  45   39843.1    251.0   0.033787186   0.27917  -0.36819   0.33473   0.17768
  46   40039.8    249.8   0.015394881   0.12658   0.00948  -0.21753   0.28137
  47   40111.9    249.3   0.025276021   0.20745   0.17487  -0.28105   0.31286
  48   40272.5    248.3   0.045273274   0.37009  -0.48011   0.37182   0.03648

FINAL SINGLE POINT ENERGY     -9079.701684594953

DIPOLE MOMENT
-------------
                                X             Y             Z
Electronic contribution:   -111.93875     -32.24570     -45.80348
Nuclear contribution   :    110.53815      34.23931      50.60064
                        -----------------------------------------
Total Dipole Moment    :     -1.40060       1.99361       4.79717
                        -----------------------------------------
Magnitude (a.u.)       :      5.38042
Magnitude (Debye)      :     13.67595

Rotational constants in cm-1:     0.001079     0.000524     0.000440
Rotational constants in MHz :    32.344117    15.703928    13.188041

                             ****ORCA TERMINATED NORMALLY****
TOTAL RUN TIME: 0 days 0 hours 10 minutes 42 seconds 489 msec
