                         Program Version 4.2.0 -  RELEASE  -
|  1> # ORCA input file
|  2> # SCF done       -169.463163176532          0.000769170634
|  3> ! CAM-B3LYP def2-SVP def2/J RIJCOSX Grid4 TightSCF
|  4> %maxcore 5000
|  5> %tddft
|  6>     Mode sTDDFT
|  7>     Ethresh 5.0
|  8>     maxcore 5000
|  9> end
| 10>
| 11> %pal
| 12>   nprocs 6
| 13>   end
| 14> * xyz 0 1
| 15>    C       -6.86720         1.00658        -9.41178
| 16>    C       -7.85462         0.13214        -9.78488
| 17>    C       -8.76029         0.36730       -10.84006
| 18>    N       -9.50863         0.47876       -11.70362
| 19>    C       -8.08048        -1.14128        -9.22410
| 20>    N       -8.31666        -2.18936        -8.81727
| 21>    C       -6.64068         2.31727       -10.00172
| 22>    C       -5.42143         2.84764        -9.51137
| 23>    C       -4.96554         4.09274        -9.87431
| 24>    C       -5.76194         4.85870       -10.73592
| 25>    C       -6.98271         4.31780       -11.20678
| 26>    C       -7.43405         3.05321       -10.86035
| 27>    S       -7.83459         5.43444       -12.22452
| 28>    C       -6.56504         6.60553       -12.00055
| 29>    C       -5.54699         6.18192       -11.21404
| 30>   Br       -6.76211         8.28131       -12.80534
| 31>    C       -4.82625         1.87875        -8.56642
| 32>    O       -3.70211         1.87985        -8.10747
| 33>    C       -5.84496         0.81576        -8.39837
| 34>    C       -5.85256        -0.18501        -7.47440
| 35>    N       -5.08085        -0.34690        -6.37376
| 36>    C       -4.27231         0.52571        -5.68777
| 37>    S       -2.89716        -0.16252        -4.87975
| 38>    C       -2.49548         1.39710        -4.25048
| 39>    N       -1.37954         1.50115        -3.40556
| 40>    O       -1.10910         2.59878        -2.96037
| 41>    O       -0.76732         0.47300        -3.17950
| 42>    C       -3.36038         2.37679        -4.65046
| 43>    C       -4.40459         1.89502        -5.46752
| 44>    C       -5.45520         2.73309        -6.00441
| 45>    C       -5.28792         4.04785        -6.19390
| 46>    C       -6.19207         4.90167        -6.93901
| 47>    N       -7.30175         4.38836        -7.47829
| 48>    C       -8.00254         5.20190        -8.25624
| 49>    C       -7.60146         6.48996        -8.55265
| 50>    C       -6.43012         6.95185        -7.92540
| 51>    N       -5.75881         6.14306        -7.10109
| 52>    C       -5.86097         8.24700        -8.17835
| 53>    C       -4.99752         8.84610        -7.31935
| 54>    C       -4.24992        10.02087        -7.57824
| 55>    C       -3.79734        10.39877        -8.81530
| 56>    C       -3.00487        11.53003        -9.14691
| 57>    C       -2.57716        11.56456       -10.44080
| 58>    C       -2.99602        10.45926       -11.20971
| 59>    S       -3.99304         9.39391       -10.23731
| 60>    C       -2.77854        10.13652       -12.53346
| 61>    C       -2.23068        10.89125       -13.59521
| 62>    C       -2.34326        10.28741       -14.81074
| 63>    C       -2.97713         9.01545       -14.78619
| 64>    S       -3.32702         8.58686       -13.11865
| 65>    C       -3.40259         8.27857       -15.85614
| 66>    C       -4.13536         7.06554       -15.79651
| 67>    C       -4.98648         6.58932       -16.79285
| 68>    C       -5.63694         5.41892       -16.31826
| 69>    C       -6.62261         4.62693       -16.86081
| 70>    C       -7.08829         3.54515       -16.09365
| 71>    C       -8.07272         2.59984       -16.34012
| 72>    C       -8.16197         1.71126       -15.22028
| 73>    C       -7.22118         2.10465       -14.28854
| 74>    C       -6.52410         3.25099       -14.78846
| 75>    C       -5.53197         4.02466       -14.25298
| 76>    C       -5.09896         5.14282       -14.99965
| 77>    C       -4.19769         6.14333       -14.69571
| 78>    C       -9.07681         0.60562       -15.06526
| 79>    C       -9.90165         0.15298       -16.00547
| 80>    H       -4.03792         4.48198        -9.48460
| 81>    H       -8.37794         2.69496       -11.23603
| 82>    H       -4.69029         6.78219       -10.96824
| 83>    H       -6.57628        -0.98254        -7.58727
| 84>    H       -5.04923        -1.29478        -6.01711
| 85>    H       -3.25828         3.39717        -4.33015
| 86>    H       -6.37883         2.26624        -6.31157
| 87>    H       -4.37559         4.54632        -5.90282
| 88>    H       -8.91188         4.78210        -8.67055
| 89>    H       -8.16592         7.12215        -9.21917
| 90>    H       -6.17792         8.74170        -9.08560
| 91>    H       -4.87316         8.39189        -6.34430
| 92>    H       -3.92766        10.61404        -6.73288
| 93>    H       -2.77297        12.27965        -8.41074
| 94>    H       -1.95499        12.33878       -10.85427
| 95>    H       -1.81115        11.86904       -13.43765
| 96>    H       -2.01867        10.72681       -15.73791
| 97>    H       -3.24888         8.70692       -16.83866
| 98>    H       -5.16176         7.05572       -17.74468
| 99>    H       -7.03969         4.82852       -17.83734
|100>    H       -8.68200         2.54657       -17.22366
|101>    H       -7.03553         1.63504       -13.33962
|102>    H       -5.09319         3.80991       -13.28770
|103>    H       -3.60520         6.19728       -13.80136
|104>    H       -9.06655         0.13962       -14.08859
|105>    H       -9.94601         0.58335       -16.99191
|106>    H      -10.56368        -0.67432       -15.81848
|107> *
|108>
|109>                          ****END OF INPUT****

CARTESIAN COORDINATES (ANGSTROEM)
---------------------------------
  C     -6.867200    1.006580   -9.411780
  C     -7.854620    0.132140   -9.784880
  C     -8.760290    0.367300  -10.840060
  N     -9.508630    0.478760  -11.703620
  C     -8.080480   -1.141280   -9.224100
  N     -8.316660   -2.189360   -8.817270
  C     -6.640680    2.317270  -10.001720
  C     -5.421430    2.847640   -9.511370
  C     -4.965540    4.092740   -9.874310
  C     -5.761940    4.858700  -10.735920
  C     -6.982710    4.317800  -11.206780
  C     -7.434050    3.053210  -10.860350
  S     -7.834590    5.434440  -12.224520
  C     -6.565040    6.605530  -12.000550
  C     -5.546990    6.181920  -11.214040
  Br    -6.762110    8.281310  -12.805340
  C     -4.826250    1.878750   -8.566420
  O     -3.702110    1.879850   -8.107470
  C     -5.844960    0.815760   -8.398370
  C     -5.852560   -0.185010   -7.474400
  N     -5.080850   -0.346900   -6.373760
  C     -4.272310    0.525710   -5.687770
  S     -2.897160   -0.162520   -4.879750
  C     -2.495480    1.397100   -4.250480
  N     -1.379540    1.501150   -3.405560
  O     -1.109100    2.598780   -2.960370
  O     -0.767320    0.473000   -3.179500
  C     -3.360380    2.376790   -4.650460
  C     -4.404590    1.895020   -5.467520
  C     -5.455200    2.733090   -6.004410
  C     -5.287920    4.047850   -6.193900
  C     -6.192070    4.901670   -6.939010
  N     -7.301750    4.388360   -7.478290
  C     -8.002540    5.201900   -8.256240
  C     -7.601460    6.489960   -8.552650
  C     -6.430120    6.951850   -7.925400
  N     -5.758810    6.143060   -7.101090
  C     -5.860970    8.247000   -8.178350
  C     -4.997520    8.846100   -7.319350
  C     -4.249920   10.020870   -7.578240
  C     -3.797340   10.398770   -8.815300
  C     -3.004870   11.530030   -9.146910
  C     -2.577160   11.564560  -10.440800
  C     -2.996020   10.459260  -11.209710
  S     -3.993040    9.393910  -10.237310
  C     -2.778540   10.136520  -12.533460
  C     -2.230680   10.891250  -13.595210
  C     -2.343260   10.287410  -14.810740
  C     -2.977130    9.015450  -14.786190
  S     -3.327020    8.586860  -13.118650
  C     -3.402590    8.278570  -15.856140
  C     -4.135360    7.065540  -15.796510
  C     -4.986480    6.589320  -16.792850
  C     -5.636940    5.418920  -16.318260
  C     -6.622610    4.626930  -16.860810
  C     -7.088290    3.545150  -16.093650
  C     -8.072720    2.599840  -16.340120
  C     -8.161970    1.711260  -15.220280
  C     -7.221180    2.104650  -14.288540
  C     -6.524100    3.250990  -14.788460
  C     -5.531970    4.024660  -14.252980
  C     -5.098960    5.142820  -14.999650
  C     -4.197690    6.143330  -14.695710
  C     -9.076810    0.605620  -15.065260
  C     -9.901650    0.152980  -16.005470
  H     -4.037920    4.481980   -9.484600
  H     -8.377940    2.694960  -11.236030
  H     -4.690290    6.782190  -10.968240
  H     -6.576280   -0.982540   -7.587270
  H     -5.049230   -1.294780   -6.017110
  H     -3.258280    3.397170   -4.330150
  H     -6.378830    2.266240   -6.311570
  H     -4.375590    4.546320   -5.902820
  H     -8.911880    4.782100   -8.670550
  H     -8.165920    7.122150   -9.219170
  H     -6.177920    8.741700   -9.085600
  H     -4.873160    8.391890   -6.344300
  H     -3.927660   10.614040   -6.732880
  H     -2.772970   12.279650   -8.410740
  H     -1.954990   12.338780  -10.854270
  H     -1.811150   11.869040  -13.437650
  H     -2.018670   10.726810  -15.737910
  H     -3.248880    8.706920  -16.838660
  H     -5.161760    7.055720  -17.744680
  H     -7.039690    4.828520  -17.837340
  H     -8.682000    2.546570  -17.223660
  H     -7.035530    1.635040  -13.339620
  H     -5.093190    3.809910  -13.287700
  H     -3.605200    6.197280  -13.801360
  H     -9.066550    0.139620  -14.088590
  H     -9.946010    0.583350  -16.991910
  H    -10.563680   -0.674320  -15.818480

 Total Charge           Charge          ....    0
 Multiplicity           Mult            ....    1
 Number of Electrons    NEL             ....  498
 Basis Dimension        Dim             .... 1079

ORBITAL ENERGIES
----------------

  NO   OCC          E(Eh)            E(eV)
   0   2.0000    -482.879313    -13139.8141
   1   2.0000     -88.984480     -2421.3908
   2   2.0000     -88.973730     -2421.0983
   3   2.0000     -88.945350     -2420.3260
   4   2.0000     -88.944014     -2420.2897
   5   2.0000     -62.556659     -1702.2532
   6   2.0000     -56.390613     -1534.4666
   7   2.0000     -56.387904     -1534.3929
   8   2.0000     -56.387872     -1534.3920
   9   2.0000     -19.237767      -523.4863
  10   2.0000     -19.237483      -523.4785
  11   2.0000     -19.211893      -522.7822
  12   2.0000     -14.649423      -398.6311
  13   2.0000     -14.505102      -394.7039
  14   2.0000     -14.420620      -392.4050
  15   2.0000     -14.418300      -392.3419
  16   2.0000     -14.404539      -391.9674
  17   2.0000     -14.400453      -391.8563
  18   2.0000     -10.367911      -282.1252
  19   2.0000     -10.366823      -282.0956
  20   2.0000     -10.365223      -282.0521
  21   2.0000     -10.355480      -281.7869
  22   2.0000     -10.346050      -281.5303
  23   2.0000     -10.344083      -281.4768
  24   2.0000     -10.341273      -281.4003
  25   2.0000     -10.337528      -281.2984
  26   2.0000     -10.323870      -280.9268
  27   2.0000     -10.322900      -280.9004
  28   2.0000     -10.322794      -280.8975
  29   2.0000     -10.320781      -280.8427
  30   2.0000     -10.316348      -280.7221
  31   2.0000     -10.314038      -280.6592
  32   2.0000     -10.309126      -280.5256
  33   2.0000     -10.306655      -280.4583
  34   2.0000     -10.306653      -280.4583
  35   2.0000     -10.306320      -280.4492
  36   2.0000     -10.305242      -280.4199
  37   2.0000     -10.304506      -280.3999
  38   2.0000     -10.304418      -280.3975
  39   2.0000     -10.303448      -280.3711
  40   2.0000     -10.302507      -280.3455
  41   2.0000     -10.298815      -280.2450
  42   2.0000     -10.297097      -280.1983
  43   2.0000     -10.296184      -280.1734
  44   2.0000     -10.292168      -280.0641
  45   2.0000     -10.291318      -280.0410
  46   2.0000     -10.290529      -280.0195
  47   2.0000     -10.290493      -280.0185
  48   2.0000     -10.288268      -279.9580
  49   2.0000     -10.287672      -279.9418
  50   2.0000     -10.287634      -279.9408
  51   2.0000     -10.285311      -279.8775
  52   2.0000     -10.282481      -279.8005
  53   2.0000     -10.281186      -279.7653
  54   2.0000     -10.278240      -279.6851
  55   2.0000     -10.278005      -279.6787
  56   2.0000     -10.277050      -279.6527
  57   2.0000     -10.275440      -279.6089
  58   2.0000     -10.273602      -279.5589
  59   2.0000     -10.272159      -279.5196
  60   2.0000     -10.270139      -279.4647
  61   2.0000     -10.265798      -279.3466
  62   2.0000     -10.265644      -279.3424
  63   2.0000     -10.265105      -279.3277
  64   2.0000     -10.264997      -279.3248
  65   2.0000     -10.264134      -279.3013
  66   2.0000     -10.263448      -279.2826
  67   2.0000     -10.255871      -279.0764
  68   2.0000     -10.248783      -278.8836
  69   2.0000      -8.786029      -239.0800
  70   2.0000      -8.080474      -219.8809
  71   2.0000      -8.068952      -219.5673
  72   2.0000      -8.041185      -218.8118
  73   2.0000      -8.039535      -218.7669
  74   2.0000      -6.622340      -180.2030
  75   2.0000      -6.607927      -179.8108
  76   2.0000      -6.607378      -179.7959
  77   2.0000      -6.050117      -164.6321
  78   2.0000      -6.045697      -164.5118
  79   2.0000      -6.041925      -164.4091
  80   2.0000      -6.038625      -164.3193
  81   2.0000      -6.034400      -164.2044
  82   2.0000      -6.030296      -164.0927
  83   2.0000      -6.010953      -163.5664
  84   2.0000      -6.009352      -163.5228
  85   2.0000      -6.006816      -163.4538
  86   2.0000      -6.005117      -163.4075
  87   2.0000      -6.002164      -163.3272
  88   2.0000      -6.000574      -163.2839
  89   2.0000      -2.738222       -74.5108
  90   2.0000      -2.734289       -74.4038
  91   2.0000      -2.733825       -74.3912
  92   2.0000      -2.722387       -74.0799
  93   2.0000      -2.722372       -74.0795
  94   2.0000      -1.319637       -35.9091
  95   2.0000      -1.138781       -30.9878
  96   2.0000      -1.129396       -30.7324
  97   2.0000      -1.099531       -29.9198
  98   2.0000      -1.076711       -29.2988
  99   2.0000      -1.024163       -27.8689
 100   2.0000      -1.014850       -27.6155
 101   2.0000      -1.007404       -27.4129
 102   2.0000      -0.999078       -27.1863
 103   2.0000      -0.997198       -27.1351
 104   2.0000      -0.989530       -26.9265
 105   2.0000      -0.986503       -26.8441
 106   2.0000      -0.975964       -26.5573
 107   2.0000      -0.972912       -26.4743
 108   2.0000      -0.959541       -26.1104
 109   2.0000      -0.941031       -25.6068
 110   2.0000      -0.922003       -25.0890
 111   2.0000      -0.908478       -24.7209
 112   2.0000      -0.907334       -24.6898
 113   2.0000      -0.902274       -24.5521
 114   2.0000      -0.898283       -24.4435
 115   2.0000      -0.887855       -24.1598
 116   2.0000      -0.884602       -24.0713
 117   2.0000      -0.876528       -23.8515
 118   2.0000      -0.870277       -23.6814
 119   2.0000      -0.863212       -23.4892
 120   2.0000      -0.852925       -23.2093
 121   2.0000      -0.846259       -23.0279
 122   2.0000      -0.839059       -22.8320
 123   2.0000      -0.834149       -22.6983
 124   2.0000      -0.827968       -22.5301
 125   2.0000      -0.826158       -22.4809
 126   2.0000      -0.819668       -22.3043
 127   2.0000      -0.798712       -21.7341
 128   2.0000      -0.797333       -21.6965
 129   2.0000      -0.794823       -21.6282
 130   2.0000      -0.771189       -20.9851
 131   2.0000      -0.768941       -20.9240
 132   2.0000      -0.760055       -20.6822
 133   2.0000      -0.748015       -20.3545
 134   2.0000      -0.744981       -20.2720
 135   2.0000      -0.740758       -20.1570
 136   2.0000      -0.722801       -19.6684
 137   2.0000      -0.717929       -19.5358
 138   2.0000      -0.701195       -19.0805
 139   2.0000      -0.697543       -18.9811
 140   2.0000      -0.690789       -18.7973
 141   2.0000      -0.680997       -18.5309
 142   2.0000      -0.672612       -18.3027
 143   2.0000      -0.669452       -18.2167
 144   2.0000      -0.665490       -18.1089
 145   2.0000      -0.659054       -17.9338
 146   2.0000      -0.654587       -17.8122
 147   2.0000      -0.643162       -17.5013
 148   2.0000      -0.641936       -17.4680
 149   2.0000      -0.641641       -17.4599
 150   2.0000      -0.636818       -17.3287
 151   2.0000      -0.630375       -17.1534
 152   2.0000      -0.627717       -17.0810
 153   2.0000      -0.625888       -17.0313
 154   2.0000      -0.624206       -16.9855
 155   2.0000      -0.619697       -16.8628
 156   2.0000      -0.615521       -16.7492
 157   2.0000      -0.608089       -16.5469
 158   2.0000      -0.599773       -16.3207
 159   2.0000      -0.598787       -16.2938
 160   2.0000      -0.594573       -16.1792
 161   2.0000      -0.592715       -16.1286
 162   2.0000      -0.584388       -15.9020
 163   2.0000      -0.577852       -15.7241
 164   2.0000      -0.576636       -15.6911
 165   2.0000      -0.570815       -15.5327
 166   2.0000      -0.568299       -15.4642
 167   2.0000      -0.556365       -15.1395
 168   2.0000      -0.552396       -15.0315
 169   2.0000      -0.552131       -15.0242
 170   2.0000      -0.548893       -14.9361
 171   2.0000      -0.542103       -14.7514
 172   2.0000      -0.541496       -14.7348
 173   2.0000      -0.535841       -14.5810
 174   2.0000      -0.534845       -14.5539
 175   2.0000      -0.530912       -14.4469
 176   2.0000      -0.528899       -14.3921
 177   2.0000      -0.523265       -14.2388
 178   2.0000      -0.521715       -14.1966
 179   2.0000      -0.520979       -14.1766
 180   2.0000      -0.517752       -14.0888
 181   2.0000      -0.510362       -13.8877
 182   2.0000      -0.507754       -13.8167
 183   2.0000      -0.506515       -13.7830
 184   2.0000      -0.502252       -13.6670
 185   2.0000      -0.500329       -13.6146
 186   2.0000      -0.498555       -13.5664
 187   2.0000      -0.495658       -13.4875
 188   2.0000      -0.492553       -13.4030
 189   2.0000      -0.491779       -13.3820
 190   2.0000      -0.490393       -13.3443
 191   2.0000      -0.489030       -13.3072
 192   2.0000      -0.485855       -13.2208
 193   2.0000      -0.484289       -13.1782
 194   2.0000      -0.477478       -12.9928
 195   2.0000      -0.473794       -12.8926
 196   2.0000      -0.472924       -12.8689
 197   2.0000      -0.467624       -12.7247
 198   2.0000      -0.463786       -12.6203
 199   2.0000      -0.461368       -12.5544
 200   2.0000      -0.458528       -12.4772
 201   2.0000      -0.457945       -12.4613
 202   2.0000      -0.455991       -12.4082
 203   2.0000      -0.452284       -12.3073
 204   2.0000      -0.451284       -12.2801
 205   2.0000      -0.450278       -12.2527
 206   2.0000      -0.447787       -12.1849
 207   2.0000      -0.445035       -12.1100
 208   2.0000      -0.444898       -12.1063
 209   2.0000      -0.440917       -11.9980
 210   2.0000      -0.437619       -11.9082
 211   2.0000      -0.436744       -11.8844
 212   2.0000      -0.433334       -11.7916
 213   2.0000      -0.429581       -11.6895
 214   2.0000      -0.427514       -11.6332
 215   2.0000      -0.423538       -11.5251
 216   2.0000      -0.415790       -11.3142
 217   2.0000      -0.413185       -11.2433
 218   2.0000      -0.410374       -11.1668
 219   2.0000      -0.405314       -11.0292
 220   2.0000      -0.403010       -10.9665
 221   2.0000      -0.397808       -10.8249
 222   2.0000      -0.393989       -10.7210
 223   2.0000      -0.392371       -10.6770
 224   2.0000      -0.387654       -10.5486
 225   2.0000      -0.384883       -10.4732
 226   2.0000      -0.378245       -10.2926
 227   2.0000      -0.376327       -10.2404
 228   2.0000      -0.374947       -10.2028
 229   2.0000      -0.371080       -10.0976
 230   2.0000      -0.368315       -10.0224
 231   2.0000      -0.365860        -9.9556
 232   2.0000      -0.364017        -9.9054
 233   2.0000      -0.357166        -9.7190
 234   2.0000      -0.349063        -9.4985
 235   2.0000      -0.342874        -9.3301
 236   2.0000      -0.334524        -9.1028
 237   2.0000      -0.332622        -9.0511
 238   2.0000      -0.323161        -8.7937
 239   2.0000      -0.320227        -8.7138
 240   2.0000      -0.317342        -8.6353
 241   2.0000      -0.312123        -8.4933
 242   2.0000      -0.304298        -8.2804
 243   2.0000      -0.292264        -7.9529
 244   2.0000      -0.286552        -7.7975
 245   2.0000      -0.278202        -7.5703
 246   2.0000      -0.266711        -7.2576
 247   2.0000      -0.249587        -6.7916
 248   2.0000      -0.210251        -5.7212
 249   0.0000      -0.096990        -2.6392
 250   0.0000      -0.085087        -2.3153
 251   0.0000      -0.077213        -2.1011
 252   0.0000      -0.059291        -1.6134
 253   0.0000      -0.042997        -1.1700

MULLIKEN ATOMIC CHARGES
-----------------------
   0 C :    0.320658
   1 C :   -0.360343
   2 C :   -0.179220
   3 N :    0.148790
   4 C :   -0.194490
   5 N :    0.142838
   6 C :    0.038765
   7 C :    0.011760
   8 C :   -0.064545
   9 C :    0.106521
  10 C :   -0.115481
  11 C :   -0.049575
  12 S :    0.191112
  13 C :   -0.126718
  14 C :    0.039797
  15 Br:    0.040056
  16 C :    0.133371
  17 O :   -0.149903
  18 C :   -0.134576
  19 C :    0.012965
  20 N :    0.006101
  21 C :   -0.109159
  22 S :    0.172784
  23 C :    0.007991
  24 N :    0.277290
  25 O :   -0.243853
  26 O :   -0.261958
  27 C :   -0.007741
  28 C :    0.141697
  29 C :    0.028710
  30 C :    0.046474
  31 C :   -0.084953
  32 N :   -0.096779
  33 C :    0.087605
  34 C :   -0.033739
  35 C :    0.039418
  36 N :   -0.060278
  37 C :   -0.051294
  38 C :    0.044262
  39 C :   -0.002318
  40 C :   -0.018624
  41 C :    0.028401
  42 C :    0.039387
  43 C :   -0.050506
  44 S :    0.040260
  45 C :   -0.034378
  46 C :    0.029893
  47 C :    0.044225
  48 C :   -0.038943
  49 S :    0.038563
  50 C :    0.012654
  51 C :    0.044309
  52 C :   -0.024130
  53 C :    0.058443
  54 C :    0.001437
  55 C :    0.045119
  56 C :   -0.018812
  57 C :    0.067486
  58 C :   -0.033724
  59 C :    0.061260
  60 C :   -0.007520
  61 C :    0.057136
  62 C :   -0.040175
  63 C :    0.016418
  64 C :   -0.027465
  65 H :   -0.006136
  66 H :   -0.005485
  67 H :   -0.005934
  68 H :    0.030581
  69 H :    0.157497
  70 H :    0.014786
  71 H :    0.015947
  72 H :   -0.010354
  73 H :    0.002202
  74 H :   -0.005022
  75 H :    0.004882
  76 H :    0.009389
  77 H :   -0.010698
  78 H :   -0.012251
  79 H :   -0.012723
  80 H :   -0.014529
  81 H :   -0.010578
  82 H :   -0.016520
  83 H :   -0.031383
  84 H :   -0.025988
  85 H :   -0.022225
  86 H :   -0.030669
  87 H :   -0.023603
  88 H :   -0.003344
  89 H :   -0.013006
  90 H :    0.000643
  91 H :    0.021766
Sum of atomic charges:   -0.0000000

LOEWDIN ATOMIC CHARGES
----------------------
   0 C :    0.091184
   1 C :   -0.157319
   2 C :   -0.012144
   3 N :   -0.056243
   4 C :   -0.021832
   5 N :   -0.059546
   6 C :   -0.021511
   7 C :   -0.042111
   8 C :    0.018000
   9 C :   -0.035019
  10 C :   -0.149938
  11 C :   -0.013197
  12 S :    0.443595
  13 C :   -0.269021
  14 C :   -0.074903
  15 Br:    0.147794
  16 C :    0.077380
  17 O :   -0.146904
  18 C :   -0.134553
  19 C :    0.096708
  20 N :    0.060922
  21 C :   -0.109348
  22 S :    0.461185
  23 C :   -0.200123
  24 N :    0.274126
  25 O :   -0.209974
  26 O :   -0.226587
  27 C :    0.009727
  28 C :   -0.071626
  29 C :   -0.000272
  30 C :   -0.017584
  31 C :    0.018817
  32 N :   -0.106153
  33 C :    0.047765
  34 C :   -0.066518
  35 C :    0.035926
  36 N :   -0.091599
  37 C :   -0.075949
  38 C :    0.013843
  39 C :   -0.080510
  40 C :   -0.126313
  41 C :   -0.044607
  42 C :   -0.023610
  43 C :   -0.197773
  44 S :    0.388067
  45 C :   -0.166163
  46 C :   -0.044431
  47 C :   -0.020477
  48 C :   -0.161548
  49 S :    0.386724
  50 C :   -0.027541
  51 C :   -0.070149
  52 C :    0.016048
  53 C :   -0.062304
  54 C :    0.076895
  55 C :   -0.065537
  56 C :    0.054405
  57 C :   -0.052058
  58 C :    0.012464
  59 C :   -0.059184
  60 C :    0.062186
  61 C :   -0.061247
  62 C :    0.016963
  63 C :   -0.018424
  64 C :   -0.054289
  65 H :    0.042630
  66 H :    0.039012
  67 H :    0.024868
  68 H :    0.043535
  69 H :    0.103235
  70 H :    0.046964
  71 H :    0.033149
  72 H :    0.032217
  73 H :    0.023286
  74 H :    0.032028
  75 H :    0.018626
  76 H :    0.034035
  77 H :    0.032452
  78 H :    0.032779
  79 H :    0.032601
  80 H :    0.031891
  81 H :    0.033829
  82 H :    0.035707
  83 H :    0.022941
  84 H :    0.034605
  85 H :    0.025616
  86 H :    0.021828
  87 H :    0.034750
  88 H :    0.013902
  89 H :    0.029777
  90 H :    0.014109
  91 H :    0.025038

  Mayer bond orders larger than 0.100000
B(  0-C ,  1-C ) :   1.6077 B(  0-C ,  6-C ) :   1.0079 B(  0-C , 18-C ) :   1.1125
B(  1-C ,  2-C ) :   1.1585 B(  1-C ,  4-C ) :   1.1401 B(  2-C ,  3-N ) :   2.9098
B(  4-C ,  5-N ) :   2.9591 B(  6-C ,  7-C ) :   1.2888 B(  6-C , 11-C ) :   1.3842
B(  7-C ,  8-C ) :   1.4108 B(  7-C , 16-C ) :   0.9286 B(  8-C ,  9-C ) :   1.2458
B(  8-C , 65-H ) :   1.0201 B(  9-C , 10-C ) :   1.3031 B(  9-C , 14-C ) :   1.1610
B( 10-C , 11-C ) :   1.3225 B( 10-C , 12-S ) :   1.0905 B( 11-C , 66-H ) :   0.9858
B( 12-S , 13-C ) :   1.0848 B( 13-C , 14-C ) :   1.6016 B( 13-C , 15-Br) :   1.0370
B( 14-C , 67-H ) :   0.9986 B( 16-C , 17-O ) :   2.2295 B( 16-C , 18-C ) :   0.9277
B( 18-C , 19-C ) :   1.5685 B( 19-C , 20-N ) :   1.2848 B( 19-C , 68-H ) :   0.9173
B( 20-N , 21-C ) :   1.1159 B( 20-N , 69-H ) :   0.9026 B( 21-C , 22-S ) :   1.1398
B( 21-C , 28-C ) :   1.4247 B( 22-S , 23-C ) :   1.0965 B( 23-C , 24-N ) :   0.9588
B( 23-C , 27-C ) :   1.4865 B( 24-N , 25-O ) :   1.5425 B( 24-N , 26-O ) :   1.5152
B( 25-O , 26-O ) :   0.2625 B( 27-C , 28-C ) :   1.2345 B( 27-C , 70-H ) :   1.0040
B( 28-C , 29-C ) :   1.0467 B( 29-C , 30-C ) :   1.7298 B( 29-C , 71-H ) :   0.9598
B( 30-C , 31-C ) :   1.0356 B( 30-C , 72-H ) :   0.9640 B( 31-C , 32-N ) :   1.5041
B( 31-C , 36-N ) :   1.5483 B( 32-N , 33-C ) :   1.5185 B( 33-C , 34-C ) :   1.3811
B( 33-C , 73-H ) :   0.9749 B( 34-C , 35-C ) :   1.3066 B( 34-C , 74-H ) :   0.9772
B( 35-C , 36-N ) :   1.4987 B( 35-C , 37-C ) :   1.1021 B( 37-C , 38-C ) :   1.6736
B( 37-C , 75-H ) :   0.9531 B( 38-C , 39-C ) :   1.1503 B( 38-C , 76-H ) :   0.9576
B( 39-C , 40-C ) :   1.5891 B( 39-C , 77-H ) :   0.9629 B( 40-C , 41-C ) :   1.1481
B( 40-C , 44-S ) :   1.0518 B( 41-C , 42-C ) :   1.5880 B( 41-C , 78-H ) :   0.9959
B( 42-C , 43-C ) :   1.1961 B( 42-C , 79-H ) :   0.9949 B( 43-C , 44-S ) :   1.0238
B( 43-C , 45-C ) :   1.4995 B( 45-C , 46-C ) :   1.1806 B( 45-C , 49-S ) :   1.0590
B( 46-C , 47-C ) :   1.6020 B( 46-C , 80-H ) :   0.9933 B( 47-C , 48-C ) :   1.1357
B( 47-C , 81-H ) :   0.9962 B( 48-C , 49-S ) :   1.0182 B( 48-C , 50-C ) :   1.6024
B( 50-C , 51-C ) :   1.1093 B( 50-C , 82-H ) :   0.9717 B( 51-C , 52-C ) :   1.4452
B( 51-C , 62-C ) :   1.1344 B( 52-C , 53-C ) :   1.1234 B( 52-C , 83-H ) :   1.0176
B( 53-C , 54-C ) :   1.4128 B( 53-C , 61-C ) :   1.1420 B( 54-C , 55-C ) :   1.1534
B( 54-C , 84-H ) :   1.0035 B( 55-C , 56-C ) :   1.4116 B( 55-C , 59-C ) :   1.1262
B( 56-C , 57-C ) :   1.1540 B( 56-C , 85-H ) :   1.0079 B( 57-C , 58-C ) :   1.4978
B( 57-C , 63-C ) :   1.0831 B( 58-C , 59-C ) :   1.0816 B( 58-C , 86-H ) :   1.0162
B( 59-C , 60-C ) :   1.4619 B( 60-C , 61-C ) :   1.1076 B( 60-C , 87-H ) :   1.0065
B( 61-C , 62-C ) :   1.4529 B( 62-C , 88-H ) :   0.9890 B( 63-C , 64-C ) :   1.9367
B( 63-C , 89-H ) :   0.9569 B( 64-C , 90-H ) :   0.9519 B( 64-C , 91-H ) :   0.9494

-----------------------------------------------------------------------------
         ABSORPTION SPECTRUM VIA TRANSITION ELECTRIC DIPOLE MOMENTS
-----------------------------------------------------------------------------
State   Energy  Wavelength   fosc         T2         TX        TY        TZ
        (cm-1)    (nm)                  (au**2)     (au)      (au)      (au)
-----------------------------------------------------------------------------
   0    7133.3   1401.9   0.009491169   0.43803   0.15117   0.36430   0.53147
   1   14227.1    702.9   0.659180582  15.25332  -0.11183   1.24307   3.70076
   2   14738.5    678.5   0.002336177   0.05218  -0.03324  -0.00100  -0.22600
   3   15251.6    655.7   0.076226474   1.64538   0.06750   0.09129   1.27769
   4   20343.1    491.6   0.012625608   0.20432   0.17821   0.26146   0.32280
   5   21592.3    463.1   0.043084880   0.65690   0.47980   0.64260   0.11733
   6   21985.2    454.9   0.004454715   0.06671   0.03866  -0.20347   0.15431
   7   23437.9    426.7   0.418409014   5.87704  -1.26381  -0.41409  -2.02690
   8   23837.3    419.5   0.100776160   1.39180   0.58735   0.48334  -0.90178
   9   24498.6    408.2   0.684333768   9.19607  -1.67114  -2.51326   0.29476
  10   25241.0    396.2   0.079070837   1.03130   0.49703   0.88088  -0.09118
  11   25402.2    393.7   0.030761071   0.39866  -0.35979  -0.50354  -0.12515
  12   25687.3    389.3   0.286761239   3.67517   1.01650   1.59129  -0.33122
  13   25925.3    385.7   0.033322362   0.42314  -0.07609  -0.36798   0.53099
  14   26154.0    382.4   0.042790651   0.53862  -0.34356  -0.62672   0.16676
  15   26870.1    372.2   0.349732164   4.28491   1.12005   1.61604   0.64716
  16   27379.2    365.2   0.057531696   0.69177  -0.09400  -0.25838  -0.78497
  17   27875.9    358.7   0.064616387   0.76311  -0.42581  -0.75082  -0.13444
  18   28145.3    355.3   0.080189444   0.93797  -0.63864  -0.17925  -0.70567
  19   28508.4    350.8   0.024657998   0.28475   0.34080   0.37535  -0.16647
  20   28754.5    347.8   0.363667873   4.16365  -0.19074  -1.83208   0.87792
  21   29448.7    339.6   0.029365074   0.32828  -0.21282  -0.44931   0.28479
  22   29909.0    334.3   0.099085455   1.09065  -0.15162   0.96294  -0.37471
  23   30140.0    331.8   0.139529637   1.52405   0.83439   0.58350   0.69812
  24   30708.9    325.6   0.029359617   0.31475   0.34817   0.25109   0.36122
  25   30775.1    324.9   0.160775445   1.71987   1.11011   0.68554   0.13251
  26   31083.2    321.7   0.089162669   0.94435   0.69619   0.05688   0.67560
  27   31315.0    319.3   0.081044409   0.85201   0.42995   0.51676   0.63255
  28   31608.1    316.4   0.020402631   0.21250   0.33603  -0.31279  -0.04187
  29   31688.8    315.6   0.030762363   0.31959   0.16233   0.54131  -0.01472
  30   32007.1    312.4   0.030291126   0.31156   0.34796   0.41859  -0.12357
  31   32164.9    310.9   0.015349352   0.15710  -0.07409   0.22290  -0.31926
  32   32308.5    309.5   0.142806088   1.45514  -0.65893   0.84572  -0.55291
  33   32375.6    308.9   0.068873688   0.70034   0.77288   0.15854   0.27903
  34   32678.5    306.0   0.044690307   0.45022   0.42024   0.28432  -0.43907
  35   32831.1    304.6   0.132626143   1.32990  -0.64703  -0.95298   0.05544
  36   33291.6    300.4   0.038921732   0.38489   0.50333   0.36264  -0.00632
  37   33521.9    298.3   0.022134093   0.21737   0.10090   0.13172  -0.43571
  38   33695.8    296.8   0.293263601   2.86522  -0.34108  -1.63742   0.26028
  39   33797.3    295.9   0.008692335   0.08467   0.18964   0.08147  -0.20511
  40   34075.9    293.5   0.049766825   0.48080  -0.27859  -0.56728  -0.28529
  41   34154.8    292.8   0.313065461   3.01758   1.37435   1.01878   0.30136
  42   34373.5    290.9   0.014699338   0.14078   0.19088   0.05956  -0.31749
  43   34622.1    288.8   0.112541143   1.07012   0.79906   0.60317  -0.26040
  44   34966.2    286.0   0.004375576   0.04120  -0.12359  -0.14593   0.06802
  45   35234.5    283.8   0.019562765   0.18278   0.14133   0.19145  -0.35519
  46   35485.0    281.8   0.018991486   0.17619  -0.01335   0.39241  -0.14842
  47   35675.8    280.3   0.013108265   0.12096   0.12034   0.32276  -0.04800
  48   35926.0    278.3   0.012947635   0.11865   0.16904  -0.26499   0.14090
  49   36429.5    274.5   0.383513947   3.46580  -1.09556   1.18249  -0.93128
  50   36663.1    272.8   0.040026418   0.35941  -0.58435   0.06032   0.11962
  51   36734.4    272.2   0.092809323   0.83175  -0.08969  -0.88573   0.19797
  52   36854.5    271.3   0.066284908   0.59211  -0.07380  -0.52231   0.56022
  53   37064.6    269.8   0.002671965   0.02373  -0.05583   0.06411  -0.12847
  54   37267.6    268.3   0.101303678   0.89489   0.49928   0.80219  -0.04579
  55   37524.1    266.5   0.026961172   0.23654  -0.24100  -0.17575  -0.38415
  56   37881.5    264.0   0.031997742   0.27808   0.28230   0.36625  -0.25347
  57   37930.6    263.6   0.024388985   0.21168  -0.01865  -0.36296   0.28212
  58   38314.0    261.0   0.101238990   0.86989   0.49441  -0.32908   0.71914
  59   38412.7    260.3   0.020165371   0.17283  -0.24735   0.01216   0.33391
  60   38566.1    259.3   0.145394362   1.24113   0.59174   0.94278   0.04628
  61   38869.9    257.3   0.070586293   0.59784   0.65165   0.25968   0.32520
  62   38958.2    256.7   0.015750031   0.13309  -0.17539  -0.31844   0.03047
  63   39113.7    255.7   0.083273806   0.70090   0.36597   0.71391  -0.23936
  64   39206.2    255.1   0.086344180   0.72503   0.84838   0.01945  -0.07002
  65   39325.6    254.3   0.067671294   0.56651   0.12473   0.11414   0.73343
  66   39573.8    252.7   0.013390996   0.11140  -0.27794   0.16130  -0.09016
  67   39759.0    251.5   0.040602395   0.33620   0.16948   0.20911   0.51356
  68   39860.0    250.9   0.052024373   0.42968   0.50481   0.41765  -0.02039
  69   40196.9    248.8   0.056391095   0.46184   0.09787  -0.56423   0.36593
  70   40271.2    248.3   0.016513850   0.13500   0.00305   0.36385   0.05100

FINAL SINGLE POINT ENERGY     -6676.634506997004

DIPOLE MOMENT
-------------
                                X             Y             Z
Electronic contribution:     -6.51189      22.51465      -0.92159
Nuclear contribution   :      6.25851     -19.98270      -0.92338
                        -----------------------------------------
Total Dipole Moment    :     -0.25338       2.53195      -1.84497
                        -----------------------------------------
Magnitude (a.u.)       :      3.14307
Magnitude (Debye)      :      7.98905

Rotational constants in cm-1:     0.001281     0.000834     0.000587
Rotational constants in MHz :    38.405678    25.001540    17.586929

                             ****ORCA TERMINATED NORMALLY****
TOTAL RUN TIME: 0 days 0 hours 10 minutes 49 seconds 392 msec
