                         Program Version 4.2.0 -  RELEASE  -
|  1> # ORCA input file
|  2> # SCF done       -192.875452575280          0.000750160120
|  3> ! CAM-B3LYP def2-SVP def2/J RIJCOSX Grid4 TightSCF
|  4> %maxcore 5000
|  5> %tddft
|  6>     Mode sTDDFT
|  7>     Ethresh 5.0
|  8>     maxcore 5000
|  9> end
| 10>
| 11> %pal
| 12>   nprocs 6
| 13>   end
| 14> * xyz 0 1
| 15>    C       -8.15198         5.58454         1.58206
| 16>    C       -7.28498         4.86996         0.79709
| 17>    C       -5.88218         4.99219         0.85691
| 18>    N       -4.73832         5.08540         0.82560
| 19>    C       -7.68170         4.00752        -0.24215
| 20>    N       -7.95627         3.31095        -1.11372
| 21>    C       -7.78085         6.51657         2.64005
| 22>    C       -8.95301         7.13793         3.14570
| 23>    C       -8.91970         8.08412         4.14155
| 24>    C       -7.67167         8.43478         4.66630
| 25>    C       -6.50843         7.80586         4.16039
| 26>    C       -6.54222         6.84795         3.15407
| 27>    S       -5.07487         8.38726         4.94883
| 28>    C       -6.04170         9.45450         5.93201
| 29>    C       -7.37155         9.37941         5.68500
| 30>   Br       -5.20630        10.56531         7.18972
| 31>    C      -10.11697         6.61630         2.42173
| 32>    O      -11.29431         6.91587         2.56807
| 33>    C       -9.59083         5.63665         1.45934
| 34>    C      -10.40420         4.99871         0.56533
| 35>    N      -11.71993         5.26909         0.51105
| 36>    C      -12.59335         4.84569        -0.45074
| 37>    S      -14.24513         4.58772         0.01798
| 38>    C      -14.59749         4.00567        -1.57482
| 39>    N      -15.91637         3.61249        -1.85931
| 40>    O      -16.15189         3.20251        -2.97778
| 41>    O      -16.72235         3.71551        -0.95358
| 42>    C      -13.51101         4.01037        -2.40478
| 43>    C      -12.34771         4.51941        -1.78946
| 44>    C      -11.12965         4.70790        -2.54400
| 45>    C      -10.17683         5.62489        -2.28924
| 46>    C       -8.93492         5.69592        -2.98069
| 47>    O       -8.70166         5.01736        -4.13113
| 48>    C       -7.76142         6.30554        -2.58504
| 49>    C       -7.13824         7.09344        -1.52042
| 50>    O       -7.60732         7.57590        -0.51644
| 51>    N       -5.80583         7.16516        -1.90089
| 52>    C       -5.49263         6.50035        -3.08840
| 53>    O       -4.38813         6.43469        -3.57068
| 54>    C       -6.76928         5.94972        -3.52964
| 55>    C       -7.39291         5.15406        -4.48442
| 56>    C       -6.90989         4.54883        -5.66230
| 57>    C       -5.57892         4.59530        -5.97415
| 58>    C       -4.94051         4.03565        -7.08682
| 59>    C       -5.44283         3.61760        -8.33109
| 60>    C       -6.72572         3.71200        -8.90473
| 61>    C       -6.93316         3.21190       -10.15954
| 62>    C       -5.88730         2.61395       -10.89632
| 63>    C       -4.62129         2.53212       -10.38825
| 64>    C       -4.36965         3.04614        -9.10452
| 65>    C       -3.18585         3.05699        -8.34474
| 66>    C       -3.48631         3.79298        -7.11375
| 67>    C       -2.58952         4.33720        -6.28180
| 68>    C       -1.96425         2.49124        -8.72892
| 69>    C       -0.92678         2.05398        -7.94195
| 70>    C       -0.86448         1.68423        -6.54899
| 71>    C       -1.90965         1.24095        -5.77547
| 72>    C       -1.76715         0.79469        -4.44774
| 73>    N       -1.69969         0.43587        -3.35899
| 74>    C       -3.22332         1.07514        -6.25546
| 75>    N       -4.29534         0.86183        -6.60778
| 76>    C        0.54704         1.59677        -6.18427
| 77>    C        1.32602         1.69239        -7.36517
| 78>    C        0.42842         1.90578        -8.52081
| 79>    O        0.73307         1.98779        -9.69117
| 80>    C        2.69585         1.59964        -7.35235
| 81>    C        3.32626         1.41586        -6.11632
| 82>    C        2.53984         1.33922        -4.94257
| 83>    C        1.15254         1.42455        -4.95532
| 84>    S        3.52286         1.12263        -3.52665
| 85>    C        4.95752         1.13105        -4.51760
| 86>    C        4.71550         1.29091        -5.84019
| 87>   Br        6.63918         0.92958        -3.71191
| 88>    H       -9.82677         8.54353         4.50197
| 89>    H       -5.62885         6.39718         2.80357
| 90>    H       -8.11091         9.96634         6.19864
| 91>    H      -10.02589         4.26523        -0.13159
| 92>    H      -12.05587         5.87853         1.27319
| 93>    H      -13.56158         3.68864        -3.42951
| 94>    H      -11.01074         4.06016        -3.40138
| 95>    H      -10.26058         6.33019        -1.47544
| 96>    H       -5.10119         7.62387        -1.34059
| 97>    H       -7.62447         4.00325        -6.25688
| 98>    H       -4.93361         5.06327        -5.24317
| 99>    H       -7.52929         4.19090        -8.36926
|100>    H       -7.91220         3.27609       -10.61062
|101>    H       -6.10055         2.23220       -11.88359
|102>    H       -3.82023         2.09215       -10.96203
|103>    H       -1.53096         4.20904        -6.43830
|104>    H       -2.87647         4.94624        -5.44074
|105>    H       -1.77835         2.41096        -9.79621
|106>    H        3.26548         1.66451        -8.26603
|107>    H        0.59294         1.36552        -4.03650
|108>    H        5.48318         1.31947        -6.59168
|109> *
|110>
|111>                          ****END OF INPUT****

CARTESIAN COORDINATES (ANGSTROEM)
---------------------------------
  C     -8.151980    5.584540    1.582060
  C     -7.284980    4.869960    0.797090
  C     -5.882180    4.992190    0.856910
  N     -4.738320    5.085400    0.825600
  C     -7.681700    4.007520   -0.242150
  N     -7.956270    3.310950   -1.113720
  C     -7.780850    6.516570    2.640050
  C     -8.953010    7.137930    3.145700
  C     -8.919700    8.084120    4.141550
  C     -7.671670    8.434780    4.666300
  C     -6.508430    7.805860    4.160390
  C     -6.542220    6.847950    3.154070
  S     -5.074870    8.387260    4.948830
  C     -6.041700    9.454500    5.932010
  C     -7.371550    9.379410    5.685000
  Br    -5.206300   10.565310    7.189720
  C    -10.116970    6.616300    2.421730
  O    -11.294310    6.915870    2.568070
  C     -9.590830    5.636650    1.459340
  C    -10.404200    4.998710    0.565330
  N    -11.719930    5.269090    0.511050
  C    -12.593350    4.845690   -0.450740
  S    -14.245130    4.587720    0.017980
  C    -14.597490    4.005670   -1.574820
  N    -15.916370    3.612490   -1.859310
  O    -16.151890    3.202510   -2.977780
  O    -16.722350    3.715510   -0.953580
  C    -13.511010    4.010370   -2.404780
  C    -12.347710    4.519410   -1.789460
  C    -11.129650    4.707900   -2.544000
  C    -10.176830    5.624890   -2.289240
  C     -8.934920    5.695920   -2.980690
  O     -8.701660    5.017360   -4.131130
  C     -7.761420    6.305540   -2.585040
  C     -7.138240    7.093440   -1.520420
  O     -7.607320    7.575900   -0.516440
  N     -5.805830    7.165160   -1.900890
  C     -5.492630    6.500350   -3.088400
  O     -4.388130    6.434690   -3.570680
  C     -6.769280    5.949720   -3.529640
  C     -7.392910    5.154060   -4.484420
  C     -6.909890    4.548830   -5.662300
  C     -5.578920    4.595300   -5.974150
  C     -4.940510    4.035650   -7.086820
  C     -5.442830    3.617600   -8.331090
  C     -6.725720    3.712000   -8.904730
  C     -6.933160    3.211900  -10.159540
  C     -5.887300    2.613950  -10.896320
  C     -4.621290    2.532120  -10.388250
  C     -4.369650    3.046140   -9.104520
  C     -3.185850    3.056990   -8.344740
  C     -3.486310    3.792980   -7.113750
  C     -2.589520    4.337200   -6.281800
  C     -1.964250    2.491240   -8.728920
  C     -0.926780    2.053980   -7.941950
  C     -0.864480    1.684230   -6.548990
  C     -1.909650    1.240950   -5.775470
  C     -1.767150    0.794690   -4.447740
  N     -1.699690    0.435870   -3.358990
  C     -3.223320    1.075140   -6.255460
  N     -4.295340    0.861830   -6.607780
  C      0.547040    1.596770   -6.184270
  C      1.326020    1.692390   -7.365170
  C      0.428420    1.905780   -8.520810
  O      0.733070    1.987790   -9.691170
  C      2.695850    1.599640   -7.352350
  C      3.326260    1.415860   -6.116320
  C      2.539840    1.339220   -4.942570
  C      1.152540    1.424550   -4.955320
  S      3.522860    1.122630   -3.526650
  C      4.957520    1.131050   -4.517600
  C      4.715500    1.290910   -5.840190
  Br     6.639180    0.929580   -3.711910
  H     -9.826770    8.543530    4.501970
  H     -5.628850    6.397180    2.803570
  H     -8.110910    9.966340    6.198640
  H    -10.025890    4.265230   -0.131590
  H    -12.055870    5.878530    1.273190
  H    -13.561580    3.688640   -3.429510
  H    -11.010740    4.060160   -3.401380
  H    -10.260580    6.330190   -1.475440
  H     -5.101190    7.623870   -1.340590
  H     -7.624470    4.003250   -6.256880
  H     -4.933610    5.063270   -5.243170
  H     -7.529290    4.190900   -8.369260
  H     -7.912200    3.276090  -10.610620
  H     -6.100550    2.232200  -11.883590
  H     -3.820230    2.092150  -10.962030
  H     -1.530960    4.209040   -6.438300
  H     -2.876470    4.946240   -5.440740
  H     -1.778350    2.410960   -9.796210
  H      3.265480    1.664510   -8.266030
  H      0.592940    1.365520   -4.036500
  H      5.483180    1.319470   -6.591680

 Total Charge           Charge          ....    0
 Multiplicity           Mult            ....    1
 Number of Electrons    NEL             ....  568
 Basis Dimension        Dim             .... 1175

ORBITAL ENERGIES
----------------

  NO   OCC          E(Eh)            E(eV)
   0   2.0000    -482.889750    -13140.0981
   1   2.0000    -482.879450    -13139.8179
   2   2.0000     -88.997297     -2421.7396
   3   2.0000     -88.980934     -2421.2943
   4   2.0000     -88.968083     -2420.9446
   5   2.0000     -62.567460     -1702.5471
   6   2.0000     -62.557186     -1702.2676
   7   2.0000     -56.401418     -1534.7606
   8   2.0000     -56.398693     -1534.6865
   9   2.0000     -56.398656     -1534.6855
  10   2.0000     -56.391128     -1534.4806
  11   2.0000     -56.388428     -1534.4071
  12   2.0000     -56.388389     -1534.4061
  13   2.0000     -19.317716      -525.6618
  14   2.0000     -19.247481      -523.7506
  15   2.0000     -19.247000      -523.7375
  16   2.0000     -19.235406      -523.4220
  17   2.0000     -19.221433      -523.0418
  18   2.0000     -19.219909      -523.0003
  19   2.0000     -19.200994      -522.4856
  20   2.0000     -14.659113      -398.8947
  21   2.0000     -14.496459      -394.4687
  22   2.0000     -14.462315      -393.5396
  23   2.0000     -14.425088      -392.5266
  24   2.0000     -14.419721      -392.3805
  25   2.0000     -14.401765      -391.8919
  26   2.0000     -14.401070      -391.8731
  27   2.0000     -10.408445      -283.2282
  28   2.0000     -10.408331      -283.2251
  29   2.0000     -10.382015      -282.5090
  30   2.0000     -10.381366      -282.4913
  31   2.0000     -10.369816      -282.1771
  32   2.0000     -10.368859      -282.1510
  33   2.0000     -10.368472      -282.1405
  34   2.0000     -10.363651      -282.0093
  35   2.0000     -10.355479      -281.7869
  36   2.0000     -10.352316      -281.7008
  37   2.0000     -10.351324      -281.6738
  38   2.0000     -10.349160      -281.6149
  39   2.0000     -10.343090      -281.4498
  40   2.0000     -10.330911      -281.1184
  41   2.0000     -10.328828      -281.0617
  42   2.0000     -10.327977      -281.0385
  43   2.0000     -10.325979      -280.9842
  44   2.0000     -10.323336      -280.9122
  45   2.0000     -10.319924      -280.8194
  46   2.0000     -10.317955      -280.7658
  47   2.0000     -10.317173      -280.7446
  48   2.0000     -10.313395      -280.6417
  49   2.0000     -10.312790      -280.6253
  50   2.0000     -10.311172      -280.5813
  51   2.0000     -10.310893      -280.5737
  52   2.0000     -10.308347      -280.5044
  53   2.0000     -10.307371      -280.4778
  54   2.0000     -10.306234      -280.4469
  55   2.0000     -10.305411      -280.4245
  56   2.0000     -10.304623      -280.4031
  57   2.0000     -10.304421      -280.3976
  58   2.0000     -10.303593      -280.3750
  59   2.0000     -10.301628      -280.3215
  60   2.0000     -10.301547      -280.3194
  61   2.0000     -10.301367      -280.3144
  62   2.0000     -10.299989      -280.2769
  63   2.0000     -10.298853      -280.2460
  64   2.0000     -10.298770      -280.2438
  65   2.0000     -10.298566      -280.2382
  66   2.0000     -10.296868      -280.1920
  67   2.0000     -10.296290      -280.1763
  68   2.0000     -10.295729      -280.1610
  69   2.0000     -10.295276      -280.1487
  70   2.0000     -10.294449      -280.1262
  71   2.0000     -10.292075      -280.0616
  72   2.0000     -10.290592      -280.0213
  73   2.0000     -10.290255      -280.0121
  74   2.0000     -10.289616      -279.9947
  75   2.0000     -10.288402      -279.9617
  76   2.0000     -10.285310      -279.8775
  77   2.0000     -10.284213      -279.8477
  78   2.0000     -10.283996      -279.8418
  79   2.0000     -10.282757      -279.8080
  80   2.0000     -10.280117      -279.7362
  81   2.0000      -8.796886      -239.3754
  82   2.0000      -8.786620      -239.0961
  83   2.0000      -8.093049      -220.2231
  84   2.0000      -8.076845      -219.7821
  85   2.0000      -8.064064      -219.4343
  86   2.0000      -6.633207      -180.4987
  87   2.0000      -6.622896      -180.2182
  88   2.0000      -6.618617      -180.1017
  89   2.0000      -6.618402      -180.0959
  90   2.0000      -6.608356      -179.8225
  91   2.0000      -6.608189      -179.8180
  92   2.0000      -6.062616      -164.9722
  93   2.0000      -6.058137      -164.8503
  94   2.0000      -6.054703      -164.7569
  95   2.0000      -6.046487      -164.5333
  96   2.0000      -6.042258      -164.4182
  97   2.0000      -6.038148      -164.3064
  98   2.0000      -6.033746      -164.1866
  99   2.0000      -6.029488      -164.0707
 100   2.0000      -6.025295      -163.9566
 101   2.0000      -2.749083       -74.8064
 102   2.0000      -2.744975       -74.6946
 103   2.0000      -2.744825       -74.6905
 104   2.0000      -2.738757       -74.5254
 105   2.0000      -2.734685       -74.4146
 106   2.0000      -2.734570       -74.4114
 107   2.0000      -2.733222       -74.3748
 108   2.0000      -2.733208       -74.3744
 109   2.0000      -2.723017       -74.0971
 110   2.0000      -2.722999       -74.0966
 111   2.0000      -1.329648       -36.1816
 112   2.0000      -1.233268       -33.5589
 113   2.0000      -1.163436       -31.6587
 114   2.0000      -1.150347       -31.3025
 115   2.0000      -1.149085       -31.2682
 116   2.0000      -1.142892       -31.0997
 117   2.0000      -1.115497       -30.3542
 118   2.0000      -1.103631       -30.0313
 119   2.0000      -1.050789       -28.5934
 120   2.0000      -1.029102       -28.0033
 121   2.0000      -1.020405       -27.7666
 122   2.0000      -1.017831       -27.6966
 123   2.0000      -1.013577       -27.5808
 124   2.0000      -1.004603       -27.3366
 125   2.0000      -1.001907       -27.2633
 126   2.0000      -0.996625       -27.1195
 127   2.0000      -0.995396       -27.0861
 128   2.0000      -0.980264       -26.6744
 129   2.0000      -0.978220       -26.6187
 130   2.0000      -0.947500       -25.7828
 131   2.0000      -0.945806       -25.7367
 132   2.0000      -0.938675       -25.5426
 133   2.0000      -0.934278       -25.4230
 134   2.0000      -0.929357       -25.2891
 135   2.0000      -0.920337       -25.0436
 136   2.0000      -0.914721       -24.8908
 137   2.0000      -0.911017       -24.7900
 138   2.0000      -0.898918       -24.4608
 139   2.0000      -0.896223       -24.3875
 140   2.0000      -0.891606       -24.2618
 141   2.0000      -0.886230       -24.1156
 142   2.0000      -0.877728       -23.8842
 143   2.0000      -0.876443       -23.8492
 144   2.0000      -0.865091       -23.5403
 145   2.0000      -0.859781       -23.3958
 146   2.0000      -0.849986       -23.1293
 147   2.0000      -0.842466       -22.9247
 148   2.0000      -0.835288       -22.7293
 149   2.0000      -0.833432       -22.6788
 150   2.0000      -0.820340       -22.3226
 151   2.0000      -0.800484       -21.7823
 152   2.0000      -0.790395       -21.5077
 153   2.0000      -0.780190       -21.2301
 154   2.0000      -0.777687       -21.1619
 155   2.0000      -0.769959       -20.9517
 156   2.0000      -0.767298       -20.8792
 157   2.0000      -0.765801       -20.8385
 158   2.0000      -0.755359       -20.5544
 159   2.0000      -0.747440       -20.3389
 160   2.0000      -0.737385       -20.0653
 161   2.0000      -0.724550       -19.7160
 162   2.0000      -0.716401       -19.4943
 163   2.0000      -0.707721       -19.2581
 164   2.0000      -0.702175       -19.1071
 165   2.0000      -0.696209       -18.9448
 166   2.0000      -0.695536       -18.9265
 167   2.0000      -0.684801       -18.6344
 168   2.0000      -0.678425       -18.4609
 169   2.0000      -0.675147       -18.3717
 170   2.0000      -0.669478       -18.2174
 171   2.0000      -0.666154       -18.1270
 172   2.0000      -0.656725       -17.8704
 173   2.0000      -0.650959       -17.7135
 174   2.0000      -0.642801       -17.4915
 175   2.0000      -0.640427       -17.4269
 176   2.0000      -0.640094       -17.4178
 177   2.0000      -0.639559       -17.4033
 178   2.0000      -0.632807       -17.2195
 179   2.0000      -0.628019       -17.0893
 180   2.0000      -0.618585       -16.8326
 181   2.0000      -0.613298       -16.6887
 182   2.0000      -0.606875       -16.5139
 183   2.0000      -0.605510       -16.4768
 184   2.0000      -0.602138       -16.3850
 185   2.0000      -0.600366       -16.3368
 186   2.0000      -0.594727       -16.1833
 187   2.0000      -0.594546       -16.1784
 188   2.0000      -0.590337       -16.0639
 189   2.0000      -0.588992       -16.0273
 190   2.0000      -0.586965       -15.9721
 191   2.0000      -0.583192       -15.8695
 192   2.0000      -0.571757       -15.5583
 193   2.0000      -0.569024       -15.4839
 194   2.0000      -0.564924       -15.3724
 195   2.0000      -0.562765       -15.3136
 196   2.0000      -0.562205       -15.2984
 197   2.0000      -0.557614       -15.1734
 198   2.0000      -0.551950       -15.0193
 199   2.0000      -0.551010       -14.9938
 200   2.0000      -0.547838       -14.9074
 201   2.0000      -0.542680       -14.7671
 202   2.0000      -0.539301       -14.6751
 203   2.0000      -0.536716       -14.6048
 204   2.0000      -0.532210       -14.4822
 205   2.0000      -0.530837       -14.4448
 206   2.0000      -0.528588       -14.3836
 207   2.0000      -0.526814       -14.3353
 208   2.0000      -0.524731       -14.2786
 209   2.0000      -0.524477       -14.2717
 210   2.0000      -0.521121       -14.1804
 211   2.0000      -0.520437       -14.1618
 212   2.0000      -0.517488       -14.0816
 213   2.0000      -0.516181       -14.0460
 214   2.0000      -0.514286       -13.9944
 215   2.0000      -0.510059       -13.8794
 216   2.0000      -0.508231       -13.8297
 217   2.0000      -0.506448       -13.7811
 218   2.0000      -0.504062       -13.7162
 219   2.0000      -0.502310       -13.6685
 220   2.0000      -0.498265       -13.5585
 221   2.0000      -0.496354       -13.5065
 222   2.0000      -0.493063       -13.4169
 223   2.0000      -0.489145       -13.3103
 224   2.0000      -0.485359       -13.2073
 225   2.0000      -0.483760       -13.1638
 226   2.0000      -0.482225       -13.1220
 227   2.0000      -0.479177       -13.0391
 228   2.0000      -0.475354       -12.9350
 229   2.0000      -0.472096       -12.8464
 230   2.0000      -0.469770       -12.7831
 231   2.0000      -0.465996       -12.6804
 232   2.0000      -0.464786       -12.6475
 233   2.0000      -0.458576       -12.4785
 234   2.0000      -0.455875       -12.4050
 235   2.0000      -0.455292       -12.3891
 236   2.0000      -0.451325       -12.2812
 237   2.0000      -0.449885       -12.2420
 238   2.0000      -0.449340       -12.2272
 239   2.0000      -0.445062       -12.1108
 240   2.0000      -0.440317       -11.9816
 241   2.0000      -0.439055       -11.9473
 242   2.0000      -0.437546       -11.9062
 243   2.0000      -0.435234       -11.8433
 244   2.0000      -0.433801       -11.8043
 245   2.0000      -0.432287       -11.7631
 246   2.0000      -0.430962       -11.7271
 247   2.0000      -0.427406       -11.6303
 248   2.0000      -0.425567       -11.5803
 249   2.0000      -0.421920       -11.4810
 250   2.0000      -0.417395       -11.3579
 251   2.0000      -0.416994       -11.3470
 252   2.0000      -0.416016       -11.3204
 253   2.0000      -0.410882       -11.1807
 254   2.0000      -0.407375       -11.0852
 255   2.0000      -0.398272       -10.8375
 256   2.0000      -0.394192       -10.7265
 257   2.0000      -0.393515       -10.7081
 258   2.0000      -0.391527       -10.6540
 259   2.0000      -0.387112       -10.5338
 260   2.0000      -0.382756       -10.4153
 261   2.0000      -0.379992       -10.3401
 262   2.0000      -0.379134       -10.3168
 263   2.0000      -0.378446       -10.2980
 264   2.0000      -0.375922       -10.2294
 265   2.0000      -0.374378       -10.1873
 266   2.0000      -0.371751       -10.1158
 267   2.0000      -0.369065       -10.0428
 268   2.0000      -0.368535       -10.0283
 269   2.0000      -0.359062        -9.7706
 270   2.0000      -0.357542        -9.7292
 271   2.0000      -0.355327        -9.6689
 272   2.0000      -0.349354        -9.5064
 273   2.0000      -0.335611        -9.1324
 274   2.0000      -0.332107        -9.0371
 275   2.0000      -0.329998        -8.9797
 276   2.0000      -0.322440        -8.7740
 277   2.0000      -0.317115        -8.6291
 278   2.0000      -0.306573        -8.3423
 279   2.0000      -0.302816        -8.2400
 280   2.0000      -0.297590        -8.0978
 281   2.0000      -0.285453        -7.7676
 282   2.0000      -0.279001        -7.5920
 283   2.0000      -0.233671        -6.3585
 284   0.0000      -0.116875        -3.1803
 285   0.0000      -0.091500        -2.4898
 286   0.0000      -0.075359        -2.0506
 287   0.0000      -0.061933        -1.6853
 288   0.0000      -0.057095        -1.5536

MULLIKEN ATOMIC CHARGES
-----------------------
   0 C :    0.367696
   1 C :   -0.357782
   2 C :   -0.198537
   3 N :    0.151419
   4 C :   -0.208081
   5 N :    0.145304
   6 C :    0.022294
   7 C :   -0.015314
   8 C :   -0.062011
   9 C :    0.115095
  10 C :   -0.092571
  11 C :   -0.016866
  12 S :    0.188978
  13 C :   -0.123801
  14 C :    0.039059
  15 Br:    0.027375
  16 C :    0.175311
  17 O :   -0.207128
  18 C :   -0.120967
  19 C :   -0.006001
  20 N :   -0.015467
  21 C :   -0.115304
  22 S :    0.208199
  23 C :   -0.003954
  24 N :    0.275360
  25 O :   -0.241366
  26 O :   -0.255233
  27 C :    0.003447
  28 C :    0.113535
  29 C :   -0.016273
  30 C :   -0.045452
  31 C :    0.094401
  32 O :   -0.201751
  33 C :   -0.030897
  34 C :    0.180784
  35 O :   -0.169615
  36 N :   -0.153790
  37 C :    0.202667
  38 O :   -0.162293
  39 C :   -0.083820
  40 C :    0.144347
  41 C :   -0.005137
  42 C :   -0.034479
  43 C :    0.136370
  44 C :    0.042091
  45 C :   -0.012181
  46 C :    0.028997
  47 C :    0.047502
  48 C :   -0.019602
  49 C :    0.084058
  50 C :    0.056023
  51 C :   -0.046036
  52 C :    0.022139
  53 C :   -0.017054
  54 C :   -0.147033
  55 C :    0.236322
  56 C :   -0.347671
  57 C :   -0.187068
  58 N :    0.148999
  59 C :   -0.187227
  60 N :    0.159804
  61 C :    0.002507
  62 C :    0.006311
  63 C :    0.132595
  64 O :   -0.155917
  65 C :   -0.078128
  66 C :    0.114258
  67 C :   -0.090685
  68 C :   -0.023545
  69 S :    0.181622
  70 C :   -0.125618
  71 C :    0.038550
  72 Br:    0.017309
  73 H :   -0.009760
  74 H :   -0.007327
  75 H :   -0.002374
  76 H :    0.063974
  77 H :    0.169983
  78 H :    0.015524
  79 H :    0.018667
  80 H :    0.035967
  81 H :    0.143846
  82 H :   -0.005963
  83 H :   -0.000769
  84 H :   -0.027916
  85 H :   -0.007045
  86 H :   -0.002612
  87 H :   -0.016617
  88 H :    0.051626
  89 H :    0.058391
  90 H :    0.014663
  91 H :   -0.012647
  92 H :   -0.004319
  93 H :   -0.004364
Sum of atomic charges:   -0.0000000

LOEWDIN ATOMIC CHARGES
----------------------
   0 C :    0.092982
   1 C :   -0.155600
   2 C :   -0.021089
   3 N :   -0.060769
   4 C :   -0.018724
   5 N :   -0.061463
   6 C :   -0.011190
   7 C :   -0.048756
   8 C :    0.025993
   9 C :   -0.032852
  10 C :   -0.142822
  11 C :   -0.004344
  12 S :    0.435877
  13 C :   -0.271491
  14 C :   -0.069322
  15 Br:    0.139681
  16 C :    0.098488
  17 O :   -0.169393
  18 C :   -0.137386
  19 C :    0.119301
  20 N :    0.056212
  21 C :   -0.111156
  22 S :    0.481164
  23 C :   -0.203153
  24 N :    0.272918
  25 O :   -0.206965
  26 O :   -0.221431
  27 C :    0.003853
  28 C :   -0.090620
  29 C :    0.000490
  30 C :   -0.041666
  31 C :    0.071936
  32 O :    0.021895
  33 C :   -0.096503
  34 C :    0.086028
  35 O :   -0.175685
  36 N :    0.006497
  37 C :    0.095403
  38 O :   -0.164482
  39 C :   -0.101083
  40 C :    0.077886
  41 C :   -0.027878
  42 C :    0.013382
  43 C :    0.025526
  44 C :   -0.009222
  45 C :   -0.004596
  46 C :   -0.017942
  47 C :    0.006425
  48 C :   -0.014777
  49 C :    0.033914
  50 C :   -0.054015
  51 C :   -0.014014
  52 C :    0.075482
  53 C :    0.063945
  54 C :   -0.115899
  55 C :    0.062221
  56 C :   -0.152452
  57 C :   -0.022207
  58 N :   -0.062445
  59 C :   -0.013405
  60 N :   -0.059987
  61 C :   -0.018479
  62 C :   -0.051238
  63 C :    0.078162
  64 O :   -0.156460
  65 C :    0.018741
  66 C :   -0.035763
  67 C :   -0.145140
  68 C :   -0.014746
  69 S :    0.429376
  70 C :   -0.274498
  71 C :   -0.070616
  72 Br:    0.131849
  73 H :    0.041637
  74 H :    0.041156
  75 H :    0.039260
  76 H :    0.045337
  77 H :    0.085511
  78 H :    0.048457
  79 H :    0.040790
  80 H :    0.043651
  81 H :    0.097636
  82 H :    0.038014
  83 H :    0.036957
  84 H :    0.028691
  85 H :    0.031990
  86 H :    0.034205
  87 H :    0.033224
  88 H :    0.038748
  89 H :    0.041080
  90 H :    0.043164
  91 H :    0.039947
  92 H :    0.040577
  93 H :    0.038066

  Mayer bond orders larger than 0.100000
B(  0-C ,  1-C ) :   1.6256 B(  0-C ,  6-C ) :   1.0105 B(  0-C , 18-C ) :   1.1012
B(  1-C ,  2-C ) :   1.1402 B(  1-C ,  4-C ) :   1.1618 B(  2-C ,  3-N ) :   2.9641
B(  4-C ,  5-N ) :   2.9282 B(  6-C ,  7-C ) :   1.2731 B(  6-C , 11-C ) :   1.4187
B(  7-C ,  8-C ) :   1.4214 B(  7-C , 16-C ) :   0.9797 B(  8-C ,  9-C ) :   1.2462
B(  8-C , 73-H ) :   1.0170 B(  9-C , 10-C ) :   1.3065 B(  9-C , 14-C ) :   1.1643
B( 10-C , 11-C ) :   1.3251 B( 10-C , 12-S ) :   1.0888 B( 11-C , 74-H ) :   0.9804
B( 12-S , 13-C ) :   1.0870 B( 13-C , 14-C ) :   1.6175 B( 13-C , 15-Br) :   1.0202
B( 14-C , 75-H ) :   1.0001 B( 16-C , 17-O ) :   2.0725 B( 16-C , 18-C ) :   0.9811
B( 17-O , 77-H ) :   0.1355 B( 18-C , 19-C ) :   1.4944 B( 19-C , 20-N ) :   1.3228
B( 19-C , 76-H ) :   0.9239 B( 20-N , 21-C ) :   1.1324 B( 20-N , 77-H ) :   0.8345
B( 21-C , 22-S ) :   1.1574 B( 21-C , 28-C ) :   1.4073 B( 22-S , 23-C ) :   1.0991
B( 23-C , 24-N ) :   0.9557 B( 23-C , 27-C ) :   1.4930 B( 24-N , 25-O ) :   1.5453
B( 24-N , 26-O ) :   1.5194 B( 25-O , 26-O ) :   0.2653 B( 27-C , 28-C ) :   1.2159
B( 27-C , 78-H ) :   1.0075 B( 28-C , 29-C ) :   1.0475 B( 29-C , 30-C ) :   1.6932
B( 29-C , 79-H ) :   0.9753 B( 30-C , 31-C ) :   1.1877 B( 30-C , 80-H ) :   0.9348
B( 31-C , 32-O ) :   1.1560 B( 31-C , 33-C ) :   1.4126 B( 32-O , 40-C ) :   1.1326
B( 33-C , 34-C ) :   0.8888 B( 33-C , 39-C ) :   1.2780 B( 34-C , 35-O ) :   2.1933
B( 34-C , 36-N ) :   1.1038 B( 36-N , 37-C ) :   1.0904 B( 36-N , 81-H ) :   0.9127
B( 37-C , 38-O ) :   2.1468 B( 37-C , 39-C ) :   0.9055 B( 39-C , 40-C ) :   1.3914
B( 40-C , 41-C ) :   1.1859 B( 41-C , 42-C ) :   1.5382 B( 41-C , 82-H ) :   0.9718
B( 42-C , 43-C ) :   1.2222 B( 42-C , 83-H ) :   0.9410 B( 43-C , 44-C ) :   1.3362
B( 43-C , 51-C ) :   1.0239 B( 44-C , 45-C ) :   1.1908 B( 44-C , 49-C ) :   1.1697
B( 45-C , 46-C ) :   1.5542 B( 45-C , 84-H ) :   0.9917 B( 46-C , 47-C ) :   1.1990
B( 46-C , 85-H ) :   0.9835 B( 47-C , 48-C ) :   1.5432 B( 47-C , 86-H ) :   0.9831
B( 48-C , 49-C ) :   1.2154 B( 48-C , 87-H ) :   0.9909 B( 49-C , 50-C ) :   1.3154
B( 50-C , 51-C ) :   1.0205 B( 50-C , 53-C ) :   1.1981 B( 51-C , 52-C ) :   1.8786
B( 52-C , 88-H ) :   0.9250 B( 52-C , 89-H ) :   0.9262 B( 53-C , 54-C ) :   1.5385
B( 53-C , 90-H ) :   0.9422 B( 54-C , 55-C ) :   1.0698 B( 54-C , 63-C ) :   0.9593
B( 55-C , 56-C ) :   1.6225 B( 55-C , 61-C ) :   1.0048 B( 56-C , 57-C ) :   1.1346
B( 56-C , 59-C ) :   1.1770 B( 57-C , 58-N ) :   2.9849 B( 59-C , 60-N ) :   2.9917
B( 61-C , 62-C ) :   1.2753 B( 61-C , 68-C ) :   1.4197 B( 62-C , 63-C ) :   0.9168
B( 62-C , 65-C ) :   1.4288 B( 63-C , 64-O ) :   2.2524 B( 65-C , 66-C ) :   1.2452
B( 65-C , 91-H ) :   1.0176 B( 66-C , 67-C ) :   1.3119 B( 66-C , 71-C ) :   1.1626
B( 67-C , 68-C ) :   1.3201 B( 67-C , 69-S ) :   1.0824 B( 68-C , 92-H ) :   0.9845
B( 69-S , 70-C ) :   1.0861 B( 70-C , 71-C ) :   1.6196 B( 70-C , 72-Br) :   1.0147
B( 71-C , 93-H ) :   1.0004

-----------------------------------------------------------------------------
         ABSORPTION SPECTRUM VIA TRANSITION ELECTRIC DIPOLE MOMENTS
-----------------------------------------------------------------------------
State   Energy  Wavelength   fosc         T2         TX        TY        TZ
        (cm-1)    (nm)                  (au**2)     (au)      (au)      (au)
-----------------------------------------------------------------------------
   0    8559.7   1168.3   0.312770241  12.02936  -2.82832   1.55649   1.26780
   1   18269.1    547.4   0.093698941   1.68847   0.04241  -0.14918  -1.29012
   2   19367.6    516.3   0.170521045   2.89854  -1.49292   0.63015   0.52213
   3   20178.3    495.6   0.216353236   3.52983   0.00280   0.37793  -1.84038
   4   21827.2    458.1   0.135560038   2.04461  -1.11247   0.05325  -0.89677
   5   22106.2    452.4   0.076742077   1.14287   0.69362   0.00672  -0.81345
   6   24263.5    412.1   0.451506551   6.12614   1.67509  -0.95603  -1.55120
   7   24540.6    407.5   0.294240486   3.94723   1.90947   0.20389   0.50948
   8   25326.9    394.8   0.010219713   0.13284  -0.34671  -0.01515   0.11136
   9   25814.5    387.4   0.221481466   2.82455   1.57107   0.38820   0.45341
  10   25968.8    385.1   0.054597661   0.69215   0.22219  -0.52108   0.60931
  11   26840.1    372.6   0.008973821   0.11007   0.25984  -0.13142  -0.15901
  12   26971.5    370.8   0.041524831   0.50685   0.07986   0.26287   0.65679
  13   27680.7    361.3   0.096690979   1.14996  -0.31972   0.16731   1.00983
  14   28394.6    352.2   0.212545489   2.46429  -1.27666   0.33508  -0.84979
  15   28850.2    346.6   0.374249104   4.27059   1.06753   0.99258   1.46484
  16   29102.4    343.6   0.141873485   1.60490   0.37174  -0.83761  -0.87471
  17   29585.3    338.0   0.097147809   1.08102   0.21195  -0.51947  -0.87535
  18   29899.4    334.5   0.174108448   1.91705  -0.96961  -0.50976  -0.84679
  19   30416.2    328.8   0.240385945   2.60184   0.27933   0.34712   1.55026
  20   30694.7    325.8   0.025733063   0.27600  -0.25210   0.21869  -0.40573
  21   31634.0    316.1   0.744154926   7.74436   2.53107   0.94830   0.66239
  22   31679.4    315.7   0.483492074   5.02444   2.21372  -0.03578   0.35014
  23   32492.7    307.8   0.022096900   0.22388   0.28841   0.09211   0.36362
  24   32681.1    306.0   0.411034461   4.14054  -1.53311  -1.07777  -0.79279
  25   32863.3    304.3   0.044860818   0.44940   0.33600   0.30316   0.49457
  26   32934.9    303.6   0.006543934   0.06541  -0.19009   0.10078  -0.13827
  27   33300.6    300.3   0.308506758   3.04992   0.53262  -1.13874  -1.21223
  28   33653.4    297.1   0.135146893   1.32206  -0.88062  -0.68028  -0.28948
  29   33913.8    294.9   0.034130278   0.33131  -0.53566  -0.14915   0.14878
  30   34072.6    293.5   0.055121794   0.53259  -0.18770  -0.11697   0.69547
  31   34491.0    289.9   0.027623477   0.26366   0.41296  -0.06297   0.29860
  32   34744.4    287.8   0.068513175   0.64918  -0.06555  -0.43972  -0.67196
  33   35002.7    285.7   0.022065093   0.20753  -0.39163  -0.05436   0.22628
  34   35267.2    283.5   0.007314948   0.06828  -0.23553   0.09465   0.06206
  35   35577.6    281.1   0.023175756   0.21445   0.28604  -0.29767  -0.20983
  36   36011.9    277.7   0.039416504   0.36034   0.44710   0.25560   0.30839
  37   36318.0    275.3   0.042865388   0.38856   0.46197  -0.08887  -0.40896
  38   36693.9    272.5   0.076283695   0.68441  -0.73404   0.00320   0.38156
  39   36974.5    270.5   0.049589215   0.44153   0.66377   0.03073   0.00049
  40   37130.2    269.3   0.023291675   0.20651  -0.07173   0.16092  -0.41889
  41   37190.6    268.9   0.013772892   0.12192  -0.02438   0.08310  -0.33826
  42   37417.1    267.3   0.032147479   0.28285  -0.50013  -0.17162   0.05710
  43   37506.2    266.6   0.056631484   0.49708  -0.24202  -0.06282   0.65921
  44   37646.6    265.6   0.044646607   0.39043  -0.61565  -0.06073  -0.08779
  45   37858.9    264.1   0.091836307   0.79859  -0.73047  -0.25394   0.44778
  46   37880.5    264.0   0.008328545   0.07238  -0.18240   0.18799   0.06141
  47   38103.2    262.4   0.166858117   1.44165  -1.08716  -0.45659  -0.22643
  48   38607.3    259.0   0.018282762   0.15590   0.38009  -0.01496  -0.10588
  49   38654.5    258.7   0.136017281   1.15843   0.99603  -0.14571  -0.38096
  50   38913.0    257.0   0.019677953   0.16648  -0.29629  -0.04756  -0.27646
  51   38991.3    256.5   0.022058973   0.18625   0.29070  -0.17259  -0.26825
  52   39125.1    255.6   0.004893671   0.04118  -0.06407  -0.01016   0.19227
  53   39313.6    254.4   0.023277423   0.19492  -0.20404  -0.16894  -0.35320
  54   39576.0    252.7   0.030595408   0.25451   0.38735  -0.17340  -0.27276
  55   39898.2    250.6   0.083520134   0.68915   0.79715   0.09939   0.20933

FINAL SINGLE POINT ENERGY     -9318.451039171428

DIPOLE MOMENT
-------------
                                X             Y             Z
Electronic contribution:    121.08277      26.82460     114.04713
Nuclear contribution   :   -121.02280     -24.12072    -113.53330
                        -----------------------------------------
Total Dipole Moment    :      0.05997       2.70388       0.51384
                        -----------------------------------------
Magnitude (a.u.)       :      2.75293
Magnitude (Debye)      :      6.99738

Rotational constants in cm-1:     0.000716     0.000323     0.000236
Rotational constants in MHz :    21.475769     9.670243     7.085908

                             ****ORCA TERMINATED NORMALLY****
TOTAL RUN TIME: 0 days 0 hours 11 minutes 54 seconds 631 msec
