                         Program Version 4.2.0 -  RELEASE  -
|  1> # ORCA input file
|  2> # SCF done       -191.188436995930          0.000495858731
|  3> ! CAM-B3LYP def2-SVP def2/J RIJCOSX Grid4 TightSCF
|  4> %maxcore 5000
|  5> %tddft
|  6>     Mode sTDDFT
|  7>     Ethresh 5.0
|  8>     maxcore 5000
|  9> end
| 10>
| 11> %pal
| 12>   nprocs 6
| 13>   end
| 14> * xyz 0 1
| 15>    C       -6.87618        -1.19061         1.95341
| 16>    C       -7.80009        -1.66914         2.84735
| 17>    C       -7.79966        -2.98489         3.35394
| 18>    N       -7.84711        -4.03944         3.80581
| 19>    C       -8.89185        -0.93869         3.36106
| 20>    N       -9.81568        -0.42456         3.81061
| 21>    C       -5.80599        -1.96775         1.34537
| 22>    C       -5.16248        -1.16664         0.37180
| 23>    C       -4.10859        -1.62024        -0.38332
| 24>    C       -3.66773        -2.92997        -0.16811
| 25>    C       -4.31313        -3.72224         0.81119
| 26>    C       -5.37822        -3.26324         1.57511
| 27>    S       -3.60470        -5.30587         0.91975
| 28>    C       -2.47004        -4.88818        -0.33690
| 29>    C       -2.61109        -3.62887        -0.81371
| 30>   Br       -1.20563        -6.15432        -0.89988
| 31>    C       -5.79394         0.16904         0.32734
| 32>    O       -5.45473         1.08747        -0.38579
| 33>    C       -6.84102         0.14642         1.38200
| 34>    C       -7.49528         1.22537         1.89392
| 35>    C       -7.58290         2.55808         1.36960
| 36>    C       -7.71028         3.61700         2.28959
| 37>    C       -7.76917         4.90678         1.83237
| 38>    C       -7.75610         5.17608         0.44979
| 39>    C       -7.69389         4.13494        -0.46674
| 40>    C       -7.59975         2.83870        -0.00461
| 41>    C       -7.81468         6.60865         0.26112
| 42>    C       -7.84922         7.22460         1.52461
| 43>    C       -7.84926         6.19012         2.62483
| 44>    C       -9.14426         6.25980         3.45647
| 45>    C      -10.40195         6.10027         2.61106
| 46>    C       -6.63065         6.35397         3.55168
| 47>    C       -5.30577         6.30269         2.80004
| 48>    C       -7.86695         8.59283         1.63865
| 49>    C       -7.85105         9.38025         0.47989
| 50>    C       -7.86246         8.75506        -0.77215
| 51>    C       -7.83556         7.37978        -0.89269
| 52>    C       -7.80806        10.82945         0.54998
| 53>    C       -7.31227        11.49979         1.59060
| 54>    S       -7.20677        13.25016         1.65640
| 55>    C       -6.80534        13.42358         3.37065
| 56>    C       -5.75041        14.16146         3.80849
| 57>    S       -5.59805        14.13644         5.51914
| 58>    C       -6.97923        13.12576         5.65872
| 59>    C       -7.53120        12.83254         4.45093
| 60>    S       -8.98007        11.82925         4.27974
| 61>    C       -9.95444        12.92671         3.33408
| 62>    C      -11.10557        12.56665         2.73339
| 63>    C      -11.89608        13.48854         2.01249
| 64>    C      -13.10373        13.20939         1.43492
| 65>    C      -13.92731        14.11914         0.72280
| 66>    C      -15.09931        13.58888         0.28171
| 67>    C      -15.27757        12.22686         0.61444
| 68>    S      -13.88609        11.63475         1.50295
| 69>    C      -16.36776        11.42985         0.33080
| 70>    C      -17.54943        11.79612        -0.35332
| 71>    C      -18.46117        10.79242        -0.45556
| 72>    C      -18.06436         9.56513         0.13708
| 73>    S      -16.45639         9.75463         0.82809
| 74>    C      -18.83173         8.43127         0.17094
| 75>    C      -18.54582         7.16771         0.73171
| 76>    C      -19.44025         6.09581         0.74696
| 77>    C      -18.82453         4.99245         1.39076
| 78>    C      -19.27271         3.72235         1.66963
| 79>    C      -18.39392         2.85000         2.33612
| 80>    C      -18.54231         1.53711         2.75290
| 81>    C      -17.33074         1.10703         3.38589
| 82>    C      -16.43669         2.15932         3.35765
| 83>    C      -17.05680         3.27616         2.71143
| 84>    C      -16.60727         4.53832         2.43876
| 85>    C      -17.49019         5.41974         1.77472
| 86>    C      -17.33475         6.73091         1.37491
| 87>    C      -17.06850        -0.19130         3.95829
| 88>    C      -17.93055        -1.20323         4.01034
| 89>    H       -3.64020        -0.98445        -1.11828
| 90>    H       -5.83237        -3.90315         2.31298
| 91>    H       -1.99625        -3.20788        -1.58816
| 92>    H       -7.98250         1.09310         2.85386
| 93>    H       -7.72406         3.39957         3.34824
| 94>    H       -7.71327         4.33366        -1.52743
| 95>    H       -7.56945         2.02491        -0.70950
| 96>    H       -9.17508         7.22206         3.97190
| 97>    H       -9.11509         5.47429         4.21454
| 98>    H      -10.46348         6.88552         1.86090
| 99>    H      -11.28489         6.15940         3.24302
|100>    H      -10.40598         5.13826         2.10318
|101>    H       -6.65266         5.56183         4.30307
|102>    H       -6.71572         7.30967         4.07331
|103>    H       -5.18965         5.35007         2.28782
|104>    H       -4.47671         6.42331         3.49367
|105>    H       -5.25347         7.09742         2.05897
|106>    H       -7.91150         9.06260         2.60966
|107>    H       -7.86936         9.37000        -1.66065
|108>    H       -7.82619         6.91531        -1.86732
|109>    H       -8.15827        11.37322        -0.31675
|110>    H       -6.89719        11.00981         2.45597
|111>    H       -5.05247        14.71229         3.21125
|112>    H       -7.31986        12.80484         6.62224
|113>    H       -9.58029        13.93727         3.29221
|114>    H      -11.45558        11.54583         2.80635
|115>    H      -11.52428        14.50061         1.91734
|116>    H      -13.62304        15.13936         0.56767
|117>    H      -15.84148        14.13870        -0.26895
|118>    H      -17.69476        12.78680        -0.74516
|119>    H      -19.41780        10.89012        -0.93874
|120>    H      -19.80701         8.51942        -0.29446
|121>    H      -20.43550         6.10382         0.34166
|122>    H      -20.26492         3.39653         1.39031
|123>    H      -19.42217         0.93399         2.62243
|124>    H      -15.43686         2.15295         3.75168
|125>    H      -15.61493         4.86618         2.71496
|126>    H      -16.45389         7.32935         1.51418
|127>    H      -16.07545        -0.31297         4.37283
|128>    H      -18.92964        -1.12929         3.61597
|129>    H      -17.66523        -2.14586         4.45668
|130> *
|131>
|132>                          ****END OF INPUT****

CARTESIAN COORDINATES (ANGSTROEM)
---------------------------------
  C     -6.876180   -1.190610    1.953410
  C     -7.800090   -1.669140    2.847350
  C     -7.799660   -2.984890    3.353940
  N     -7.847110   -4.039440    3.805810
  C     -8.891850   -0.938690    3.361060
  N     -9.815680   -0.424560    3.810610
  C     -5.805990   -1.967750    1.345370
  C     -5.162480   -1.166640    0.371800
  C     -4.108590   -1.620240   -0.383320
  C     -3.667730   -2.929970   -0.168110
  C     -4.313130   -3.722240    0.811190
  C     -5.378220   -3.263240    1.575110
  S     -3.604700   -5.305870    0.919750
  C     -2.470040   -4.888180   -0.336900
  C     -2.611090   -3.628870   -0.813710
  Br    -1.205630   -6.154320   -0.899880
  C     -5.793940    0.169040    0.327340
  O     -5.454730    1.087470   -0.385790
  C     -6.841020    0.146420    1.382000
  C     -7.495280    1.225370    1.893920
  C     -7.582900    2.558080    1.369600
  C     -7.710280    3.617000    2.289590
  C     -7.769170    4.906780    1.832370
  C     -7.756100    5.176080    0.449790
  C     -7.693890    4.134940   -0.466740
  C     -7.599750    2.838700   -0.004610
  C     -7.814680    6.608650    0.261120
  C     -7.849220    7.224600    1.524610
  C     -7.849260    6.190120    2.624830
  C     -9.144260    6.259800    3.456470
  C    -10.401950    6.100270    2.611060
  C     -6.630650    6.353970    3.551680
  C     -5.305770    6.302690    2.800040
  C     -7.866950    8.592830    1.638650
  C     -7.851050    9.380250    0.479890
  C     -7.862460    8.755060   -0.772150
  C     -7.835560    7.379780   -0.892690
  C     -7.808060   10.829450    0.549980
  C     -7.312270   11.499790    1.590600
  S     -7.206770   13.250160    1.656400
  C     -6.805340   13.423580    3.370650
  C     -5.750410   14.161460    3.808490
  S     -5.598050   14.136440    5.519140
  C     -6.979230   13.125760    5.658720
  C     -7.531200   12.832540    4.450930
  S     -8.980070   11.829250    4.279740
  C     -9.954440   12.926710    3.334080
  C    -11.105570   12.566650    2.733390
  C    -11.896080   13.488540    2.012490
  C    -13.103730   13.209390    1.434920
  C    -13.927310   14.119140    0.722800
  C    -15.099310   13.588880    0.281710
  C    -15.277570   12.226860    0.614440
  S    -13.886090   11.634750    1.502950
  C    -16.367760   11.429850    0.330800
  C    -17.549430   11.796120   -0.353320
  C    -18.461170   10.792420   -0.455560
  C    -18.064360    9.565130    0.137080
  S    -16.456390    9.754630    0.828090
  C    -18.831730    8.431270    0.170940
  C    -18.545820    7.167710    0.731710
  C    -19.440250    6.095810    0.746960
  C    -18.824530    4.992450    1.390760
  C    -19.272710    3.722350    1.669630
  C    -18.393920    2.850000    2.336120
  C    -18.542310    1.537110    2.752900
  C    -17.330740    1.107030    3.385890
  C    -16.436690    2.159320    3.357650
  C    -17.056800    3.276160    2.711430
  C    -16.607270    4.538320    2.438760
  C    -17.490190    5.419740    1.774720
  C    -17.334750    6.730910    1.374910
  C    -17.068500   -0.191300    3.958290
  C    -17.930550   -1.203230    4.010340
  H     -3.640200   -0.984450   -1.118280
  H     -5.832370   -3.903150    2.312980
  H     -1.996250   -3.207880   -1.588160
  H     -7.982500    1.093100    2.853860
  H     -7.724060    3.399570    3.348240
  H     -7.713270    4.333660   -1.527430
  H     -7.569450    2.024910   -0.709500
  H     -9.175080    7.222060    3.971900
  H     -9.115090    5.474290    4.214540
  H    -10.463480    6.885520    1.860900
  H    -11.284890    6.159400    3.243020
  H    -10.405980    5.138260    2.103180
  H     -6.652660    5.561830    4.303070
  H     -6.715720    7.309670    4.073310
  H     -5.189650    5.350070    2.287820
  H     -4.476710    6.423310    3.493670
  H     -5.253470    7.097420    2.058970
  H     -7.911500    9.062600    2.609660
  H     -7.869360    9.370000   -1.660650
  H     -7.826190    6.915310   -1.867320
  H     -8.158270   11.373220   -0.316750
  H     -6.897190   11.009810    2.455970
  H     -5.052470   14.712290    3.211250
  H     -7.319860   12.804840    6.622240
  H     -9.580290   13.937270    3.292210
  H    -11.455580   11.545830    2.806350
  H    -11.524280   14.500610    1.917340
  H    -13.623040   15.139360    0.567670
  H    -15.841480   14.138700   -0.268950
  H    -17.694760   12.786800   -0.745160
  H    -19.417800   10.890120   -0.938740
  H    -19.807010    8.519420   -0.294460
  H    -20.435500    6.103820    0.341660
  H    -20.264920    3.396530    1.390310
  H    -19.422170    0.933990    2.622430
  H    -15.436860    2.152950    3.751680
  H    -15.614930    4.866180    2.714960
  H    -16.453890    7.329350    1.514180
  H    -16.075450   -0.312970    4.372830
  H    -18.929640   -1.129290    3.615970
  H    -17.665230   -2.145860    4.456680

 Total Charge           Charge          ....    0
 Multiplicity           Mult            ....    1
 Number of Electrons    NEL             ....  578
 Basis Dimension        Dim             .... 1283

ORBITAL ENERGIES
----------------

  NO   OCC          E(Eh)            E(eV)
   0   2.0000    -482.884448    -13139.9538
   1   2.0000     -88.973839     -2421.1012
   2   2.0000     -88.967773     -2420.9362
   3   2.0000     -88.941280     -2420.2153
   4   2.0000     -88.938496     -2420.1395
   5   2.0000     -88.932323     -2419.9715
   6   2.0000     -88.930269     -2419.9156
   7   2.0000     -62.562173     -1702.4033
   8   2.0000     -56.396125     -1534.6166
   9   2.0000     -56.393406     -1534.5426
  10   2.0000     -56.393373     -1534.5417
  11   2.0000     -19.212304      -522.7934
  12   2.0000     -14.412070      -392.1724
  13   2.0000     -14.411691      -392.1621
  14   2.0000     -10.364884      -282.0428
  15   2.0000     -10.357637      -281.8456
  16   2.0000     -10.338502      -281.3250
  17   2.0000     -10.337705      -281.3033
  18   2.0000     -10.323877      -280.9270
  19   2.0000     -10.315128      -280.6889
  20   2.0000     -10.314868      -280.6818
  21   2.0000     -10.312349      -280.6133
  22   2.0000     -10.309090      -280.5246
  23   2.0000     -10.308733      -280.5149
  24   2.0000     -10.306065      -280.4423
  25   2.0000     -10.305571      -280.4288
  26   2.0000     -10.305546      -280.4282
  27   2.0000     -10.304797      -280.4078
  28   2.0000     -10.303589      -280.3749
  29   2.0000     -10.298730      -280.2427
  30   2.0000     -10.297052      -280.1970
  31   2.0000     -10.296009      -280.1687
  32   2.0000     -10.295339      -280.1504
  33   2.0000     -10.293318      -280.0954
  34   2.0000     -10.293136      -280.0905
  35   2.0000     -10.292483      -280.0727
  36   2.0000     -10.292278      -280.0671
  37   2.0000     -10.291565      -280.0477
  38   2.0000     -10.291384      -280.0428
  39   2.0000     -10.289757      -279.9985
  40   2.0000     -10.289693      -279.9968
  41   2.0000     -10.283083      -279.8169
  42   2.0000     -10.278446      -279.6907
  43   2.0000     -10.278129      -279.6821
  44   2.0000     -10.277397      -279.6622
  45   2.0000     -10.276998      -279.6513
  46   2.0000     -10.276380      -279.6345
  47   2.0000     -10.275627      -279.6140
  48   2.0000     -10.275425      -279.6085
  49   2.0000     -10.273580      -279.5583
  50   2.0000     -10.273540      -279.5572
  51   2.0000     -10.272451      -279.5276
  52   2.0000     -10.271963      -279.5143
  53   2.0000     -10.270545      -279.4757
  54   2.0000     -10.270334      -279.4700
  55   2.0000     -10.268858      -279.4298
  56   2.0000     -10.268793      -279.4281
  57   2.0000     -10.268730      -279.4264
  58   2.0000     -10.268026      -279.4072
  59   2.0000     -10.267627      -279.3963
  60   2.0000     -10.267351      -279.3888
  61   2.0000     -10.266904      -279.3766
  62   2.0000     -10.265575      -279.3405
  63   2.0000     -10.264141      -279.3015
  64   2.0000     -10.264055      -279.2991
  65   2.0000     -10.263770      -279.2914
  66   2.0000     -10.262991      -279.2702
  67   2.0000     -10.261706      -279.2352
  68   2.0000     -10.260534      -279.2033
  69   2.0000     -10.260157      -279.1931
  70   2.0000     -10.259391      -279.1722
  71   2.0000     -10.257607      -279.1237
  72   2.0000     -10.257043      -279.1083
  73   2.0000     -10.256449      -279.0922
  74   2.0000     -10.256331      -279.0889
  75   2.0000     -10.249200      -278.8949
  76   2.0000     -10.244654      -278.7712
  77   2.0000     -10.243186      -278.7312
  78   2.0000      -8.791605      -239.2317
  79   2.0000      -8.069876      -219.5925
  80   2.0000      -8.064019      -219.4331
  81   2.0000      -8.035847      -218.6665
  82   2.0000      -8.033492      -218.6024
  83   2.0000      -8.028265      -218.4602
  84   2.0000      -8.026610      -218.4152
  85   2.0000      -6.627926      -180.3550
  86   2.0000      -6.613335      -179.9580
  87   2.0000      -6.613131      -179.9525
  88   2.0000      -6.039570      -164.3451
  89   2.0000      -6.035293      -164.2287
  90   2.0000      -6.033233      -164.1726
  91   2.0000      -6.031076      -164.1139
  92   2.0000      -6.028928      -164.0555
  93   2.0000      -6.026349      -163.9853
  94   2.0000      -6.006217      -163.4375
  95   2.0000      -6.003872      -163.3737
  96   2.0000      -6.002032      -163.3236
  97   2.0000      -5.999796      -163.2628
  98   2.0000      -5.998080      -163.2160
  99   2.0000      -5.996399      -163.1703
 100   2.0000      -5.995987      -163.1591
 101   2.0000      -5.994042      -163.1062
 102   2.0000      -5.993394      -163.0885
 103   2.0000      -5.992456      -163.0630
 104   2.0000      -5.989091      -162.9715
 105   2.0000      -5.987336      -162.9237
 106   2.0000      -2.743746       -74.6611
 107   2.0000      -2.739721       -74.5516
 108   2.0000      -2.739563       -74.5473
 109   2.0000      -2.727975       -74.2320
 110   2.0000      -2.727936       -74.2309
 111   2.0000      -1.127991       -30.6942
 112   2.0000      -1.020558       -27.7708
 113   2.0000      -1.010580       -27.4993
 114   2.0000      -1.000573       -27.2270
 115   2.0000      -0.990491       -26.9526
 116   2.0000      -0.988667       -26.9030
 117   2.0000      -0.986193       -26.8357
 118   2.0000      -0.981735       -26.7144
 119   2.0000      -0.977637       -26.6029
 120   2.0000      -0.960262       -26.1300
 121   2.0000      -0.950745       -25.8711
 122   2.0000      -0.950150       -25.8549
 123   2.0000      -0.939230       -25.5578
 124   2.0000      -0.925823       -25.1929
 125   2.0000      -0.919223       -25.0133
 126   2.0000      -0.907223       -24.6868
 127   2.0000      -0.906028       -24.6543
 128   2.0000      -0.894354       -24.3366
 129   2.0000      -0.891948       -24.2711
 130   2.0000      -0.883877       -24.0515
 131   2.0000      -0.881025       -23.9739
 132   2.0000      -0.876883       -23.8612
 133   2.0000      -0.861374       -23.4392
 134   2.0000      -0.858657       -23.3653
 135   2.0000      -0.854872       -23.2622
 136   2.0000      -0.842565       -22.9274
 137   2.0000      -0.837202       -22.7814
 138   2.0000      -0.834864       -22.7178
 139   2.0000      -0.834086       -22.6966
 140   2.0000      -0.830034       -22.5864
 141   2.0000      -0.827307       -22.5122
 142   2.0000      -0.826372       -22.4867
 143   2.0000      -0.825553       -22.4644
 144   2.0000      -0.809096       -22.0166
 145   2.0000      -0.806287       -21.9402
 146   2.0000      -0.795905       -21.6577
 147   2.0000      -0.788600       -21.4589
 148   2.0000      -0.777429       -21.1549
 149   2.0000      -0.771290       -20.9879
 150   2.0000      -0.759889       -20.6776
 151   2.0000      -0.757905       -20.6236
 152   2.0000      -0.752065       -20.4647
 153   2.0000      -0.745875       -20.2963
 154   2.0000      -0.734950       -19.9990
 155   2.0000      -0.726775       -19.7766
 156   2.0000      -0.715089       -19.4586
 157   2.0000      -0.711103       -19.3501
 158   2.0000      -0.691750       -18.8235
 159   2.0000      -0.688492       -18.7348
 160   2.0000      -0.687987       -18.7211
 161   2.0000      -0.677650       -18.4398
 162   2.0000      -0.672027       -18.2868
 163   2.0000      -0.670108       -18.2346
 164   2.0000      -0.668980       -18.2039
 165   2.0000      -0.666317       -18.1314
 166   2.0000      -0.660144       -17.9634
 167   2.0000      -0.659731       -17.9522
 168   2.0000      -0.652905       -17.7665
 169   2.0000      -0.645371       -17.5614
 170   2.0000      -0.638108       -17.3638
 171   2.0000      -0.634522       -17.2662
 172   2.0000      -0.632023       -17.1982
 173   2.0000      -0.630068       -17.1450
 174   2.0000      -0.620097       -16.8737
 175   2.0000      -0.618909       -16.8414
 176   2.0000      -0.615223       -16.7411
 177   2.0000      -0.610249       -16.6057
 178   2.0000      -0.603125       -16.4119
 179   2.0000      -0.599474       -16.3125
 180   2.0000      -0.597768       -16.2661
 181   2.0000      -0.592224       -16.1152
 182   2.0000      -0.589729       -16.0474
 183   2.0000      -0.585006       -15.9188
 184   2.0000      -0.582848       -15.8601
 185   2.0000      -0.574599       -15.6356
 186   2.0000      -0.570263       -15.5176
 187   2.0000      -0.566017       -15.4021
 188   2.0000      -0.562757       -15.3134
 189   2.0000      -0.555006       -15.1025
 190   2.0000      -0.546134       -14.8611
 191   2.0000      -0.544613       -14.8197
 192   2.0000      -0.541623       -14.7383
 193   2.0000      -0.539186       -14.6720
 194   2.0000      -0.536066       -14.5871
 195   2.0000      -0.533576       -14.5193
 196   2.0000      -0.532839       -14.4993
 197   2.0000      -0.529183       -14.3998
 198   2.0000      -0.526640       -14.3306
 199   2.0000      -0.524098       -14.2614
 200   2.0000      -0.522808       -14.2263
 201   2.0000      -0.517316       -14.0769
 202   2.0000      -0.515660       -14.0318
 203   2.0000      -0.514119       -13.9899
 204   2.0000      -0.513233       -13.9658
 205   2.0000      -0.511645       -13.9226
 206   2.0000      -0.506960       -13.7951
 207   2.0000      -0.506263       -13.7761
 208   2.0000      -0.503668       -13.7055
 209   2.0000      -0.496045       -13.4981
 210   2.0000      -0.494607       -13.4589
 211   2.0000      -0.492248       -13.3948
 212   2.0000      -0.491645       -13.3783
 213   2.0000      -0.488060       -13.2808
 214   2.0000      -0.487485       -13.2651
 215   2.0000      -0.485491       -13.2109
 216   2.0000      -0.482519       -13.1300
 217   2.0000      -0.481751       -13.1091
 218   2.0000      -0.480970       -13.0879
 219   2.0000      -0.480099       -13.0641
 220   2.0000      -0.476339       -12.9618
 221   2.0000      -0.474240       -12.9047
 222   2.0000      -0.470631       -12.8065
 223   2.0000      -0.469038       -12.7632
 224   2.0000      -0.467842       -12.7306
 225   2.0000      -0.464769       -12.6470
 226   2.0000      -0.463309       -12.6073
 227   2.0000      -0.462097       -12.5743
 228   2.0000      -0.457592       -12.4517
 229   2.0000      -0.457100       -12.4383
 230   2.0000      -0.455355       -12.3908
 231   2.0000      -0.453013       -12.3271
 232   2.0000      -0.449311       -12.2264
 233   2.0000      -0.446749       -12.1567
 234   2.0000      -0.445596       -12.1253
 235   2.0000      -0.444021       -12.0824
 236   2.0000      -0.442574       -12.0431
 237   2.0000      -0.441827       -12.0227
 238   2.0000      -0.441047       -12.0015
 239   2.0000      -0.439924       -11.9709
 240   2.0000      -0.438611       -11.9352
 241   2.0000      -0.437000       -11.8914
 242   2.0000      -0.434287       -11.8175
 243   2.0000      -0.429630       -11.6908
 244   2.0000      -0.424545       -11.5525
 245   2.0000      -0.423697       -11.5294
 246   2.0000      -0.422588       -11.4992
 247   2.0000      -0.420539       -11.4434
 248   2.0000      -0.418803       -11.3962
 249   2.0000      -0.417259       -11.3542
 250   2.0000      -0.416768       -11.3408
 251   2.0000      -0.413142       -11.2422
 252   2.0000      -0.411545       -11.1987
 253   2.0000      -0.409584       -11.1453
 254   2.0000      -0.407097       -11.0777
 255   2.0000      -0.405883       -11.0446
 256   2.0000      -0.404850       -11.0165
 257   2.0000      -0.403873       -10.9900
 258   2.0000      -0.398287       -10.8379
 259   2.0000      -0.395753       -10.7690
 260   2.0000      -0.391470       -10.6524
 261   2.0000      -0.387541       -10.5455
 262   2.0000      -0.386163       -10.5080
 263   2.0000      -0.383749       -10.4423
 264   2.0000      -0.383578       -10.4377
 265   2.0000      -0.381165       -10.3720
 266   2.0000      -0.376515       -10.2455
 267   2.0000      -0.373918       -10.1748
 268   2.0000      -0.366251        -9.9662
 269   2.0000      -0.358379        -9.7520
 270   2.0000      -0.358076        -9.7438
 271   2.0000      -0.346686        -9.4338
 272   2.0000      -0.338918        -9.2224
 273   2.0000      -0.335947        -9.1416
 274   2.0000      -0.327258        -8.9051
 275   2.0000      -0.322766        -8.7829
 276   2.0000      -0.318721        -8.6728
 277   2.0000      -0.318047        -8.6545
 278   2.0000      -0.313518        -8.5313
 279   2.0000      -0.312456        -8.5024
 280   2.0000      -0.311069        -8.4646
 281   2.0000      -0.300058        -8.1650
 282   2.0000      -0.292581        -7.9615
 283   2.0000      -0.284566        -7.7434
 284   2.0000      -0.272089        -7.4039
 285   2.0000      -0.260164        -7.0794
 286   2.0000      -0.249997        -6.8028
 287   2.0000      -0.239296        -6.5116
 288   2.0000      -0.192350        -5.2341
 289   0.0000      -0.087513        -2.3814
 290   0.0000      -0.085078        -2.3151
 291   0.0000      -0.057607        -1.5676
 292   0.0000      -0.055982        -1.5234
 293   0.0000      -0.017361        -0.4724

MULLIKEN ATOMIC CHARGES
-----------------------
   0 C :    0.296947
   1 C :   -0.343123
   2 C :   -0.186453
   3 N :    0.147942
   4 C :   -0.205143
   5 N :    0.159360
   6 C :    0.016467
   7 C :   -0.017589
   8 C :   -0.073462
   9 C :    0.117703
  10 C :   -0.087976
  11 C :   -0.021553
  12 S :    0.184892
  13 C :   -0.123175
  14 C :    0.039174
  15 Br:    0.022708
  16 C :    0.140797
  17 O :   -0.144082
  18 C :   -0.074278
  19 C :   -0.035726
  20 C :    0.075433
  21 C :   -0.091579
  22 C :    0.010200
  23 C :    0.124153
  24 C :   -0.064256
  25 C :    0.067985
  26 C :    0.104241
  27 C :    0.007751
  28 C :   -0.138739
  29 C :    0.069173
  30 C :    0.022142
  31 C :    0.063491
  32 C :    0.026074
  33 C :   -0.091755
  34 C :    0.104590
  35 C :   -0.017690
  36 C :   -0.040193
  37 C :    0.032400
  38 C :   -0.068070
  39 S :    0.065622
  40 C :   -0.042439
  41 C :   -0.098254
  42 S :    0.128516
  43 C :   -0.094317
  44 C :   -0.057027
  45 S :    0.068043
  46 C :   -0.081489
  47 C :    0.058510
  48 C :   -0.036629
  49 C :   -0.015532
  50 C :    0.034285
  51 C :    0.020167
  52 C :   -0.051997
  53 S :    0.062280
  54 C :   -0.035615
  55 C :    0.024690
  56 C :    0.034293
  57 C :   -0.023088
  58 S :    0.042435
  59 C :   -0.017786
  60 C :    0.063055
  61 C :   -0.041707
  62 C :    0.071451
  63 C :   -0.005613
  64 C :    0.048961
  65 C :   -0.023670
  66 C :    0.058763
  67 C :   -0.025630
  68 C :    0.059624
  69 C :   -0.002497
  70 C :    0.041011
  71 C :   -0.032321
  72 C :    0.013546
  73 C :   -0.026661
  74 H :   -0.010255
  75 H :   -0.006834
  76 H :   -0.003504
  77 H :    0.028686
  78 H :   -0.030962
  79 H :   -0.030237
  80 H :   -0.014963
  81 H :    0.001590
  82 H :   -0.000346
  83 H :    0.025746
  84 H :    0.009045
  85 H :    0.020629
  86 H :   -0.001840
  87 H :   -0.002643
  88 H :    0.021520
  89 H :    0.008854
  90 H :    0.022193
  91 H :   -0.041466
  92 H :   -0.028260
  93 H :   -0.034333
  94 H :   -0.008552
  95 H :    0.046537
  96 H :    0.029684
  97 H :    0.029901
  98 H :    0.038620
  99 H :    0.001856
 100 H :   -0.020758
 101 H :   -0.019086
 102 H :   -0.017493
 103 H :   -0.020466
 104 H :   -0.018162
 105 H :   -0.028485
 106 H :   -0.034096
 107 H :   -0.029044
 108 H :   -0.025748
 109 H :   -0.025136
 110 H :   -0.025145
 111 H :   -0.007670
 112 H :   -0.015562
 113 H :    0.004961
 114 H :    0.019463
Sum of atomic charges:   -0.0000000

LOEWDIN ATOMIC CHARGES
----------------------
   0 C :    0.077406
   1 C :   -0.142621
   2 C :   -0.018134
   3 N :   -0.055677
   4 C :   -0.024997
   5 N :   -0.053291
   6 C :   -0.021952
   7 C :   -0.049723
   8 C :    0.021092
   9 C :   -0.032387
  10 C :   -0.143724
  11 C :   -0.009885
  12 S :    0.431303
  13 C :   -0.271384
  14 C :   -0.070408
  15 Br:    0.136057
  16 C :    0.082007
  17 O :   -0.135849
  18 C :   -0.100390
  19 C :    0.086222
  20 C :   -0.046653
  21 C :    0.000141
  22 C :   -0.004189
  23 C :    0.010339
  24 C :   -0.023667
  25 C :    0.027369
  26 C :   -0.029283
  27 C :    0.009905
  28 C :   -0.035897
  29 C :   -0.011154
  30 C :   -0.057702
  31 C :   -0.012449
  32 C :   -0.058060
  33 C :   -0.024048
  34 C :   -0.010233
  35 C :   -0.023093
  36 C :   -0.010786
  37 C :   -0.057247
  38 C :   -0.151148
  39 S :    0.345808
  40 C :   -0.219819
  41 C :   -0.194811
  42 S :    0.453112
  43 C :   -0.193020
  44 C :   -0.221847
  45 S :    0.351962
  46 C :   -0.162224
  47 C :   -0.063262
  48 C :   -0.060792
  49 C :   -0.149308
  50 C :   -0.039064
  51 C :   -0.034806
  52 C :   -0.183905
  53 S :    0.353025
  54 C :   -0.179568
  55 C :   -0.042624
  56 C :   -0.031886
  57 C :   -0.155576
  58 S :    0.365827
  59 C :   -0.048227
  60 C :   -0.062169
  61 C :    0.005516
  62 C :   -0.058040
  63 C :    0.067687
  64 C :   -0.062590
  65 C :    0.045118
  66 C :   -0.059212
  67 C :    0.014352
  68 C :   -0.058006
  69 C :    0.068630
  70 C :   -0.061020
  71 C :    0.028403
  72 C :   -0.019447
  73 C :   -0.057039
  74 H :    0.040768
  75 H :    0.040905
  76 H :    0.038825
  77 H :    0.045207
  78 H :    0.027915
  79 H :    0.029515
  80 H :    0.031076
  81 H :    0.021472
  82 H :    0.020215
  83 H :    0.026760
  84 H :    0.024244
  85 H :    0.024973
  86 H :    0.019601
  87 H :    0.020005
  88 H :    0.025555
  89 H :    0.023843
  90 H :    0.025722
  91 H :    0.021585
  92 H :    0.026630
  93 H :    0.027495
  94 H :    0.028022
  95 H :    0.021285
  96 H :    0.026934
  97 H :    0.027148
  98 H :    0.022256
  99 H :    0.024040
 100 H :    0.031022
 101 H :    0.030771
 102 H :    0.029971
 103 H :    0.029253
 104 H :    0.031194
 105 H :    0.033556
 106 H :    0.021613
 107 H :    0.033224
 108 H :    0.024133
 109 H :    0.025299
 110 H :    0.035038
 111 H :    0.014353
 112 H :    0.030959
 113 H :    0.016578
 114 H :    0.024050

  Mayer bond orders larger than 0.100000
B(  0-C ,  1-C ) :   1.6379 B(  0-C ,  6-C ) :   1.0104 B(  0-C , 18-C ) :   1.0573
B(  1-C ,  2-C ) :   1.1396 B(  1-C ,  4-C ) :   1.1430 B(  2-C ,  3-N ) :   2.9714
B(  4-C ,  5-N ) :   2.9927 B(  6-C ,  7-C ) :   1.2732 B(  6-C , 11-C ) :   1.4019
B(  7-C ,  8-C ) :   1.4234 B(  7-C , 16-C ) :   0.9411 B(  8-C ,  9-C ) :   1.2445
B(  8-C , 74-H ) :   1.0175 B(  9-C , 10-C ) :   1.3063 B(  9-C , 14-C ) :   1.1617
B( 10-C , 11-C ) :   1.3333 B( 10-C , 12-S ) :   1.0836 B( 11-C , 75-H ) :   0.9815
B( 12-S , 13-C ) :   1.0865 B( 13-C , 14-C ) :   1.6180 B( 13-C , 15-Br) :   1.0180
B( 14-C , 76-H ) :   1.0014 B( 16-C , 17-O ) :   2.2278 B( 16-C , 18-C ) :   0.9358
B( 18-C , 19-C ) :   1.6027 B( 19-C , 20-C ) :   1.1013 B( 19-C , 77-H ) :   0.9527
B( 20-C , 21-C ) :   1.2455 B( 20-C , 25-C ) :   1.3466 B( 21-C , 22-C ) :   1.4031
B( 21-C , 78-H ) :   1.0137 B( 22-C , 23-C ) :   1.3518 B( 22-C , 28-C ) :   0.9126
B( 23-C , 24-C ) :   1.3266 B( 23-C , 26-C ) :   1.0036 B( 24-C , 25-C ) :   1.4046
B( 24-C , 79-H ) :   0.9945 B( 25-C , 80-H ) :   0.9760 B( 26-C , 27-C ) :   1.3556
B( 26-C , 36-C ) :   1.3392 B( 27-C , 28-C ) :   0.9180 B( 27-C , 33-C ) :   1.3975
B( 28-C , 29-C ) :   1.0371 B( 28-C , 31-C ) :   1.0400 B( 29-C , 30-C ) :   1.1003
B( 29-C , 81-H ) :   0.9398 B( 29-C , 82-H ) :   0.9393 B( 30-C , 83-H ) :   0.9650
B( 30-C , 84-H ) :   0.9638 B( 30-C , 85-H ) :   0.9646 B( 31-C , 32-C ) :   1.1017
B( 31-C , 86-H ) :   0.9395 B( 31-C , 87-H ) :   0.9389 B( 32-C , 88-H ) :   0.9641
B( 32-C , 89-H ) :   0.9639 B( 32-C , 90-H ) :   0.9640 B( 33-C , 34-C ) :   1.3148
B( 33-C , 91-H ) :   0.9999 B( 34-C , 35-C ) :   1.3477 B( 34-C , 37-C ) :   1.0666
B( 35-C , 36-C ) :   1.3800 B( 35-C , 92-H ) :   0.9932 B( 36-C , 93-H ) :   0.9929
B( 37-C , 38-C ) :   1.8143 B( 37-C , 94-H ) :   0.9628 B( 38-C , 39-S ) :   1.0174
B( 38-C , 95-H ) :   0.9357 B( 39-S , 40-C ) :   1.0183 B( 40-C , 41-C ) :   1.5968
B( 40-C , 44-C ) :   1.2297 B( 41-C , 42-S ) :   1.1805 B( 41-C , 96-H ) :   0.9697
B( 42-S , 43-C ) :   1.1829 B( 43-C , 44-C ) :   1.5972 B( 43-C , 97-H ) :   0.9698
B( 44-C , 45-S ) :   1.0217 B( 45-S , 46-C ) :   1.0233 B( 46-C , 47-C ) :   1.7337
B( 46-C , 98-H ) :   0.9451 B( 47-C , 48-C ) :   1.1526 B( 47-C , 99-H ) :   0.9589
B( 48-C , 49-C ) :   1.6107 B( 48-C ,100-H ) :   0.9767 B( 49-C , 50-C ) :   1.1313
B( 49-C , 53-S ) :   1.0227 B( 50-C , 51-C ) :   1.5996 B( 50-C ,101-H ) :   0.9990
B( 51-C , 52-C ) :   1.1853 B( 51-C ,102-H ) :   0.9928 B( 52-C , 53-S ) :   1.0347
B( 52-C , 54-C ) :   1.5222 B( 54-C , 55-C ) :   1.1829 B( 54-C , 58-S ) :   1.0380
B( 55-C , 56-C ) :   1.5963 B( 55-C ,103-H ) :   0.9918 B( 56-C , 57-C ) :   1.1374
B( 56-C ,104-H ) :   0.9985 B( 57-C , 58-S ) :   1.0163 B( 57-C , 59-C ) :   1.5853
B( 59-C , 60-C ) :   1.1302 B( 59-C ,105-H ) :   0.9675 B( 60-C , 61-C ) :   1.4423
B( 60-C , 71-C ) :   1.1297 B( 61-C , 62-C ) :   1.1093 B( 61-C ,106-H ) :   1.0191
B( 62-C , 63-C ) :   1.4346 B( 62-C , 70-C ) :   1.1306 B( 63-C , 64-C ) :   1.1352
B( 63-C ,107-H ) :   1.0047 B( 64-C , 65-C ) :   1.4355 B( 64-C , 68-C ) :   1.1275
B( 65-C , 66-C ) :   1.1454 B( 65-C ,108-H ) :   1.0076 B( 66-C , 67-C ) :   1.5080
B( 66-C , 72-C ) :   1.0860 B( 67-C , 68-C ) :   1.0819 B( 67-C ,109-H ) :   1.0172
B( 68-C , 69-C ) :   1.4696 B( 69-C , 70-C ) :   1.1198 B( 69-C ,110-H ) :   1.0048
B( 70-C , 71-C ) :   1.4648 B( 71-C ,111-H ) :   0.9915 B( 72-C , 73-C ) :   1.9331
B( 72-C ,112-H ) :   0.9664 B( 73-C ,113-H ) :   0.9523 B( 73-C ,114-H ) :   0.9492

-----------------------------------------------------------------------------
         ABSORPTION SPECTRUM VIA TRANSITION ELECTRIC DIPOLE MOMENTS
-----------------------------------------------------------------------------
State   Energy  Wavelength   fosc         T2         TX        TY        TZ
        (cm-1)    (nm)                  (au**2)     (au)      (au)      (au)
-----------------------------------------------------------------------------
   0    6378.5   1567.8   0.016643808   0.85903  -0.56235  -0.73663  -0.01303
   1   15174.1    659.0   0.099237074   2.15301  -1.28417  -0.68699  -0.17880
   2   15223.9    656.9   0.032100067   0.69415  -0.63655  -0.51045  -0.16849
   3   16056.9    622.8   1.333397730  27.33848   3.65629   3.70195   0.51534
   4   21733.7    460.1   0.943914750  14.29796  -0.14587   3.76957  -0.25885
   5   21942.8    455.7   0.160355305   2.40584   0.14817  -1.53122   0.19813
   6   22462.0    445.2   0.303313035   4.44548   0.14514  -2.03143   0.54563
   7   24858.1    402.3   0.003088748   0.04091  -0.09899  -0.17361   0.03111
   8   25016.8    399.7   0.016604436   0.21851   0.10858  -0.41918   0.17609
   9   25799.1    387.6   0.053900447   0.68780  -0.72491   0.06921  -0.39689
  10   26564.0    376.4   0.280058310   3.47080  -1.31231   1.06968  -0.77746
  11   27149.4    368.3   0.019066425   0.23120   0.05979   0.47630  -0.02757
  12   27636.8    361.8   0.220468975   2.62625   0.57101  -1.46646   0.38691
  13   28440.4    351.6   0.718775026   8.32018   1.37756  -2.45734   0.61967
  14   28627.8    349.3   0.286022966   3.28918  -0.62686   0.67627  -1.56170
  15   28847.6    346.6   0.301254197   3.43795  -1.45933   0.75184   0.86200
  16   29161.2    342.9   0.018023734   0.20348  -0.11399   0.33352  -0.28151
  17   29417.5    339.9   0.073447554   0.82195  -0.15373   0.78947  -0.41840
  18   29713.7    336.5   0.167344069   1.85408  -0.61146   0.84271  -0.87751
  19   30548.1    327.4   0.017066355   0.18392  -0.27152  -0.18446   0.27599
  20   30974.4    322.8   0.037307220   0.39652  -0.42174   0.36699  -0.28978
  21   31474.3    317.7   0.052521054   0.54935   0.04837   0.73819  -0.04579
  22   31492.8    317.5   0.243666106   2.54718  -0.61552   1.46930   0.09735
  23   31586.5    316.6   0.016987756   0.17706  -0.05642   0.41232   0.06217
  24   32217.3    310.4   0.011614851   0.11869  -0.30275   0.01500   0.16372
  25   32452.5    308.1   0.075882089   0.76978  -0.27044   0.83460  -0.00921
  26   32751.7    305.3   0.206374606   2.07443   0.08963  -1.30110   0.61117
  27   33294.2    300.4   0.002919640   0.02887  -0.01632   0.15629  -0.06464
  28   33580.4    297.8   0.041519415   0.40704  -0.33577   0.44136  -0.31545
  29   33643.8    297.2   0.063115475   0.61760  -0.23307   0.71564  -0.22614
  30   34007.0    294.1   0.599584583   5.80441  -1.82723   0.51980   1.48170
  31   34230.6    292.1   0.001215138   0.01169  -0.06399  -0.04359   0.07544
  32   34514.0    289.7   0.012192002   0.11629   0.05520   0.17325   0.28849
  33   35013.4    285.6   0.004407179   0.04144   0.03256   0.12630  -0.15629
  34   35173.5    284.3   0.131430061   1.23014  -0.58770  -0.90853  -0.24355
  35   35430.5    282.2   0.294817461   2.73938   0.90347   1.38576   0.05289
  36   35742.9    279.8   0.004799755   0.04421  -0.02483  -0.02793  -0.20691
  37   35957.8    278.1   0.026045456   0.23846   0.42202   0.09236   0.22767
  38   36153.3    276.6   0.000410250   0.00374  -0.01911  -0.05804   0.00138
  39   37169.9    269.0   0.298480105   2.64362  -0.13957   1.58439   0.33742
  40   37300.6    268.1   0.002664708   0.02352   0.07053  -0.13614  -0.00317
  41   37609.3    265.9   0.248433857   2.17466   0.00096  -1.42947   0.36230
  42   37699.9    265.3   0.007195517   0.06283   0.09374  -0.19184   0.13132
  43   37926.7    263.7   0.162017196   1.40635  -0.11268  -1.14561   0.28500
  44   38367.7    260.6   0.003150262   0.02703  -0.06896  -0.11079   0.10000
  45   38475.9    259.9   0.064543480   0.55225   0.09263  -0.64654   0.35448
  46   38569.3    259.3   0.019354587   0.16520  -0.39385   0.10014   0.00740
  47   38639.1    258.8   0.016113108   0.13729  -0.16374  -0.23025   0.23971
  48   38681.7    258.5   0.007118444   0.06058   0.24484  -0.01718   0.01850
  49   39111.8    255.7   0.006190447   0.05211  -0.03590  -0.22387  -0.02646
  50   39241.9    254.8   0.118856953   0.99713   0.55073   0.83165   0.04671
  51   39393.1    253.9   0.003706119   0.03097   0.08047  -0.09322  -0.12573
  52   39573.8    252.7   0.053212809   0.44267   0.29823  -0.00371   0.59474
  53   39830.1    251.1   0.019088965   0.15778  -0.21690   0.27666   0.18492
  54   40183.3    248.9   0.178407611   1.46165   0.18927  -1.17361   0.22012
  55   40256.7    248.4   0.017213245   0.14077  -0.17864   0.28187  -0.17147

FINAL SINGLE POINT ENERGY     -7607.023986825079

DIPOLE MOMENT
-------------
                                X             Y             Z
Electronic contribution:    129.73096    -155.77766     -34.61962
Nuclear contribution   :   -128.51588     157.89797      33.65245
                        -----------------------------------------
Total Dipole Moment    :      1.21508       2.12031      -0.96717
                        -----------------------------------------
Magnitude (a.u.)       :      2.62822
Magnitude (Debye)      :      6.68040

Rotational constants in cm-1:     0.000661     0.000273     0.000207
Rotational constants in MHz :    19.830535     8.181315     6.212962

                             ****ORCA TERMINATED NORMALLY****
TOTAL RUN TIME: 0 days 0 hours 15 minutes 32 seconds 179 msec
