                         Program Version 4.2.0 -  RELEASE  -
|  1> # ORCA input file
|  2> # SCF done       -199.807151933904          0.000771196425
|  3> ! CAM-B3LYP def2-SVP def2/J RIJCOSX Grid4 TightSCF
|  4> %maxcore 5000
|  5> %tddft
|  6>     Mode sTDDFT
|  7>     Ethresh 5.0
|  8>     maxcore 5000
|  9> end
| 10>
| 11> %pal
| 12>   nprocs 6
| 13>   end
| 14> * xyz 0 1
| 15>    C       -6.67574         3.05544         3.61576
| 16>    C       -5.61163         3.18358         4.46984
| 17>    C       -5.50080         2.50727         5.70289
| 18>    N       -5.35248         1.97842         6.71071
| 19>    C       -4.50041         4.02171         4.24410
| 20>    N       -3.58024         4.69689         4.11595
| 21>    C       -7.87850         2.27123         3.86378
| 22>    C       -8.78694         2.47994         2.79656
| 23>    C      -10.02181         1.88068         2.74434
| 24>    C      -10.38057         1.03527         3.79941
| 25>    C       -9.46599         0.82936         4.86064
| 26>    C       -8.21640         1.43480         4.91149
| 27>    S      -10.10762        -0.25661         6.05455
| 28>    C      -11.57580        -0.41518         5.12812
| 29>    C      -11.58699         0.30666         3.98163
| 30>   Br      -12.95165        -1.52204         5.75715
| 31>    C       -8.18833         3.39767         1.81417
| 32>    O       -8.66139         3.72889         0.74424
| 33>    C       -6.85223         3.73785         2.34757
| 34>    C       -5.87651         4.40132         1.65813
| 35>    N       -6.03786         5.18078         0.56562
| 36>    C       -7.16436         5.86724         0.18490
| 37>    S       -8.25389         6.47936         1.38518
| 38>    C       -9.24752         7.13610         0.13437
| 39>    N      -10.42832         7.78962         0.51550
| 40>    O      -11.13245         8.24643        -0.36302
| 41>    O      -10.65683         7.84897         1.71066
| 42>    C       -8.75790         6.91047        -1.12204
| 43>    C       -7.53555         6.20669        -1.11606
| 44>    C       -6.86800         5.87255        -2.35231
| 45>    C       -5.54718         5.72428        -2.56417
| 46>    C       -4.96407         5.40270        -3.82785
| 47>    S       -3.21210         5.45724        -3.97912
| 48>    C       -3.31195         4.98729        -5.63230
| 49>    C       -4.64191         4.79684        -6.02223
| 50>    C       -5.57098         5.03344        -5.00689
| 51>    S       -4.79131         4.30283        -7.68491
| 52>    C       -3.05952         4.35474        -7.85092
| 53>    C       -2.18801         4.08746        -8.90994
| 54>    C       -0.87063         4.26748        -8.55325
| 55>    S       -0.69793         4.77986        -6.88138
| 56>    C       -2.41102         4.73950        -6.67380
| 57>    C        0.26542         4.07412        -9.39218
| 58>    C        1.53346         4.26232        -8.98591
| 59>    N        2.62373         4.03574        -9.79113
| 60>    C        3.90812         4.30700        -9.46114
| 61>    S        5.19583         3.35938       -10.13875
| 62>    C        6.33321         4.20842        -9.13408
| 63>    N        7.68480         3.88068        -9.26775
| 64>    O        8.48342         4.47223        -8.56473
| 65>    O        7.95967         3.01877       -10.08637
| 66>    C        5.74924         5.14968        -8.33026
| 67>    C        4.35946         5.24783        -8.52487
| 68>    C        3.52245         6.25784        -7.93210
| 69>    C        3.68662         6.74590        -6.68625
| 70>    C        2.85659         7.76062        -6.13361
| 71>    C        2.65386         7.98874        -4.81014
| 72>    C        2.99092         7.17620        -3.66066
| 73>    C        3.03846         5.80540        -3.63848
| 74>    C        3.29765         5.05105        -2.47555
| 75>    N        3.51724         4.40202        -1.55523
| 76>    C        2.71047         5.00413        -4.75028
| 77>    N        2.39879         4.32115        -5.61971
| 78>    C        3.01400         8.05740        -2.50057
| 79>    C        2.47540         9.31554        -2.87757
| 80>    C        2.13713         9.29391        -4.31609
| 81>    O        1.60319        10.15872        -4.96986
| 82>    C        2.33878        10.35224        -1.98682
| 83>    C        2.76209        10.14251        -0.66965
| 84>    C        3.30626         8.88601        -0.30703
| 85>    C        3.43601         7.83288        -1.20428
| 86>    S        3.77499         8.85094         1.36464
| 87>    C        3.23931        10.49943         1.55436
| 88>    C        2.73524        11.05003         0.42370
| 89>   Br        3.39873        11.33816         3.22349
| 90>    H      -10.69187         2.06207         1.91875
| 91>    H       -7.55449         1.24331         5.73940
| 92>    H      -12.41130         0.32515         3.29229
| 93>    H       -4.84348         4.28930         1.96322
| 94>    H       -5.22787         5.29717        -0.02881
| 95>    H       -9.25952         7.24754        -2.01110
| 96>    H       -7.53569         5.78790        -3.19777
| 97>    H       -4.82646         5.90075        -1.77606
| 98>    H       -6.63180         4.92564        -5.13065
| 99>    H       -2.50243         3.77557        -9.88862
|100>    H        0.05468         3.75795       -10.40545
|101>    H        1.75808         4.56930        -7.97408
|102>    H        2.46901         3.48585       -10.62731
|103>    H        6.31941         5.77679        -7.66942
|104>    H        2.69248         6.61016        -8.53103
|105>    H        4.45854         6.32983        -6.05246
|106>    H        2.38728         8.45799        -6.81852
|107>    H        1.92071        11.29757        -2.29529
|108>    H        3.86232         6.89467        -0.88883
|109>    H        2.36132        12.05563         0.36190
|110> *
|111>
|112>                          ****END OF INPUT****

CARTESIAN COORDINATES (ANGSTROEM)
---------------------------------
  C     -6.675740    3.055440    3.615760
  C     -5.611630    3.183580    4.469840
  C     -5.500800    2.507270    5.702890
  N     -5.352480    1.978420    6.710710
  C     -4.500410    4.021710    4.244100
  N     -3.580240    4.696890    4.115950
  C     -7.878500    2.271230    3.863780
  C     -8.786940    2.479940    2.796560
  C    -10.021810    1.880680    2.744340
  C    -10.380570    1.035270    3.799410
  C     -9.465990    0.829360    4.860640
  C     -8.216400    1.434800    4.911490
  S    -10.107620   -0.256610    6.054550
  C    -11.575800   -0.415180    5.128120
  C    -11.586990    0.306660    3.981630
  Br   -12.951650   -1.522040    5.757150
  C     -8.188330    3.397670    1.814170
  O     -8.661390    3.728890    0.744240
  C     -6.852230    3.737850    2.347570
  C     -5.876510    4.401320    1.658130
  N     -6.037860    5.180780    0.565620
  C     -7.164360    5.867240    0.184900
  S     -8.253890    6.479360    1.385180
  C     -9.247520    7.136100    0.134370
  N    -10.428320    7.789620    0.515500
  O    -11.132450    8.246430   -0.363020
  O    -10.656830    7.848970    1.710660
  C     -8.757900    6.910470   -1.122040
  C     -7.535550    6.206690   -1.116060
  C     -6.868000    5.872550   -2.352310
  C     -5.547180    5.724280   -2.564170
  C     -4.964070    5.402700   -3.827850
  S     -3.212100    5.457240   -3.979120
  C     -3.311950    4.987290   -5.632300
  C     -4.641910    4.796840   -6.022230
  C     -5.570980    5.033440   -5.006890
  S     -4.791310    4.302830   -7.684910
  C     -3.059520    4.354740   -7.850920
  C     -2.188010    4.087460   -8.909940
  C     -0.870630    4.267480   -8.553250
  S     -0.697930    4.779860   -6.881380
  C     -2.411020    4.739500   -6.673800
  C      0.265420    4.074120   -9.392180
  C      1.533460    4.262320   -8.985910
  N      2.623730    4.035740   -9.791130
  C      3.908120    4.307000   -9.461140
  S      5.195830    3.359380  -10.138750
  C      6.333210    4.208420   -9.134080
  N      7.684800    3.880680   -9.267750
  O      8.483420    4.472230   -8.564730
  O      7.959670    3.018770  -10.086370
  C      5.749240    5.149680   -8.330260
  C      4.359460    5.247830   -8.524870
  C      3.522450    6.257840   -7.932100
  C      3.686620    6.745900   -6.686250
  C      2.856590    7.760620   -6.133610
  C      2.653860    7.988740   -4.810140
  C      2.990920    7.176200   -3.660660
  C      3.038460    5.805400   -3.638480
  C      3.297650    5.051050   -2.475550
  N      3.517240    4.402020   -1.555230
  C      2.710470    5.004130   -4.750280
  N      2.398790    4.321150   -5.619710
  C      3.014000    8.057400   -2.500570
  C      2.475400    9.315540   -2.877570
  C      2.137130    9.293910   -4.316090
  O      1.603190   10.158720   -4.969860
  C      2.338780   10.352240   -1.986820
  C      2.762090   10.142510   -0.669650
  C      3.306260    8.886010   -0.307030
  C      3.436010    7.832880   -1.204280
  S      3.774990    8.850940    1.364640
  C      3.239310   10.499430    1.554360
  C      2.735240   11.050030    0.423700
  Br     3.398730   11.338160    3.223490
  H    -10.691870    2.062070    1.918750
  H     -7.554490    1.243310    5.739400
  H    -12.411300    0.325150    3.292290
  H     -4.843480    4.289300    1.963220
  H     -5.227870    5.297170   -0.028810
  H     -9.259520    7.247540   -2.011100
  H     -7.535690    5.787900   -3.197770
  H     -4.826460    5.900750   -1.776060
  H     -6.631800    4.925640   -5.130650
  H     -2.502430    3.775570   -9.888620
  H      0.054680    3.757950  -10.405450
  H      1.758080    4.569300   -7.974080
  H      2.469010    3.485850  -10.627310
  H      6.319410    5.776790   -7.669420
  H      2.692480    6.610160   -8.531030
  H      4.458540    6.329830   -6.052460
  H      2.387280    8.457990   -6.818520
  H      1.920710   11.297570   -2.295290
  H      3.862320    6.894670   -0.888830
  H      2.361320   12.055630    0.361900

 Total Charge           Charge          ....    0
 Multiplicity           Mult            ....    1
 Number of Electrons    NEL             ....  618
 Basis Dimension        Dim             .... 1214

ORBITAL ENERGIES
----------------

  NO   OCC          E(Eh)            E(eV)
   0   2.0000    -482.889214    -13140.0836
   1   2.0000    -482.886781    -13140.0173
   2   2.0000     -88.989303     -2421.5220
   3   2.0000     -88.982722     -2421.3430
   4   2.0000     -88.981027     -2421.2968
   5   2.0000     -88.977414     -2421.1985
   6   2.0000     -88.967556     -2420.9303
   7   2.0000     -88.961704     -2420.7710
   8   2.0000     -88.961151     -2420.7560
   9   2.0000     -62.566943     -1702.5331
  10   2.0000     -62.564516     -1702.4670
  11   2.0000     -56.400906     -1534.7467
  12   2.0000     -56.398470     -1534.6804
  13   2.0000     -56.398166     -1534.6721
  14   2.0000     -56.398138     -1534.6714
  15   2.0000     -56.395744     -1534.6062
  16   2.0000     -56.395716     -1534.6054
  17   2.0000     -19.238009      -523.4929
  18   2.0000     -19.237971      -523.4918
  19   2.0000     -19.237871      -523.4891
  20   2.0000     -19.237318      -523.4740
  21   2.0000     -19.222421      -523.0687
  22   2.0000     -19.220196      -523.0081
  23   2.0000     -14.649820      -398.6419
  24   2.0000     -14.649598      -398.6358
  25   2.0000     -14.505312      -394.7096
  26   2.0000     -14.490801      -394.3147
  27   2.0000     -14.427948      -392.6044
  28   2.0000     -14.424442      -392.5090
  29   2.0000     -14.421349      -392.4249
  30   2.0000     -14.417136      -392.3102
  31   2.0000     -10.378536      -282.4143
  32   2.0000     -10.373649      -282.2813
  33   2.0000     -10.372684      -282.2551
  34   2.0000     -10.372149      -282.2405
  35   2.0000     -10.368697      -282.1466
  36   2.0000     -10.363941      -282.0172
  37   2.0000     -10.360684      -281.9285
  38   2.0000     -10.353695      -281.7384
  39   2.0000     -10.351114      -281.6681
  40   2.0000     -10.347826      -281.5787
  41   2.0000     -10.345659      -281.5197
  42   2.0000     -10.344709      -281.4938
  43   2.0000     -10.343070      -281.4492
  44   2.0000     -10.332169      -281.1526
  45   2.0000     -10.331911      -281.1456
  46   2.0000     -10.331492      -281.1342
  47   2.0000     -10.327597      -281.0282
  48   2.0000     -10.326634      -281.0020
  49   2.0000     -10.324454      -280.9427
  50   2.0000     -10.323179      -280.9080
  51   2.0000     -10.320228      -280.8277
  52   2.0000     -10.316188      -280.7178
  53   2.0000     -10.315869      -280.7091
  54   2.0000     -10.315737      -280.7055
  55   2.0000     -10.313945      -280.6567
  56   2.0000     -10.313932      -280.6564
  57   2.0000     -10.313351      -280.6406
  58   2.0000     -10.313264      -280.6382
  59   2.0000     -10.311725      -280.5963
  60   2.0000     -10.310961      -280.5755
  61   2.0000     -10.309922      -280.5473
  62   2.0000     -10.308671      -280.5132
  63   2.0000     -10.308054      -280.4964
  64   2.0000     -10.307460      -280.4802
  65   2.0000     -10.307410      -280.4789
  66   2.0000     -10.306455      -280.4529
  67   2.0000     -10.306223      -280.4466
  68   2.0000     -10.305045      -280.4145
  69   2.0000     -10.304933      -280.4115
  70   2.0000     -10.304908      -280.4108
  71   2.0000     -10.303660      -280.3768
  72   2.0000     -10.303639      -280.3763
  73   2.0000     -10.303154      -280.3631
  74   2.0000     -10.301424      -280.3160
  75   2.0000     -10.300334      -280.2863
  76   2.0000     -10.300079      -280.2794
  77   2.0000     -10.298339      -280.2320
  78   2.0000     -10.298226      -280.2290
  79   2.0000     -10.295505      -280.1549
  80   2.0000     -10.291177      -280.0372
  81   2.0000     -10.290624      -280.0221
  82   2.0000     -10.285443      -279.8811
  83   2.0000      -8.796385      -239.3618
  84   2.0000      -8.793967      -239.2960
  85   2.0000      -8.085225      -220.0102
  86   2.0000      -8.078042      -219.8147
  87   2.0000      -8.077023      -219.7870
  88   2.0000      -8.073425      -219.6891
  89   2.0000      -8.062859      -219.4015
  90   2.0000      -8.056667      -219.2331
  91   2.0000      -8.056378      -219.2252
  92   2.0000      -6.632751      -180.4863
  93   2.0000      -6.630305      -180.4198
  94   2.0000      -6.618100      -180.0876
  95   2.0000      -6.617865      -180.0813
  96   2.0000      -6.615694      -180.0222
  97   2.0000      -6.615469      -180.0161
  98   2.0000      -6.054913      -164.7626
  99   2.0000      -6.050556      -164.6440
 100   2.0000      -6.047660      -164.5652
 101   2.0000      -6.046715      -164.5395
 102   2.0000      -6.046513      -164.5340
 103   2.0000      -6.043235      -164.4448
 104   2.0000      -6.043105      -164.4412
 105   2.0000      -6.042415      -164.4225
 106   2.0000      -6.039571      -164.3451
 107   2.0000      -6.038827      -164.3248
 108   2.0000      -6.038250      -164.3091
 109   2.0000      -6.034657      -164.2114
 110   2.0000      -6.032337      -164.1482
 111   2.0000      -6.028387      -164.0408
 112   2.0000      -6.026252      -163.9826
 113   2.0000      -6.026071      -163.9777
 114   2.0000      -6.024476      -163.9343
 115   2.0000      -6.022314      -163.8755
 116   2.0000      -6.022188      -163.8721
 117   2.0000      -6.018138      -163.7619
 118   2.0000      -6.017357      -163.7406
 119   2.0000      -2.748580       -74.7927
 120   2.0000      -2.746129       -74.7260
 121   2.0000      -2.744485       -74.6812
 122   2.0000      -2.744371       -74.6781
 123   2.0000      -2.742071       -74.6155
 124   2.0000      -2.741949       -74.6122
 125   2.0000      -2.732699       -74.3605
 126   2.0000      -2.732679       -74.3600
 127   2.0000      -2.730309       -74.2955
 128   2.0000      -2.730288       -74.2949
 129   2.0000      -1.319890       -35.9160
 130   2.0000      -1.318756       -35.8852
 131   2.0000      -1.139036       -30.9947
 132   2.0000      -1.138024       -30.9672
 133   2.0000      -1.137534       -30.9539
 134   2.0000      -1.137484       -30.9525
 135   2.0000      -1.102387       -29.9975
 136   2.0000      -1.095698       -29.8155
 137   2.0000      -1.031280       -28.0626
 138   2.0000      -1.026246       -27.9256
 139   2.0000      -1.021706       -27.8020
 140   2.0000      -1.021473       -27.7957
 141   2.0000      -1.016749       -27.6672
 142   2.0000      -1.009129       -27.4598
 143   2.0000      -1.007592       -27.4180
 144   2.0000      -1.004900       -27.3447
 145   2.0000      -0.998381       -27.1673
 146   2.0000      -0.997864       -27.1533
 147   2.0000      -0.992192       -26.9989
 148   2.0000      -0.983473       -26.7617
 149   2.0000      -0.952619       -25.9221
 150   2.0000      -0.945216       -25.7206
 151   2.0000      -0.939399       -25.5624
 152   2.0000      -0.935921       -25.4677
 153   2.0000      -0.919654       -25.0251
 154   2.0000      -0.915678       -24.9169
 155   2.0000      -0.911497       -24.8031
 156   2.0000      -0.907521       -24.6949
 157   2.0000      -0.898711       -24.4552
 158   2.0000      -0.896647       -24.3990
 159   2.0000      -0.892852       -24.2957
 160   2.0000      -0.888438       -24.1756
 161   2.0000      -0.885285       -24.0898
 162   2.0000      -0.878421       -23.9031
 163   2.0000      -0.869897       -23.6711
 164   2.0000      -0.863320       -23.4921
 165   2.0000      -0.852774       -23.2052
 166   2.0000      -0.843572       -22.9548
 167   2.0000      -0.837759       -22.7966
 168   2.0000      -0.836905       -22.7734
 169   2.0000      -0.832451       -22.6521
 170   2.0000      -0.831658       -22.6306
 171   2.0000      -0.802555       -21.8386
 172   2.0000      -0.796267       -21.6675
 173   2.0000      -0.791079       -21.5264
 174   2.0000      -0.784720       -21.3533
 175   2.0000      -0.772618       -21.0240
 176   2.0000      -0.766635       -20.8612
 177   2.0000      -0.762526       -20.7494
 178   2.0000      -0.758423       -20.6378
 179   2.0000      -0.745579       -20.2882
 180   2.0000      -0.720790       -19.6137
 181   2.0000      -0.719141       -19.5688
 182   2.0000      -0.714066       -19.4307
 183   2.0000      -0.709115       -19.2960
 184   2.0000      -0.704273       -19.1642
 185   2.0000      -0.695572       -18.9275
 186   2.0000      -0.692203       -18.8358
 187   2.0000      -0.682710       -18.5775
 188   2.0000      -0.680082       -18.5060
 189   2.0000      -0.672532       -18.3005
 190   2.0000      -0.664721       -18.0880
 191   2.0000      -0.661020       -17.9873
 192   2.0000      -0.656382       -17.8611
 193   2.0000      -0.656209       -17.8564
 194   2.0000      -0.645145       -17.5553
 195   2.0000      -0.643609       -17.5135
 196   2.0000      -0.639005       -17.3882
 197   2.0000      -0.635333       -17.2883
 198   2.0000      -0.633963       -17.2510
 199   2.0000      -0.631154       -17.1746
 200   2.0000      -0.630993       -17.1702
 201   2.0000      -0.630651       -17.1609
 202   2.0000      -0.630053       -17.1446
 203   2.0000      -0.625031       -17.0079
 204   2.0000      -0.610971       -16.6254
 205   2.0000      -0.609691       -16.5905
 206   2.0000      -0.607491       -16.5307
 207   2.0000      -0.605946       -16.4886
 208   2.0000      -0.601776       -16.3751
 209   2.0000      -0.597142       -16.2491
 210   2.0000      -0.588559       -16.0155
 211   2.0000      -0.587810       -15.9951
 212   2.0000      -0.585347       -15.9281
 213   2.0000      -0.579314       -15.7639
 214   2.0000      -0.573648       -15.6098
 215   2.0000      -0.565319       -15.3831
 216   2.0000      -0.563324       -15.3288
 217   2.0000      -0.559642       -15.2286
 218   2.0000      -0.556853       -15.1527
 219   2.0000      -0.551967       -15.0198
 220   2.0000      -0.551441       -15.0055
 221   2.0000      -0.546330       -14.8664
 222   2.0000      -0.544837       -14.8258
 223   2.0000      -0.543946       -14.8015
 224   2.0000      -0.543504       -14.7895
 225   2.0000      -0.539006       -14.6671
 226   2.0000      -0.533796       -14.5253
 227   2.0000      -0.531906       -14.4739
 228   2.0000      -0.526789       -14.3347
 229   2.0000      -0.524630       -14.2759
 230   2.0000      -0.520790       -14.1714
 231   2.0000      -0.519885       -14.1468
 232   2.0000      -0.518059       -14.0971
 233   2.0000      -0.515022       -14.0145
 234   2.0000      -0.514465       -13.9993
 235   2.0000      -0.512897       -13.9566
 236   2.0000      -0.511709       -13.9243
 237   2.0000      -0.508396       -13.8342
 238   2.0000      -0.504719       -13.7341
 239   2.0000      -0.504152       -13.7187
 240   2.0000      -0.500937       -13.6312
 241   2.0000      -0.499416       -13.5898
 242   2.0000      -0.498464       -13.5639
 243   2.0000      -0.497004       -13.5242
 244   2.0000      -0.484080       -13.1725
 245   2.0000      -0.482945       -13.1416
 246   2.0000      -0.481411       -13.0999
 247   2.0000      -0.480244       -13.0681
 248   2.0000      -0.479000       -13.0343
 249   2.0000      -0.471727       -12.8363
 250   2.0000      -0.467110       -12.7107
 251   2.0000      -0.465783       -12.6746
 252   2.0000      -0.464000       -12.6261
 253   2.0000      -0.461598       -12.5607
 254   2.0000      -0.461270       -12.5518
 255   2.0000      -0.460456       -12.5296
 256   2.0000      -0.457071       -12.4375
 257   2.0000      -0.453658       -12.3447
 258   2.0000      -0.453509       -12.3406
 259   2.0000      -0.452574       -12.3152
 260   2.0000      -0.451422       -12.2838
 261   2.0000      -0.449564       -12.2333
 262   2.0000      -0.448333       -12.1998
 263   2.0000      -0.447229       -12.1697
 264   2.0000      -0.446157       -12.1405
 265   2.0000      -0.444943       -12.1075
 266   2.0000      -0.442853       -12.0507
 267   2.0000      -0.441846       -12.0232
 268   2.0000      -0.437670       -11.9096
 269   2.0000      -0.431197       -11.7335
 270   2.0000      -0.429405       -11.6847
 271   2.0000      -0.428284       -11.6542
 272   2.0000      -0.424585       -11.5535
 273   2.0000      -0.422378       -11.4935
 274   2.0000      -0.418618       -11.3912
 275   2.0000      -0.415378       -11.3030
 276   2.0000      -0.411658       -11.2018
 277   2.0000      -0.410667       -11.1748
 278   2.0000      -0.400521       -10.8987
 279   2.0000      -0.393569       -10.7096
 280   2.0000      -0.392776       -10.6880
 281   2.0000      -0.389309       -10.5936
 282   2.0000      -0.385830       -10.4990
 283   2.0000      -0.385324       -10.4852
 284   2.0000      -0.380313       -10.3489
 285   2.0000      -0.379586       -10.3290
 286   2.0000      -0.378548       -10.3008
 287   2.0000      -0.377604       -10.2751
 288   2.0000      -0.376254       -10.2384
 289   2.0000      -0.372758       -10.1433
 290   2.0000      -0.372278       -10.1302
 291   2.0000      -0.366690        -9.9781
 292   2.0000      -0.366348        -9.9688
 293   2.0000      -0.355723        -9.6797
 294   2.0000      -0.354633        -9.6500
 295   2.0000      -0.350851        -9.5472
 296   2.0000      -0.341334        -9.2882
 297   2.0000      -0.336914        -9.1679
 298   2.0000      -0.330238        -8.9862
 299   2.0000      -0.326942        -8.8965
 300   2.0000      -0.321643        -8.7523
 301   2.0000      -0.317693        -8.6449
 302   2.0000      -0.308279        -8.3887
 303   2.0000      -0.300645        -8.1810
 304   2.0000      -0.297008        -8.0820
 305   2.0000      -0.291241        -7.9251
 306   2.0000      -0.288085        -7.8392
 307   2.0000      -0.275327        -7.4920
 308   2.0000      -0.238555        -6.4914
 309   0.0000      -0.096856        -2.6356
 310   0.0000      -0.088885        -2.4187
 311   0.0000      -0.066824        -1.8184
 312   0.0000      -0.066116        -1.7991
 313   0.0000      -0.061644        -1.6774

MULLIKEN ATOMIC CHARGES
-----------------------
   0 C :    0.302985
   1 C :   -0.339807
   2 C :   -0.182751
   3 N :    0.149697
   4 C :   -0.212961
   5 N :    0.151316
   6 C :    0.013259
   7 C :   -0.004184
   8 C :   -0.070514
   9 C :    0.120882
  10 C :   -0.091674
  11 C :   -0.022215
  12 S :    0.189090
  13 C :   -0.123955
  14 C :    0.038196
  15 Br:    0.026455
  16 C :    0.154146
  17 O :   -0.151930
  18 C :   -0.159938
  19 C :    0.037307
  20 N :   -0.006666
  21 C :   -0.097330
  22 S :    0.190160
  23 C :    0.007331
  24 N :    0.275343
  25 O :   -0.247788
  26 O :   -0.261233
  27 C :   -0.001727
  28 C :    0.139356
  29 C :   -0.016832
  30 C :    0.038927
  31 C :   -0.092638
  32 S :    0.137599
  33 C :   -0.072415
  34 C :   -0.037233
  35 C :   -0.033280
  36 S :    0.149194
  37 C :   -0.020658
  38 C :   -0.048762
  39 C :   -0.054421
  40 S :    0.133869
  41 C :   -0.081847
  42 C :    0.010608
  43 C :    0.018628
  44 N :   -0.025083
  45 C :   -0.091863
  46 S :    0.175408
  47 C :   -0.016388
  48 N :    0.278858
  49 O :   -0.251398
  50 O :   -0.267628
  51 C :    0.016080
  52 C :    0.077957
  53 C :   -0.030903
  54 C :   -0.008829
  55 C :    0.039234
  56 C :   -0.116354
  57 C :    0.257379
  58 C :   -0.330521
  59 C :   -0.178984
  60 N :    0.157523
  61 C :   -0.176547
  62 N :    0.154169
  63 C :    0.010321
  64 C :   -0.005989
  65 C :    0.142798
  66 O :   -0.136107
  67 C :   -0.069445
  68 C :    0.111328
  69 C :   -0.087054
  70 C :   -0.020432
  71 S :    0.191674
  72 C :   -0.126259
  73 C :    0.043987
  74 Br:    0.030489
  75 H :   -0.008440
  76 H :   -0.005692
  77 H :   -0.000898
  78 H :    0.049856
  79 H :    0.155801
  80 H :    0.007100
  81 H :    0.001992
  82 H :   -0.033294
  83 H :   -0.012687
  84 H :   -0.020136
  85 H :   -0.020986
  86 H :    0.066606
  87 H :    0.136921
  88 H :    0.012880
  89 H :    0.031411
  90 H :    0.026962
  91 H :    0.023716
  92 H :   -0.006815
  93 H :   -0.001072
  94 H :   -0.002234
Sum of atomic charges:    0.0000000

LOEWDIN ATOMIC CHARGES
----------------------
   0 C :    0.081779
   1 C :   -0.148109
   2 C :   -0.019267
   3 N :   -0.052546
   4 C :   -0.024406
   5 N :   -0.057122
   6 C :   -0.022555
   7 C :   -0.048989
   8 C :    0.023596
   9 C :   -0.031211
  10 C :   -0.144640
  11 C :   -0.007406
  12 S :    0.435194
  13 C :   -0.270970
  14 C :   -0.069733
  15 Br:    0.139163
  16 C :    0.071261
  17 O :   -0.154895
  18 C :   -0.148037
  19 C :    0.103570
  20 N :    0.066948
  21 C :   -0.106196
  22 S :    0.494000
  23 C :   -0.199640
  24 N :    0.274103
  25 O :   -0.212559
  26 O :   -0.227214
  27 C :   -0.000406
  28 C :   -0.079761
  29 C :   -0.017445
  30 C :   -0.050767
  31 C :   -0.168820
  32 S :    0.419203
  33 C :   -0.215234
  34 C :   -0.193585
  35 C :   -0.061366
  36 S :    0.403071
  37 C :   -0.191443
  38 C :   -0.077034
  39 C :   -0.151108
  40 S :    0.428754
  41 C :   -0.221149
  42 C :   -0.089100
  43 C :    0.022944
  44 N :    0.039748
  45 C :   -0.091157
  46 S :    0.452304
  47 C :   -0.210742
  48 N :    0.273735
  49 O :   -0.217694
  50 O :   -0.232870
  51 C :    0.009902
  52 C :   -0.111818
  53 C :    0.026453
  54 C :   -0.040671
  55 C :    0.069508
  56 C :   -0.091348
  57 C :    0.073287
  58 C :   -0.141429
  59 C :   -0.021903
  60 N :   -0.045675
  61 C :   -0.004896
  62 N :   -0.059645
  63 C :   -0.021289
  64 C :   -0.052909
  65 C :    0.082976
  66 O :   -0.137794
  67 C :    0.023754
  68 C :   -0.031752
  69 C :   -0.143364
  70 C :   -0.010178
  71 S :    0.437180
  72 C :   -0.269781
  73 C :   -0.070042
  74 Br:    0.142142
  75 H :    0.041842
  76 H :    0.041433
  77 H :    0.039579
  78 H :    0.045497
  79 H :    0.098612
  80 H :    0.045009
  81 H :    0.035010
  82 H :    0.016823
  83 H :    0.032769
  84 H :    0.031375
  85 H :    0.031204
  86 H :    0.030251
  87 H :    0.094650
  88 H :    0.046666
  89 H :    0.039001
  90 H :    0.034252
  91 H :    0.047587
  92 H :    0.042313
  93 H :    0.041657
  94 H :    0.039569

  Mayer bond orders larger than 0.100000
B(  0-C ,  1-C ) :   1.6351 B(  0-C ,  6-C ) :   1.0143 B(  0-C , 18-C ) :   1.1017
B(  1-C ,  2-C ) :   1.1407 B(  1-C ,  4-C ) :   1.1403 B(  2-C ,  3-N ) :   2.9717
B(  4-C ,  5-N ) :   2.9882 B(  6-C ,  7-C ) :   1.2741 B(  6-C , 11-C ) :   1.4118
B(  7-C ,  8-C ) :   1.4258 B(  7-C , 16-C ) :   0.9479 B(  8-C ,  9-C ) :   1.2430
B(  8-C , 75-H ) :   1.0179 B(  9-C , 10-C ) :   1.3041 B(  9-C , 14-C ) :   1.1650
B( 10-C , 11-C ) :   1.3302 B( 10-C , 12-S ) :   1.0869 B( 11-C , 76-H ) :   0.9803
B( 12-S , 13-C ) :   1.0881 B( 13-C , 14-C ) :   1.6158 B( 13-C , 15-Br) :   1.0204
B( 14-C , 77-H ) :   1.0000 B( 16-C , 17-O ) :   2.2182 B( 16-C , 18-C ) :   0.9424
B( 18-C , 19-C ) :   1.5309 B( 19-C , 20-N ) :   1.2898 B( 19-C , 78-H ) :   0.9392
B( 20-N , 21-C ) :   1.1136 B( 20-N , 79-H ) :   0.9076 B( 21-C , 22-S ) :   1.1454
B( 21-C , 28-C ) :   1.4285 B( 22-S , 23-C ) :   1.1084 B( 23-C , 24-N ) :   0.9608
B( 23-C , 27-C ) :   1.4896 B( 24-N , 25-O ) :   1.5394 B( 24-N , 26-O ) :   1.5187
B( 25-O , 26-O ) :   0.2618 B( 27-C , 28-C ) :   1.2140 B( 27-C , 80-H ) :   1.0066
B( 28-C , 29-C ) :   1.0664 B( 29-C , 30-C ) :   1.7389 B( 29-C , 81-H ) :   0.9626
B( 30-C , 31-C ) :   1.1250 B( 30-C , 82-H ) :   0.9433 B( 31-C , 32-S ) :   1.0842
B( 31-C , 35-C ) :   1.5344 B( 32-S , 33-C ) :   1.0753 B( 33-C , 34-C ) :   1.4606
B( 33-C , 41-C ) :   1.3081 B( 34-C , 35-C ) :   1.2706 B( 34-C , 36-S ) :   1.0512
B( 35-C , 83-H ) :   0.9952 B( 36-S , 37-C ) :   1.0492 B( 37-C , 38-C ) :   1.2467
B( 37-C , 41-C ) :   1.4733 B( 38-C , 39-C ) :   1.5135 B( 38-C , 84-H ) :   1.0060
B( 39-C , 40-S ) :   1.0974 B( 39-C , 42-C ) :   1.1627 B( 40-S , 41-C ) :   1.0648
B( 42-C , 43-C ) :   1.6848 B( 42-C , 85-H ) :   0.9693 B( 43-C , 44-N ) :   1.1037
B( 43-C , 86-H ) :   0.9396 B( 44-N , 45-C ) :   1.2286 B( 44-N , 87-H ) :   0.9134
B( 45-C , 46-S ) :   1.1412 B( 45-C , 52-C ) :   1.3540 B( 46-S , 47-C ) :   1.0727
B( 47-C , 48-N ) :   0.9754 B( 47-C , 51-C ) :   1.4896 B( 48-N , 49-O ) :   1.5334
B( 48-N , 50-O ) :   1.5073 B( 49-O , 50-O ) :   0.2564 B( 51-C , 52-C ) :   1.2478
B( 51-C , 88-H ) :   1.0029 B( 52-C , 53-C ) :   1.0550 B( 53-C , 54-C ) :   1.7136
B( 53-C , 89-H ) :   0.9748 B( 54-C , 55-C ) :   1.1099 B( 54-C , 90-H ) :   0.9526
B( 55-C , 56-C ) :   1.6482 B( 55-C , 91-H ) :   0.9581 B( 56-C , 57-C ) :   1.0445
B( 56-C , 65-C ) :   0.9311 B( 57-C , 58-C ) :   1.6396 B( 57-C , 63-C ) :   1.0200
B( 58-C , 59-C ) :   1.1245 B( 58-C , 61-C ) :   1.1694 B( 59-C , 60-N ) :   2.9921
B( 61-C , 62-N ) :   2.9415 B( 63-C , 64-C ) :   1.2695 B( 63-C , 70-C ) :   1.4133
B( 64-C , 65-C ) :   0.9197 B( 64-C , 67-C ) :   1.4292 B( 65-C , 66-O ) :   2.2826
B( 67-C , 68-C ) :   1.2514 B( 67-C , 92-H ) :   1.0158 B( 68-C , 69-C ) :   1.3037
B( 68-C , 73-C ) :   1.1670 B( 69-C , 70-C ) :   1.3281 B( 69-C , 71-S ) :   1.0867
B( 70-C , 93-H ) :   0.9841 B( 71-S , 72-C ) :   1.0897 B( 72-C , 73-C ) :   1.6152
B( 72-C , 74-Br) :   1.0227 B( 73-C , 94-H ) :   1.0000

-----------------------------------------------------------------------------
         ABSORPTION SPECTRUM VIA TRANSITION ELECTRIC DIPOLE MOMENTS
-----------------------------------------------------------------------------
State   Energy  Wavelength   fosc         T2         TX        TY        TZ
        (cm-1)    (nm)                  (au**2)     (au)      (au)      (au)
-----------------------------------------------------------------------------
   0   16106.3    620.9   0.074800368   1.52892  -0.66874  -0.62738  -0.82952
   1   20248.3    493.9   0.532893273   8.66418   1.36953   0.79867  -2.48006
   2   23286.5    429.4   0.373741098   5.28375  -2.20527  -0.18634  -0.62114
   3   23951.1    417.5   0.574521203   7.89691   1.82857  -0.42822  -2.09042
   4   24133.2    414.4   0.795859105  10.85666  -2.84836   0.77456   1.46408
   5   25244.4    396.1   0.038500760   0.50209   0.52417  -0.40754   0.24746
   6   26042.8    384.0   0.318318689   4.02393  -0.54029   1.51214  -1.20227
   7   27337.0    365.8   0.097020669   1.16839   0.34555   0.60324   0.82770
   8   27835.0    359.3   0.063119322   0.74653  -0.62220  -0.53661   0.26729
   9   27959.5    357.7   0.549405644   6.46903   0.92275  -0.92251  -2.18324
  10   28544.5    350.3   0.265258202   3.05930   1.48933   0.70414  -0.58770
  11   29205.4    342.4   0.092593667   1.04374   0.52783   0.68176   0.54803
  12   29723.8    336.4   0.033674645   0.37297  -0.14411  -0.00921   0.59339
  13   29740.9    336.2   0.019474641   0.21557   0.01432   0.06442   0.45958
  14   29793.0    335.6   0.155349785   1.71661  -0.55520  -0.84580   0.83246
  15   30477.3    328.1   0.035482088   0.38327  -0.00197   0.61437  -0.07625
  16   30662.0    326.1   0.034051723   0.36561   0.03549   0.53305   0.28321
  17   31005.2    322.5   0.089992474   0.95554   0.51092   0.83190  -0.04939
  18   31125.1    321.3   0.473744377   5.01083  -0.68103   1.30107   1.68945
  19   31533.4    317.1   0.092124662   0.96179  -0.69461   0.18484   0.66719
  20   32156.0    311.0   0.162047092   1.65903  -0.67087  -0.40112  -1.02376
  21   32365.3    309.0   0.048555970   0.49390   0.56498   0.33701   0.24723
  22   32558.3    307.1   0.081496712   0.82405   0.72042   0.46822   0.29295
  23   32848.5    304.4   0.158518898   1.58870  -0.10046   1.07936   0.64311
  24   33414.8    299.3   0.358856919   3.53556  -0.31058   1.16053   1.44647
  25   33654.5    297.1   0.188858275   1.84743   0.05893   1.19916   0.63716
  26   33740.3    296.4   0.401688897   3.91937  -1.81410  -0.58843  -0.53119
  27   34465.1    290.1   0.211533179   2.02057   0.23768   0.88408   1.08742
  28   34686.5    288.3   0.063846528   0.60597  -0.56367   0.34483   0.41151
  29   34988.9    285.8   0.129767892   1.22099   1.06617  -0.14816   0.24963
  30   35332.3    283.0   0.020814346   0.19394   0.35925  -0.15173   0.20459
  31   35738.3    279.8   0.005276677   0.04861  -0.11285   0.06923   0.17630
  32   36133.3    276.8   0.088965432   0.81057   0.83526   0.31238   0.12383
  33   36431.9    274.5   0.013866584   0.12530  -0.16032   0.15073   0.27727
  34   36587.2    273.3   0.058788971   0.52898  -0.65324   0.26791   0.17460
  35   36806.0    271.7   0.096449671   0.86270  -0.08480   0.45670   0.80432
  36   37049.9    269.9   0.061048826   0.54246   0.22900  -0.37198  -0.59300
  37   37395.6    267.4   0.000183323   0.00161  -0.03933  -0.00642   0.00510
  38   37506.6    266.6   0.017539696   0.15395  -0.14606   0.03257   0.36271
  39   37864.8    264.1   0.001995475   0.01735  -0.06710  -0.03179  -0.10879
  40   37898.9    263.9   0.006483692   0.05632  -0.17503  -0.05642   0.15001
  41   38456.9    260.0   0.065787015   0.56317   0.70645   0.07279  -0.24249
  42   38590.5    259.1   0.153922554   1.31310   0.84080  -0.52491   0.57499
  43   38645.2    258.8   0.089064780   0.75873   0.56435   0.09450  -0.65674
  44   39009.8    256.3   0.022681558   0.19141  -0.40457   0.10111  -0.13235
  45   39678.7    252.0   0.025485473   0.21145   0.06962   0.01748   0.45420
  46   39877.4    250.8   0.106139847   0.87625  -0.56186  -0.25820   0.70278
  47   40150.9    249.1   0.064876970   0.53195   0.34992  -0.58594   0.25726

FINAL SINGLE POINT ENERGY    -10813.442883038178

DIPOLE MOMENT
-------------
                                X             Y             Z
Electronic contribution:    -49.74679     -11.00959     146.24392
Nuclear contribution   :     48.77496      11.30582    -148.71341
                        -----------------------------------------
Total Dipole Moment    :     -0.97184       0.29624      -2.46949
                        -----------------------------------------
Magnitude (a.u.)       :      2.67031
Magnitude (Debye)      :      6.78740

Rotational constants in cm-1:     0.000676     0.000222     0.000192
Rotational constants in MHz :    20.253491     6.651330     5.762880

                             ****ORCA TERMINATED NORMALLY****
TOTAL RUN TIME: 0 days 0 hours 9 minutes 5 seconds 76 msec
