                         Program Version 4.2.0 -  RELEASE  -
|  1> # ORCA input file
|  2> # SCF done       -197.735858971625          0.000830512287
|  3> ! CAM-B3LYP def2-SVP def2/J RIJCOSX Grid4 TightSCF
|  4> %maxcore 5000
|  5> %tddft
|  6>     Mode sTDDFT
|  7>     Ethresh 5.0
|  8>     maxcore 5000
|  9> end
| 10>
| 11> %pal
| 12>   nprocs 6
| 13>   end
| 14> * xyz 0 1
| 15>    C      -10.00376         1.56019         6.44273
| 16>    C       -9.55312         0.43826         7.09496
| 17>    C       -9.82142         0.15160         8.44891
| 18>    N      -10.01415        -0.14879         9.54073
| 19>    C       -8.76276        -0.59013         6.54455
| 20>    N       -8.10888        -1.47252         6.20451
| 21>    C      -10.78902         2.62678         7.05947
| 22>    C      -11.06858         3.60923         6.07897
| 23>    C      -11.78841         4.74646         6.34859
| 24>    C      -12.25820         4.92524         7.65438
| 25>    C      -11.97388         3.94038         8.62859
| 26>    C      -11.24456         2.78962         8.35409
| 27>    S      -12.64559         4.35965        10.17601
| 28>    C      -13.29045         5.83205         9.50049
| 29>    C      -13.01843         6.00332         8.18541
| 30>   Br      -14.26263         7.00422        10.59585
| 31>    C      -10.47008         3.19322         4.79530
| 32>    O      -10.52021         3.81234         3.74803
| 33>    C       -9.81739         1.90674         5.05067
| 34>    C       -9.17139         1.12819         4.12037
| 35>    C       -8.99705         1.29692         2.74277
| 36>    C       -8.38511         0.29157         1.96274
| 37>    C       -8.32237         0.66341         0.62647
| 38>    C       -8.90292         1.93221         0.36684
| 39>    S       -9.51751         2.68742         1.78563
| 40>    C       -8.79772         2.13312        -1.01054
| 41>    C       -8.17422         1.01550        -1.53757
| 42>    N       -7.89024         0.11211        -0.55989
| 43>    C       -7.22468        -1.15410        -0.74135
| 44>    C       -5.71589        -0.98909        -0.90416
| 45>    C       -7.92253         1.01682        -3.00209
| 46>    C       -8.80942         2.13788        -3.55991
| 47>    S       -9.20583         3.33880        -2.20972
| 48>    C       -7.81917        -0.93032         2.54501
| 49>    C       -6.46794        -1.03423         2.65953
| 50>    S       -5.93049        -2.44985         3.47298
| 51>    C       -7.57744        -2.94564         3.68862
| 52>    C       -8.50830        -2.05166         3.13297
| 53>    C       -9.89202        -2.30147         3.30311
| 54>    C      -10.89464        -1.44274         2.57504
| 55>    C      -10.89108        -1.80235         1.08607
| 56>    C      -10.30972        -3.38493         4.06736
| 57>    C      -11.70891        -3.42065         4.63120
| 58>    C      -11.87363        -2.28545         5.64827
| 59>    C       -9.37293        -4.36056         4.48405
| 60>    C       -9.56219        -5.64035         5.13173
| 61>    C       -8.37029        -6.17022         5.56065
| 62>    S       -6.98873        -5.27629         5.10211
| 63>    C       -8.00353        -4.09144         4.33640
| 64>    C      -10.72520        -6.47928         5.21749
| 65>    C      -11.73643        -6.53555         4.31070
| 66>    C      -12.84430        -7.41352         4.33441
| 67>    C      -13.13112        -8.43666         5.20345
| 68>    C      -14.29177        -9.25421         5.14586
| 69>    C      -14.34507       -10.23685         6.08680
| 70>    C      -13.22135       -10.26260         6.94161
| 71>    S      -12.11406        -8.97616         6.52870
| 72>    C      -12.91107       -11.13382         7.96771
| 73>    C      -13.65116       -12.21603         8.48837
| 74>    C      -13.01923       -12.87325         9.50027
| 75>    C      -11.73823       -12.35355         9.82727
| 76>    S      -11.38151       -10.97866         8.80505
| 77>    C      -10.90635       -12.84735        10.80010
| 78>    C       -9.61305       -12.40206        11.13738
| 79>    S       -8.78847       -13.13284        12.51052
| 80>    C       -7.36264       -12.18752        12.33553
| 81>    C       -7.49101       -11.33467        11.26646
| 82>    C       -8.75258       -11.45863        10.59965
| 83>    O       -8.81197       -10.61321         9.54698
| 84>    C       -7.62523        -9.95440         9.53693
| 85>    N       -7.40920        -8.99713         8.52622
| 86>    O       -6.33090        -8.42936         8.53265
| 87>    O       -8.29251        -8.79906         7.71395
| 88>    C       -6.77927       -10.33905        10.54490
| 89>    H      -11.98299         5.47532         5.57754
| 90>    H      -11.05522         2.07095         9.13341
| 91>    H      -13.33917         6.85347         7.61148
| 92>    H       -8.74954         0.20034         4.48908
| 93>    H       -7.64251        -1.64328        -1.62729
| 94>    H       -7.43668        -1.77376         0.13243
| 95>    H       -5.29668        -0.48191        -0.03968
| 96>    H       -5.48488        -0.40772        -1.79309
| 97>    H       -5.24767        -1.96497        -0.99422
| 98>    H       -8.16883         0.06201        -3.47116
| 99>    H       -6.86662         1.22888        -3.20136
|100>    H       -9.76304         1.74545        -3.91331
|101>    H       -8.33281         2.69327        -4.36358
|102>    H       -5.74567        -0.30879         2.33790
|103>    H      -10.67019        -0.38517         2.68883
|104>    H      -11.89775        -1.60409         2.95965
|105>    H       -9.91008        -1.64044         0.64795
|106>    H      -11.61209        -1.18814         0.55099
|107>    H      -11.15643        -2.84904         0.95092
|108>    H      -11.87055        -4.35281         5.16438
|109>    H      -12.47093        -3.34384         3.85347
|110>    H      -11.13920        -2.39833         6.44313
|111>    H      -12.86692        -2.32255         6.09055
|112>    H      -11.73257        -1.30800         5.19237
|113>    H       -8.24859        -7.10270         6.07933
|114>    H      -10.68412        -7.19904         6.02132
|115>    H      -11.70793        -5.85421         3.46999
|116>    H      -13.57499        -7.26709         3.54761
|117>    H      -15.05218        -9.08699         4.40263
|118>    H      -15.14835       -10.94561         6.18166
|119>    H      -14.62255       -12.47791         8.10788
|120>    H      -13.42456       -13.72221        10.02221
|121>    H      -11.27894       -13.67659        11.38635
|122>    H       -6.54282       -12.31786        13.00952
|123>    H       -5.79664        -9.95525        10.72447
|124> *
|125>
|126>                          ****END OF INPUT****

CARTESIAN COORDINATES (ANGSTROEM)
---------------------------------
  C    -10.003760    1.560190    6.442730
  C     -9.553120    0.438260    7.094960
  C     -9.821420    0.151600    8.448910
  N    -10.014150   -0.148790    9.540730
  C     -8.762760   -0.590130    6.544550
  N     -8.108880   -1.472520    6.204510
  C    -10.789020    2.626780    7.059470
  C    -11.068580    3.609230    6.078970
  C    -11.788410    4.746460    6.348590
  C    -12.258200    4.925240    7.654380
  C    -11.973880    3.940380    8.628590
  C    -11.244560    2.789620    8.354090
  S    -12.645590    4.359650   10.176010
  C    -13.290450    5.832050    9.500490
  C    -13.018430    6.003320    8.185410
  Br   -14.262630    7.004220   10.595850
  C    -10.470080    3.193220    4.795300
  O    -10.520210    3.812340    3.748030
  C     -9.817390    1.906740    5.050670
  C     -9.171390    1.128190    4.120370
  C     -8.997050    1.296920    2.742770
  C     -8.385110    0.291570    1.962740
  C     -8.322370    0.663410    0.626470
  C     -8.902920    1.932210    0.366840
  S     -9.517510    2.687420    1.785630
  C     -8.797720    2.133120   -1.010540
  C     -8.174220    1.015500   -1.537570
  N     -7.890240    0.112110   -0.559890
  C     -7.224680   -1.154100   -0.741350
  C     -5.715890   -0.989090   -0.904160
  C     -7.922530    1.016820   -3.002090
  C     -8.809420    2.137880   -3.559910
  S     -9.205830    3.338800   -2.209720
  C     -7.819170   -0.930320    2.545010
  C     -6.467940   -1.034230    2.659530
  S     -5.930490   -2.449850    3.472980
  C     -7.577440   -2.945640    3.688620
  C     -8.508300   -2.051660    3.132970
  C     -9.892020   -2.301470    3.303110
  C    -10.894640   -1.442740    2.575040
  C    -10.891080   -1.802350    1.086070
  C    -10.309720   -3.384930    4.067360
  C    -11.708910   -3.420650    4.631200
  C    -11.873630   -2.285450    5.648270
  C     -9.372930   -4.360560    4.484050
  C     -9.562190   -5.640350    5.131730
  C     -8.370290   -6.170220    5.560650
  S     -6.988730   -5.276290    5.102110
  C     -8.003530   -4.091440    4.336400
  C    -10.725200   -6.479280    5.217490
  C    -11.736430   -6.535550    4.310700
  C    -12.844300   -7.413520    4.334410
  C    -13.131120   -8.436660    5.203450
  C    -14.291770   -9.254210    5.145860
  C    -14.345070  -10.236850    6.086800
  C    -13.221350  -10.262600    6.941610
  S    -12.114060   -8.976160    6.528700
  C    -12.911070  -11.133820    7.967710
  C    -13.651160  -12.216030    8.488370
  C    -13.019230  -12.873250    9.500270
  C    -11.738230  -12.353550    9.827270
  S    -11.381510  -10.978660    8.805050
  C    -10.906350  -12.847350   10.800100
  C     -9.613050  -12.402060   11.137380
  S     -8.788470  -13.132840   12.510520
  C     -7.362640  -12.187520   12.335530
  C     -7.491010  -11.334670   11.266460
  C     -8.752580  -11.458630   10.599650
  O     -8.811970  -10.613210    9.546980
  C     -7.625230   -9.954400    9.536930
  N     -7.409200   -8.997130    8.526220
  O     -6.330900   -8.429360    8.532650
  O     -8.292510   -8.799060    7.713950
  C     -6.779270  -10.339050   10.544900
  H    -11.982990    5.475320    5.577540
  H    -11.055220    2.070950    9.133410
  H    -13.339170    6.853470    7.611480
  H     -8.749540    0.200340    4.489080
  H     -7.642510   -1.643280   -1.627290
  H     -7.436680   -1.773760    0.132430
  H     -5.296680   -0.481910   -0.039680
  H     -5.484880   -0.407720   -1.793090
  H     -5.247670   -1.964970   -0.994220
  H     -8.168830    0.062010   -3.471160
  H     -6.866620    1.228880   -3.201360
  H     -9.763040    1.745450   -3.913310
  H     -8.332810    2.693270   -4.363580
  H     -5.745670   -0.308790    2.337900
  H    -10.670190   -0.385170    2.688830
  H    -11.897750   -1.604090    2.959650
  H     -9.910080   -1.640440    0.647950
  H    -11.612090   -1.188140    0.550990
  H    -11.156430   -2.849040    0.950920
  H    -11.870550   -4.352810    5.164380
  H    -12.470930   -3.343840    3.853470
  H    -11.139200   -2.398330    6.443130
  H    -12.866920   -2.322550    6.090550
  H    -11.732570   -1.308000    5.192370
  H     -8.248590   -7.102700    6.079330
  H    -10.684120   -7.199040    6.021320
  H    -11.707930   -5.854210    3.469990
  H    -13.574990   -7.267090    3.547610
  H    -15.052180   -9.086990    4.402630
  H    -15.148350  -10.945610    6.181660
  H    -14.622550  -12.477910    8.107880
  H    -13.424560  -13.722210   10.022210
  H    -11.278940  -13.676590   11.386350
  H     -6.542820  -12.317860   13.009520
  H     -5.796640   -9.955250   10.724470

 Total Charge           Charge          ....    0
 Multiplicity           Mult            ....    1
 Number of Electrons    NEL             ....  600
 Basis Dimension        Dim             .... 1261

ORBITAL ENERGIES
----------------

  NO   OCC          E(Eh)            E(eV)
   0   2.0000    -482.877326    -13139.7600
   1   2.0000     -88.969383     -2420.9800
   2   2.0000     -88.965119     -2420.8640
   3   2.0000     -88.945479     -2420.3295
   4   2.0000     -88.944200     -2420.2947
   5   2.0000     -88.935859     -2420.0678
   6   2.0000     -88.933799     -2420.0117
   7   2.0000     -88.930785     -2419.9297
   8   2.0000     -88.919821     -2419.6313
   9   2.0000     -62.555010     -1702.2084
  10   2.0000     -56.388947     -1534.4213
  11   2.0000     -56.386259     -1534.3481
  12   2.0000     -56.386220     -1534.3470
  13   2.0000     -19.303834      -525.2840
  14   2.0000     -19.248133      -523.7683
  15   2.0000     -19.244797      -523.6775
  16   2.0000     -19.203509      -522.5540
  17   2.0000     -14.657639      -398.8546
  18   2.0000     -14.469887      -393.7456
  19   2.0000     -14.400569      -391.8594
  20   2.0000     -14.398607      -391.8060
  21   2.0000     -10.385821      -282.6126
  22   2.0000     -10.352149      -281.6963
  23   2.0000     -10.348769      -281.6043
  24   2.0000     -10.342040      -281.4212
  25   2.0000     -10.325444      -280.9696
  26   2.0000     -10.322805      -280.8978
  27   2.0000     -10.319963      -280.8205
  28   2.0000     -10.314626      -280.6752
  29   2.0000     -10.313534      -280.6455
  30   2.0000     -10.313322      -280.6398
  31   2.0000     -10.310469      -280.5621
  32   2.0000     -10.306345      -280.4499
  33   2.0000     -10.304395      -280.3968
  34   2.0000     -10.304169      -280.3907
  35   2.0000     -10.303815      -280.3811
  36   2.0000     -10.303584      -280.3748
  37   2.0000     -10.303243      -280.3655
  38   2.0000     -10.302796      -280.3533
  39   2.0000     -10.300666      -280.2954
  40   2.0000     -10.300458      -280.2897
  41   2.0000     -10.299248      -280.2568
  42   2.0000     -10.298404      -280.2338
  43   2.0000     -10.295628      -280.1583
  44   2.0000     -10.295312      -280.1497
  45   2.0000     -10.294774      -280.1350
  46   2.0000     -10.294251      -280.1208
  47   2.0000     -10.292386      -280.0701
  48   2.0000     -10.292160      -280.0639
  49   2.0000     -10.291995      -280.0594
  50   2.0000     -10.288888      -279.9749
  51   2.0000     -10.288568      -279.9662
  52   2.0000     -10.286904      -279.9209
  53   2.0000     -10.286566      -279.9117
  54   2.0000     -10.283958      -279.8407
  55   2.0000     -10.282916      -279.8124
  56   2.0000     -10.281386      -279.7707
  57   2.0000     -10.280449      -279.7452
  58   2.0000     -10.280205      -279.7386
  59   2.0000     -10.278518      -279.6927
  60   2.0000     -10.276592      -279.6403
  61   2.0000     -10.276576      -279.6398
  62   2.0000     -10.275546      -279.6118
  63   2.0000     -10.275299      -279.6051
  64   2.0000     -10.274908      -279.5944
  65   2.0000     -10.272664      -279.5334
  66   2.0000     -10.270071      -279.4628
  67   2.0000     -10.269266      -279.4409
  68   2.0000     -10.264999      -279.3248
  69   2.0000     -10.263689      -279.2892
  70   2.0000     -10.263490      -279.2838
  71   2.0000     -10.261772      -279.2370
  72   2.0000     -10.261121      -279.2193
  73   2.0000     -10.257519      -279.1213
  74   2.0000     -10.251054      -278.9454
  75   2.0000     -10.248078      -278.8644
  76   2.0000     -10.246695      -278.8268
  77   2.0000     -10.238808      -278.6121
  78   2.0000      -8.784424      -239.0363
  79   2.0000      -8.064470      -219.4454
  80   2.0000      -8.061051      -219.3523
  81   2.0000      -8.040259      -218.7866
  82   2.0000      -8.038239      -218.7316
  83   2.0000      -8.032032      -218.5627
  84   2.0000      -8.029589      -218.4962
  85   2.0000      -8.027130      -218.4293
  86   2.0000      -8.015407      -218.1103
  87   2.0000      -6.620646      -180.1569
  88   2.0000      -6.606185      -179.7634
  89   2.0000      -6.606017      -179.7589
  90   2.0000      -6.033814      -164.1884
  91   2.0000      -6.030763      -164.1054
  92   2.0000      -6.029517      -164.0715
  93   2.0000      -6.026719      -163.9954
  94   2.0000      -6.026465      -163.9885
  95   2.0000      -6.022289      -163.8748
  96   2.0000      -6.009732      -163.5331
  97   2.0000      -6.008144      -163.4899
  98   2.0000      -6.005541      -163.4191
  99   2.0000      -6.003589      -163.3659
 100   2.0000      -6.001961      -163.3217
 101   2.0000      -6.001444      -163.3076
 102   2.0000      -5.999565      -163.2565
 103   2.0000      -5.999335      -163.2502
 104   2.0000      -5.997214      -163.1925
 105   2.0000      -5.996916      -163.1844
 106   2.0000      -5.995197      -163.1376
 107   2.0000      -5.993882      -163.1018
 108   2.0000      -5.992735      -163.0706
 109   2.0000      -5.990603      -163.0126
 110   2.0000      -5.987851      -162.9377
 111   2.0000      -5.986174      -162.8921
 112   2.0000      -5.982088      -162.7809
 113   2.0000      -5.974385      -162.5713
 114   2.0000      -2.736569       -74.4658
 115   2.0000      -2.732448       -74.3537
 116   2.0000      -2.732328       -74.3504
 117   2.0000      -2.720829       -74.0375
 118   2.0000      -2.720819       -74.0372
 119   2.0000      -1.328100       -36.1395
 120   2.0000      -1.226161       -33.3655
 121   2.0000      -1.143261       -31.1097
 122   2.0000      -1.119130       -30.4531
 123   2.0000      -1.096351       -29.8332
 124   2.0000      -1.010171       -27.4881
 125   2.0000      -0.999901       -27.2087
 126   2.0000      -0.992371       -27.0038
 127   2.0000      -0.991512       -26.9804
 128   2.0000      -0.983967       -26.7751
 129   2.0000      -0.978547       -26.6276
 130   2.0000      -0.977113       -26.5886
 131   2.0000      -0.972644       -26.4670
 132   2.0000      -0.962502       -26.1910
 133   2.0000      -0.957895       -26.0656
 134   2.0000      -0.948946       -25.8221
 135   2.0000      -0.934486       -25.4287
 136   2.0000      -0.929847       -25.3024
 137   2.0000      -0.913103       -24.8468
 138   2.0000      -0.902124       -24.5480
 139   2.0000      -0.898071       -24.4378
 140   2.0000      -0.895697       -24.3732
 141   2.0000      -0.891678       -24.2638
 142   2.0000      -0.879257       -23.9258
 143   2.0000      -0.874209       -23.7884
 144   2.0000      -0.873275       -23.7630
 145   2.0000      -0.868360       -23.6293
 146   2.0000      -0.855868       -23.2893
 147   2.0000      -0.850608       -23.1462
 148   2.0000      -0.846032       -23.0217
 149   2.0000      -0.841746       -22.9051
 150   2.0000      -0.833819       -22.6894
 151   2.0000      -0.832114       -22.6430
 152   2.0000      -0.820380       -22.3237
 153   2.0000      -0.817433       -22.2435
 154   2.0000      -0.814341       -22.1593
 155   2.0000      -0.811222       -22.0745
 156   2.0000      -0.800662       -21.7871
 157   2.0000      -0.797160       -21.6918
 158   2.0000      -0.790715       -21.5165
 159   2.0000      -0.788290       -21.4505
 160   2.0000      -0.777241       -21.1498
 161   2.0000      -0.767878       -20.8950
 162   2.0000      -0.754493       -20.5308
 163   2.0000      -0.750848       -20.4316
 164   2.0000      -0.745175       -20.2772
 165   2.0000      -0.728124       -19.8132
 166   2.0000      -0.722772       -19.6676
 167   2.0000      -0.708391       -19.2763
 168   2.0000      -0.706624       -19.2282
 169   2.0000      -0.705002       -19.1841
 170   2.0000      -0.690158       -18.7801
 171   2.0000      -0.688162       -18.7258
 172   2.0000      -0.683235       -18.5918
 173   2.0000      -0.677985       -18.4489
 174   2.0000      -0.677613       -18.4388
 175   2.0000      -0.667469       -18.1628
 176   2.0000      -0.661282       -17.9944
 177   2.0000      -0.657480       -17.8910
 178   2.0000      -0.651203       -17.7201
 179   2.0000      -0.649951       -17.6861
 180   2.0000      -0.646393       -17.5893
 181   2.0000      -0.644905       -17.5487
 182   2.0000      -0.641319       -17.4512
 183   2.0000      -0.634514       -17.2660
 184   2.0000      -0.630017       -17.1436
 185   2.0000      -0.623964       -16.9789
 186   2.0000      -0.623011       -16.9530
 187   2.0000      -0.614135       -16.7115
 188   2.0000      -0.611102       -16.6289
 189   2.0000      -0.610125       -16.6024
 190   2.0000      -0.606751       -16.5105
 191   2.0000      -0.600029       -16.3276
 192   2.0000      -0.594288       -16.1714
 193   2.0000      -0.590038       -16.0558
 194   2.0000      -0.588856       -16.0236
 195   2.0000      -0.581118       -15.8130
 196   2.0000      -0.579179       -15.7603
 197   2.0000      -0.574419       -15.6307
 198   2.0000      -0.567862       -15.4523
 199   2.0000      -0.563019       -15.3205
 200   2.0000      -0.562662       -15.3108
 201   2.0000      -0.554961       -15.1012
 202   2.0000      -0.549681       -14.9576
 203   2.0000      -0.548947       -14.9376
 204   2.0000      -0.542521       -14.7627
 205   2.0000      -0.541440       -14.7333
 206   2.0000      -0.537057       -14.6141
 207   2.0000      -0.534526       -14.5452
 208   2.0000      -0.531431       -14.4610
 209   2.0000      -0.527821       -14.3627
 210   2.0000      -0.525276       -14.2935
 211   2.0000      -0.523298       -14.2397
 212   2.0000      -0.521851       -14.2003
 213   2.0000      -0.518084       -14.0978
 214   2.0000      -0.515164       -14.0183
 215   2.0000      -0.511742       -13.9252
 216   2.0000      -0.508863       -13.8469
 217   2.0000      -0.505913       -13.7666
 218   2.0000      -0.502513       -13.6741
 219   2.0000      -0.500636       -13.6230
 220   2.0000      -0.498905       -13.5759
 221   2.0000      -0.496889       -13.5210
 222   2.0000      -0.494819       -13.4647
 223   2.0000      -0.491425       -13.3724
 224   2.0000      -0.487517       -13.2660
 225   2.0000      -0.486144       -13.2287
 226   2.0000      -0.483901       -13.1676
 227   2.0000      -0.482338       -13.1251
 228   2.0000      -0.481674       -13.1070
 229   2.0000      -0.480300       -13.0696
 230   2.0000      -0.475934       -12.9508
 231   2.0000      -0.470979       -12.8160
 232   2.0000      -0.470527       -12.8037
 233   2.0000      -0.467404       -12.7187
 234   2.0000      -0.466750       -12.7009
 235   2.0000      -0.464923       -12.6512
 236   2.0000      -0.464471       -12.6389
 237   2.0000      -0.461597       -12.5607
 238   2.0000      -0.459550       -12.5050
 239   2.0000      -0.457426       -12.4472
 240   2.0000      -0.455140       -12.3850
 241   2.0000      -0.452106       -12.3024
 242   2.0000      -0.450497       -12.2586
 243   2.0000      -0.447790       -12.1850
 244   2.0000      -0.447145       -12.1674
 245   2.0000      -0.444943       -12.1075
 246   2.0000      -0.442603       -12.0438
 247   2.0000      -0.438730       -11.9385
 248   2.0000      -0.437932       -11.9167
 249   2.0000      -0.435729       -11.8568
 250   2.0000      -0.433749       -11.8029
 251   2.0000      -0.431813       -11.7502
 252   2.0000      -0.429472       -11.6865
 253   2.0000      -0.428779       -11.6677
 254   2.0000      -0.428002       -11.6465
 255   2.0000      -0.425849       -11.5879
 256   2.0000      -0.424009       -11.5379
 257   2.0000      -0.420368       -11.4388
 258   2.0000      -0.418093       -11.3769
 259   2.0000      -0.415908       -11.3174
 260   2.0000      -0.413663       -11.2563
 261   2.0000      -0.411706       -11.2031
 262   2.0000      -0.409350       -11.1390
 263   2.0000      -0.407100       -11.0778
 264   2.0000      -0.404331       -11.0024
 265   2.0000      -0.403344       -10.9756
 266   2.0000      -0.399378       -10.8676
 267   2.0000      -0.398610       -10.8467
 268   2.0000      -0.395749       -10.7689
 269   2.0000      -0.393506       -10.7078
 270   2.0000      -0.393015       -10.6945
 271   2.0000      -0.386718       -10.5231
 272   2.0000      -0.384699       -10.4682
 273   2.0000      -0.380901       -10.3648
 274   2.0000      -0.377314       -10.2672
 275   2.0000      -0.376692       -10.2503
 276   2.0000      -0.376207       -10.2371
 277   2.0000      -0.373416       -10.1612
 278   2.0000      -0.373193       -10.1551
 279   2.0000      -0.366767        -9.9802
 280   2.0000      -0.362950        -9.8764
 281   2.0000      -0.359826        -9.7914
 282   2.0000      -0.357699        -9.7335
 283   2.0000      -0.338599        -9.2138
 284   2.0000      -0.330775        -9.0008
 285   2.0000      -0.328561        -8.9406
 286   2.0000      -0.322715        -8.7815
 287   2.0000      -0.318470        -8.6660
 288   2.0000      -0.317033        -8.6269
 289   2.0000      -0.312070        -8.4919
 290   2.0000      -0.305224        -8.3056
 291   2.0000      -0.302095        -8.2204
 292   2.0000      -0.298453        -8.1213
 293   2.0000      -0.282990        -7.7005
 294   2.0000      -0.274553        -7.4710
 295   2.0000      -0.269365        -7.3298
 296   2.0000      -0.257024        -6.9940
 297   2.0000      -0.246142        -6.6979
 298   2.0000      -0.234643        -6.3850
 299   2.0000      -0.198434        -5.3997
 300   0.0000      -0.076657        -2.0859
 301   0.0000      -0.074283        -2.0213
 302   0.0000      -0.058869        -1.6019
 303   0.0000      -0.046145        -1.2557
 304   0.0000      -0.006915        -0.1882

MULLIKEN ATOMIC CHARGES
-----------------------
   0 C :    0.342542
   1 C :   -0.378191
   2 C :   -0.187546
   3 N :    0.141956
   4 C :   -0.195283
   5 N :    0.160213
   6 C :    0.008251
   7 C :   -0.010201
   8 C :   -0.080804
   9 C :    0.120177
  10 C :   -0.092919
  11 C :   -0.025145
  12 S :    0.180161
  13 C :   -0.122636
  14 C :    0.036965
  15 Br:    0.015201
  16 C :    0.153455
  17 O :   -0.175619
  18 C :   -0.097230
  19 C :   -0.070570
  20 C :   -0.107245
  21 C :    0.016085
  22 C :    0.101315
  23 C :   -0.074774
  24 S :    0.186470
  25 C :   -0.091538
  26 C :   -0.100925
  27 N :   -0.156155
  28 C :    0.087799
  29 C :    0.025463
  30 C :    0.146352
  31 C :   -0.082921
  32 S :    0.008677
  33 C :   -0.101880
  34 C :   -0.091231
  35 S :    0.132577
  36 C :   -0.117011
  37 C :    0.156736
  38 C :   -0.179458
  39 C :    0.080377
  40 C :    0.048185
  41 C :   -0.138540
  42 C :    0.035972
  43 C :    0.026255
  44 C :    0.104830
  45 C :    0.037463
  46 C :   -0.086955
  47 S :    0.139292
  48 C :   -0.133128
  49 C :   -0.029295
  50 C :    0.008054
  51 C :   -0.012162
  52 C :   -0.021988
  53 C :    0.038056
  54 C :    0.019368
  55 C :   -0.027784
  56 S :    0.056841
  57 C :   -0.045125
  58 C :    0.038871
  59 C :    0.026329
  60 C :   -0.027607
  61 S :    0.086503
  62 C :    0.036250
  63 C :   -0.223938
  64 S :    0.142932
  65 C :   -0.141377
  66 C :    0.126181
  67 C :    0.189812
  68 O :   -0.192299
  69 C :    0.243622
  70 N :    0.285721
  71 O :   -0.243834
  72 O :   -0.223160
  73 C :   -0.075812
  74 H :   -0.012975
  75 H :   -0.009026
  76 H :   -0.005546
  77 H :    0.018743
  78 H :    0.021206
  79 H :    0.067448
  80 H :    0.016224
  81 H :    0.013146
  82 H :    0.027624
  83 H :    0.026378
  84 H :    0.037888
  85 H :    0.065332
  86 H :    0.051102
  87 H :    0.020593
  88 H :    0.016902
  89 H :   -0.006016
  90 H :   -0.008374
  91 H :    0.012934
  92 H :    0.001738
  93 H :    0.020638
  94 H :    0.000631
  95 H :    0.029806
  96 H :    0.008209
  97 H :    0.003848
  98 H :    0.012611
  99 H :    0.017527
 100 H :   -0.008604
 101 H :   -0.018921
 102 H :   -0.014671
 103 H :   -0.017874
 104 H :   -0.016127
 105 H :   -0.017850
 106 H :   -0.026598
 107 H :    0.030424
 108 H :    0.012610
Sum of atomic charges:   -0.0000000

LOEWDIN ATOMIC CHARGES
----------------------
   0 C :    0.078103
   1 C :   -0.153890
   2 C :   -0.017849
   3 N :   -0.066635
   4 C :   -0.020678
   5 N :   -0.049201
   6 C :   -0.019215
   7 C :   -0.048516
   8 C :    0.018204
   9 C :   -0.035359
  10 C :   -0.145583
  11 C :   -0.011935
  12 S :    0.427884
  13 C :   -0.274361
  14 C :   -0.070965
  15 Br:    0.130501
  16 C :    0.080635
  17 O :   -0.167885
  18 C :   -0.125085
  19 C :    0.055577
  20 C :   -0.189676
  21 C :   -0.019975
  22 C :   -0.027256
  23 C :   -0.199728
  24 S :    0.472465
  25 C :   -0.230511
  26 C :   -0.007391
  27 N :    0.048893
  28 C :    0.040518
  29 C :   -0.057701
  30 C :   -0.038976
  31 C :   -0.104134
  32 S :    0.259513
  33 C :   -0.078047
  34 C :   -0.169334
  35 S :    0.422969
  36 C :   -0.167805
  37 C :   -0.051700
  38 C :   -0.024503
  39 C :   -0.032029
  40 C :   -0.047086
  41 C :   -0.018841
  42 C :   -0.033655
  43 C :   -0.048222
  44 C :   -0.037132
  45 C :   -0.068219
  46 C :   -0.148702
  47 S :    0.429625
  48 C :   -0.172671
  49 C :   -0.008449
  50 C :   -0.053560
  51 C :   -0.048948
  52 C :   -0.154716
  53 C :   -0.023826
  54 C :   -0.049064
  55 C :   -0.170227
  56 S :    0.396729
  57 C :   -0.190838
  58 C :   -0.027616
  59 C :   -0.042945
  60 C :   -0.139135
  61 S :    0.395146
  62 C :   -0.101632
  63 C :   -0.193473
  64 S :    0.469991
  65 C :   -0.195667
  66 C :   -0.081080
  67 C :    0.006238
  68 O :   -0.001585
  69 C :    0.023580
  70 N :    0.278987
  71 O :   -0.206112
  72 O :   -0.192317
  73 C :   -0.004353
  74 H :    0.039682
  75 H :    0.040323
  76 H :    0.037797
  77 H :    0.052220
  78 H :    0.027052
  79 H :    0.038343
  80 H :    0.026156
  81 H :    0.023222
  82 H :    0.033990
  83 H :    0.036955
  84 H :    0.038217
  85 H :    0.025655
  86 H :    0.026501
  87 H :    0.021968
  88 H :    0.027557
  89 H :    0.025537
  90 H :    0.015554
  91 H :    0.024722
  92 H :    0.021826
  93 H :    0.031490
  94 H :    0.020037
  95 H :    0.028980
  96 H :    0.022858
  97 H :    0.016524
  98 H :    0.018252
  99 H :    0.016719
 100 H :    0.030251
 101 H :    0.032688
 102 H :    0.032041
 103 H :    0.029804
 104 H :    0.031055
 105 H :    0.030477
 106 H :    0.031358
 107 H :    0.027651
 108 H :    0.046971

  Mayer bond orders larger than 0.100000
B(  0-C ,  1-C ) :   1.5914 B(  0-C ,  6-C ) :   0.9879 B(  0-C , 18-C ) :   1.1074
B(  1-C ,  2-C ) :   1.1527 B(  1-C ,  4-C ) :   1.1558 B(  2-C ,  3-N ) :   2.9627
B(  4-C ,  5-N ) :   2.9387 B(  6-C ,  7-C ) :   1.2788 B(  6-C , 11-C ) :   1.4171
B(  7-C ,  8-C ) :   1.4274 B(  7-C , 16-C ) :   0.9467 B(  8-C ,  9-C ) :   1.2378
B(  8-C , 74-H ) :   1.0168 B(  9-C , 10-C ) :   1.3139 B(  9-C , 14-C ) :   1.1611
B( 10-C , 11-C ) :   1.3237 B( 10-C , 12-S ) :   1.0832 B( 11-C , 75-H ) :   0.9788
B( 12-S , 13-C ) :   1.0856 B( 13-C , 14-C ) :   1.6202 B( 13-C , 15-Br) :   1.0141
B( 14-C , 76-H ) :   0.9998 B( 16-C , 17-O ) :   2.1508 B( 16-C , 18-C ) :   0.9733
B( 18-C , 19-C ) :   1.4593 B( 19-C , 20-C ) :   1.3260 B( 19-C , 77-H ) :   0.9368
B( 20-C , 21-C ) :   1.3464 B( 20-C , 24-S ) :   1.0482 B( 21-C , 22-C ) :   1.3864
B( 21-C , 33-C ) :   0.9023 B( 22-C , 23-C ) :   1.3237 B( 22-C , 27-N ) :   1.1421
B( 23-C , 24-S ) :   1.0149 B( 23-C , 25-C ) :   1.4317 B( 25-C , 26-C ) :   1.5082
B( 25-C , 32-S ) :   0.9348 B( 26-C , 27-N ) :   1.2072 B( 26-C , 30-C ) :   1.0636
B( 27-N , 28-C ) :   0.9463 B( 28-C , 29-C ) :   1.1114 B( 28-C , 78-H ) :   0.9471
B( 28-C , 79-H ) :   0.9408 B( 29-C , 80-H ) :   0.9646 B( 29-C , 81-H ) :   0.9652
B( 29-C , 82-H ) :   0.9635 B( 30-C , 31-C ) :   1.0455 B( 30-C , 83-H ) :   0.9216
B( 30-C , 84-H ) :   0.9037 B( 31-C , 32-S ) :   0.9970 B( 31-C , 85-H ) :   0.9544
B( 31-C , 86-H ) :   0.9528 B( 33-C , 34-C ) :   1.6411 B( 33-C , 37-C ) :   1.1948
B( 34-C , 35-S ) :   1.1195 B( 34-C , 87-H ) :   0.9639 B( 35-S , 36-C ) :   1.0770
B( 36-C , 37-C ) :   1.3583 B( 36-C , 48-C ) :   1.3833 B( 37-C , 38-C ) :   1.2574
B( 38-C , 39-C ) :   1.0867 B( 38-C , 41-C ) :   1.4731 B( 39-C , 40-C ) :   1.1105
B( 39-C , 88-H ) :   0.9090 B( 39-C , 89-H ) :   0.9072 B( 40-C , 90-H ) :   0.9672
B( 40-C , 91-H ) :   0.9629 B( 40-C , 92-H ) :   0.9579 B( 41-C , 42-C ) :   1.0716
B( 41-C , 44-C ) :   1.2900 B( 42-C , 43-C ) :   1.1077 B( 42-C , 93-H ) :   0.9148
B( 42-C , 94-H ) :   0.9136 B( 43-C , 95-H ) :   0.9617 B( 43-C , 96-H ) :   0.9625
B( 43-C , 97-H ) :   0.9676 B( 44-C , 45-C ) :   1.1068 B( 44-C , 48-C ) :   1.3853
B( 45-C , 46-C ) :   1.5645 B( 45-C , 49-C ) :   1.1164 B( 46-C , 47-S ) :   1.1398
B( 46-C , 98-H ) :   0.9461 B( 47-S , 48-C ) :   1.0678 B( 49-C , 50-C ) :   1.6393
B( 49-C , 99-H ) :   0.9412 B( 50-C , 51-C ) :   1.1998 B( 50-C ,100-H ) :   0.9612
B( 51-C , 52-C ) :   1.5829 B( 51-C ,101-H ) :   0.9627 B( 52-C , 53-C ) :   1.1471
B( 52-C , 56-S ) :   1.0303 B( 53-C , 54-C ) :   1.5888 B( 53-C ,102-H ) :   0.9978
B( 54-C , 55-C ) :   1.1862 B( 54-C ,103-H ) :   0.9931 B( 55-C , 56-S ) :   1.0510
B( 55-C , 57-C ) :   1.5021 B( 57-C , 58-C ) :   1.1904 B( 57-C , 61-S ) :   1.0302
B( 58-C , 59-C ) :   1.5889 B( 58-C ,104-H ) :   0.9926 B( 59-C , 60-C ) :   1.1414
B( 59-C ,105-H ) :   1.0000 B( 60-C , 61-S ) :   1.0546 B( 60-C , 62-C ) :   1.5944
B( 62-C , 63-C ) :   1.1506 B( 62-C ,106-H ) :   0.9446 B( 63-C , 64-S ) :   1.1354
B( 63-C , 65-C ) :   0.1082 B( 63-C , 67-C ) :   1.4275 B( 64-S , 65-C ) :   1.1743
B( 65-C , 66-C ) :   1.4324 B( 65-C ,107-H ) :   0.9764 B( 66-C , 67-C ) :   1.2293
B( 66-C , 73-C ) :   1.0700 B( 67-C , 68-O ) :   1.0860 B( 68-O , 69-C ) :   1.1217
B( 69-C , 70-N ) :   0.9228 B( 69-C , 73-C ) :   1.5661 B( 70-N , 71-O ) :   1.5353
B( 70-N , 72-O ) :   1.4807 B( 71-O , 72-O ) :   0.2707 B( 73-C ,108-H ) :   1.0244

-----------------------------------------------------------------------------
         ABSORPTION SPECTRUM VIA TRANSITION ELECTRIC DIPOLE MOMENTS
-----------------------------------------------------------------------------
State   Energy  Wavelength   fosc         T2         TX        TY        TZ
        (cm-1)    (nm)                  (au**2)     (au)      (au)      (au)
-----------------------------------------------------------------------------
   0   11368.9    879.6   0.173391049   5.02091   0.81812  -1.29511   1.63532
   1   15286.5    654.2   0.749248839  16.13590  -0.31917   2.95101  -2.70658
   2   16603.9    602.3   0.005921540   0.11741   0.09907  -0.01964  -0.32742
   3   18586.9    538.0   0.695228281  12.31392   0.92511  -0.54600  -3.34066
   4   21715.5    460.5   0.059416497   0.90077  -0.11978  -0.07915   0.93817
   5   22349.0    447.4   0.128815585   1.89752   1.19909   0.17707   0.65447
   6   23303.0    429.1   0.012602473   0.17804  -0.00544  -0.01199  -0.42174
   7   24034.3    416.1   0.046860510   0.64188   0.11727  -0.58046   0.53962
   8   24102.9    414.9   0.001515379   0.02070  -0.10964  -0.08375  -0.04077
   9   24349.7    410.7   0.039946582   0.54008  -0.04156  -0.31956   0.66048
  10   25132.1    397.9   0.334198874   4.37776   0.52823  -0.31735  -1.99950
  11   26323.8    379.9   0.537066423   6.71669   2.22595   1.27935   0.35368
  12   26823.4    372.8   0.008803268   0.10805  -0.30290  -0.09137  -0.08914
  13   27946.2    357.8   0.102371133   1.20595   0.94300   0.50291   0.25255
  14   28903.5    346.0   0.419477247   4.77787  -1.05056   1.56960   1.10025
  15   29209.2    342.4   0.221844906   2.50038  -1.50862  -0.33733  -0.33265
  16   29629.7    337.5   0.016384837   0.18205  -0.37508  -0.19698  -0.05067
  17   29731.7    336.3   0.004676112   0.05178  -0.14336   0.08586  -0.15444
  18   30361.9    329.4   0.114296843   1.23931   0.47436  -0.62605  -0.78890
  19   30507.0    327.8   0.041300135   0.44568   0.64696   0.02988   0.16196
  20   30532.2    327.5   0.068092217   0.73420   0.71160   0.43855  -0.18839
  21   30800.9    324.7   0.019676458   0.21031   0.06940  -0.37682   0.25199
  22   30953.2    323.1   0.002099561   0.02233   0.11177  -0.07120  -0.06905
  23   31470.8    317.8   0.116687155   1.22065   0.33041   0.44774  -0.95447
  24   31526.7    317.2   0.087783089   0.91666   0.11552  -0.94960   0.03957
  25   31974.2    312.8   0.066653590   0.68628   0.41683  -0.64052  -0.31979
  26   32096.2    311.6   0.007730976   0.07930  -0.09404   0.26296   0.03615
  27   32400.1    308.6   0.017279816   0.17558  -0.06738   0.41093   0.04663
  28   32769.5    305.2   0.193200280   1.94095  -0.75290  -1.04159   0.53776
  29   32991.4    303.1   0.114569726   1.14326  -0.91915  -0.51896  -0.17064
  30   33854.9    295.4   0.011331387   0.11019   0.26748   0.17189   0.09539
  31   34014.7    294.0   0.534848757   5.17655  -1.17796   1.94645  -0.01730
  32   34466.9    290.1   0.008364240   0.07989   0.26046  -0.07490   0.08027
  33   34551.0    289.4   0.000621104   0.00592   0.07324  -0.01967  -0.01291
  34   34713.3    288.1   0.047120454   0.44688   0.19158  -0.53571   0.35098
  35   34899.1    286.5   0.027084522   0.25550  -0.42468  -0.23817   0.13570
  36   35531.2    281.4   0.268032503   2.48344  -0.09746  -1.11336   1.11102
  37   36041.9    277.5   0.055341403   0.50550  -0.40839  -0.32505   0.48275
  38   36140.9    276.7   0.026907912   0.24511   0.06363  -0.26488   0.41340
  39   36238.3    276.0   0.220276658   2.00114   0.17754   0.93394  -1.04755
  40   36636.0    273.0   0.038518310   0.34613  -0.00668  -0.43210   0.39921
  41   36810.0    271.7   0.109405884   0.97848  -0.18482  -0.05726   0.97007
  42   37073.0    269.7   0.055986578   0.49717   0.68965   0.13220   0.06385
  43   37252.3    268.4   0.043986942   0.38873   0.51190  -0.24524   0.25797
  44   37621.5    265.8   0.000050455   0.00044  -0.00692   0.01410  -0.01396
  45   37791.0    264.6   0.023099890   0.20123  -0.08666  -0.37833   0.22492
  46   37814.0    264.5   0.030512303   0.26564   0.04677   0.42065  -0.29412
  47   38383.2    260.5   0.014074864   0.12072   0.31551  -0.01909   0.14426
  48   38423.0    260.3   0.042438153   0.36361  -0.08216   0.36721  -0.47119
  49   38486.2    259.8   0.001299324   0.01111   0.01309   0.08234  -0.06453
  50   39048.6    256.1   0.032299228   0.27231  -0.09550   0.22346  -0.46180
  51   39083.8    255.9   0.102443517   0.86290   0.28852  -0.40698   0.78360
  52   39221.0    255.0   0.141190526   1.18512   0.23849  -0.08709  -1.05861
  53   40202.1    248.7   0.002883723   0.02361   0.09092   0.07694  -0.09711
  54   40299.9    248.1   0.179391532   1.46546   0.69749   0.95774  -0.24841

FINAL SINGLE POINT ENERGY     -8467.925440255309

DIPOLE MOMENT
-------------
                                X             Y             Z
Electronic contribution:    -36.01710     109.11847     114.51231
Nuclear contribution   :     35.80793    -110.60236    -116.50881
                        -----------------------------------------
Total Dipole Moment    :     -0.20917      -1.48389      -1.99650
                        -----------------------------------------
Magnitude (a.u.)       :      2.49634
Magnitude (Debye)      :      6.34518

Rotational constants in cm-1:     0.000751     0.000322     0.000255
Rotational constants in MHz :    22.511859     9.646984     7.652191

                             ****ORCA TERMINATED NORMALLY****
TOTAL RUN TIME: 0 days 0 hours 12 minutes 53 seconds 302 msec
