                         Program Version 4.2.0 -  RELEASE  -
|  1> # ORCA input file
|  2> # SCF done       -191.535074067621          0.000818082301
|  3> ! CAM-B3LYP def2-SVP def2/J RIJCOSX Grid4 TightSCF
|  4> %maxcore 5000
|  5> %tddft
|  6>     Mode sTDDFT
|  7>     Ethresh 5.0
|  8>     maxcore 5000
|  9> end
| 10>
| 11> %pal
| 12>   nprocs 6
| 13>   end
| 14> * xyz 0 1
| 15>    C      -12.33360        -1.03400        -5.54510
| 16>    C      -13.13517        -1.97748        -4.94979
| 17>    C      -14.32687        -2.47373        -5.51238
| 18>    N      -15.30516        -2.91304        -5.92397
| 19>    C      -12.87143        -2.55445        -3.69232
| 20>    N      -12.69835        -3.04328        -2.66729
| 21>    C      -12.58646        -0.38600        -6.82889
| 22>    C      -11.55905         0.56088        -7.07828
| 23>    C      -11.52264         1.33530        -8.21207
| 24>    C      -12.54753         1.16703        -9.14965
| 25>    C      -13.56644         0.21930        -8.89460
| 26>    C      -13.60466        -0.56285        -7.74585
| 27>    S      -14.73083         0.17100       -10.18293
| 28>    C      -13.84526         1.40841       -11.03496
| 29>    C      -12.73444         1.83668       -10.38977
| 30>   Br      -14.47139         2.01880       -12.69457
| 31>    C      -10.61121         0.53593        -5.95669
| 32>    O       -9.60299         1.22124        -5.81606
| 33>    C      -11.10697        -0.48048        -5.02517
| 34>    C      -10.41709        -0.80505        -3.88084
| 35>    N       -9.28472        -0.16449        -3.56910
| 36>    C       -8.45257        -0.43830        -2.53204
| 37>    S       -8.68656        -1.83486        -1.52227
| 38>    C       -7.21109        -1.45590        -0.69357
| 39>    N       -6.80734        -2.29628         0.34878
| 40>    O       -5.76527        -2.02690         0.92012
| 41>    O       -7.53186        -3.24262         0.60692
| 42>    C       -6.58728        -0.33328        -1.17157
| 43>    C       -7.29578         0.28280        -2.21853
| 44>    C       -6.84661         1.49787        -2.85803
| 45>    C       -7.63903         2.44687        -3.38441
| 46>    C       -7.19077         3.66477        -4.02136
| 47>    C       -5.87007         3.84258        -4.45947
| 48>    C       -5.50620         5.02782        -5.04708
| 49>    C       -6.43877         6.06854        -5.20805
| 50>    C       -7.75252         5.89789        -4.79445
| 51>    C       -8.11539         4.69914        -4.21542
| 52>    C       -5.77392         7.19013        -5.83091
| 53>    C       -4.43352         6.83927        -6.07327
| 54>    C       -4.15716         5.43326        -5.59352
| 55>    C       -3.07958         5.42175        -4.49337
| 56>    C       -3.44053         6.30402        -3.30424
| 57>    C       -3.72331         4.51679        -6.75227
| 58>    C       -4.74817         4.46450        -7.87892
| 59>    C       -3.57487         7.72995        -6.66396
| 60>    C       -4.02535         9.01798        -7.00883
| 61>    C       -5.36710         9.35041        -6.75658
| 62>    C       -6.23848         8.45129        -6.18096
| 63>    C       -3.09699         9.93770        -7.60207
| 64>    C       -3.29016        11.27082        -7.78319
| 65>    C       -2.34345        12.13206        -8.36523
| 66>    C       -2.51592        13.48864        -8.48175
| 67>    C       -1.62654        14.42673        -9.05783
| 68>    C       -2.06336        15.71752        -9.01338
| 69>    C       -3.32078        15.87657        -8.39496
| 70>    S       -3.94300        14.32307        -7.88109
| 71>    C       -4.02426        17.04578        -8.16994
| 72>    C       -3.66851        18.36477        -8.51854
| 73>    C       -4.58459        19.29898        -8.13664
| 74>    C       -5.71588        18.77892        -7.46137
| 75>    S       -5.56550        17.03747        -7.34189
| 76>    C       -6.74945        19.55155        -6.98577
| 77>    C       -7.91760        19.22527        -6.29007
| 78>    S       -8.96009        20.59813        -5.89667
| 79>    C      -10.14532        19.63571        -5.08133
| 80>    C      -11.39125        20.22479        -4.51722
| 81>    C      -12.53839        20.17612        -5.53156
| 82>    C       -9.75180        18.32316        -5.12934
| 83>    C       -8.50925        18.05916        -5.79189
| 84>    C       -8.31023        16.65659        -5.69909
| 85>    C       -9.37860        16.14373        -5.02188
| 86>    N      -10.25473        17.13630        -4.67481
| 87>    H      -10.72818         2.04715        -8.37298
| 88>    H      -14.40191        -1.27199        -7.59877
| 89>    H      -12.07289         2.59306       -10.77092
| 90>    H      -10.75390        -1.57600        -3.20002
| 91>    H       -8.99680         0.55823        -4.25325
| 92>    H       -5.66447         0.03461        -0.76067
| 93>    H       -5.77575         1.64266        -2.83239
| 94>    H       -8.71352         2.35927        -3.28819
| 95>    H       -5.15155         3.04463        -4.35008
| 96>    H       -8.47886         6.68622        -4.92529
| 97>    H       -9.13576         4.55161        -3.89093
| 98>    H       -2.13619         5.76337        -4.92446
| 99>    H       -2.93743         4.39387        -4.15258
|100>    H       -3.56312         7.33853        -3.61726
|101>    H       -2.65399         6.26208        -2.55427
|102>    H       -4.37042         5.97197        -2.84752
|103>    H       -3.56253         3.50950        -6.36193
|104>    H       -2.77061         4.87843        -7.14505
|105>    H       -5.69804         4.07801        -7.51610
|106>    H       -4.39437         3.81560        -8.67691
|107>    H       -4.91615         5.45729        -8.29060
|108>    H       -2.54499         7.46292        -6.85590
|109>    H       -5.72983        10.32809        -7.03344
|110>    H       -7.26788         8.72612        -6.00329
|111>    H       -2.14379         9.51788        -7.90121
|112>    H       -4.21031        11.73411        -7.45247
|113>    H       -1.42037        11.71086        -8.74155
|114>    H       -0.69000        14.11648        -9.48712
|115>    H       -1.51361        16.55567        -9.40321
|116>    H       -2.75435        18.59006        -9.03772
|117>    H       -4.48228        20.35498        -8.31640
|118>    H       -6.63619        20.61223        -7.18287
|119>    H      -11.20560        21.26256        -4.23518
|120>    H      -11.67570        19.67169        -3.61763
|121>    H      -12.27806        20.74826        -6.41864
|122>    H      -13.44140        20.59803        -5.09788
|123>    H      -12.74109        19.15033        -5.83170
|124>    H       -7.48850        16.08837        -6.07821
|125>    H       -9.57937        15.12268        -4.75955
|126>    H      -11.11268        17.01163        -4.16725
|127> *
|128>
|129>                          ****END OF INPUT****

CARTESIAN COORDINATES (ANGSTROEM)
---------------------------------
  C    -12.333600   -1.034000   -5.545100
  C    -13.135170   -1.977480   -4.949790
  C    -14.326870   -2.473730   -5.512380
  N    -15.305160   -2.913040   -5.923970
  C    -12.871430   -2.554450   -3.692320
  N    -12.698350   -3.043280   -2.667290
  C    -12.586460   -0.386000   -6.828890
  C    -11.559050    0.560880   -7.078280
  C    -11.522640    1.335300   -8.212070
  C    -12.547530    1.167030   -9.149650
  C    -13.566440    0.219300   -8.894600
  C    -13.604660   -0.562850   -7.745850
  S    -14.730830    0.171000  -10.182930
  C    -13.845260    1.408410  -11.034960
  C    -12.734440    1.836680  -10.389770
  Br   -14.471390    2.018800  -12.694570
  C    -10.611210    0.535930   -5.956690
  O     -9.602990    1.221240   -5.816060
  C    -11.106970   -0.480480   -5.025170
  C    -10.417090   -0.805050   -3.880840
  N     -9.284720   -0.164490   -3.569100
  C     -8.452570   -0.438300   -2.532040
  S     -8.686560   -1.834860   -1.522270
  C     -7.211090   -1.455900   -0.693570
  N     -6.807340   -2.296280    0.348780
  O     -5.765270   -2.026900    0.920120
  O     -7.531860   -3.242620    0.606920
  C     -6.587280   -0.333280   -1.171570
  C     -7.295780    0.282800   -2.218530
  C     -6.846610    1.497870   -2.858030
  C     -7.639030    2.446870   -3.384410
  C     -7.190770    3.664770   -4.021360
  C     -5.870070    3.842580   -4.459470
  C     -5.506200    5.027820   -5.047080
  C     -6.438770    6.068540   -5.208050
  C     -7.752520    5.897890   -4.794450
  C     -8.115390    4.699140   -4.215420
  C     -5.773920    7.190130   -5.830910
  C     -4.433520    6.839270   -6.073270
  C     -4.157160    5.433260   -5.593520
  C     -3.079580    5.421750   -4.493370
  C     -3.440530    6.304020   -3.304240
  C     -3.723310    4.516790   -6.752270
  C     -4.748170    4.464500   -7.878920
  C     -3.574870    7.729950   -6.663960
  C     -4.025350    9.017980   -7.008830
  C     -5.367100    9.350410   -6.756580
  C     -6.238480    8.451290   -6.180960
  C     -3.096990    9.937700   -7.602070
  C     -3.290160   11.270820   -7.783190
  C     -2.343450   12.132060   -8.365230
  C     -2.515920   13.488640   -8.481750
  C     -1.626540   14.426730   -9.057830
  C     -2.063360   15.717520   -9.013380
  C     -3.320780   15.876570   -8.394960
  S     -3.943000   14.323070   -7.881090
  C     -4.024260   17.045780   -8.169940
  C     -3.668510   18.364770   -8.518540
  C     -4.584590   19.298980   -8.136640
  C     -5.715880   18.778920   -7.461370
  S     -5.565500   17.037470   -7.341890
  C     -6.749450   19.551550   -6.985770
  C     -7.917600   19.225270   -6.290070
  S     -8.960090   20.598130   -5.896670
  C    -10.145320   19.635710   -5.081330
  C    -11.391250   20.224790   -4.517220
  C    -12.538390   20.176120   -5.531560
  C     -9.751800   18.323160   -5.129340
  C     -8.509250   18.059160   -5.791890
  C     -8.310230   16.656590   -5.699090
  C     -9.378600   16.143730   -5.021880
  N    -10.254730   17.136300   -4.674810
  H    -10.728180    2.047150   -8.372980
  H    -14.401910   -1.271990   -7.598770
  H    -12.072890    2.593060  -10.770920
  H    -10.753900   -1.576000   -3.200020
  H     -8.996800    0.558230   -4.253250
  H     -5.664470    0.034610   -0.760670
  H     -5.775750    1.642660   -2.832390
  H     -8.713520    2.359270   -3.288190
  H     -5.151550    3.044630   -4.350080
  H     -8.478860    6.686220   -4.925290
  H     -9.135760    4.551610   -3.890930
  H     -2.136190    5.763370   -4.924460
  H     -2.937430    4.393870   -4.152580
  H     -3.563120    7.338530   -3.617260
  H     -2.653990    6.262080   -2.554270
  H     -4.370420    5.971970   -2.847520
  H     -3.562530    3.509500   -6.361930
  H     -2.770610    4.878430   -7.145050
  H     -5.698040    4.078010   -7.516100
  H     -4.394370    3.815600   -8.676910
  H     -4.916150    5.457290   -8.290600
  H     -2.544990    7.462920   -6.855900
  H     -5.729830   10.328090   -7.033440
  H     -7.267880    8.726120   -6.003290
  H     -2.143790    9.517880   -7.901210
  H     -4.210310   11.734110   -7.452470
  H     -1.420370   11.710860   -8.741550
  H     -0.690000   14.116480   -9.487120
  H     -1.513610   16.555670   -9.403210
  H     -2.754350   18.590060   -9.037720
  H     -4.482280   20.354980   -8.316400
  H     -6.636190   20.612230   -7.182870
  H    -11.205600   21.262560   -4.235180
  H    -11.675700   19.671690   -3.617630
  H    -12.278060   20.748260   -6.418640
  H    -13.441400   20.598030   -5.097880
  H    -12.741090   19.150330   -5.831700
  H     -7.488500   16.088370   -6.078210
  H     -9.579370   15.122680   -4.759550
  H    -11.112680   17.011630   -4.167250

 Total Charge           Charge          ....    0
 Multiplicity           Mult            ....    1
 Number of Electrons    NEL             ....  562
 Basis Dimension        Dim             .... 1246

ORBITAL ENERGIES
----------------

  NO   OCC          E(Eh)            E(eV)
   0   2.0000    -482.888841    -13140.0734
   1   2.0000     -88.989117     -2421.5170
   2   2.0000     -88.979925     -2421.2669
   3   2.0000     -88.946157     -2420.3480
   4   2.0000     -88.935226     -2420.0505
   5   2.0000     -88.931017     -2419.9360
   6   2.0000     -62.566525     -1702.5217
   7   2.0000     -56.400482     -1534.7351
   8   2.0000     -56.397755     -1534.6609
   9   2.0000     -56.397725     -1534.6601
  10   2.0000     -19.237192      -523.4706
  11   2.0000     -19.236176      -523.4430
  12   2.0000     -19.232101      -523.3321
  13   2.0000     -14.648540      -398.6070
  14   2.0000     -14.495840      -394.4519
  15   2.0000     -14.453654      -393.3039
  16   2.0000     -14.420214      -392.3940
  17   2.0000     -14.416054      -392.2808
  18   2.0000     -10.379507      -282.4407
  19   2.0000     -10.370370      -282.1921
  20   2.0000     -10.370055      -282.1835
  21   2.0000     -10.362678      -281.9828
  22   2.0000     -10.347786      -281.5776
  23   2.0000     -10.346057      -281.5305
  24   2.0000     -10.343003      -281.4474
  25   2.0000     -10.330024      -281.0942
  26   2.0000     -10.322618      -280.8927
  27   2.0000     -10.319333      -280.8033
  28   2.0000     -10.313247      -280.6377
  29   2.0000     -10.311892      -280.6008
  30   2.0000     -10.310214      -280.5552
  31   2.0000     -10.309961      -280.5483
  32   2.0000     -10.307462      -280.4803
  33   2.0000     -10.305588      -280.4293
  34   2.0000     -10.304581      -280.4019
  35   2.0000     -10.300655      -280.2951
  36   2.0000     -10.300088      -280.2797
  37   2.0000     -10.299611      -280.2667
  38   2.0000     -10.299319      -280.2587
  39   2.0000     -10.298649      -280.2405
  40   2.0000     -10.294613      -280.1307
  41   2.0000     -10.294203      -280.1195
  42   2.0000     -10.294135      -280.1177
  43   2.0000     -10.293272      -280.0942
  44   2.0000     -10.292940      -280.0851
  45   2.0000     -10.287948      -279.9493
  46   2.0000     -10.286677      -279.9147
  47   2.0000     -10.283909      -279.8394
  48   2.0000     -10.281959      -279.7863
  49   2.0000     -10.278315      -279.6872
  50   2.0000     -10.276958      -279.6502
  51   2.0000     -10.275871      -279.6207
  52   2.0000     -10.274846      -279.5928
  53   2.0000     -10.273103      -279.5453
  54   2.0000     -10.271662      -279.5061
  55   2.0000     -10.271126      -279.4916
  56   2.0000     -10.270378      -279.4712
  57   2.0000     -10.270342      -279.4702
  58   2.0000     -10.270288      -279.4687
  59   2.0000     -10.269974      -279.4602
  60   2.0000     -10.269822      -279.4561
  61   2.0000     -10.266928      -279.3773
  62   2.0000     -10.266738      -279.3722
  63   2.0000     -10.264618      -279.3144
  64   2.0000     -10.264054      -279.2991
  65   2.0000     -10.263881      -279.2944
  66   2.0000     -10.262893      -279.2675
  67   2.0000     -10.262433      -279.2550
  68   2.0000     -10.262378      -279.2535
  69   2.0000     -10.262112      -279.2463
  70   2.0000     -10.261263      -279.2232
  71   2.0000     -10.261180      -279.2209
  72   2.0000     -10.261049      -279.2173
  73   2.0000     -10.252950      -278.9970
  74   2.0000     -10.244307      -278.7618
  75   2.0000     -10.243794      -278.7478
  76   2.0000      -8.795941      -239.3497
  77   2.0000      -8.084231      -219.9831
  78   2.0000      -8.075830      -219.7545
  79   2.0000      -8.041348      -218.8162
  80   2.0000      -8.031233      -218.5410
  81   2.0000      -8.027226      -218.4319
  82   2.0000      -6.632242      -180.4725
  83   2.0000      -6.617674      -180.0761
  84   2.0000      -6.617467      -180.0704
  85   2.0000      -6.053838      -164.7333
  86   2.0000      -6.049490      -164.6150
  87   2.0000      -6.045795      -164.5145
  88   2.0000      -6.045512      -164.5067
  89   2.0000      -6.041227      -164.3901
  90   2.0000      -6.037101      -164.2779
  91   2.0000      -6.010710      -163.5597
  92   2.0000      -6.006629      -163.4487
  93   2.0000      -6.003408      -163.3610
  94   2.0000      -6.000992      -163.2953
  95   2.0000      -5.996948      -163.1853
  96   2.0000      -5.996909      -163.1842
  97   2.0000      -5.993058      -163.0794
  98   2.0000      -5.992171      -163.0553
  99   2.0000      -5.988098      -162.9444
 100   2.0000      -2.748151       -74.7810
 101   2.0000      -2.744011       -74.6683
 102   2.0000      -2.743843       -74.6638
 103   2.0000      -2.732279       -74.3491
 104   2.0000      -2.732262       -74.3486
 105   2.0000      -1.317314       -35.8459
 106   2.0000      -1.146725       -31.2040
 107   2.0000      -1.136222       -30.9182
 108   2.0000      -1.103070       -30.0161
 109   2.0000      -1.073557       -29.2130
 110   2.0000      -1.027408       -27.9572
 111   2.0000      -1.016858       -27.6701
 112   2.0000      -1.009144       -27.4602
 113   2.0000      -0.997287       -27.1376
 114   2.0000      -0.993452       -27.0332
 115   2.0000      -0.984651       -26.7937
 116   2.0000      -0.983275       -26.7563
 117   2.0000      -0.965672       -26.2773
 118   2.0000      -0.957867       -26.0649
 119   2.0000      -0.946419       -25.7534
 120   2.0000      -0.944810       -25.7096
 121   2.0000      -0.924606       -25.1598
 122   2.0000      -0.914200       -24.8767
 123   2.0000      -0.912783       -24.8381
 124   2.0000      -0.898304       -24.4441
 125   2.0000      -0.896692       -24.4002
 126   2.0000      -0.890718       -24.2377
 127   2.0000      -0.890457       -24.2306
 128   2.0000      -0.883639       -24.0450
 129   2.0000      -0.873935       -23.7810
 130   2.0000      -0.865747       -23.5582
 131   2.0000      -0.854087       -23.2409
 132   2.0000      -0.851852       -23.1801
 133   2.0000      -0.847319       -23.0567
 134   2.0000      -0.836695       -22.7676
 135   2.0000      -0.834958       -22.7204
 136   2.0000      -0.834126       -22.6977
 137   2.0000      -0.831031       -22.6135
 138   2.0000      -0.827901       -22.5283
 139   2.0000      -0.822906       -22.3924
 140   2.0000      -0.814024       -22.1507
 141   2.0000      -0.807106       -21.9625
 142   2.0000      -0.799907       -21.7666
 143   2.0000      -0.793048       -21.5799
 144   2.0000      -0.781855       -21.2753
 145   2.0000      -0.766469       -20.8567
 146   2.0000      -0.759875       -20.6773
 147   2.0000      -0.758328       -20.6352
 148   2.0000      -0.749409       -20.3925
 149   2.0000      -0.735494       -20.0138
 150   2.0000      -0.728997       -19.8370
 151   2.0000      -0.720601       -19.6086
 152   2.0000      -0.716000       -19.4834
 153   2.0000      -0.708204       -19.2712
 154   2.0000      -0.700402       -19.0589
 155   2.0000      -0.693930       -18.8828
 156   2.0000      -0.687711       -18.7136
 157   2.0000      -0.681786       -18.5523
 158   2.0000      -0.677402       -18.4331
 159   2.0000      -0.673266       -18.3205
 160   2.0000      -0.672076       -18.2881
 161   2.0000      -0.671223       -18.2649
 162   2.0000      -0.668812       -18.1993
 163   2.0000      -0.661591       -18.0028
 164   2.0000      -0.656874       -17.8745
 165   2.0000      -0.647938       -17.6313
 166   2.0000      -0.645141       -17.5552
 167   2.0000      -0.641026       -17.4432
 168   2.0000      -0.634521       -17.2662
 169   2.0000      -0.629603       -17.1324
 170   2.0000      -0.623131       -16.9562
 171   2.0000      -0.621928       -16.9235
 172   2.0000      -0.615053       -16.7365
 173   2.0000      -0.614335       -16.7169
 174   2.0000      -0.606849       -16.5132
 175   2.0000      -0.603351       -16.4180
 176   2.0000      -0.599710       -16.3189
 177   2.0000      -0.595995       -16.2179
 178   2.0000      -0.589399       -16.0384
 179   2.0000      -0.585933       -15.9441
 180   2.0000      -0.584043       -15.8926
 181   2.0000      -0.578803       -15.7500
 182   2.0000      -0.573268       -15.5994
 183   2.0000      -0.567814       -15.4510
 184   2.0000      -0.562653       -15.3106
 185   2.0000      -0.559747       -15.2315
 186   2.0000      -0.553045       -15.0491
 187   2.0000      -0.550534       -14.9808
 188   2.0000      -0.547171       -14.8893
 189   2.0000      -0.543395       -14.7865
 190   2.0000      -0.540609       -14.7107
 191   2.0000      -0.540248       -14.7009
 192   2.0000      -0.539337       -14.6761
 193   2.0000      -0.534265       -14.5381
 194   2.0000      -0.530407       -14.4331
 195   2.0000      -0.528409       -14.3787
 196   2.0000      -0.526254       -14.3201
 197   2.0000      -0.524608       -14.2753
 198   2.0000      -0.522088       -14.2067
 199   2.0000      -0.519113       -14.1258
 200   2.0000      -0.515945       -14.0396
 201   2.0000      -0.515365       -14.0238
 202   2.0000      -0.514295       -13.9947
 203   2.0000      -0.512570       -13.9478
 204   2.0000      -0.512043       -13.9334
 205   2.0000      -0.508589       -13.8394
 206   2.0000      -0.504857       -13.7378
 207   2.0000      -0.502276       -13.6676
 208   2.0000      -0.500899       -13.6302
 209   2.0000      -0.499953       -13.6044
 210   2.0000      -0.493739       -13.4353
 211   2.0000      -0.490366       -13.3435
 212   2.0000      -0.485465       -13.2102
 213   2.0000      -0.482587       -13.1319
 214   2.0000      -0.481081       -13.0909
 215   2.0000      -0.480043       -13.0626
 216   2.0000      -0.478314       -13.0156
 217   2.0000      -0.476964       -12.9788
 218   2.0000      -0.470083       -12.7916
 219   2.0000      -0.468155       -12.7391
 220   2.0000      -0.465167       -12.6578
 221   2.0000      -0.464478       -12.6391
 222   2.0000      -0.463366       -12.6088
 223   2.0000      -0.463104       -12.6017
 224   2.0000      -0.460083       -12.5195
 225   2.0000      -0.458484       -12.4760
 226   2.0000      -0.457684       -12.4542
 227   2.0000      -0.452806       -12.3215
 228   2.0000      -0.452372       -12.3097
 229   2.0000      -0.450921       -12.2702
 230   2.0000      -0.447306       -12.1718
 231   2.0000      -0.446192       -12.1415
 232   2.0000      -0.445137       -12.1128
 233   2.0000      -0.443335       -12.0638
 234   2.0000      -0.440790       -11.9945
 235   2.0000      -0.434977       -11.8363
 236   2.0000      -0.431334       -11.7372
 237   2.0000      -0.429979       -11.7003
 238   2.0000      -0.429441       -11.6857
 239   2.0000      -0.428300       -11.6546
 240   2.0000      -0.426294       -11.6001
 241   2.0000      -0.422603       -11.4996
 242   2.0000      -0.420147       -11.4328
 243   2.0000      -0.418884       -11.3984
 244   2.0000      -0.418631       -11.3915
 245   2.0000      -0.415570       -11.3082
 246   2.0000      -0.415271       -11.3001
 247   2.0000      -0.412833       -11.2337
 248   2.0000      -0.408880       -11.1262
 249   2.0000      -0.407627       -11.0921
 250   2.0000      -0.405025       -11.0213
 251   2.0000      -0.401915       -10.9367
 252   2.0000      -0.392878       -10.6908
 253   2.0000      -0.392465       -10.6795
 254   2.0000      -0.389767       -10.6061
 255   2.0000      -0.384731       -10.4691
 256   2.0000      -0.384355       -10.4588
 257   2.0000      -0.383882       -10.4459
 258   2.0000      -0.379261       -10.3202
 259   2.0000      -0.378110       -10.2889
 260   2.0000      -0.376769       -10.2524
 261   2.0000      -0.374707       -10.1963
 262   2.0000      -0.370316       -10.0768
 263   2.0000      -0.365373        -9.9423
 264   2.0000      -0.355800        -9.6818
 265   2.0000      -0.355227        -9.6662
 266   2.0000      -0.343413        -9.3447
 267   2.0000      -0.340265        -9.2591
 268   2.0000      -0.327154        -8.9023
 269   2.0000      -0.323565        -8.8046
 270   2.0000      -0.321723        -8.7545
 271   2.0000      -0.318394        -8.6639
 272   2.0000      -0.312327        -8.4988
 273   2.0000      -0.310909        -8.4603
 274   2.0000      -0.302513        -8.2318
 275   2.0000      -0.297639        -8.0992
 276   2.0000      -0.289697        -7.8831
 277   2.0000      -0.281124        -7.6498
 278   2.0000      -0.261405        -7.1132
 279   2.0000      -0.240305        -6.5390
 280   2.0000      -0.188083        -5.1180
 281   0.0000      -0.089943        -2.4475
 282   0.0000      -0.071160        -1.9364
 283   0.0000      -0.069025        -1.8783
 284   0.0000      -0.041384        -1.1261
 285   0.0000      -0.030952        -0.8422

MULLIKEN ATOMIC CHARGES
-----------------------
   0 C :    0.326025
   1 C :   -0.347989
   2 C :   -0.183940
   3 N :    0.152828
   4 C :   -0.198104
   5 N :    0.145733
   6 C :    0.009605
   7 C :   -0.006916
   8 C :   -0.069649
   9 C :    0.115509
  10 C :   -0.092257
  11 C :   -0.020698
  12 S :    0.190704
  13 C :   -0.122711
  14 C :    0.037339
  15 Br:    0.026368
  16 C :    0.161126
  17 O :   -0.211189
  18 C :   -0.127761
  19 C :    0.022530
  20 N :   -0.010392
  21 C :   -0.130533
  22 S :    0.175801
  23 C :    0.002201
  24 N :    0.275195
  25 O :   -0.249907
  26 O :   -0.257772
  27 C :    0.011058
  28 C :    0.130173
  29 C :   -0.027404
  30 C :   -0.000190
  31 C :    0.106651
  32 C :   -0.086146
  33 C :    0.010527
  34 C :    0.114633
  35 C :   -0.057174
  36 C :   -0.009426
  37 C :    0.100107
  38 C :    0.025169
  39 C :   -0.145728
  40 C :    0.072363
  41 C :    0.023259
  42 C :    0.072570
  43 C :    0.024750
  44 C :   -0.113522
  45 C :    0.131992
  46 C :   -0.013984
  47 C :   -0.043744
  48 C :   -0.023288
  49 C :    0.024839
  50 C :   -0.025710
  51 C :   -0.010289
  52 C :    0.026381
  53 C :    0.030039
  54 C :   -0.054995
  55 S :    0.048036
  56 C :   -0.026614
  57 C :    0.017759
  58 C :    0.031706
  59 C :   -0.030326
  60 S :    0.054635
  61 C :    0.030227
  62 C :   -0.167884
  63 S :    0.101008
  64 C :   -0.307098
  65 C :    0.085753
  66 C :    0.030542
  67 C :    0.088426
  68 C :    0.122820
  69 C :   -0.079856
  70 C :    0.087893
  71 N :   -0.058550
  72 H :   -0.007239
  73 H :   -0.003932
  74 H :   -0.001772
  75 H :    0.046790
  76 H :    0.181913
  77 H :    0.010792
  78 H :   -0.002696
  79 H :   -0.016516
  80 H :   -0.041806
  81 H :   -0.036474
  82 H :   -0.032186
  83 H :   -0.002726
  84 H :   -0.007847
  85 H :    0.025332
  86 H :    0.009061
  87 H :    0.018150
  88 H :   -0.005200
  89 H :   -0.003465
  90 H :    0.021653
  91 H :    0.006233
  92 H :    0.022540
  93 H :   -0.044669
  94 H :   -0.033003
  95 H :   -0.041920
  96 H :   -0.031235
  97 H :   -0.002578
  98 H :   -0.024873
  99 H :   -0.020501
 100 H :   -0.018441
 101 H :   -0.020423
 102 H :   -0.016708
 103 H :   -0.022966
 104 H :    0.006252
 105 H :    0.005313
 106 H :    0.015606
 107 H :    0.017509
 108 H :    0.009439
 109 H :   -0.008431
 110 H :   -0.001796
 111 H :    0.120280
Sum of atomic charges:   -0.0000000

LOEWDIN ATOMIC CHARGES
----------------------
   0 C :    0.079143
   1 C :   -0.150418
   2 C :   -0.019909
   3 N :   -0.055112
   4 C :   -0.021069
   5 N :   -0.053830
   6 C :   -0.018591
   7 C :   -0.051334
   8 C :    0.023818
   9 C :   -0.033970
  10 C :   -0.143873
  11 C :   -0.007776
  12 S :    0.436470
  13 C :   -0.271225
  14 C :   -0.069967
  15 Br:    0.138553
  16 C :    0.093153
  17 O :   -0.172586
  18 C :   -0.147459
  19 C :    0.110227
  20 N :    0.081568
  21 C :   -0.115188
  22 S :    0.471208
  23 C :   -0.203496
  24 N :    0.274073
  25 O :   -0.215923
  26 O :   -0.224786
  27 C :    0.001655
  28 C :   -0.081115
  29 C :   -0.039602
  30 C :   -0.004183
  31 C :   -0.030334
  32 C :   -0.016038
  33 C :    0.004632
  34 C :   -0.010012
  35 C :   -0.023072
  36 C :   -0.013279
  37 C :   -0.027435
  38 C :    0.003156
  39 C :   -0.035657
  40 C :   -0.011572
  41 C :   -0.057934
  42 C :   -0.011368
  43 C :   -0.057891
  44 C :   -0.025880
  45 C :   -0.018280
  46 C :   -0.017794
  47 C :   -0.017117
  48 C :   -0.032230
  49 C :   -0.024878
  50 C :   -0.070833
  51 C :   -0.139042
  52 C :   -0.047572
  53 C :   -0.029284
  54 C :   -0.193965
  55 S :    0.355162
  56 C :   -0.171670
  57 C :   -0.050918
  58 C :   -0.027747
  59 C :   -0.169005
  60 S :    0.390281
  61 C :   -0.063730
  62 C :   -0.188732
  63 S :    0.426351
  64 C :   -0.206476
  65 C :   -0.043573
  66 C :   -0.050392
  67 C :   -0.028183
  68 C :   -0.056194
  69 C :   -0.094117
  70 C :    0.027250
  71 N :    0.048267
  72 H :    0.042267
  73 H :    0.042066
  74 H :    0.039414
  75 H :    0.035971
  76 H :    0.088906
  77 H :    0.046921
  78 H :    0.030799
  79 H :    0.024480
  80 H :    0.022126
  81 H :    0.026267
  82 H :    0.025448
  83 H :    0.020041
  84 H :    0.017692
  85 H :    0.027012
  86 H :    0.023690
  87 H :    0.024299
  88 H :    0.018579
  89 H :    0.019779
  90 H :    0.025394
  91 H :    0.022980
  92 H :    0.026074
  93 H :    0.022323
  94 H :    0.025145
  95 H :    0.024883
  96 H :    0.023950
  97 H :    0.018388
  98 H :    0.029126
  99 H :    0.030339
 100 H :    0.030140
 101 H :    0.029258
 102 H :    0.031226
 103 H :    0.032230
 104 H :    0.031674
 105 H :    0.027748
 106 H :    0.026203
 107 H :    0.023444
 108 H :    0.021577
 109 H :    0.011776
 110 H :    0.023065
 111 H :    0.085945

  Mayer bond orders larger than 0.100000
B(  0-C ,  1-C ) :   1.6214 B(  0-C ,  6-C ) :   1.0028 B(  0-C , 18-C ) :   1.1067
B(  1-C ,  2-C ) :   1.1454 B(  1-C ,  4-C ) :   1.1508 B(  2-C ,  3-N ) :   2.9675
B(  4-C ,  5-N ) :   2.9550 B(  6-C ,  7-C ) :   1.2724 B(  6-C , 11-C ) :   1.4240
B(  7-C ,  8-C ) :   1.4260 B(  7-C , 16-C ) :   0.9760 B(  8-C ,  9-C ) :   1.2406
B(  8-C , 72-H ) :   1.0183 B(  9-C , 10-C ) :   1.3105 B(  9-C , 14-C ) :   1.1635
B( 10-C , 11-C ) :   1.3192 B( 10-C , 12-S ) :   1.0902 B( 11-C , 73-H ) :   0.9800
B( 12-S , 13-C ) :   1.0873 B( 13-C , 14-C ) :   1.6173 B( 13-C , 15-Br) :   1.0203
B( 14-C , 74-H ) :   1.0005 B( 16-C , 17-O ) :   2.0570 B( 16-C , 18-C ) :   0.9986
B( 17-O , 76-H ) :   0.1348 B( 18-C , 19-C ) :   1.4434 B( 19-C , 20-N ) :   1.3454
B( 19-C , 75-H ) :   0.9312 B( 20-N , 21-C ) :   1.1763 B( 20-N , 76-H ) :   0.8245
B( 21-C , 22-S ) :   1.1372 B( 21-C , 28-C ) :   1.3980 B( 22-S , 23-C ) :   1.0868
B( 23-C , 24-N ) :   0.9682 B( 23-C , 27-C ) :   1.4864 B( 24-N , 25-O ) :   1.5342
B( 24-N , 26-O ) :   1.5151 B( 25-O , 26-O ) :   0.2620 B( 27-C , 28-C ) :   1.2230
B( 27-C , 77-H ) :   1.0075 B( 28-C , 29-C ) :   1.0540 B( 29-C , 30-C ) :   1.7176
B( 29-C , 78-H ) :   0.9598 B( 30-C , 31-C ) :   1.0814 B( 30-C , 79-H ) :   0.9721
B( 31-C , 32-C ) :   1.3002 B( 31-C , 36-C ) :   1.3408 B( 32-C , 33-C ) :   1.4112
B( 32-C , 80-H ) :   0.9970 B( 33-C , 34-C ) :   1.3541 B( 33-C , 39-C ) :   0.9146
B( 34-C , 35-C ) :   1.3424 B( 34-C , 37-C ) :   1.0003 B( 35-C , 36-C ) :   1.3742
B( 35-C , 81-H ) :   0.9917 B( 36-C , 82-H ) :   0.9913 B( 37-C , 38-C ) :   1.3658
B( 37-C , 47-C ) :   1.3238 B( 38-C , 39-C ) :   0.9158 B( 38-C , 44-C ) :   1.3827
B( 39-C , 40-C ) :   1.0401 B( 39-C , 42-C ) :   1.0372 B( 40-C , 41-C ) :   1.1009
B( 40-C , 83-H ) :   0.9390 B( 40-C , 84-H ) :   0.9382 B( 41-C , 85-H ) :   0.9645
B( 41-C , 86-H ) :   0.9641 B( 41-C , 87-H ) :   0.9641 B( 42-C , 43-C ) :   1.1026
B( 42-C , 88-H ) :   0.9387 B( 42-C , 89-H ) :   0.9390 B( 43-C , 90-H ) :   0.9638
B( 43-C , 91-H ) :   0.9636 B( 43-C , 92-H ) :   0.9645 B( 44-C , 45-C ) :   1.2779
B( 44-C , 93-H ) :   1.0132 B( 45-C , 46-C ) :   1.3355 B( 45-C , 48-C ) :   1.0740
B( 46-C , 47-C ) :   1.4069 B( 46-C , 94-H ) :   0.9830 B( 47-C , 95-H ) :   0.9893
B( 48-C , 49-C ) :   1.6426 B( 48-C , 96-H ) :   0.9874 B( 49-C , 50-C ) :   1.1580
B( 49-C , 97-H ) :   0.9615 B( 50-C , 51-C ) :   1.5515 B( 50-C , 98-H ) :   0.9853
B( 51-C , 52-C ) :   1.1497 B( 51-C , 55-S ) :   1.0348 B( 52-C , 53-C ) :   1.5742
B( 52-C , 99-H ) :   0.9986 B( 53-C , 54-C ) :   1.2043 B( 53-C ,100-H ) :   0.9935
B( 54-C , 55-S ) :   1.0320 B( 54-C , 56-C ) :   1.4879 B( 56-C , 57-C ) :   1.1976
B( 56-C , 60-S ) :   1.0521 B( 57-C , 58-C ) :   1.5745 B( 57-C ,101-H ) :   0.9923
B( 58-C , 59-C ) :   1.1585 B( 58-C ,102-H ) :   0.9982 B( 59-C , 60-S ) :   1.0211
B( 59-C , 61-C ) :   1.5848 B( 61-C , 62-C ) :   1.2105 B( 61-C ,103-H ) :   0.9368
B( 62-C , 63-S ) :   1.1090 B( 62-C , 68-C ) :   1.3145 B( 63-S , 64-C ) :   1.1283
B( 64-C , 65-C ) :   1.0654 B( 64-C , 67-C ) :   1.4901 B( 65-C , 66-C ) :   1.1078
B( 65-C ,104-H ) :   0.9091 B( 65-C ,105-H ) :   0.9377 B( 66-C ,106-H ) :   0.9658
B( 66-C ,107-H ) :   0.9689 B( 66-C ,108-H ) :   0.9720 B( 67-C , 68-C ) :   1.2351
B( 67-C , 71-N ) :   1.1644 B( 68-C , 69-C ) :   1.2028 B( 69-C , 70-C ) :   1.5661
B( 69-C ,109-H ) :   0.9987 B( 70-C , 71-N ) :   1.1631 B( 70-C ,110-H ) :   0.9838
B( 71-N ,111-H ) :   0.9429

-----------------------------------------------------------------------------
         ABSORPTION SPECTRUM VIA TRANSITION ELECTRIC DIPOLE MOMENTS
-----------------------------------------------------------------------------
State   Energy  Wavelength   fosc         T2         TX        TY        TZ
        (cm-1)    (nm)                  (au**2)     (au)      (au)      (au)
-----------------------------------------------------------------------------
   0   12979.3    770.5   1.254610359  31.82247  -2.19990   5.15364   0.65035
   1   14943.4    669.2   0.097100536   2.13919  -1.37302   0.44894   0.22905
   2   18384.2    543.9   0.030845813   0.55237  -0.67959  -0.29776   0.04316
   3   20993.2    476.3   0.585772519   9.18598  -2.51347  -1.09166  -1.29488
   4   21311.7    469.2   0.150538479   2.32544   1.45220   0.39227  -0.25032
   5   23890.4    418.6   1.187263631  16.36063   2.11583   2.67228  -2.17779
   6   24359.4    410.5   0.077672769   1.04973  -0.13103  -0.55176   0.85330
   7   25673.3    389.5   0.239964645   3.07710   0.55400   1.12427  -1.22727
   8   25966.4    385.1   0.300658397   3.81186  -1.66370  -0.23494  -0.99437
   9   27372.4    365.3   0.320384114   3.85331   1.05532   1.38198  -0.91089
  10   28750.2    347.8   0.006384995   0.07311   0.18685   0.08626  -0.17538
  11   29101.1    343.6   0.040871873   0.46237  -0.23578  -0.50170   0.39379
  12   29561.8    338.3   0.270548518   3.01294   0.01885   0.93093  -1.46491
  13   29877.0    334.7   0.525028532   5.78524   0.72289  -0.91536   2.10352
  14   30892.2    323.7   0.019244593   0.20509  -0.04608  -0.39650  -0.21390
  15   31027.6    322.3   0.228070627   2.41989   0.31190  -1.20135   0.93775
  16   32013.7    312.4   0.000805546   0.00828  -0.06426   0.05136   0.03895
  17   32315.0    309.5   0.012453845   0.12687  -0.19173   0.04181   0.29726
  18   32735.0    305.5   0.017228674   0.17327  -0.01514  -0.40575   0.09167
  19   33000.4    303.0   0.098627488   0.98391  -0.45090   0.88274  -0.03709
  20   33182.3    301.4   0.020570048   0.20408   0.31277   0.16459   0.28136
  21   33511.9    298.4   0.139681383   1.37219  -0.01791   0.83420  -0.82218
  22   33751.7    296.3   0.042162320   0.41125  -0.23676  -0.45525   0.38463
  23   34062.4    293.6   0.469476879   4.53748   0.70508   1.37352  -1.46758
  24   34215.1    292.3   0.013779877   0.13259   0.15293   0.08486  -0.31937
  25   34264.7    291.8   0.042749300   0.41073   0.31765  -0.48090   0.28030
  26   34946.7    286.2   0.011463732   0.10799   0.04535   0.18857  -0.26528
  27   35061.9    285.2   0.013553385   0.12726   0.15164   0.31802  -0.05593
  28   35405.9    282.4   0.064558907   0.60028   0.40676  -0.40239   0.52242
  29   35594.3    280.9   0.000603652   0.00558   0.01969   0.05596   0.04543
  30   35625.0    280.7   0.004821843   0.04456  -0.14032  -0.07880   0.13660
  31   36241.0    275.9   0.325842523   2.95994  -0.24126  -1.50114   0.80517
  32   36349.0    275.1   0.026542308   0.24039  -0.43729   0.15984   0.15369
  33   37145.9    269.2   0.015434771   0.13679  -0.11245  -0.17328   0.30679
  34   37360.7    267.7   0.012316835   0.10853   0.16706  -0.28394  -0.00069
  35   37437.4    267.1   0.007174189   0.06309  -0.13674   0.10822  -0.18077
  36   37830.0    264.3   0.080439966   0.70002  -0.67689   0.49177  -0.00235
  37   38034.8    262.9   0.008801775   0.07618   0.19333   0.19366   0.03613
  38   38236.8    261.5   0.181013941   1.55850   0.61445  -0.30811   1.04212
  39   38542.6    259.5   0.015955023   0.13628   0.09587  -0.31685   0.16339
  40   38947.7    256.8   0.028782893   0.24329  -0.41754  -0.26146  -0.02435
  41   39184.0    255.2   0.162115291   1.36204   0.63788   0.96187  -0.17308
  42   39535.2    252.9   0.000957834   0.00798   0.05766  -0.06350  -0.02489
  43   39655.2    252.2   0.021281901   0.17668   0.36689  -0.20507   0.00453
  44   39762.4    251.5   0.024570227   0.20343  -0.05619   0.43392  -0.10947
  45   40091.5    249.4   0.006418874   0.05271  -0.19214  -0.11822   0.04260

FINAL SINGLE POINT ENERGY     -7294.375411316845

DIPOLE MOMENT
-------------
                                X             Y             Z
Electronic contribution:   -122.13153    -132.32419     -73.30988
Nuclear contribution   :    122.05139     136.57413      71.22098
                        -----------------------------------------
Total Dipole Moment    :     -0.08014       4.24994      -2.08890
                        -----------------------------------------
Magnitude (a.u.)       :      4.73623
Magnitude (Debye)      :     12.03854

Rotational constants in cm-1:     0.000725     0.000215     0.000191
Rotational constants in MHz :    21.720989     6.452248     5.733076

                             ****ORCA TERMINATED NORMALLY****
TOTAL RUN TIME: 0 days 0 hours 12 minutes 49 seconds 705 msec
