                         Program Version 4.2.0 -  RELEASE  -
|  1> # ORCA input file
|  2> # SCF done       -185.620149242941          0.000464577939
|  3> ! CAM-B3LYP def2-SVP def2/J RIJCOSX Grid4 TightSCF
|  4> %maxcore 5000
|  5> %tddft
|  6>     Mode sTDDFT
|  7>     Ethresh 5.0
|  8>     maxcore 5000
|  9> end
| 10>
| 11> %pal
| 12>   nprocs 6
| 13>   end
| 14> * xyz 0 1
| 15>    C       -1.44744        -0.99044         1.42433
| 16>    C       -1.89486        -2.28230         1.22144
| 17>    C       -1.07415        -3.42303         1.28478
| 18>    N       -0.47073        -4.40122         1.32385
| 19>    C       -3.21019        -2.67061         0.92479
| 20>    N       -4.24787        -3.10444         0.67589
| 21>    C       -0.05929        -0.62751         1.71402
| 22>    C        0.01712         0.77867         1.85474
| 23>    C        1.19047         1.43340         2.12881
| 24>    C        2.35038         0.66176         2.27397
| 25>    C        2.26411        -0.74052         2.13267
| 26>    C        1.07382        -1.40371         1.85280
| 27>    S        3.81281        -1.50168         2.35108
| 28>    C        4.54240         0.05747         2.62717
| 29>    C        3.67545         1.09422         2.55847
| 30>   Br        6.38343         0.16911         2.97734
| 31>    C       -1.33411         1.35689         1.66217
| 32>    O       -1.61882         2.53957         1.71811
| 33>    C       -2.21821         0.21453         1.39734
| 34>    C       -3.58652         0.31066         1.17590
| 35>    C       -4.32273         1.47915         1.18286
| 36>    C       -5.69802         1.49542         0.97634
| 37>    C       -6.55381         2.60974         0.99664
| 38>    C       -7.87500         2.30672         0.78174
| 39>    C       -8.10990         0.94035         0.57696
| 40>    S       -6.61197         0.04152         0.66147
| 41>    C       -9.31265         0.28033         0.34151
| 42>    C      -10.61616         0.79974         0.28536
| 43>    C      -11.57499        -0.14938         0.04980
| 44>    C      -11.07681        -1.45899        -0.10017
| 45>    S       -9.33259        -1.44039         0.07607
| 46>    C      -11.83938        -2.58792        -0.33785
| 47>    C      -11.40308        -3.89552        -0.52978
| 48>    S      -12.61681        -5.16104        -0.76662
| 49>    C      -10.10442        -4.41976        -0.59035
| 50>    C      -10.07720        -5.78179        -0.80893
| 51>    C       -9.09502        -6.85132        -0.99845
| 52>    C       -7.75289        -6.77278        -0.85286
| 53>    C       -6.84755        -7.93320        -1.15476
| 54>    N       -7.06065        -8.42424        -2.51820
| 55>    C       -7.08584        -5.49715        -0.40323
| 56>    N       -5.71030        -5.70163         0.01244
| 57>    C      -11.38174        -6.33045        -0.94015
| 58>    C      -11.26944        -7.68997        -1.22434
| 59>    S      -12.31301        -9.02207        -1.51669
| 60>    C       -9.89969        -8.03385        -1.30133
| 61>    C       -9.71994        -9.37456        -1.61166
| 62>    C      -10.91867       -10.06178        -1.76431
| 63>    C      -11.06725       -11.42684        -2.09278
| 64>    C      -12.25914       -12.07248        -2.18551
| 65>    C      -12.41005       -13.43223        -2.53192
| 66>    O      -11.34872       -14.21838        -2.85742
| 67>    C      -11.80962       -15.46211        -3.14902
| 68>    C      -13.19317       -15.47940        -3.00381
| 69>    C      -13.58001       -14.18575        -2.61261
| 70>    O      -14.83062       -13.74610        -2.36060
| 71>    O      -14.07173       -16.50466        -3.18956
| 72>    C      -10.93070       -16.50402        -3.54611
| 73>    C       -9.59378       -16.34795        -3.70389
| 74>    C       -8.65928       -17.34688        -4.11695
| 75>    C       -8.93282       -18.66230        -4.25523
| 76>    C       -8.05168       -19.72876        -4.66743
| 77>    C       -6.75510       -19.55455        -5.20951
| 78>    O       -6.30505       -18.28079        -5.36912
| 79>    C       -5.04848       -18.06371        -5.96485
| 80>    C       -6.00635       -20.66989        -5.56741
| 81>    C       -6.50514       -21.95049        -5.40450
| 82>    C       -7.77346       -22.13864        -4.88510
| 83>    C       -8.52538       -21.03884        -4.53033
| 84>    H        1.21676         2.50714         2.23021
| 85>    H        1.06237        -2.47619         1.75398
| 86>    H        3.95539         2.12198         2.70176
| 87>    H       -4.13084        -0.60829         0.99197
| 88>    H       -3.82572         2.42025         1.36614
| 89>    H       -6.17935         3.60239         1.17275
| 90>    H       -8.66714         3.03402         0.76611
| 91>    H      -10.82153         1.84572         0.42426
| 92>    H      -12.62769         0.06120        -0.02166
| 93>    H      -12.90986        -2.42932        -0.37913
| 94>    H       -9.24170        -3.78980        -0.50355
| 95>    H       -7.07087        -8.75942        -0.46941
| 96>    H       -5.81561        -7.60237        -0.97613
| 97>    H       -6.93663        -7.66136        -3.17551
| 98>    H       -6.35893        -9.12543        -2.73356
| 99>    H       -7.70700        -5.03592         0.38095
|100>    H       -7.07215        -4.80525        -1.25440
|101>    H       -5.67889        -6.15914         0.91779
|102>    H       -5.23781        -4.80705         0.11102
|103>    H       -8.76871        -9.84449        -1.76606
|104>    H      -10.15540       -11.97735        -2.27853
|105>    H      -13.18434       -11.55025        -1.98638
|106>    H      -15.44015       -14.48324        -2.49657
|107>    H      -13.59152       -17.29422        -3.45957
|108>    H      -11.39932       -17.45918        -3.74092
|109>    H       -9.19045       -15.36164        -3.51919
|110>    H       -7.65961       -16.99495        -4.31195
|111>    H       -9.92888       -19.00653        -4.00390
|112>    H       -4.93184       -16.98176        -6.01205
|113>    H       -5.00582       -18.47426        -6.97849
|114>    H       -4.23729       -18.48652        -5.36369
|115>    H       -5.01709       -20.55007        -5.97969
|116>    H       -5.89856       -22.79688        -5.68922
|117>    H       -8.17158       -23.13388        -4.75972
|118>    H       -9.51607       -21.18463        -4.12353
|119> *
|120>
|121>                          ****END OF INPUT****

CARTESIAN COORDINATES (ANGSTROEM)
---------------------------------
  C     -1.447440   -0.990440    1.424330
  C     -1.894860   -2.282300    1.221440
  C     -1.074150   -3.423030    1.284780
  N     -0.470730   -4.401220    1.323850
  C     -3.210190   -2.670610    0.924790
  N     -4.247870   -3.104440    0.675890
  C     -0.059290   -0.627510    1.714020
  C      0.017120    0.778670    1.854740
  C      1.190470    1.433400    2.128810
  C      2.350380    0.661760    2.273970
  C      2.264110   -0.740520    2.132670
  C      1.073820   -1.403710    1.852800
  S      3.812810   -1.501680    2.351080
  C      4.542400    0.057470    2.627170
  C      3.675450    1.094220    2.558470
  Br     6.383430    0.169110    2.977340
  C     -1.334110    1.356890    1.662170
  O     -1.618820    2.539570    1.718110
  C     -2.218210    0.214530    1.397340
  C     -3.586520    0.310660    1.175900
  C     -4.322730    1.479150    1.182860
  C     -5.698020    1.495420    0.976340
  C     -6.553810    2.609740    0.996640
  C     -7.875000    2.306720    0.781740
  C     -8.109900    0.940350    0.576960
  S     -6.611970    0.041520    0.661470
  C     -9.312650    0.280330    0.341510
  C    -10.616160    0.799740    0.285360
  C    -11.574990   -0.149380    0.049800
  C    -11.076810   -1.458990   -0.100170
  S     -9.332590   -1.440390    0.076070
  C    -11.839380   -2.587920   -0.337850
  C    -11.403080   -3.895520   -0.529780
  S    -12.616810   -5.161040   -0.766620
  C    -10.104420   -4.419760   -0.590350
  C    -10.077200   -5.781790   -0.808930
  C     -9.095020   -6.851320   -0.998450
  C     -7.752890   -6.772780   -0.852860
  C     -6.847550   -7.933200   -1.154760
  N     -7.060650   -8.424240   -2.518200
  C     -7.085840   -5.497150   -0.403230
  N     -5.710300   -5.701630    0.012440
  C    -11.381740   -6.330450   -0.940150
  C    -11.269440   -7.689970   -1.224340
  S    -12.313010   -9.022070   -1.516690
  C     -9.899690   -8.033850   -1.301330
  C     -9.719940   -9.374560   -1.611660
  C    -10.918670  -10.061780   -1.764310
  C    -11.067250  -11.426840   -2.092780
  C    -12.259140  -12.072480   -2.185510
  C    -12.410050  -13.432230   -2.531920
  O    -11.348720  -14.218380   -2.857420
  C    -11.809620  -15.462110   -3.149020
  C    -13.193170  -15.479400   -3.003810
  C    -13.580010  -14.185750   -2.612610
  O    -14.830620  -13.746100   -2.360600
  O    -14.071730  -16.504660   -3.189560
  C    -10.930700  -16.504020   -3.546110
  C     -9.593780  -16.347950   -3.703890
  C     -8.659280  -17.346880   -4.116950
  C     -8.932820  -18.662300   -4.255230
  C     -8.051680  -19.728760   -4.667430
  C     -6.755100  -19.554550   -5.209510
  O     -6.305050  -18.280790   -5.369120
  C     -5.048480  -18.063710   -5.964850
  C     -6.006350  -20.669890   -5.567410
  C     -6.505140  -21.950490   -5.404500
  C     -7.773460  -22.138640   -4.885100
  C     -8.525380  -21.038840   -4.530330
  H      1.216760    2.507140    2.230210
  H      1.062370   -2.476190    1.753980
  H      3.955390    2.121980    2.701760
  H     -4.130840   -0.608290    0.991970
  H     -3.825720    2.420250    1.366140
  H     -6.179350    3.602390    1.172750
  H     -8.667140    3.034020    0.766110
  H    -10.821530    1.845720    0.424260
  H    -12.627690    0.061200   -0.021660
  H    -12.909860   -2.429320   -0.379130
  H     -9.241700   -3.789800   -0.503550
  H     -7.070870   -8.759420   -0.469410
  H     -5.815610   -7.602370   -0.976130
  H     -6.936630   -7.661360   -3.175510
  H     -6.358930   -9.125430   -2.733560
  H     -7.707000   -5.035920    0.380950
  H     -7.072150   -4.805250   -1.254400
  H     -5.678890   -6.159140    0.917790
  H     -5.237810   -4.807050    0.111020
  H     -8.768710   -9.844490   -1.766060
  H    -10.155400  -11.977350   -2.278530
  H    -13.184340  -11.550250   -1.986380
  H    -15.440150  -14.483240   -2.496570
  H    -13.591520  -17.294220   -3.459570
  H    -11.399320  -17.459180   -3.740920
  H     -9.190450  -15.361640   -3.519190
  H     -7.659610  -16.994950   -4.311950
  H     -9.928880  -19.006530   -4.003900
  H     -4.931840  -16.981760   -6.012050
  H     -5.005820  -18.474260   -6.978490
  H     -4.237290  -18.486520   -5.363690
  H     -5.017090  -20.550070   -5.979690
  H     -5.898560  -22.796880   -5.689220
  H     -8.171580  -23.133880   -4.759720
  H     -9.516070  -21.184630   -4.123530

 Total Charge           Charge          ....    0
 Multiplicity           Mult            ....    1
 Number of Electrons    NEL             ....  542
 Basis Dimension        Dim             .... 1179

ORBITAL ENERGIES
----------------

  NO   OCC          E(Eh)            E(eV)
   0   2.0000    -482.868601    -13139.5226
   1   2.0000     -88.968645     -2420.9599
   2   2.0000     -88.961089     -2420.7543
   3   2.0000     -88.955867     -2420.6122
   4   2.0000     -88.954186     -2420.5665
   5   2.0000     -88.947468     -2420.3836
   6   2.0000     -62.546284     -1701.9709
   7   2.0000     -56.380213     -1534.1836
   8   2.0000     -56.377544     -1534.1110
   9   2.0000     -56.377499     -1534.1097
  10   2.0000     -19.282849      -524.7130
  11   2.0000     -19.265455      -524.2397
  12   2.0000     -19.256887      -524.0065
  13   2.0000     -19.248848      -523.7878
  14   2.0000     -19.182562      -521.9841
  15   2.0000     -14.396796      -391.7567
  16   2.0000     -14.383710      -391.4006
  17   2.0000     -14.383194      -391.3866
  18   2.0000     -14.364915      -390.8892
  19   2.0000     -10.337804      -281.3060
  20   2.0000     -10.334314      -281.2110
  21   2.0000     -10.333924      -281.2004
  22   2.0000     -10.332631      -281.1652
  23   2.0000     -10.332617      -281.1648
  24   2.0000     -10.329282      -281.0741
  25   2.0000     -10.328805      -281.0611
  26   2.0000     -10.326221      -280.9908
  27   2.0000     -10.323401      -280.9140
  28   2.0000     -10.316294      -280.7206
  29   2.0000     -10.312348      -280.6133
  30   2.0000     -10.311521      -280.5907
  31   2.0000     -10.311141      -280.5804
  32   2.0000     -10.309843      -280.5451
  33   2.0000     -10.308956      -280.5210
  34   2.0000     -10.305381      -280.4237
  35   2.0000     -10.304451      -280.3984
  36   2.0000     -10.303109      -280.3618
  37   2.0000     -10.303042      -280.3600
  38   2.0000     -10.300657      -280.2951
  39   2.0000     -10.299895      -280.2744
  40   2.0000     -10.296738      -280.1885
  41   2.0000     -10.291687      -280.0510
  42   2.0000     -10.291268      -280.0396
  43   2.0000     -10.290570      -280.0207
  44   2.0000     -10.290049      -280.0065
  45   2.0000     -10.289871      -280.0016
  46   2.0000     -10.287845      -279.9465
  47   2.0000     -10.282921      -279.8125
  48   2.0000     -10.282564      -279.8028
  49   2.0000     -10.281331      -279.7692
  50   2.0000     -10.281076      -279.7623
  51   2.0000     -10.280907      -279.7577
  52   2.0000     -10.279939      -279.7314
  53   2.0000     -10.279740      -279.7260
  54   2.0000     -10.279367      -279.7158
  55   2.0000     -10.278844      -279.7016
  56   2.0000     -10.278807      -279.7005
  57   2.0000     -10.276582      -279.6400
  58   2.0000     -10.274561      -279.5850
  59   2.0000     -10.274531      -279.5842
  60   2.0000     -10.274041      -279.5709
  61   2.0000     -10.273833      -279.5652
  62   2.0000     -10.270156      -279.4652
  63   2.0000     -10.269849      -279.4568
  64   2.0000     -10.268408      -279.4176
  65   2.0000     -10.268136      -279.4102
  66   2.0000     -10.266704      -279.3712
  67   2.0000     -10.266578      -279.3678
  68   2.0000     -10.263464      -279.2831
  69   2.0000     -10.260791      -279.2103
  70   2.0000     -10.259332      -279.1706
  71   2.0000     -10.254059      -279.0271
  72   2.0000     -10.253804      -279.0202
  73   2.0000      -8.775676      -238.7983
  74   2.0000      -8.063713      -219.4248
  75   2.0000      -8.056638      -219.2323
  76   2.0000      -8.050928      -219.0769
  77   2.0000      -8.050162      -219.0560
  78   2.0000      -8.043353      -218.8708
  79   2.0000      -6.611873      -179.9182
  80   2.0000      -6.597436      -179.5254
  81   2.0000      -6.597305      -179.5218
  82   2.0000      -6.033050      -164.1676
  83   2.0000      -6.029126      -164.0609
  84   2.0000      -6.026225      -163.9819
  85   2.0000      -6.025616      -163.9654
  86   2.0000      -6.022117      -163.8701
  87   2.0000      -6.020301      -163.8207
  88   2.0000      -6.019861      -163.8087
  89   2.0000      -6.018044      -163.7593
  90   2.0000      -6.016373      -163.7138
  91   2.0000      -6.015611      -163.6931
  92   2.0000      -6.012832      -163.6175
  93   2.0000      -6.012760      -163.6155
  94   2.0000      -6.011376      -163.5779
  95   2.0000      -6.008831      -163.5086
  96   2.0000      -6.004810      -163.3992
  97   2.0000      -2.727755       -74.2260
  98   2.0000      -2.723676       -74.1150
  99   2.0000      -2.723635       -74.1139
 100   2.0000      -2.712126       -73.8007
 101   2.0000      -2.712123       -73.8006
 102   2.0000      -1.202720       -32.7277
 103   2.0000      -1.158635       -31.5281
 104   2.0000      -1.152439       -31.3595
 105   2.0000      -1.142444       -31.0875
 106   2.0000      -1.095236       -29.8029
 107   2.0000      -1.015137       -27.6233
 108   2.0000      -1.002796       -27.2875
 109   2.0000      -0.997608       -27.1463
 110   2.0000      -0.990661       -26.9573
 111   2.0000      -0.979585       -26.6559
 112   2.0000      -0.973130       -26.4802
 113   2.0000      -0.970886       -26.4191
 114   2.0000      -0.969586       -26.3838
 115   2.0000      -0.960577       -26.1386
 116   2.0000      -0.947855       -25.7924
 117   2.0000      -0.947404       -25.7802
 118   2.0000      -0.926826       -25.2202
 119   2.0000      -0.917877       -24.9767
 120   2.0000      -0.912471       -24.8296
 121   2.0000      -0.898456       -24.4482
 122   2.0000      -0.892087       -24.2749
 123   2.0000      -0.885557       -24.0972
 124   2.0000      -0.884644       -24.0724
 125   2.0000      -0.881226       -23.9794
 126   2.0000      -0.870874       -23.6977
 127   2.0000      -0.862394       -23.4669
 128   2.0000      -0.860706       -23.4210
 129   2.0000      -0.851779       -23.1781
 130   2.0000      -0.850570       -23.1452
 131   2.0000      -0.838666       -22.8213
 132   2.0000      -0.837306       -22.7842
 133   2.0000      -0.831130       -22.6162
 134   2.0000      -0.828097       -22.5337
 135   2.0000      -0.824056       -22.4237
 136   2.0000      -0.822104       -22.3706
 137   2.0000      -0.805115       -21.9083
 138   2.0000      -0.800964       -21.7953
 139   2.0000      -0.789683       -21.4884
 140   2.0000      -0.781820       -21.2744
 141   2.0000      -0.763966       -20.7886
 142   2.0000      -0.751267       -20.4430
 143   2.0000      -0.745784       -20.2938
 144   2.0000      -0.739014       -20.1096
 145   2.0000      -0.733798       -19.9677
 146   2.0000      -0.729795       -19.8587
 147   2.0000      -0.719513       -19.5790
 148   2.0000      -0.705925       -19.2092
 149   2.0000      -0.699461       -19.0333
 150   2.0000      -0.693106       -18.8604
 151   2.0000      -0.683429       -18.5971
 152   2.0000      -0.682357       -18.5679
 153   2.0000      -0.673554       -18.3283
 154   2.0000      -0.669815       -18.2266
 155   2.0000      -0.667165       -18.1545
 156   2.0000      -0.662715       -18.0334
 157   2.0000      -0.655082       -17.8257
 158   2.0000      -0.644262       -17.5313
 159   2.0000      -0.642079       -17.4719
 160   2.0000      -0.634607       -17.2685
 161   2.0000      -0.633534       -17.2393
 162   2.0000      -0.628492       -17.1021
 163   2.0000      -0.621979       -16.9249
 164   2.0000      -0.618842       -16.8395
 165   2.0000      -0.616919       -16.7872
 166   2.0000      -0.611919       -16.6512
 167   2.0000      -0.605062       -16.4646
 168   2.0000      -0.599527       -16.3140
 169   2.0000      -0.597317       -16.2538
 170   2.0000      -0.596595       -16.2342
 171   2.0000      -0.588146       -16.0043
 172   2.0000      -0.577471       -15.7138
 173   2.0000      -0.573065       -15.5939
 174   2.0000      -0.572556       -15.5800
 175   2.0000      -0.571273       -15.5451
 176   2.0000      -0.568459       -15.4686
 177   2.0000      -0.563657       -15.3379
 178   2.0000      -0.563284       -15.3277
 179   2.0000      -0.558735       -15.2039
 180   2.0000      -0.556509       -15.1434
 181   2.0000      -0.555614       -15.1190
 182   2.0000      -0.548547       -14.9267
 183   2.0000      -0.543251       -14.7826
 184   2.0000      -0.536974       -14.6118
 185   2.0000      -0.532150       -14.4805
 186   2.0000      -0.527968       -14.3667
 187   2.0000      -0.525474       -14.2989
 188   2.0000      -0.520364       -14.1598
 189   2.0000      -0.518779       -14.1167
 190   2.0000      -0.516428       -14.0527
 191   2.0000      -0.514385       -13.9971
 192   2.0000      -0.511111       -13.9080
 193   2.0000      -0.509340       -13.8598
 194   2.0000      -0.506294       -13.7770
 195   2.0000      -0.503681       -13.7059
 196   2.0000      -0.503157       -13.6916
 197   2.0000      -0.502594       -13.6763
 198   2.0000      -0.499613       -13.5952
 199   2.0000      -0.497813       -13.5462
 200   2.0000      -0.496405       -13.5079
 201   2.0000      -0.492197       -13.3934
 202   2.0000      -0.490842       -13.3565
 203   2.0000      -0.488542       -13.2939
 204   2.0000      -0.486041       -13.2258
 205   2.0000      -0.485197       -13.2029
 206   2.0000      -0.484588       -13.1863
 207   2.0000      -0.480425       -13.0730
 208   2.0000      -0.478920       -13.0321
 209   2.0000      -0.474803       -12.9200
 210   2.0000      -0.469904       -12.7867
 211   2.0000      -0.468729       -12.7548
 212   2.0000      -0.468162       -12.7393
 213   2.0000      -0.466915       -12.7054
 214   2.0000      -0.465986       -12.6801
 215   2.0000      -0.465254       -12.6602
 216   2.0000      -0.463546       -12.6137
 217   2.0000      -0.461606       -12.5609
 218   2.0000      -0.460169       -12.5218
 219   2.0000      -0.458341       -12.4721
 220   2.0000      -0.455301       -12.3894
 221   2.0000      -0.449689       -12.2367
 222   2.0000      -0.447187       -12.1686
 223   2.0000      -0.445339       -12.1183
 224   2.0000      -0.441441       -12.0122
 225   2.0000      -0.437507       -11.9052
 226   2.0000      -0.434382       -11.8201
 227   2.0000      -0.433037       -11.7835
 228   2.0000      -0.431654       -11.7459
 229   2.0000      -0.426569       -11.6075
 230   2.0000      -0.425445       -11.5770
 231   2.0000      -0.424758       -11.5582
 232   2.0000      -0.424289       -11.5455
 233   2.0000      -0.423003       -11.5105
 234   2.0000      -0.419969       -11.4279
 235   2.0000      -0.417828       -11.3697
 236   2.0000      -0.416032       -11.3208
 237   2.0000      -0.414142       -11.2694
 238   2.0000      -0.410055       -11.1582
 239   2.0000      -0.404741       -11.0136
 240   2.0000      -0.403691       -10.9850
 241   2.0000      -0.401289       -10.9196
 242   2.0000      -0.401258       -10.9188
 243   2.0000      -0.399256       -10.8643
 244   2.0000      -0.397615       -10.8197
 245   2.0000      -0.389151       -10.5893
 246   2.0000      -0.385949       -10.5022
 247   2.0000      -0.382474       -10.4077
 248   2.0000      -0.377693       -10.2776
 249   2.0000      -0.370967       -10.0945
 250   2.0000      -0.363096        -9.8803
 251   2.0000      -0.358407        -9.7527
 252   2.0000      -0.356702        -9.7064
 253   2.0000      -0.346416        -9.4265
 254   2.0000      -0.341039        -9.2801
 255   2.0000      -0.332205        -9.0398
 256   2.0000      -0.329961        -8.9787
 257   2.0000      -0.322335        -8.7712
 258   2.0000      -0.313943        -8.5428
 259   2.0000      -0.310793        -8.4571
 260   2.0000      -0.303771        -8.2660
 261   2.0000      -0.303495        -8.2585
 262   2.0000      -0.295123        -8.0307
 263   2.0000      -0.291568        -7.9340
 264   2.0000      -0.289608        -7.8806
 265   2.0000      -0.280741        -7.6394
 266   2.0000      -0.276091        -7.5128
 267   2.0000      -0.270621        -7.3640
 268   2.0000      -0.253626        -6.9015
 269   2.0000      -0.223001        -6.0682
 270   2.0000      -0.200417        -5.4536
 271   0.0000      -0.103942        -2.8284
 272   0.0000      -0.060736        -1.6527
 273   0.0000      -0.043295        -1.1781
 274   0.0000      -0.033665        -0.9161
 275   0.0000      -0.020382        -0.5546

MULLIKEN ATOMIC CHARGES
-----------------------
   0 C :    0.337395
   1 C :   -0.391760
   2 C :   -0.201093
   3 N :    0.124758
   4 C :   -0.146706
   5 N :    0.093003
   6 C :    0.011615
   7 C :   -0.002908
   8 C :   -0.086262
   9 C :    0.118911
  10 C :   -0.091831
  11 C :   -0.032373
  12 S :    0.170328
  13 C :   -0.122685
  14 C :    0.033570
  15 Br:    0.004955
  16 C :    0.131533
  17 O :   -0.174176
  18 C :   -0.100619
  19 C :   -0.045149
  20 C :   -0.027214
  21 C :    0.010026
  22 C :    0.009994
  23 C :    0.040826
  24 C :   -0.057594
  25 S :    0.091663
  26 C :    0.000877
  27 C :    0.009395
  28 C :    0.050859
  29 C :   -0.060834
  30 S :    0.071557
  31 C :    0.068320
  32 C :   -0.103171
  33 S :    0.155311
  34 C :   -0.065744
  35 C :    0.035697
  36 C :    0.204729
  37 C :   -0.356375
  38 C :    0.194842
  39 N :   -0.231620
  40 C :    0.132468
  41 N :   -0.205084
  42 C :   -0.088734
  43 C :   -0.126030
  44 S :    0.128407
  45 C :    0.091951
  46 C :   -0.040998
  47 C :   -0.011507
  48 C :   -0.004884
  49 C :   -0.029523
  50 C :    0.077637
  51 O :   -0.226030
  52 C :    0.103557
  53 C :    0.075258
  54 C :    0.091300
  55 O :   -0.174509
  56 O :   -0.201896
  57 C :   -0.038716
  58 C :    0.019033
  59 C :    0.019392
  60 C :   -0.013427
  61 C :    0.093729
  62 C :    0.189756
  63 O :   -0.318188
  64 C :    0.178868
  65 C :   -0.082634
  66 C :    0.029050
  67 C :    0.027317
  68 C :   -0.040161
  69 H :   -0.018591
  70 H :   -0.012883
  71 H :   -0.008897
  72 H :    0.005858
  73 H :    0.009037
  74 H :   -0.008285
  75 H :   -0.010262
  76 H :   -0.012004
  77 H :   -0.005940
  78 H :   -0.006054
  79 H :    0.013790
  80 H :    0.008702
  81 H :    0.016569
  82 H :    0.096908
  83 H :    0.097318
  84 H :    0.025053
  85 H :    0.036250
  86 H :    0.095417
  87 H :    0.094092
  88 H :   -0.027626
  89 H :   -0.004453
  90 H :    0.008446
  91 H :    0.194056
  92 H :    0.190571
  93 H :   -0.042891
  94 H :   -0.008886
  95 H :   -0.003993
  96 H :   -0.040484
  97 H :    0.037368
  98 H :    0.026198
  99 H :    0.027045
 100 H :   -0.031919
 101 H :   -0.015356
 102 H :   -0.022291
 103 H :   -0.029317
Sum of atomic charges:   -0.0000000

LOEWDIN ATOMIC CHARGES
----------------------
   0 C :    0.076554
   1 C :   -0.184908
   2 C :   -0.021590
   3 N :   -0.086743
   4 C :    0.010913
   5 N :   -0.094734
   6 C :   -0.016860
   7 C :   -0.045449
   8 C :    0.012302
   9 C :   -0.038860
  10 C :   -0.148241
  11 C :   -0.017551
  12 S :    0.420966
  13 C :   -0.278057
  14 C :   -0.071437
  15 Br:    0.122411
  16 C :    0.079687
  17 O :   -0.167708
  18 C :   -0.129159
  19 C :    0.038854
  20 C :   -0.086075
  21 C :   -0.102906
  22 C :   -0.061969
  23 C :   -0.009281
  24 C :   -0.213094
  25 S :    0.410926
  26 C :   -0.135242
  27 C :   -0.065042
  28 C :   -0.004627
  29 C :   -0.184917
  30 S :    0.417098
  31 C :   -0.019879
  32 C :   -0.189061
  33 S :    0.437405
  34 C :   -0.032196
  35 C :   -0.045638
  36 C :   -0.043403
  37 C :    0.026160
  38 C :    0.014162
  39 N :   -0.106521
  40 C :    0.019475
  41 N :   -0.106989
  42 C :   -0.159275
  43 C :   -0.212831
  44 S :    0.423750
  45 C :   -0.010624
  46 C :   -0.042951
  47 C :   -0.139792
  48 C :   -0.050724
  49 C :   -0.030745
  50 C :   -0.002926
  51 O :    0.000221
  52 C :   -0.003015
  53 C :   -0.024580
  54 C :   -0.001130
  55 O :   -0.045793
  56 O :   -0.064530
  57 C :   -0.052748
  58 C :   -0.019414
  59 C :   -0.035498
  60 C :   -0.013034
  61 C :   -0.047641
  62 C :    0.067717
  63 O :   -0.092204
  64 C :    0.077084
  65 C :   -0.075682
  66 C :   -0.013499
  67 C :   -0.047035
  68 C :   -0.010312
  69 H :    0.037154
  70 H :    0.038836
  71 H :    0.036320
  72 H :    0.026598
  73 H :    0.036487
  74 H :    0.035222
  75 H :    0.033210
  76 H :    0.032516
  77 H :    0.036127
  78 H :    0.039434
  79 H :    0.016876
  80 H :    0.026592
  81 H :    0.014053
  82 H :    0.056623
  83 H :    0.056249
  84 H :    0.019570
  85 H :    0.039824
  86 H :    0.055367
  87 H :    0.043105
  88 H :    0.029465
  89 H :    0.036484
  90 H :    0.034516
  91 H :    0.104187
  92 H :    0.097602
  93 H :    0.020178
  94 H :    0.030406
  95 H :    0.026636
  96 H :    0.019246
  97 H :    0.028769
  98 H :    0.016912
  99 H :    0.016502
 100 H :    0.027361
 101 H :    0.028489
 102 H :    0.026397
 103 H :    0.025124

  Mayer bond orders larger than 0.100000
B(  0-C ,  1-C ) :   1.5067 B(  0-C ,  6-C ) :   0.9790 B(  0-C , 18-C ) :   1.1823
B(  1-C ,  2-C ) :   1.1559 B(  1-C ,  4-C ) :   1.1866 B(  2-C ,  3-N ) :   2.9582
B(  4-C ,  5-N ) :   2.8545 B(  5-N , 87-H ) :   0.1077 B(  6-C ,  7-C ) :   1.2796
B(  6-C , 11-C ) :   1.4293 B(  7-C ,  8-C ) :   1.4412 B(  7-C , 16-C ) :   0.9266
B(  8-C ,  9-C ) :   1.2291 B(  8-C , 69-H ) :   1.0163 B(  9-C , 10-C ) :   1.3272
B(  9-C , 14-C ) :   1.1598 B( 10-C , 11-C ) :   1.3107 B( 10-C , 12-S ) :   1.0790
B( 11-C , 70-H ) :   0.9797 B( 12-S , 13-C ) :   1.0849 B( 13-C , 14-C ) :   1.6196
B( 13-C , 15-Br) :   1.0075 B( 14-C , 71-H ) :   1.0010 B( 16-C , 17-O ) :   2.1804
B( 16-C , 18-C ) :   0.9841 B( 18-C , 19-C ) :   1.3716 B( 19-C , 20-C ) :   1.3698
B( 19-C , 72-H ) :   0.9421 B( 20-C , 21-C ) :   1.3113 B( 20-C , 73-H ) :   0.9815
B( 21-C , 22-C ) :   1.2515 B( 21-C , 25-S ) :   1.1096 B( 22-C , 23-C ) :   1.4549
B( 22-C , 74-H ) :   1.0023 B( 23-C , 24-C ) :   1.2939 B( 23-C , 75-H ) :   0.9958
B( 24-C , 25-S ) :   1.0490 B( 24-C , 26-C ) :   1.3605 B( 26-C , 27-C ) :   1.2699
B( 26-C , 30-S ) :   1.1074 B( 27-C , 28-C ) :   1.4893 B( 27-C , 76-H ) :   0.9945
B( 28-C , 29-C ) :   1.2295 B( 28-C , 77-H ) :   0.9989 B( 29-C , 30-S ) :   1.0329
B( 29-C , 31-C ) :   1.4697 B( 31-C , 32-C ) :   1.2949 B( 31-C , 78-H ) :   0.9527
B( 32-C , 33-S ) :   1.0430 B( 32-C , 34-C ) :   1.3118 B( 33-S , 42-C ) :   1.1131
B( 34-C , 35-C ) :   1.4110 B( 34-C , 79-H ) :   0.9670 B( 35-C , 36-C ) :   1.0182
B( 35-C , 42-C ) :   1.3371 B( 36-C , 37-C ) :   1.6870 B( 36-C , 45-C ) :   1.0234
B( 37-C , 38-C ) :   1.0835 B( 37-C , 40-C ) :   1.0324 B( 38-C , 39-N ) :   1.0566
B( 38-C , 80-H ) :   0.9043 B( 38-C , 81-H ) :   0.8992 B( 39-N , 82-H ) :   0.9680
B( 39-N , 83-H ) :   0.9662 B( 40-C , 41-N ) :   1.1200 B( 40-C , 84-H ) :   0.9251
B( 40-C , 85-H ) :   0.9140 B( 41-N , 81-H ) :   0.1074 B( 41-N , 86-H ) :   0.9657
B( 41-N , 87-H ) :   0.9397 B( 42-C , 43-C ) :   1.3128 B( 43-C , 44-S ) :   1.0515
B( 43-C , 45-C ) :   1.3891 B( 44-S , 47-C ) :   1.0892 B( 45-C , 46-C ) :   1.2995
B( 46-C , 47-C ) :   1.3983 B( 46-C , 88-H ) :   0.9958 B( 47-C , 48-C ) :   1.1670
B( 48-C , 49-C ) :   1.5634 B( 48-C , 89-H ) :   0.9904 B( 49-C , 50-C ) :   1.2145
B( 49-C , 90-H ) :   0.9582 B( 50-C , 51-O ) :   1.1133 B( 50-C , 52-C ) :   0.1104
B( 50-C , 54-C ) :   1.3695 B( 51-O , 52-C ) :   1.1240 B( 52-C , 53-C ) :   1.3062
B( 52-C , 57-C ) :   1.1629 B( 53-C , 54-C ) :   1.2440 B( 53-C , 56-O ) :   1.2213
B( 54-C , 55-O ) :   1.2731 B( 55-O , 91-H ) :   0.9535 B( 56-O , 92-H ) :   0.9602
B( 57-C , 58-C ) :   1.6802 B( 57-C , 93-H ) :   0.9441 B( 58-C , 59-C ) :   1.1061
B( 58-C , 94-H ) :   0.9820 B( 59-C , 60-C ) :   1.6999 B( 59-C , 95-H ) :   0.9662
B( 60-C , 61-C ) :   1.1089 B( 60-C , 96-H ) :   0.9588 B( 61-C , 62-C ) :   1.3071
B( 61-C , 68-C ) :   1.3551 B( 62-C , 63-O ) :   1.1389 B( 62-C , 65-C ) :   1.3426
B( 63-O , 64-C ) :   0.9608 B( 64-C , 97-H ) :   0.9781 B( 64-C , 98-H ) :   0.9690
B( 64-C , 99-H ) :   0.9694 B( 65-C , 66-C ) :   1.3595 B( 65-C ,100-H ) :   0.9892
B( 66-C , 67-C ) :   1.3779 B( 66-C ,101-H ) :   0.9905 B( 67-C , 68-C ) :   1.3736
B( 67-C ,102-H ) :   0.9930 B( 68-C ,103-H ) :   0.9955

-----------------------------------------------------------------------------
         ABSORPTION SPECTRUM VIA TRANSITION ELECTRIC DIPOLE MOMENTS
-----------------------------------------------------------------------------
State   Energy  Wavelength   fosc         T2         TX        TY        TZ
        (cm-1)    (nm)                  (au**2)     (au)      (au)      (au)
-----------------------------------------------------------------------------
   0    8047.2   1242.7   1.232510676  50.42246  -4.44084  -5.25440  -1.75858
   1   15158.5    659.7   1.056997798  22.95579   2.55789  -4.00949  -0.58049
   2   17489.7    571.8   0.447227468   8.41822   1.17953  -2.61834  -0.41379
   3   20750.7    481.9   0.018063169   0.28657  -0.33712  -0.39392   0.13324
   4   21220.1    471.3   0.176961306   2.74540   0.52691  -1.57077  -0.02127
   5   22169.5    451.1   0.100903736   1.49839   0.41258   1.08841   0.37886
   6   23286.0    429.4   0.168209082   2.37810  -0.47937   1.27098   0.73001
   7   23931.9    417.9   0.338029813   4.65001  -1.07077   1.84438   0.31891
   8   24912.4    401.4   0.101696210   1.34389  -0.64768   0.96011  -0.05089
   9   25171.1    397.3   0.136063200   1.77957   1.22097   0.45299   0.28913
  10   25344.0    394.6   0.012573299   0.16332  -0.31483  -0.24826   0.05074
  11   27178.2    367.9   0.253280358   3.06801   1.53504  -0.84354   0.00965
  12   27662.8    361.5   0.000212895   0.00253  -0.04300   0.02569  -0.00496
  13   28810.1    347.1   0.071140282   0.81292   0.40610  -0.73678  -0.32427
  14   29113.9    343.5   0.031209840   0.35291   0.29755  -0.50855  -0.07585
  15   29415.4    340.0   0.024955748   0.27930  -0.47619  -0.16728  -0.15673
  16   29832.9    335.2   0.044704398   0.49332  -0.60179   0.29865   0.20489
  17   30008.4    333.2   0.102004215   1.11906  -1.03955   0.18575   0.06229
  18   30314.8    329.9   0.114846022   1.24720   1.11459  -0.06651  -0.02179
  19   30756.9    325.1   0.020707010   0.22164  -0.29902  -0.36086   0.04482
  20   31136.6    321.2   0.106042083   1.12120  -1.05101  -0.01050  -0.12831
  21   31407.6    318.4   0.000023901   0.00025   0.00049   0.00740   0.01398
  22   31657.1    315.9   0.104828678   1.09015   1.03364   0.11884   0.08730
  23   32498.8    307.7   0.432198823   4.37817  -1.96155  -0.68112  -0.25799
  24   33070.3    302.4   0.262667550   2.61484  -1.54670  -0.33779  -0.32931
  25   33191.6    301.3   0.009831678   0.09752  -0.08132   0.23973   0.18284
  26   33401.4    299.4   0.000763039   0.00752  -0.08015   0.00554  -0.03264
  27   33555.2    298.0   0.036503059   0.35813   0.44071   0.38047   0.13838
  28   33881.2    295.1   0.115022759   1.11763   1.03944  -0.00628  -0.19278
  29   34164.6    292.7   0.082828949   0.79814  -0.85361  -0.24044  -0.10806
  30   34705.8    288.1   0.060988883   0.57853  -0.73697  -0.14049   0.12516
  31   35023.3    285.5   0.084056546   0.79012  -0.88012  -0.12178  -0.02584
  32   35438.9    282.2   0.059479589   0.55254   0.05193   0.72810   0.14041
  33   35510.6    281.6   0.061485197   0.57002  -0.64608  -0.37411  -0.11245
  34   36359.6    275.0   0.057368345   0.51943   0.38753  -0.60688  -0.03089
  35   36756.7    272.1   0.043103128   0.38605   0.61428   0.09037   0.02326
  36   36829.6    271.5   0.107655719   0.96231  -0.94288   0.26993   0.02074
  37   37021.1    270.1   0.020265153   0.18021   0.33401  -0.25157  -0.07323
  38   37237.3    268.5   0.033983727   0.30045   0.52738   0.14274   0.04407
  39   37655.1    265.6   0.158625498   1.38683   0.60026   1.00081   0.15779
  40   38041.0    262.9   0.052632725   0.45549  -0.26828  -0.61835   0.03408
  41   38208.6    261.7   0.000926179   0.00798  -0.07251   0.02503   0.04578
  42   38349.0    260.8   0.078701920   0.67563  -0.44509  -0.68003  -0.12277
  43   38539.1    259.5   0.121069377   1.03421   0.64427  -0.76660  -0.17734
  44   39282.1    254.6   0.033066217   0.27712  -0.52421  -0.04806  -0.00414
  45   39520.4    253.0   0.023449295   0.19534   0.40354   0.17583   0.03968
  46   39780.2    251.4   0.000522108   0.00432   0.06324   0.01788   0.00158
  47   40117.8    249.3   0.005201898   0.04269   0.20553  -0.01198  -0.01735
  48   40260.7    248.4   0.002598015   0.02124  -0.12825  -0.06923   0.00172
  49   40284.2    248.2   0.009803390   0.08012  -0.22740  -0.16788  -0.01476

FINAL SINGLE POINT ENERGY     -7234.739079193995

DIPOLE MOMENT
-------------
                                X             Y             Z
Electronic contribution:    155.47549     154.99816      72.40663
Nuclear contribution   :   -159.28277    -157.75858     -74.16341
                        -----------------------------------------
Total Dipole Moment    :     -3.80728      -2.76042      -1.75678
                        -----------------------------------------
Magnitude (a.u.)       :      5.02012
Magnitude (Debye)      :     12.76012

Rotational constants in cm-1:     0.000758     0.000214     0.000168
Rotational constants in MHz :    22.725408     6.417921     5.040452

                             ****ORCA TERMINATED NORMALLY****
TOTAL RUN TIME: 0 days 0 hours 10 minutes 15 seconds 271 msec
