                         Program Version 4.2.0 -  RELEASE  -
|  1> # ORCA input file
|  2> # SCF done       -167.096818532595          0.000623458235
|  3> ! CAM-B3LYP def2-SVP def2/J RIJCOSX Grid4 TightSCF
|  4> %maxcore 5000
|  5> %tddft
|  6>     Mode sTDDFT
|  7>     Ethresh 5.0
|  8>     maxcore 5000
|  9> end
| 10>
| 11> %pal
| 12>   nprocs 6
| 13>   end
| 14> * xyz 0 1
| 15>    C       -8.82084        -1.09556        -3.93744
| 16>    C       -9.50173        -1.49031        -5.05250
| 17>    C       -9.54898        -2.82138        -5.52444
| 18>    N       -9.63051        -3.88491        -5.94647
| 19>    C      -10.26833        -0.63585        -5.87657
| 20>    N      -10.90983        -0.00928        -6.59212
| 21>    C       -8.03280        -1.94975        -3.06193
| 22>    C       -7.53888        -1.18112        -1.97608
| 23>    C       -6.75785        -1.72147        -0.98173
| 24>    C       -6.44706        -3.08191        -1.05986
| 25>    C       -6.94309        -3.84222        -2.14834
| 26>    C       -7.73152        -3.29822        -3.15298
| 27>    S       -6.44203        -5.50191        -2.04849
| 28>    C       -5.58646        -5.15933        -0.56815
| 29>    C       -5.66987        -3.86789        -0.16692
| 30>   Br       -4.67178        -6.53795         0.31162
| 31>    C       -7.99978         0.20962        -2.10884
| 32>    O       -7.82647         1.11987        -1.33132
| 33>    C       -8.76603         0.26014        -3.38776
| 34>    C       -9.27408         1.39686        -3.88166
| 35>    C       -9.08927         2.70616        -3.22517
| 36>    N      -10.09424         3.15481        -2.48261
| 37>    C       -9.94157         4.36343        -1.95782
| 38>    C       -8.81068         5.12549        -2.16437
| 39>    C       -7.79496         4.55322        -2.94615
| 40>    N       -7.95795         3.33709        -3.48029
| 41>    C       -6.55670         5.24623        -3.18201
| 42>    C       -5.58863         4.76145        -3.98480
| 43>    N       -4.41283         5.41611        -4.17802
| 44>    C       -3.44489         5.08548        -5.06724
| 45>    S       -3.42117         3.51190        -5.79660
| 46>    C       -1.94450         3.92203        -6.61495
| 47>    N       -1.37973         2.96441        -7.45807
| 48>    O       -0.34534         3.25188        -8.03470
| 49>    O       -1.97018         1.89987        -7.55562
| 50>    C       -1.50659         5.18839        -6.33613
| 51>    C       -2.36424         5.89338        -5.46875
| 52>    C       -2.12316         7.26378        -5.10794
| 53>    C       -3.04543         8.10680        -4.58852
| 54>    C       -2.83562         9.42272        -4.11051
| 55>    C       -3.74691         9.98316        -3.25677
| 56>    C       -3.74918        11.24876        -2.61362
| 57>    C       -4.73538        11.40942        -1.68754
| 58>    C       -5.55438        10.26805        -1.51905
| 59>    S       -5.10579         9.03009        -2.66453
| 60>    C       -6.50004         9.96426        -0.56302
| 61>    C       -7.04387        10.73503         0.48901
| 62>    C       -7.85969        10.03057         1.32035
| 63>    C       -7.97727         8.64982         0.99814
| 64>    S       -7.09298         8.31915        -0.47511
| 65>    C       -8.65966         7.69114         1.69810
| 66>    C       -8.57812         6.29745         1.46696
| 67>    S       -9.81488         5.20943         2.08749
| 68>    C       -9.05851         3.79071         1.49304
| 69>    C       -7.89010         4.10899         0.84345
| 70>    C       -7.62942         5.51677         0.83223
| 71>    O       -6.45033         5.76987         0.21764
| 72>    C       -5.97793         4.55483        -0.17910
| 73>    N       -4.77996         4.53502        -0.91534
| 74>    O       -4.32761         3.44555        -1.21506
| 75>    O       -4.27711         5.60032        -1.23042
| 76>    C       -6.79112         3.51078         0.17136
| 77>    H       -6.39438        -1.11214        -0.16918
| 78>    H       -8.08091        -3.91712        -3.96241
| 79>    H       -5.20243        -3.48461         0.72165
| 80>    H       -9.83947         1.41998        -4.80314
| 81>    H      -10.77075         4.71916        -1.35899
| 82>    H       -8.70178         6.11527        -1.75067
| 83>    H       -6.42386         6.19326        -2.67537
| 84>    H       -5.73646         3.83558        -4.52255
| 85>    H       -4.21159         6.17372        -3.52909
| 86>    H       -0.61120         5.59764        -6.76830
| 87>    H       -1.11706         7.61975        -5.28410
| 88>    H       -4.06826         7.77009        -4.49244
| 89>    H       -1.93241         9.96076        -4.35773
| 90>    H       -3.00737        11.99291        -2.84520
| 91>    H       -4.87253        12.29539        -1.09293
| 92>    H       -6.81210        11.77896         0.60516
| 93>    H       -8.35178        10.44218         2.18383
| 94>    H       -9.31263         8.01191         2.49732
| 95>    H       -9.50643         2.83154         1.64635
| 96>    H       -6.64219         2.47716        -0.06017
| 97> *
| 98>
| 99>                          ****END OF INPUT****

CARTESIAN COORDINATES (ANGSTROEM)
---------------------------------
  C     -8.820840   -1.095560   -3.937440
  C     -9.501730   -1.490310   -5.052500
  C     -9.548980   -2.821380   -5.524440
  N     -9.630510   -3.884910   -5.946470
  C    -10.268330   -0.635850   -5.876570
  N    -10.909830   -0.009280   -6.592120
  C     -8.032800   -1.949750   -3.061930
  C     -7.538880   -1.181120   -1.976080
  C     -6.757850   -1.721470   -0.981730
  C     -6.447060   -3.081910   -1.059860
  C     -6.943090   -3.842220   -2.148340
  C     -7.731520   -3.298220   -3.152980
  S     -6.442030   -5.501910   -2.048490
  C     -5.586460   -5.159330   -0.568150
  C     -5.669870   -3.867890   -0.166920
  Br    -4.671780   -6.537950    0.311620
  C     -7.999780    0.209620   -2.108840
  O     -7.826470    1.119870   -1.331320
  C     -8.766030    0.260140   -3.387760
  C     -9.274080    1.396860   -3.881660
  C     -9.089270    2.706160   -3.225170
  N    -10.094240    3.154810   -2.482610
  C     -9.941570    4.363430   -1.957820
  C     -8.810680    5.125490   -2.164370
  C     -7.794960    4.553220   -2.946150
  N     -7.957950    3.337090   -3.480290
  C     -6.556700    5.246230   -3.182010
  C     -5.588630    4.761450   -3.984800
  N     -4.412830    5.416110   -4.178020
  C     -3.444890    5.085480   -5.067240
  S     -3.421170    3.511900   -5.796600
  C     -1.944500    3.922030   -6.614950
  N     -1.379730    2.964410   -7.458070
  O     -0.345340    3.251880   -8.034700
  O     -1.970180    1.899870   -7.555620
  C     -1.506590    5.188390   -6.336130
  C     -2.364240    5.893380   -5.468750
  C     -2.123160    7.263780   -5.107940
  C     -3.045430    8.106800   -4.588520
  C     -2.835620    9.422720   -4.110510
  C     -3.746910    9.983160   -3.256770
  C     -3.749180   11.248760   -2.613620
  C     -4.735380   11.409420   -1.687540
  C     -5.554380   10.268050   -1.519050
  S     -5.105790    9.030090   -2.664530
  C     -6.500040    9.964260   -0.563020
  C     -7.043870   10.735030    0.489010
  C     -7.859690   10.030570    1.320350
  C     -7.977270    8.649820    0.998140
  S     -7.092980    8.319150   -0.475110
  C     -8.659660    7.691140    1.698100
  C     -8.578120    6.297450    1.466960
  S     -9.814880    5.209430    2.087490
  C     -9.058510    3.790710    1.493040
  C     -7.890100    4.108990    0.843450
  C     -7.629420    5.516770    0.832230
  O     -6.450330    5.769870    0.217640
  C     -5.977930    4.554830   -0.179100
  N     -4.779960    4.535020   -0.915340
  O     -4.327610    3.445550   -1.215060
  O     -4.277110    5.600320   -1.230420
  C     -6.791120    3.510780    0.171360
  H     -6.394380   -1.112140   -0.169180
  H     -8.080910   -3.917120   -3.962410
  H     -5.202430   -3.484610    0.721650
  H     -9.839470    1.419980   -4.803140
  H    -10.770750    4.719160   -1.358990
  H     -8.701780    6.115270   -1.750670
  H     -6.423860    6.193260   -2.675370
  H     -5.736460    3.835580   -4.522550
  H     -4.211590    6.173720   -3.529090
  H     -0.611200    5.597640   -6.768300
  H     -1.117060    7.619750   -5.284100
  H     -4.068260    7.770090   -4.492440
  H     -1.932410    9.960760   -4.357730
  H     -3.007370   11.992910   -2.845200
  H     -4.872530   12.295390   -1.092930
  H     -6.812100   11.778960    0.605160
  H     -8.351780   10.442180    2.183830
  H     -9.312630    8.011910    2.497320
  H     -9.506430    2.831540    1.646350
  H     -6.642190    2.477160   -0.060170

 Total Charge           Charge          ....    0
 Multiplicity           Mult            ....    1
 Number of Electrons    NEL             ....  490
 Basis Dimension        Dim             .... 1006

ORBITAL ENERGIES
----------------

  NO   OCC          E(Eh)            E(eV)
   0   2.0000    -482.890528    -13140.1193
   1   2.0000     -88.981841     -2421.3190
   2   2.0000     -88.979308     -2421.2501
   3   2.0000     -88.974310     -2421.1141
   4   2.0000     -88.947221     -2420.3769
   5   2.0000     -88.945818     -2420.3387
   6   2.0000     -62.568234     -1702.5682
   7   2.0000     -56.402195     -1534.7817
   8   2.0000     -56.399457     -1534.7072
   9   2.0000     -56.399434     -1534.7066
  10   2.0000     -19.306903      -525.3676
  11   2.0000     -19.249201      -523.7974
  12   2.0000     -19.248929      -523.7900
  13   2.0000     -19.231072      -523.3041
  14   2.0000     -19.224404      -523.1226
  15   2.0000     -19.223742      -523.1046
  16   2.0000     -14.659974      -398.9182
  17   2.0000     -14.636252      -398.2727
  18   2.0000     -14.472195      -393.8085
  19   2.0000     -14.422777      -392.4637
  20   2.0000     -14.421931      -392.4407
  21   2.0000     -14.405891      -392.0042
  22   2.0000     -14.402661      -391.9163
  23   2.0000     -10.385803      -282.6121
  24   2.0000     -10.379346      -282.4364
  25   2.0000     -10.365392      -282.0567
  26   2.0000     -10.361843      -281.9601
  27   2.0000     -10.352592      -281.7084
  28   2.0000     -10.349142      -281.6145
  29   2.0000     -10.348996      -281.6105
  30   2.0000     -10.346988      -281.5559
  31   2.0000     -10.333493      -281.1886
  32   2.0000     -10.329872      -281.0901
  33   2.0000     -10.329034      -281.0673
  34   2.0000     -10.327064      -281.0137
  35   2.0000     -10.324674      -280.9487
  36   2.0000     -10.323529      -280.9175
  37   2.0000     -10.321784      -280.8700
  38   2.0000     -10.317824      -280.7623
  39   2.0000     -10.317124      -280.7432
  40   2.0000     -10.316896      -280.7370
  41   2.0000     -10.316116      -280.7158
  42   2.0000     -10.315555      -280.7005
  43   2.0000     -10.315303      -280.6937
  44   2.0000     -10.314683      -280.6768
  45   2.0000     -10.313326      -280.6399
  46   2.0000     -10.311838      -280.5994
  47   2.0000     -10.310248      -280.5561
  48   2.0000     -10.310134      -280.5530
  49   2.0000     -10.308746      -280.5152
  50   2.0000     -10.307594      -280.4839
  51   2.0000     -10.302680      -280.3502
  52   2.0000     -10.301626      -280.3215
  53   2.0000     -10.299261      -280.2571
  54   2.0000     -10.299059      -280.2516
  55   2.0000     -10.294209      -280.1197
  56   2.0000     -10.293562      -280.1021
  57   2.0000     -10.293435      -280.0986
  58   2.0000     -10.291466      -280.0450
  59   2.0000     -10.291317      -280.0410
  60   2.0000     -10.290102      -280.0079
  61   2.0000     -10.289840      -280.0008
  62   2.0000     -10.285545      -279.8839
  63   2.0000     -10.280864      -279.7565
  64   2.0000     -10.276874      -279.6480
  65   2.0000     -10.267819      -279.4016
  66   2.0000      -8.797667      -239.3967
  67   2.0000      -8.077880      -219.8103
  68   2.0000      -8.074320      -219.7134
  69   2.0000      -8.069869      -219.5923
  70   2.0000      -8.043432      -218.8729
  71   2.0000      -8.041819      -218.8290
  72   2.0000      -6.634017      -180.5208
  73   2.0000      -6.619404      -180.1231
  74   2.0000      -6.619137      -180.1159
  75   2.0000      -6.047566      -164.5626
  76   2.0000      -6.043649      -164.4561
  77   2.0000      -6.043276      -164.4459
  78   2.0000      -6.039514      -164.3435
  79   2.0000      -6.039276      -164.3371
  80   2.0000      -6.039087      -164.3319
  81   2.0000      -6.036695      -164.2668
  82   2.0000      -6.035120      -164.2240
  83   2.0000      -6.031307      -164.1202
  84   2.0000      -6.013235      -163.6284
  85   2.0000      -6.011662      -163.5856
  86   2.0000      -6.009166      -163.5177
  87   2.0000      -6.007392      -163.4695
  88   2.0000      -6.004263      -163.3843
  89   2.0000      -6.002631      -163.3399
  90   2.0000      -2.749898       -74.8285
  91   2.0000      -2.745745       -74.7155
  92   2.0000      -2.745627       -74.7123
  93   2.0000      -2.733982       -74.3954
  94   2.0000      -2.733970       -74.3951
  95   2.0000      -1.330277       -36.1987
  96   2.0000      -1.304652       -35.5014
  97   2.0000      -1.227849       -33.4115
  98   2.0000      -1.146225       -31.1904
  99   2.0000      -1.144864       -31.1533
 100   2.0000      -1.123406       -30.5694
 101   2.0000      -1.082439       -29.4547
 102   2.0000      -1.079213       -29.3669
 103   2.0000      -1.030137       -28.0314
 104   2.0000      -1.020015       -27.7560
 105   2.0000      -1.002679       -27.2843
 106   2.0000      -1.000661       -27.2294
 107   2.0000      -0.997329       -27.1387
 108   2.0000      -0.996702       -27.1216
 109   2.0000      -0.993966       -27.0472
 110   2.0000      -0.977233       -26.5919
 111   2.0000      -0.976974       -26.5848
 112   2.0000      -0.949909       -25.8483
 113   2.0000      -0.937503       -25.5108
 114   2.0000      -0.921221       -25.0677
 115   2.0000      -0.917918       -24.9778
 116   2.0000      -0.915348       -24.9079
 117   2.0000      -0.903208       -24.5775
 118   2.0000      -0.894793       -24.3486
 119   2.0000      -0.893526       -24.3141
 120   2.0000      -0.887805       -24.1584
 121   2.0000      -0.880921       -23.9711
 122   2.0000      -0.868996       -23.6466
 123   2.0000      -0.857856       -23.3435
 124   2.0000      -0.854846       -23.2615
 125   2.0000      -0.843077       -22.9413
 126   2.0000      -0.836295       -22.7567
 127   2.0000      -0.834240       -22.7008
 128   2.0000      -0.826391       -22.4872
 129   2.0000      -0.815532       -22.1918
 130   2.0000      -0.795021       -21.6336
 131   2.0000      -0.785877       -21.3848
 132   2.0000      -0.781267       -21.2594
 133   2.0000      -0.771149       -20.9840
 134   2.0000      -0.767484       -20.8843
 135   2.0000      -0.746523       -20.3139
 136   2.0000      -0.737544       -20.0696
 137   2.0000      -0.724932       -19.7264
 138   2.0000      -0.711631       -19.3645
 139   2.0000      -0.707959       -19.2645
 140   2.0000      -0.704724       -19.1765
 141   2.0000      -0.700749       -19.0684
 142   2.0000      -0.698245       -19.0002
 143   2.0000      -0.684320       -18.6213
 144   2.0000      -0.675483       -18.3808
 145   2.0000      -0.671527       -18.2732
 146   2.0000      -0.665383       -18.1060
 147   2.0000      -0.661175       -17.9915
 148   2.0000      -0.655874       -17.8472
 149   2.0000      -0.645740       -17.5715
 150   2.0000      -0.638317       -17.3695
 151   2.0000      -0.633943       -17.2505
 152   2.0000      -0.631426       -17.1820
 153   2.0000      -0.627331       -17.0706
 154   2.0000      -0.625835       -17.0298
 155   2.0000      -0.619450       -16.8561
 156   2.0000      -0.618589       -16.8327
 157   2.0000      -0.617415       -16.8007
 158   2.0000      -0.616346       -16.7716
 159   2.0000      -0.611602       -16.6425
 160   2.0000      -0.606986       -16.5169
 161   2.0000      -0.598247       -16.2791
 162   2.0000      -0.596747       -16.2383
 163   2.0000      -0.592849       -16.1322
 164   2.0000      -0.581751       -15.8302
 165   2.0000      -0.580742       -15.8028
 166   2.0000      -0.575979       -15.6732
 167   2.0000      -0.571433       -15.5495
 168   2.0000      -0.565207       -15.3801
 169   2.0000      -0.560989       -15.2653
 170   2.0000      -0.556940       -15.1551
 171   2.0000      -0.553561       -15.0632
 172   2.0000      -0.550727       -14.9860
 173   2.0000      -0.549231       -14.9453
 174   2.0000      -0.547100       -14.8873
 175   2.0000      -0.536879       -14.6092
 176   2.0000      -0.533545       -14.5185
 177   2.0000      -0.530982       -14.4488
 178   2.0000      -0.528983       -14.3944
 179   2.0000      -0.525940       -14.3116
 180   2.0000      -0.519871       -14.1464
 181   2.0000      -0.517324       -14.0771
 182   2.0000      -0.515060       -14.0155
 183   2.0000      -0.508188       -13.8285
 184   2.0000      -0.505139       -13.7455
 185   2.0000      -0.504175       -13.7193
 186   2.0000      -0.503214       -13.6931
 187   2.0000      -0.502454       -13.6725
 188   2.0000      -0.500880       -13.6296
 189   2.0000      -0.496342       -13.5061
 190   2.0000      -0.495246       -13.4763
 191   2.0000      -0.490174       -13.3383
 192   2.0000      -0.487487       -13.2652
 193   2.0000      -0.482459       -13.1284
 194   2.0000      -0.478674       -13.0254
 195   2.0000      -0.477610       -12.9964
 196   2.0000      -0.472595       -12.8600
 197   2.0000      -0.469185       -12.7672
 198   2.0000      -0.465031       -12.6541
 199   2.0000      -0.464897       -12.6505
 200   2.0000      -0.462150       -12.5757
 201   2.0000      -0.455352       -12.3908
 202   2.0000      -0.454524       -12.3682
 203   2.0000      -0.453157       -12.3310
 204   2.0000      -0.452140       -12.3034
 205   2.0000      -0.449624       -12.2349
 206   2.0000      -0.445781       -12.1303
 207   2.0000      -0.438945       -11.9443
 208   2.0000      -0.433988       -11.8094
 209   2.0000      -0.433397       -11.7933
 210   2.0000      -0.431038       -11.7292
 211   2.0000      -0.430513       -11.7149
 212   2.0000      -0.425911       -11.5896
 213   2.0000      -0.421566       -11.4714
 214   2.0000      -0.418526       -11.3887
 215   2.0000      -0.415956       -11.3187
 216   2.0000      -0.402557       -10.9541
 217   2.0000      -0.401139       -10.9155
 218   2.0000      -0.397476       -10.8159
 219   2.0000      -0.396323       -10.7845
 220   2.0000      -0.394979       -10.7479
 221   2.0000      -0.387065       -10.5326
 222   2.0000      -0.380352       -10.3499
 223   2.0000      -0.379745       -10.3334
 224   2.0000      -0.377045       -10.2599
 225   2.0000      -0.376131       -10.2351
 226   2.0000      -0.376021       -10.2320
 227   2.0000      -0.372825       -10.1451
 228   2.0000      -0.366909        -9.9841
 229   2.0000      -0.364888        -9.9291
 230   2.0000      -0.353064        -9.6074
 231   2.0000      -0.349529        -9.5112
 232   2.0000      -0.343170        -9.3381
 233   2.0000      -0.342649        -9.3239
 234   2.0000      -0.338575        -9.2131
 235   2.0000      -0.328240        -8.9319
 236   2.0000      -0.326022        -8.8715
 237   2.0000      -0.323340        -8.7985
 238   2.0000      -0.320928        -8.7329
 239   2.0000      -0.320441        -8.7197
 240   2.0000      -0.310647        -8.4531
 241   2.0000      -0.299756        -8.1568
 242   2.0000      -0.284026        -7.7287
 243   2.0000      -0.257046        -6.9946
 244   2.0000      -0.215892        -5.8747
 245   0.0000      -0.089500        -2.4354
 246   0.0000      -0.084996        -2.3129
 247   0.0000      -0.066846        -1.8190
 248   0.0000      -0.061081        -1.6621
 249   0.0000      -0.050393        -1.3713

MULLIKEN ATOMIC CHARGES
-----------------------
   0 C :    0.328337
   1 C :   -0.339589
   2 C :   -0.187870
   3 N :    0.160868
   4 C :   -0.193279
   5 N :    0.171667
   6 C :    0.012584
   7 C :   -0.011487
   8 C :   -0.065066
   9 C :    0.118092
  10 C :   -0.089519
  11 C :   -0.016720
  12 S :    0.194524
  13 C :   -0.122561
  14 C :    0.039453
  15 Br:    0.031576
  16 C :    0.171183
  17 O :   -0.149681
  18 C :   -0.056593
  19 C :    0.008079
  20 C :   -0.031644
  21 N :   -0.099018
  22 C :    0.086385
  23 C :   -0.031071
  24 C :    0.033040
  25 N :   -0.079785
  26 C :   -0.057930
  27 C :    0.105305
  28 N :   -0.037207
  29 C :   -0.096149
  30 S :    0.164075
  31 C :   -0.006237
  32 N :    0.278146
  33 O :   -0.259740
  34 O :   -0.270988
  35 C :    0.005460
  36 C :    0.104114
  37 C :    0.001604
  38 C :   -0.044911
  39 C :    0.012112
  40 C :   -0.021174
  41 C :    0.038665
  42 C :    0.031976
  43 C :   -0.032874
  44 S :    0.021612
  45 C :   -0.047005
  46 C :    0.036413
  47 C :    0.033681
  48 C :   -0.028691
  49 S :    0.069366
  50 C :    0.039931
  51 C :   -0.241777
  52 S :    0.146901
  53 C :   -0.132248
  54 C :    0.124776
  55 C :    0.184757
  56 O :   -0.197431
  57 C :    0.225500
  58 N :    0.277501
  59 O :   -0.238616
  60 O :   -0.253353
  61 C :   -0.024231
  62 H :   -0.012100
  63 H :   -0.003590
  64 H :   -0.001249
  65 H :    0.055892
  66 H :    0.001367
  67 H :   -0.010787
  68 H :   -0.003846
  69 H :    0.034130
  70 H :    0.159570
  71 H :    0.006373
  72 H :   -0.010646
  73 H :    0.013374
  74 H :   -0.010787
  75 H :   -0.008251
  76 H :   -0.010898
  77 H :   -0.010732
  78 H :   -0.011781
  79 H :   -0.014564
  80 H :    0.037297
  81 H :    0.007995
Sum of atomic charges:   -0.0000000

LOEWDIN ATOMIC CHARGES
----------------------
   0 C :    0.075169
   1 C :   -0.123956
   2 C :   -0.017218
   3 N :   -0.042783
   4 C :   -0.019793
   5 N :   -0.037326
   6 C :   -0.019616
   7 C :   -0.053240
   8 C :    0.024902
   9 C :   -0.029662
  10 C :   -0.140693
  11 C :   -0.006094
  12 S :    0.438999
  13 C :   -0.268572
  14 C :   -0.070011
  15 Br:    0.143359
  16 C :    0.100395
  17 O :   -0.133020
  18 C :   -0.070658
  19 C :    0.092454
  20 C :    0.022165
  21 N :   -0.102954
  22 C :    0.054818
  23 C :   -0.068865
  24 C :    0.042239
  25 N :   -0.097711
  26 C :   -0.112942
  27 C :    0.065668
  28 N :    0.053609
  29 C :   -0.087755
  30 S :    0.463521
  31 C :   -0.216361
  32 N :    0.274247
  33 O :   -0.224680
  34 O :   -0.237530
  35 C :    0.003463
  36 C :   -0.104432
  37 C :   -0.008585
  38 C :   -0.056707
  39 C :   -0.046361
  40 C :   -0.141400
  41 C :   -0.030314
  42 C :   -0.030716
  43 C :   -0.173647
  44 S :    0.367406
  45 C :   -0.183703
  46 C :   -0.029871
  47 C :   -0.035090
  48 C :   -0.142823
  49 S :    0.395749
  50 C :   -0.090274
  51 C :   -0.209385
  52 S :    0.472854
  53 C :   -0.174173
  54 C :   -0.078941
  55 C :    0.006703
  56 O :   -0.007558
  57 C :    0.013853
  58 N :    0.282998
  59 O :   -0.202047
  60 O :   -0.211316
  61 C :    0.016265
  62 H :    0.040534
  63 H :    0.042313
  64 H :    0.039727
  65 H :    0.053485
  66 H :    0.024015
  67 H :    0.025260
  68 H :    0.020892
  69 H :    0.028941
  70 H :    0.088671
  71 H :    0.044485
  72 H :    0.032841
  73 H :    0.012563
  74 H :    0.033387
  75 H :    0.034877
  76 H :    0.033103
  77 H :    0.033154
  78 H :    0.033041
  79 H :    0.033662
  80 H :    0.032251
  81 H :    0.040746

  Mayer bond orders larger than 0.100000
B(  0-C ,  1-C ) :   1.6758 B(  0-C ,  6-C ) :   1.0185 B(  0-C , 18-C ) :   1.0011
B(  1-C ,  2-C ) :   1.1353 B(  1-C ,  4-C ) :   1.1475 B(  2-C ,  3-N ) :   2.9751
B(  4-C ,  5-N ) :   2.9787 B(  6-C ,  7-C ) :   1.2692 B(  6-C , 11-C ) :   1.4013
B(  7-C ,  8-C ) :   1.4122 B(  7-C , 16-C ) :   0.9510 B(  8-C ,  9-C ) :   1.2593
B(  8-C , 62-H ) :   1.0161 B(  9-C , 10-C ) :   1.2940 B(  9-C , 14-C ) :   1.1633
B( 10-C , 11-C ) :   1.3415 B( 10-C , 12-S ) :   1.0897 B( 11-C , 63-H ) :   0.9791
B( 12-S , 13-C ) :   1.0870 B( 13-C , 14-C ) :   1.6164 B( 13-C , 15-Br) :   1.0238
B( 14-C , 64-H ) :   1.0005 B( 16-C , 17-O ) :   2.1565 B( 16-C , 18-C ) :   0.9308
B( 18-C , 19-C ) :   1.8833 B( 19-C , 20-C ) :   0.9079 B( 19-C , 65-H ) :   0.9277
B( 20-C , 21-N ) :   1.5141 B( 20-C , 25-N ) :   1.5248 B( 21-N , 22-C ) :   1.5092
B( 22-C , 23-C ) :   1.3965 B( 22-C , 66-H ) :   0.9772 B( 23-C , 24-C ) :   1.3351
B( 23-C , 67-H ) :   0.9586 B( 24-C , 25-N ) :   1.4977 B( 24-C , 26-C ) :   1.1189
B( 26-C , 27-C ) :   1.6617 B( 26-C , 68-H ) :   0.9674 B( 27-C , 28-N ) :   1.1444
B( 27-C , 69-H ) :   0.9455 B( 28-N , 29-C ) :   1.2180 B( 28-N , 70-H ) :   0.8847
B( 29-C , 30-S ) :   1.1497 B( 29-C , 36-C ) :   1.3482 B( 30-S , 31-C ) :   1.0695
B( 31-C , 32-N ) :   0.9815 B( 31-C , 35-C ) :   1.4811 B( 32-N , 33-O ) :   1.5285
B( 32-N , 34-O ) :   1.5056 B( 33-O , 34-O ) :   0.2530 B( 35-C , 36-C ) :   1.2184
B( 35-C , 71-H ) :   1.0081 B( 36-C , 37-C ) :   1.1000 B( 37-C , 38-C ) :   1.6662
B( 37-C , 72-H ) :   0.9752 B( 38-C , 39-C ) :   1.1285 B( 38-C , 73-H ) :   0.9511
B( 39-C , 40-C ) :   1.5999 B( 39-C , 74-H ) :   0.9883 B( 40-C , 41-C ) :   1.1339
B( 40-C , 44-S ) :   1.0225 B( 41-C , 42-C ) :   1.6065 B( 41-C , 75-H ) :   0.9966
B( 42-C , 43-C ) :   1.1796 B( 42-C , 76-H ) :   0.9931 B( 43-C , 44-S ) :   1.0540
B( 43-C , 45-C ) :   1.5141 B( 45-C , 46-C ) :   1.1774 B( 45-C , 49-S ) :   1.0531
B( 46-C , 47-C ) :   1.6080 B( 46-C , 77-H ) :   0.9933 B( 47-C , 48-C ) :   1.1318
B( 47-C , 78-H ) :   0.9972 B( 48-C , 49-S ) :   1.0579 B( 48-C , 50-C ) :   1.6130
B( 50-C , 51-C ) :   1.1257 B( 50-C , 79-H ) :   0.9531 B( 51-C , 52-S ) :   1.1195
B( 51-C , 53-C ) :   0.1034 B( 51-C , 55-C ) :   1.4490 B( 52-S , 53-C ) :   1.1897
B( 53-C , 54-C ) :   1.4253 B( 53-C , 80-H ) :   0.9749 B( 54-C , 55-C ) :   1.2186
B( 54-C , 61-C ) :   1.0791 B( 55-C , 56-O ) :   1.0914 B( 56-O , 57-C ) :   1.1026
B( 57-C , 58-N ) :   0.9226 B( 57-C , 61-C ) :   1.5519 B( 58-N , 59-O ) :   1.5365
B( 58-N , 60-O ) :   1.4710 B( 59-O , 60-O ) :   0.2593 B( 61-C , 81-H ) :   1.0112

-----------------------------------------------------------------------------
         ABSORPTION SPECTRUM VIA TRANSITION ELECTRIC DIPOLE MOMENTS
-----------------------------------------------------------------------------
State   Energy  Wavelength   fosc         T2         TX        TY        TZ
        (cm-1)    (nm)                  (au**2)     (au)      (au)      (au)
-----------------------------------------------------------------------------
   0   12604.9    793.3   0.177240659   4.62914  -1.37340  -0.47365   1.58700
   1   16066.9    622.4   0.304694552   6.24321   1.41431  -0.13583  -2.05536
   2   17307.9    577.8   0.005524420   0.10508  -0.22205  -0.01977   0.23534
   3   20647.0    484.3   0.061578211   0.98185   0.44367   0.71173  -0.52768
   4   21258.1    470.4   0.351660080   5.44596  -1.71047  -0.66479   1.44164
   5   22077.0    453.0   0.000889813   0.01327  -0.08042   0.00135   0.08246
   6   23228.9    430.5   0.294044618   4.16735  -1.27932  -1.48271   0.57644
   7   23863.9    419.0   0.002779868   0.03835  -0.04924   0.17877   0.06298
   8   25335.7    394.7   0.194736950   2.53041   0.19662   1.57747  -0.05790
   9   27405.9    364.9   0.574817822   6.90496  -1.14753   1.96028   1.32115
  10   27782.8    359.9   0.356385212   4.22299   1.38384   1.27857  -0.82052
  11   28446.5    351.5   0.003877499   0.04487   0.15511   0.14399  -0.00904
  12   28852.3    346.6   0.452627225   5.16459   1.28887  -1.16738   1.46309
  13   29036.7    344.4   0.054924445   0.62272   0.46478   0.63662   0.03767
  14   30076.1    332.5   0.400226772   4.38087   1.33339  -1.23377  -1.03959
  15   30382.3    329.1   0.005889550   0.06382   0.17337  -0.15496  -0.09874
  16   30698.0    325.8   0.126636571   1.35808   0.77972  -0.86537  -0.03525
  17   30775.1    324.9   0.071345294   0.76321   0.17880  -0.57782  -0.63036
  18   31416.7    318.3   0.014034876   0.14707   0.20670   0.00755  -0.32293
  19   31457.3    317.9   0.025910016   0.27116  -0.26461  -0.42898   0.13081
  20   32102.0    311.5   0.022071918   0.22635  -0.13581   0.44005   0.11944
  21   32326.1    309.3   0.279310613   2.84452   0.80843  -1.16573  -0.91216
  22   33003.8    303.0   0.003660929   0.03652  -0.01135   0.17100   0.08455
  23   33423.3    299.2   0.014152729   0.13940   0.33221  -0.12485  -0.11597
  24   33564.5    297.9   0.043180733   0.42353   0.56331   0.05890  -0.32054
  25   33839.5    295.5   0.016119708   0.15682  -0.12726   0.31635  -0.20137
  26   33946.0    294.6   0.082399318   0.79912  -0.58312  -0.50689   0.44961
  27   34097.0    293.3   0.355509685   3.43250   1.17303  -0.26909   1.40858
  28   34124.3    293.0   0.174625621   1.68469   0.75483  -0.35434   0.99467
  29   34721.2    288.0   0.047307627   0.44855   0.58840   0.22608  -0.22633
  30   34889.5    286.6   0.036670803   0.34602   0.00666   0.00189  -0.58819
  31   35074.6    285.1   0.038351675   0.35997   0.27860   0.23373   0.47720
  32   35117.4    284.8   0.024840100   0.23287  -0.46633   0.10032   0.07303
  33   35244.7    283.7   0.020527173   0.19174   0.22748  -0.37343   0.02332
  34   35371.6    282.7   0.144615526   1.34597  -0.81629   0.66030   0.49361
  35   35900.5    278.5   0.025532901   0.23414  -0.38167   0.06934   0.28924
  36   36027.1    277.6   0.010618776   0.09703   0.11203  -0.12965  -0.26014
  37   36227.3    276.0   0.003052487   0.02774   0.04807   0.08409   0.13549
  38   36537.0    273.7   0.001766517   0.01592   0.07649  -0.07639   0.06504
  39   36999.3    270.3   0.077818771   0.69242  -0.27225  -0.62379  -0.47872
  40   37434.4    267.1   0.043259187   0.38044   0.37253   0.44497  -0.20894
  41   37531.7    266.4   0.019338884   0.16963  -0.02802  -0.40148   0.08754
  42   37682.8    265.4   0.007341505   0.06414   0.04325  -0.20469  -0.14271
  43   38055.0    262.8   0.006421875   0.05556  -0.14903  -0.16655  -0.07488
  44   38258.9    261.4   0.308488358   2.65449   1.40232   0.05272  -0.82777
  45   38565.1    259.3   0.001119520   0.00956  -0.06823   0.06087  -0.03460
  46   39294.1    254.5   0.210777421   1.76593   0.77849   1.01949  -0.34716
  47   39472.4    253.3   0.003848519   0.03210   0.05346   0.16039  -0.05928
  48   39557.2    252.8   0.029663232   0.24687  -0.28276   0.37703   0.15737
  49   39712.8    251.8   0.042980814   0.35630   0.22959   0.49430   0.24344
  50   39803.3    251.2   0.010312121   0.08529   0.17115  -0.23648   0.00868
  51   40075.1    249.5   0.212750661   1.74772   0.36438  -1.21965  -0.35693
  52   40105.7    249.3   0.087273207   0.71639  -0.11637   0.82080   0.17071
  53   40243.2    248.5   0.048059860   0.39316   0.02708   0.62409   0.05422

FINAL SINGLE POINT ENERGY     -7046.123531928232

DIPOLE MOMENT
-------------
                                X             Y             Z
Electronic contribution:     11.35632    -135.24320      23.25013
Nuclear contribution   :    -11.55280     137.69624     -18.99206
                        -----------------------------------------
Total Dipole Moment    :     -0.19648       2.45304       4.25807
                        -----------------------------------------
Magnitude (a.u.)       :      4.91805
Magnitude (Debye)      :     12.50068

Rotational constants in cm-1:     0.001318     0.000569     0.000488
Rotational constants in MHz :    39.526098    17.057165    14.623395

                             ****ORCA TERMINATED NORMALLY****
TOTAL RUN TIME: 0 days 0 hours 8 minutes 24 seconds 741 msec
