                         Program Version 4.2.0 -  RELEASE  -
|  1> # ORCA input file
|  2> # SCF done       -189.095061902363          0.000508319464
|  3> ! CAM-B3LYP def2-SVP def2/J RIJCOSX Grid4 TightSCF
|  4> %maxcore 5000
|  5> %tddft
|  6>     Mode sTDDFT
|  7>     Ethresh 5.0
|  8>     maxcore 5000
|  9> end
| 10>
| 11> %pal
| 12>   nprocs 6
| 13>   end
| 14> * xyz 0 1
| 15>    C      -14.35200        -1.01912        -2.64607
| 16>    C      -13.94262        -2.15359        -3.30213
| 17>    C      -14.66942        -3.36175        -3.32430
| 18>    N      -15.20799        -4.37447        -3.38150
| 19>    C      -12.75115        -2.29568        -4.04261
| 20>    N      -11.80587        -2.50452        -4.66123
| 21>    C      -15.58698        -0.89628        -1.87623
| 22>    C      -15.65706         0.40922        -1.33301
| 23>    C      -16.70752         0.83377        -0.55701
| 24>    C      -17.74180        -0.07349        -0.30392
| 25>    C      -17.66358        -1.37573        -0.85066
| 26>    C      -16.60036        -1.80522        -1.63530
| 27>    S      -19.04611        -2.33578        -0.41674
| 28>    C      -19.70046        -0.99238         0.48124
| 29>    C      -18.92660         0.11845         0.45865
| 30>   Br      -21.34540        -1.18175         1.36340
| 31>    C      -14.46023         1.17466        -1.74117
| 32>    O      -14.20978         2.32384        -1.43717
| 33>    C      -13.66210         0.25178        -2.57785
| 34>    C      -12.47686         0.57257        -3.19005
| 35>    C      -11.83386         1.81982        -3.11183
| 36>    C      -10.66215         2.05751        -3.77142
| 37>    C       -9.96887         3.28032        -3.74595
| 38>    O      -10.41418         4.34934        -3.03373
| 39>    C       -9.54661         5.37412        -3.20971
| 40>    C       -8.51569         4.96432        -4.05445
| 41>    C       -8.78048         3.62710        -4.39787
| 42>    O       -8.05265         2.82595        -5.19110
| 43>    O       -7.43376         5.65026        -4.50505
| 44>    C       -9.75222         6.62604        -2.57650
| 45>    C      -10.79805         6.88144        -1.74937
| 46>    C      -11.06117         8.10779        -1.07692
| 47>    C      -10.33301         9.24046        -1.19399
| 48>    N      -10.61752        10.39018        -0.51493
| 49>    C       -9.93258        11.55153        -0.61686
| 50>    S       -8.60813        11.69933        -1.72643
| 51>    C       -8.39115        13.34868        -1.22516
| 52>    N       -7.33645        14.04483        -1.82157
| 53>    O       -7.13650        15.19207        -1.47370
| 54>    O       -6.68724        13.42632        -2.65208
| 55>    C       -9.28408        13.75387        -0.27506
| 56>    C      -10.18651        12.73500         0.10418
| 57>    C      -11.19288        12.85509         1.10861
| 58>    C      -11.51081        14.00494         1.76443
| 59>    C      -12.46527        14.07091         2.79318
| 60>    C      -12.79935        15.22302         3.46072
| 61>    C      -13.71118        15.35127         4.53762
| 62>    C      -13.83203        16.61969         5.01745
| 63>    C      -13.03376        17.56584         4.33421
| 64>    S      -12.11039        16.79318         3.07453
| 65>    C      -12.95021        18.92873         4.56251
| 66>    C      -13.59245        19.68722         5.56311
| 67>    C      -13.30001        21.01718         5.50825
| 68>    C      -12.43950        21.38161         4.44247
| 69>    S      -11.97607        19.96290         3.54173
| 70>    C      -11.96097        22.66089         4.22938
| 71>    C      -11.22461        23.15940         3.15415
| 72>    C      -11.07661        22.72001         1.84539
| 73>    C      -10.18876        23.63046         1.17473
| 74>    C       -9.74694        23.58842        -0.12445
| 75>    C      -10.10234        22.57212        -1.02747
| 76>    N      -10.35199        21.76413        -1.80331
| 77>    C       -8.88359        24.58583        -0.61730
| 78>    N       -8.18456        25.40003        -1.02344
| 79>    O       -9.79985        24.60984         2.00515
| 80>    C      -10.41311        24.43549         3.28764
| 81>    C       -9.30579        24.28569         4.33334
| 82>    C      -11.28158        25.66446         3.56728
| 83>    C      -11.79538        21.71714         1.18873
| 84>    N      -12.44785        20.93096         0.66345
| 85>    H      -16.73165         1.83571        -0.15787
| 86>    H      -16.58969        -2.80779        -2.02837
| 87>    H      -19.17939         1.03592         0.95797
| 88>    H      -11.98600        -0.18172        -3.79146
| 89>    H      -12.28262         2.60354        -2.52081
| 90>    H      -10.20122         1.28335        -4.37000
| 91>    H       -7.28534         3.31970        -5.51106
| 92>    H       -7.44174         6.55060        -4.16343
| 93>    H       -9.01183         7.38542        -2.78501
| 94>    H      -11.49831         6.07749        -1.57468
| 95>    H      -11.92200         8.11679        -0.42106
| 96>    H       -9.47160         9.30573        -1.84008
| 97>    H      -11.41253        10.37267         0.11272
| 98>    H       -9.26863        14.74749         0.13268
| 99>    H      -11.73183        11.95600         1.38127
|100>    H      -11.01518        14.92877         1.50305
|101>    H      -12.96264        13.15846         3.09653
|102>    H      -14.24500        14.50104         4.92419
|103>    H      -14.47610        16.90139         5.83070
|104>    H      -14.24157        19.24029         6.29425
|105>    H      -13.69253        21.75376         6.18694
|106>    H      -12.15827        23.36220         5.03100
|107>    H       -8.68307        23.42540         4.09646
|108>    H       -9.73706        24.14812         5.32077
|109>    H       -8.68368        25.17664         4.33125
|110>    H      -12.08226        25.73280         2.83357
|111>    H      -10.66634        26.55747         3.49537
|112>    H      -11.71376        25.60907         4.56190
|113> *
|114>
|115>                          ****END OF INPUT****

CARTESIAN COORDINATES (ANGSTROEM)
---------------------------------
  C    -14.352000   -1.019120   -2.646070
  C    -13.942620   -2.153590   -3.302130
  C    -14.669420   -3.361750   -3.324300
  N    -15.207990   -4.374470   -3.381500
  C    -12.751150   -2.295680   -4.042610
  N    -11.805870   -2.504520   -4.661230
  C    -15.586980   -0.896280   -1.876230
  C    -15.657060    0.409220   -1.333010
  C    -16.707520    0.833770   -0.557010
  C    -17.741800   -0.073490   -0.303920
  C    -17.663580   -1.375730   -0.850660
  C    -16.600360   -1.805220   -1.635300
  S    -19.046110   -2.335780   -0.416740
  C    -19.700460   -0.992380    0.481240
  C    -18.926600    0.118450    0.458650
  Br   -21.345400   -1.181750    1.363400
  C    -14.460230    1.174660   -1.741170
  O    -14.209780    2.323840   -1.437170
  C    -13.662100    0.251780   -2.577850
  C    -12.476860    0.572570   -3.190050
  C    -11.833860    1.819820   -3.111830
  C    -10.662150    2.057510   -3.771420
  C     -9.968870    3.280320   -3.745950
  O    -10.414180    4.349340   -3.033730
  C     -9.546610    5.374120   -3.209710
  C     -8.515690    4.964320   -4.054450
  C     -8.780480    3.627100   -4.397870
  O     -8.052650    2.825950   -5.191100
  O     -7.433760    5.650260   -4.505050
  C     -9.752220    6.626040   -2.576500
  C    -10.798050    6.881440   -1.749370
  C    -11.061170    8.107790   -1.076920
  C    -10.333010    9.240460   -1.193990
  N    -10.617520   10.390180   -0.514930
  C     -9.932580   11.551530   -0.616860
  S     -8.608130   11.699330   -1.726430
  C     -8.391150   13.348680   -1.225160
  N     -7.336450   14.044830   -1.821570
  O     -7.136500   15.192070   -1.473700
  O     -6.687240   13.426320   -2.652080
  C     -9.284080   13.753870   -0.275060
  C    -10.186510   12.735000    0.104180
  C    -11.192880   12.855090    1.108610
  C    -11.510810   14.004940    1.764430
  C    -12.465270   14.070910    2.793180
  C    -12.799350   15.223020    3.460720
  C    -13.711180   15.351270    4.537620
  C    -13.832030   16.619690    5.017450
  C    -13.033760   17.565840    4.334210
  S    -12.110390   16.793180    3.074530
  C    -12.950210   18.928730    4.562510
  C    -13.592450   19.687220    5.563110
  C    -13.300010   21.017180    5.508250
  C    -12.439500   21.381610    4.442470
  S    -11.976070   19.962900    3.541730
  C    -11.960970   22.660890    4.229380
  C    -11.224610   23.159400    3.154150
  C    -11.076610   22.720010    1.845390
  C    -10.188760   23.630460    1.174730
  C     -9.746940   23.588420   -0.124450
  C    -10.102340   22.572120   -1.027470
  N    -10.351990   21.764130   -1.803310
  C     -8.883590   24.585830   -0.617300
  N     -8.184560   25.400030   -1.023440
  O     -9.799850   24.609840    2.005150
  C    -10.413110   24.435490    3.287640
  C     -9.305790   24.285690    4.333340
  C    -11.281580   25.664460    3.567280
  C    -11.795380   21.717140    1.188730
  N    -12.447850   20.930960    0.663450
  H    -16.731650    1.835710   -0.157870
  H    -16.589690   -2.807790   -2.028370
  H    -19.179390    1.035920    0.957970
  H    -11.986000   -0.181720   -3.791460
  H    -12.282620    2.603540   -2.520810
  H    -10.201220    1.283350   -4.370000
  H     -7.285340    3.319700   -5.511060
  H     -7.441740    6.550600   -4.163430
  H     -9.011830    7.385420   -2.785010
  H    -11.498310    6.077490   -1.574680
  H    -11.922000    8.116790   -0.421060
  H     -9.471600    9.305730   -1.840080
  H    -11.412530   10.372670    0.112720
  H     -9.268630   14.747490    0.132680
  H    -11.731830   11.956000    1.381270
  H    -11.015180   14.928770    1.503050
  H    -12.962640   13.158460    3.096530
  H    -14.245000   14.501040    4.924190
  H    -14.476100   16.901390    5.830700
  H    -14.241570   19.240290    6.294250
  H    -13.692530   21.753760    6.186940
  H    -12.158270   23.362200    5.031000
  H     -8.683070   23.425400    4.096460
  H     -9.737060   24.148120    5.320770
  H     -8.683680   25.176640    4.331250
  H    -12.082260   25.732800    2.833570
  H    -10.666340   26.557470    3.495370
  H    -11.713760   25.609070    4.561900

 Total Charge           Charge          ....    0
 Multiplicity           Mult            ....    1
 Number of Electrons    NEL             ....  538
 Basis Dimension        Dim             .... 1154

ORBITAL ENERGIES
----------------

  NO   OCC          E(Eh)            E(eV)
   0   2.0000    -482.883359    -13139.9242
   1   2.0000     -88.999005     -2421.7860
   2   2.0000     -88.972090     -2421.0536
   3   2.0000     -88.971631     -2421.0412
   4   2.0000     -88.967193     -2420.9204
   5   2.0000     -62.561078     -1702.3735
   6   2.0000     -56.395023     -1534.5866
   7   2.0000     -56.392317     -1534.5130
   8   2.0000     -56.392282     -1534.5120
   9   2.0000     -19.303561      -525.2766
  10   2.0000     -19.283865      -524.7407
  11   2.0000     -19.278249      -524.5878
  12   2.0000     -19.274278      -524.4798
  13   2.0000     -19.243619      -523.6455
  14   2.0000     -19.243265      -523.6359
  15   2.0000     -19.208437      -522.6881
  16   2.0000     -14.655254      -398.7897
  17   2.0000     -14.507305      -394.7638
  18   2.0000     -14.408078      -392.0637
  19   2.0000     -14.406367      -392.0172
  20   2.0000     -14.399519      -391.8308
  21   2.0000     -14.378476      -391.2582
  22   2.0000     -14.378215      -391.2511
  23   2.0000     -10.388509      -282.6857
  24   2.0000     -10.375274      -282.3255
  25   2.0000     -10.360558      -281.9251
  26   2.0000     -10.358951      -281.8814
  27   2.0000     -10.358253      -281.8624
  28   2.0000     -10.356524      -281.8153
  29   2.0000     -10.355655      -281.7917
  30   2.0000     -10.355478      -281.7869
  31   2.0000     -10.353653      -281.7372
  32   2.0000     -10.352956      -281.7182
  33   2.0000     -10.345663      -281.5198
  34   2.0000     -10.342724      -281.4398
  35   2.0000     -10.338691      -281.3301
  36   2.0000     -10.332525      -281.1623
  37   2.0000     -10.331953      -281.1467
  38   2.0000     -10.331412      -281.1320
  39   2.0000     -10.327080      -281.0141
  40   2.0000     -10.322707      -280.8951
  41   2.0000     -10.322567      -280.8913
  42   2.0000     -10.321143      -280.8526
  43   2.0000     -10.320571      -280.8370
  44   2.0000     -10.316143      -280.7165
  45   2.0000     -10.316121      -280.7159
  46   2.0000     -10.315824      -280.7078
  47   2.0000     -10.313409      -280.6421
  48   2.0000     -10.312019      -280.6043
  49   2.0000     -10.311582      -280.5924
  50   2.0000     -10.311501      -280.5902
  51   2.0000     -10.310094      -280.5519
  52   2.0000     -10.306780      -280.4617
  53   2.0000     -10.306310      -280.4490
  54   2.0000     -10.306034      -280.4415
  55   2.0000     -10.305567      -280.4287
  56   2.0000     -10.305109      -280.4163
  57   2.0000     -10.303423      -280.3704
  58   2.0000     -10.302867      -280.3553
  59   2.0000     -10.302534      -280.3462
  60   2.0000     -10.301550      -280.3194
  61   2.0000     -10.299970      -280.2764
  62   2.0000     -10.299674      -280.2684
  63   2.0000     -10.299372      -280.2602
  64   2.0000     -10.295685      -280.1598
  65   2.0000     -10.293676      -280.1052
  66   2.0000     -10.293647      -280.1044
  67   2.0000     -10.285658      -279.8870
  68   2.0000     -10.284548      -279.8568
  69   2.0000     -10.283937      -279.8401
  70   2.0000     -10.283778      -279.8358
  71   2.0000     -10.279440      -279.7178
  72   2.0000     -10.277792      -279.6729
  73   2.0000     -10.275874      -279.6207
  74   2.0000      -8.790505      -239.2018
  75   2.0000      -8.094349      -220.2584
  76   2.0000      -8.068361      -219.5513
  77   2.0000      -8.067632      -219.5314
  78   2.0000      -8.063091      -219.4079
  79   2.0000      -6.626788      -180.3241
  80   2.0000      -6.612246      -179.9284
  81   2.0000      -6.612056      -179.9232
  82   2.0000      -6.064127      -165.0133
  83   2.0000      -6.059679      -164.8922
  84   2.0000      -6.055644      -164.7825
  85   2.0000      -6.038028      -164.3031
  86   2.0000      -6.037323      -164.2839
  87   2.0000      -6.033987      -164.1931
  88   2.0000      -6.033057      -164.1678
  89   2.0000      -6.032705      -164.1583
  90   2.0000      -6.029350      -164.0669
  91   2.0000      -6.028837      -164.0530
  92   2.0000      -6.028467      -164.0429
  93   2.0000      -6.024325      -163.9302
  94   2.0000      -2.742637       -74.6310
  95   2.0000      -2.738580       -74.5205
  96   2.0000      -2.738458       -74.5172
  97   2.0000      -2.726893       -74.2025
  98   2.0000      -2.726873       -74.2020
  99   2.0000      -1.324292       -36.0358
 100   2.0000      -1.225545       -33.3488
 101   2.0000      -1.196388       -32.5554
 102   2.0000      -1.180101       -32.1122
 103   2.0000      -1.164014       -31.6744
 104   2.0000      -1.143913       -31.1274
 105   2.0000      -1.122226       -30.5373
 106   2.0000      -1.112782       -30.2803
 107   2.0000      -1.021155       -27.7870
 108   2.0000      -1.018093       -27.7037
 109   2.0000      -1.016915       -27.6717
 110   2.0000      -1.006623       -27.3916
 111   2.0000      -0.999517       -27.1982
 112   2.0000      -0.987179       -26.8625
 113   2.0000      -0.986272       -26.8378
 114   2.0000      -0.982114       -26.7247
 115   2.0000      -0.974671       -26.5222
 116   2.0000      -0.957265       -26.0485
 117   2.0000      -0.948802       -25.8182
 118   2.0000      -0.945523       -25.7290
 119   2.0000      -0.942453       -25.6454
 120   2.0000      -0.937783       -25.5184
 121   2.0000      -0.924003       -25.1434
 122   2.0000      -0.922996       -25.1160
 123   2.0000      -0.913802       -24.8658
 124   2.0000      -0.907671       -24.6990
 125   2.0000      -0.902655       -24.5625
 126   2.0000      -0.899093       -24.4656
 127   2.0000      -0.888415       -24.1750
 128   2.0000      -0.881638       -23.9906
 129   2.0000      -0.880482       -23.9591
 130   2.0000      -0.871462       -23.7137
 131   2.0000      -0.869507       -23.6605
 132   2.0000      -0.863486       -23.4966
 133   2.0000      -0.852279       -23.1917
 134   2.0000      -0.848944       -23.1009
 135   2.0000      -0.843507       -22.9530
 136   2.0000      -0.824515       -22.4362
 137   2.0000      -0.819741       -22.3063
 138   2.0000      -0.812913       -22.1205
 139   2.0000      -0.797323       -21.6963
 140   2.0000      -0.793126       -21.5821
 141   2.0000      -0.778814       -21.1926
 142   2.0000      -0.762906       -20.7597
 143   2.0000      -0.755207       -20.5502
 144   2.0000      -0.749917       -20.4063
 145   2.0000      -0.746956       -20.3257
 146   2.0000      -0.741762       -20.1844
 147   2.0000      -0.733362       -19.9558
 148   2.0000      -0.726635       -19.7727
 149   2.0000      -0.720172       -19.5969
 150   2.0000      -0.710196       -19.3254
 151   2.0000      -0.707636       -19.2557
 152   2.0000      -0.687630       -18.7114
 153   2.0000      -0.685824       -18.6622
 154   2.0000      -0.684098       -18.6153
 155   2.0000      -0.679822       -18.4989
 156   2.0000      -0.675421       -18.3791
 157   2.0000      -0.668499       -18.1908
 158   2.0000      -0.658190       -17.9103
 159   2.0000      -0.657846       -17.9009
 160   2.0000      -0.652220       -17.7478
 161   2.0000      -0.650310       -17.6958
 162   2.0000      -0.645724       -17.5710
 163   2.0000      -0.640835       -17.4380
 164   2.0000      -0.636903       -17.3310
 165   2.0000      -0.636495       -17.3199
 166   2.0000      -0.629102       -17.1187
 167   2.0000      -0.624899       -17.0044
 168   2.0000      -0.623019       -16.9532
 169   2.0000      -0.618823       -16.8390
 170   2.0000      -0.611066       -16.6279
 171   2.0000      -0.609072       -16.5737
 172   2.0000      -0.600587       -16.3428
 173   2.0000      -0.598680       -16.2909
 174   2.0000      -0.592778       -16.1303
 175   2.0000      -0.590241       -16.0613
 176   2.0000      -0.585262       -15.9258
 177   2.0000      -0.582085       -15.8393
 178   2.0000      -0.581192       -15.8150
 179   2.0000      -0.573066       -15.5939
 180   2.0000      -0.572200       -15.5703
 181   2.0000      -0.567274       -15.4363
 182   2.0000      -0.563508       -15.3338
 183   2.0000      -0.558689       -15.2027
 184   2.0000      -0.555193       -15.1076
 185   2.0000      -0.549388       -14.9496
 186   2.0000      -0.543795       -14.7974
 187   2.0000      -0.542946       -14.7743
 188   2.0000      -0.539242       -14.6735
 189   2.0000      -0.532769       -14.4974
 190   2.0000      -0.532240       -14.4830
 191   2.0000      -0.530695       -14.4409
 192   2.0000      -0.523097       -14.2342
 193   2.0000      -0.522076       -14.2064
 194   2.0000      -0.521693       -14.1960
 195   2.0000      -0.516669       -14.0593
 196   2.0000      -0.514868       -14.0103
 197   2.0000      -0.512781       -13.9535
 198   2.0000      -0.507221       -13.8022
 199   2.0000      -0.505511       -13.7556
 200   2.0000      -0.503618       -13.7041
 201   2.0000      -0.503155       -13.6915
 202   2.0000      -0.499992       -13.6055
 203   2.0000      -0.497942       -13.5497
 204   2.0000      -0.497388       -13.5346
 205   2.0000      -0.494168       -13.4470
 206   2.0000      -0.491978       -13.3874
 207   2.0000      -0.491172       -13.3655
 208   2.0000      -0.488655       -13.2970
 209   2.0000      -0.487728       -13.2717
 210   2.0000      -0.487550       -13.2669
 211   2.0000      -0.486285       -13.2325
 212   2.0000      -0.486083       -13.2270
 213   2.0000      -0.482643       -13.1334
 214   2.0000      -0.481831       -13.1113
 215   2.0000      -0.473153       -12.8751
 216   2.0000      -0.470587       -12.8053
 217   2.0000      -0.467900       -12.7322
 218   2.0000      -0.462615       -12.5884
 219   2.0000      -0.461840       -12.5673
 220   2.0000      -0.459509       -12.5039
 221   2.0000      -0.455296       -12.3892
 222   2.0000      -0.453819       -12.3490
 223   2.0000      -0.452419       -12.3109
 224   2.0000      -0.449095       -12.2205
 225   2.0000      -0.443660       -12.0726
 226   2.0000      -0.441840       -12.0231
 227   2.0000      -0.441588       -12.0162
 228   2.0000      -0.440475       -11.9859
 229   2.0000      -0.439102       -11.9486
 230   2.0000      -0.436349       -11.8737
 231   2.0000      -0.434876       -11.8336
 232   2.0000      -0.433622       -11.7994
 233   2.0000      -0.427881       -11.6432
 234   2.0000      -0.422952       -11.5091
 235   2.0000      -0.422801       -11.5050
 236   2.0000      -0.419777       -11.4227
 237   2.0000      -0.418874       -11.3981
 238   2.0000      -0.416056       -11.3215
 239   2.0000      -0.414979       -11.2921
 240   2.0000      -0.410022       -11.1573
 241   2.0000      -0.408994       -11.1293
 242   2.0000      -0.404301       -11.0016
 243   2.0000      -0.400882       -10.9086
 244   2.0000      -0.399722       -10.8770
 245   2.0000      -0.392762       -10.6876
 246   2.0000      -0.390985       -10.6393
 247   2.0000      -0.388389       -10.5686
 248   2.0000      -0.384305       -10.4575
 249   2.0000      -0.383079       -10.4241
 250   2.0000      -0.377312       -10.2672
 251   2.0000      -0.374386       -10.1876
 252   2.0000      -0.372933       -10.1480
 253   2.0000      -0.372097       -10.1253
 254   2.0000      -0.370251       -10.0750
 255   2.0000      -0.361609        -9.8399
 256   2.0000      -0.357313        -9.7230
 257   2.0000      -0.348042        -9.4707
 258   2.0000      -0.339034        -9.2256
 259   2.0000      -0.330849        -9.0028
 260   2.0000      -0.328251        -8.9322
 261   2.0000      -0.327743        -8.9183
 262   2.0000      -0.310990        -8.4625
 263   2.0000      -0.310544        -8.4503
 264   2.0000      -0.292386        -7.9562
 265   2.0000      -0.287768        -7.8306
 266   2.0000      -0.277383        -7.5480
 267   2.0000      -0.247168        -6.7258
 268   2.0000      -0.233013        -6.3406
 269   0.0000      -0.114625        -3.1191
 270   0.0000      -0.094904        -2.5825
 271   0.0000      -0.067935        -1.8486
 272   0.0000      -0.056307        -1.5322
 273   0.0000      -0.052086        -1.4173

MULLIKEN ATOMIC CHARGES
-----------------------
   0 C :    0.337290
   1 C :   -0.364476
   2 C :   -0.184605
   3 N :    0.140021
   4 C :   -0.189441
   5 N :    0.139877
   6 C :    0.010178
   7 C :   -0.010565
   8 C :   -0.077201
   9 C :    0.120926
  10 C :   -0.094240
  11 C :   -0.020772
  12 S :    0.183947
  13 C :   -0.123573
  14 C :    0.037453
  15 Br:    0.017794
  16 C :    0.139719
  17 O :   -0.161685
  18 C :   -0.071434
  19 C :   -0.038768
  20 C :   -0.003675
  21 C :   -0.002070
  22 C :    0.079924
  23 O :   -0.215784
  24 C :    0.110360
  25 C :    0.075398
  26 C :    0.109261
  27 O :   -0.155045
  28 O :   -0.193620
  29 C :   -0.046133
  30 C :    0.018933
  31 C :   -0.014765
  32 C :    0.071463
  33 N :   -0.018268
  34 C :   -0.102282
  35 S :    0.139544
  36 C :    0.003893
  37 N :    0.278216
  38 O :   -0.237705
  39 O :   -0.269779
  40 C :    0.018202
  41 C :    0.124306
  42 C :   -0.028675
  43 C :   -0.001933
  44 C :    0.010528
  45 C :   -0.032128
  46 C :    0.054395
  47 C :    0.020060
  48 C :   -0.022955
  49 S :    0.112169
  50 C :   -0.074527
  51 C :    0.050482
  52 C :    0.016870
  53 C :   -0.001714
  54 S :    0.155492
  55 C :   -0.123283
  56 C :    0.116414
  57 C :   -0.161630
  58 C :    0.328807
  59 C :   -0.414950
  60 C :   -0.197986
  61 N :    0.168894
  62 C :   -0.166239
  63 N :    0.142930
  64 O :   -0.251666
  65 C :   -0.092995
  66 C :    0.121907
  67 C :    0.109661
  68 C :   -0.278263
  69 N :    0.203295
  70 H :   -0.017954
  71 H :   -0.009208
  72 H :   -0.007392
  73 H :    0.008049
  74 H :    0.025202
  75 H :    0.025952
  76 H :    0.201044
  77 H :    0.194144
  78 H :   -0.042481
  79 H :    0.019343
  80 H :   -0.008560
  81 H :    0.031874
  82 H :    0.138164
  83 H :    0.018680
  84 H :   -0.034231
  85 H :    0.013362
  86 H :   -0.010004
  87 H :   -0.003014
  88 H :   -0.004562
  89 H :   -0.006703
  90 H :   -0.007137
  91 H :   -0.009924
  92 H :    0.025435
  93 H :    0.014822
  94 H :    0.035793
  95 H :    0.029472
  96 H :    0.038826
  97 H :    0.017228
Sum of atomic charges:   -0.0000000

LOEWDIN ATOMIC CHARGES
----------------------
   0 C :    0.076002
   1 C :   -0.149417
   2 C :   -0.018176
   3 N :   -0.062331
   4 C :   -0.020364
   5 N :   -0.060151
   6 C :   -0.019350
   7 C :   -0.049382
   8 C :    0.017375
   9 C :   -0.034629
  10 C :   -0.145039
  11 C :   -0.011249
  12 S :    0.430147
  13 C :   -0.273342
  14 C :   -0.071691
  15 Br:    0.132290
  16 C :    0.082853
  17 O :   -0.156293
  18 C :   -0.109535
  19 C :    0.067639
  20 C :   -0.042903
  21 C :    0.024205
  22 C :   -0.009256
  23 O :    0.008577
  24 C :    0.011986
  25 C :   -0.025899
  26 C :    0.019415
  27 O :   -0.028531
  28 O :   -0.057199
  29 C :   -0.059073
  30 C :   -0.005902
  31 C :   -0.076434
  32 C :    0.030571
  33 N :    0.051560
  34 C :   -0.091801
  35 S :    0.453161
  36 C :   -0.205255
  37 N :    0.273488
  38 O :   -0.205057
  39 O :   -0.235975
  40 C :    0.012870
  41 C :   -0.112944
  42 C :   -0.005486
  43 C :   -0.036856
  44 C :   -0.022603
  45 C :   -0.156127
  46 C :   -0.009280
  47 C :   -0.037869
  48 C :   -0.140895
  49 S :    0.403892
  50 C :   -0.198930
  51 C :   -0.010289
  52 C :   -0.048798
  53 C :   -0.105668
  54 S :    0.453801
  55 C :   -0.109152
  56 C :    0.036669
  57 C :   -0.135394
  58 C :    0.136187
  59 C :   -0.197532
  60 C :   -0.033849
  61 N :   -0.056534
  62 C :   -0.024301
  63 N :   -0.068124
  64 O :   -0.048819
  65 C :    0.057019
  66 C :   -0.036396
  67 C :   -0.036608
  68 C :   -0.058435
  69 N :   -0.040061
  70 H :    0.038061
  71 H :    0.040560
  72 H :    0.037178
  73 H :    0.041011
  74 H :    0.033184
  75 H :    0.049084
  76 H :    0.110005
  77 H :    0.100542
  78 H :    0.020990
  79 H :    0.041776
  80 H :    0.030877
  81 H :    0.020304
  82 H :    0.097598
  83 H :    0.048579
  84 H :    0.022372
  85 H :    0.026706
  86 H :    0.035516
  87 H :    0.037852
  88 H :    0.035337
  89 H :    0.034981
  90 H :    0.034811
  91 H :    0.034338
  92 H :    0.034697
  93 H :    0.029831
  94 H :    0.036435
  95 H :    0.035063
  96 H :    0.038833
  97 H :    0.028957

  Mayer bond orders larger than 0.100000
B(  0-C ,  1-C ) :   1.6065 B(  0-C ,  6-C ) :   0.9942 B(  0-C , 18-C ) :   1.0890
B(  1-C ,  2-C ) :   1.1435 B(  1-C ,  4-C ) :   1.1514 B(  2-C ,  3-N ) :   2.9633
B(  4-C ,  5-N ) :   2.9588 B(  6-C ,  7-C ) :   1.2805 B(  6-C , 11-C ) :   1.4117
B(  7-C ,  8-C ) :   1.4263 B(  7-C , 16-C ) :   0.9371 B(  8-C ,  9-C ) :   1.2420
B(  8-C , 70-H ) :   1.0156 B(  9-C , 10-C ) :   1.3124 B(  9-C , 14-C ) :   1.1600
B( 10-C , 11-C ) :   1.3285 B( 10-C , 12-S ) :   1.0837 B( 11-C , 71-H ) :   0.9782
B( 12-S , 13-C ) :   1.0865 B( 13-C , 14-C ) :   1.6199 B( 13-C , 15-Br) :   1.0149
B( 14-C , 72-H ) :   1.0001 B( 16-C , 17-O ) :   2.1969 B( 16-C , 18-C ) :   0.9595
B( 18-C , 19-C ) :   1.4789 B( 19-C , 20-C ) :   1.1982 B( 19-C , 73-H ) :   0.9608
B( 20-C , 21-C ) :   1.4657 B( 20-C , 74-H ) :   0.9956 B( 21-C , 22-C ) :   1.2038
B( 21-C , 75-H ) :   0.9771 B( 22-C , 23-O ) :   1.1027 B( 22-C , 24-C ) :   0.1077
B( 22-C , 26-C ) :   1.3323 B( 23-O , 24-C ) :   1.1415 B( 24-C , 25-C ) :   1.2903
B( 24-C , 29-C ) :   1.1787 B( 25-C , 26-C ) :   1.2511 B( 25-C , 28-O ) :   1.2325
B( 26-C , 27-O ) :   1.3025 B( 27-O , 76-H ) :   0.9479 B( 28-O , 77-H ) :   0.9570
B( 29-C , 30-C ) :   1.6762 B( 29-C , 78-H ) :   0.9414 B( 30-C , 31-C ) :   1.1519
B( 30-C , 79-H ) :   0.9817 B( 31-C , 32-C ) :   1.6762 B( 31-C , 80-H ) :   0.9736
B( 32-C , 33-N ) :   1.1205 B( 32-C , 81-H ) :   0.9492 B( 33-N , 34-C ) :   1.2495
B( 33-N , 82-H ) :   0.9163 B( 34-C , 35-S ) :   1.1349 B( 34-C , 41-C ) :   1.3228
B( 35-S , 36-C ) :   1.0571 B( 36-C , 37-N ) :   0.9719 B( 36-C , 40-C ) :   1.5228
B( 37-N , 38-O ) :   1.5382 B( 37-N , 39-O ) :   1.5010 B( 38-O , 39-O ) :   0.2593
B( 40-C , 41-C ) :   1.2141 B( 40-C , 83-H ) :   0.9980 B( 41-C , 42-C ) :   1.0823
B( 42-C , 43-C ) :   1.6584 B( 42-C , 84-H ) :   0.9771 B( 43-C , 44-C ) :   1.1565
B( 43-C , 85-H ) :   0.9707 B( 44-C , 45-C ) :   1.5559 B( 44-C , 86-H ) :   0.9839
B( 45-C , 46-C ) :   1.1445 B( 45-C , 49-S ) :   1.0275 B( 46-C , 47-C ) :   1.5815
B( 46-C , 87-H ) :   0.9998 B( 47-C , 48-C ) :   1.1938 B( 47-C , 88-H ) :   0.9955
B( 48-C , 49-S ) :   1.0898 B( 48-C , 50-C ) :   1.4665 B( 50-C , 51-C ) :   1.2106
B( 50-C , 54-S ) :   1.0562 B( 51-C , 52-C ) :   1.5545 B( 51-C , 89-H ) :   0.9924
B( 52-C , 53-C ) :   1.1736 B( 52-C , 90-H ) :   0.9999 B( 53-C , 54-S ) :   1.1150
B( 53-C , 55-C ) :   1.4718 B( 55-C , 56-C ) :   1.2643 B( 55-C , 91-H ) :   0.9513
B( 56-C , 57-C ) :   1.5067 B( 56-C , 65-C ) :   0.9592 B( 57-C , 58-C ) :   1.0909
B( 57-C , 68-C ) :   1.1724 B( 58-C , 59-C ) :   1.5857 B( 58-C , 64-O ) :   1.2435
B( 59-C , 60-C ) :   1.1824 B( 59-C , 62-C ) :   1.1148 B( 60-C , 61-N ) :   3.0238
B( 62-C , 63-N ) :   3.0504 B( 64-O , 65-C ) :   0.9179 B( 65-C , 66-C ) :   1.0504
B( 65-C , 67-C ) :   1.0480 B( 66-C , 92-H ) :   0.9524 B( 66-C , 93-H ) :   0.9535
B( 66-C , 94-H ) :   0.9592 B( 67-C , 95-H ) :   0.9554 B( 67-C , 96-H ) :   0.9563
B( 67-C , 97-H ) :   0.9569 B( 68-C , 69-N ) :   2.9869

-----------------------------------------------------------------------------
         ABSORPTION SPECTRUM VIA TRANSITION ELECTRIC DIPOLE MOMENTS
-----------------------------------------------------------------------------
State   Energy  Wavelength   fosc         T2         TX        TY        TZ
        (cm-1)    (nm)                  (au**2)     (au)      (au)      (au)
-----------------------------------------------------------------------------
   0   12453.4    803.0   1.740625970  46.01451   0.28984   6.70626   0.97802
   1   16800.8    595.2   0.823380451  16.13416   1.98013   3.40042   0.80648
   2   19260.9    519.2   0.335779656   5.73922  -1.53326  -1.32008   1.28286
   3   22062.4    453.3   0.116589999   1.73974  -1.01273   0.05055   0.84354
   4   22389.0    446.6   0.055758716   0.81989  -0.16896   0.70585   0.54141
   5   24024.5    416.2   0.314556941   4.31043  -1.32424  -0.87322   1.33951
   6   24761.6    403.9   0.416066802   5.53173  -1.17253   0.65383   1.93117
   7   25646.7    389.9   0.182958431   2.34853   0.49996  -0.85215  -1.17150
   8   26175.8    382.0   0.188159664   2.36647   0.99095  -0.21890  -1.15610
   9   27287.1    366.5   0.206854036   2.49564  -1.05267  -0.09060   1.17444
  10   27672.7    361.4   0.136864378   1.62823  -1.07469   0.16853   0.66699
  11   28352.6    352.7   0.136969333   1.59040  -1.08154   0.38885   0.51911
  12   28624.8    349.3   0.000031480   0.00036  -0.01179  -0.00220   0.01477
  13   29103.2    343.6   0.023299212   0.26356  -0.36473   0.20541   0.29721
  14   30197.1    331.2   0.010057087   0.10964   0.01718  -0.30790  -0.12061
  15   30735.5    325.4   0.090769939   0.97225   0.79489  -0.36074  -0.45855
  16   31343.5    319.0   0.124861212   1.31146   0.33927  -0.11771  -1.08743
  17   31859.9    313.9   0.062306322   0.64382  -0.45557  -0.31569   0.58018
  18   32318.1    309.4   0.081870502   0.83398   0.59954  -0.02678  -0.68835
  19   32387.1    308.8   0.131827955   1.34002  -0.90823  -0.28687   0.65791
  20   32762.3    305.2   0.000359723   0.00361   0.03289  -0.00099  -0.05032
  21   32845.5    304.5   0.256051676   2.56642  -1.17247   0.41571   1.00941
  22   33396.2    299.4   0.127625918   1.25811  -0.77904   0.58298   0.55797
  23   33871.0    295.2   0.309777501   3.01091   1.36480  -0.55849  -0.91451
  24   34051.5    293.7   0.099007734   0.95721   0.80645   0.25719  -0.49062
  25   34356.2    291.1   0.172666077   1.65454   0.65363  -0.59302  -0.93575
  26   34595.5    289.1   0.134693679   1.28175  -0.90479  -0.49477   0.46723
  27   34958.7    286.1   0.003652398   0.03440  -0.09702  -0.04153   0.15250
  28   35411.9    282.4   0.093712674   0.87121  -0.57817   0.19245   0.70703
  29   36068.0    277.3   0.007448068   0.06798   0.19177  -0.17416  -0.02959
  30   36342.5    275.2   0.021591894   0.19559  -0.17149  -0.40538  -0.04303
  31   36796.5    271.8   0.167652032   1.49995   0.72354  -0.72721  -0.66904
  32   36881.4    271.1   0.009349637   0.08346   0.27136   0.00127  -0.09909
  33   37393.3    267.4   0.089566001   0.78854   0.71280   0.07872  -0.52370
  34   37937.1    263.6   0.060098936   0.52153  -0.15271  -0.43036  -0.55946
  35   38221.9    261.6   0.032043475   0.27600  -0.35751  -0.37644  -0.08049
  36   38569.3    259.3   0.060652944   0.51771  -0.54650   0.00955   0.46792
  37   38811.1    257.7   0.121941799   1.03436  -0.27852  -0.96708  -0.14676
  38   39016.5    256.3   0.003161039   0.02667  -0.14818  -0.03839   0.05692
  39   39402.5    253.8   0.019940225   0.16660  -0.26808  -0.12619   0.28073
  40   39607.9    252.5   0.000228055   0.00190  -0.03002  -0.02059   0.02389
  41   39831.6    251.1   0.006861422   0.05671   0.13078  -0.03051  -0.19666
  42   40106.0    249.3   0.161933969   1.32924   0.80581   0.78359  -0.25673

FINAL SINGLE POINT ENERGY     -7032.483490197251

DIPOLE MOMENT
-------------
                                X             Y             Z
Electronic contribution:   -105.03804    -176.81501     -10.82384
Nuclear contribution   :    102.93311     176.46751      17.06510
                        -----------------------------------------
Total Dipole Moment    :     -2.10494      -0.34750       6.24126
                        -----------------------------------------
Magnitude (a.u.)       :      6.59582
Magnitude (Debye)      :     16.76523

Rotational constants in cm-1:     0.001052     0.000158     0.000139
Rotational constants in MHz :    31.535572     4.730213     4.181834

                             ****ORCA TERMINATED NORMALLY****
TOTAL RUN TIME: 0 days 0 hours 9 minutes 0 seconds 284 msec
