                         Program Version 4.2.0 -  RELEASE  -
|  1> # ORCA input file
|  2> # SCF done       -198.698216894786          0.000628575173
|  3> ! CAM-B3LYP def2-SVP def2/J RIJCOSX Grid4 TightSCF
|  4> %maxcore 5000
|  5> %tddft
|  6>     Mode sTDDFT
|  7>     Ethresh 5.0
|  8>     maxcore 5000
|  9> end
| 10>
| 11> %pal
| 12>   nprocs 6
| 13>   end
| 14> * xyz 0 1
| 15>    C       -1.40420         0.62544         1.10922
| 16>    C       -1.71204        -0.68128         0.83892
| 17>    C       -1.33486        -1.75120         1.67162
| 18>    N       -1.15406        -2.64797         2.36652
| 19>    C       -2.56015        -1.11714        -0.19569
| 20>    N       -3.26568        -1.56058        -0.98702
| 21>    C       -0.56147         1.08008         2.20362
| 22>    C       -0.69764         2.48362         2.32918
| 23>    C       -0.01529         3.20567         3.27785
| 24>    C        0.84631         2.50890         4.13283
| 25>    C        0.99355         1.10995         3.97822
| 26>    C        0.29957         0.37732         3.02426
| 27>    S        2.13170         0.45653         5.11806
| 28>    C        2.38003         2.04809         5.78638
| 29>    C        1.65560         3.02064         5.18457
| 30>   Br        3.57268         2.27762         7.21530
| 31>    C       -1.62103         2.98318         1.28772
| 32>    O       -1.95345         4.13662         1.11678
| 33>    C       -1.96909         1.79563         0.46905
| 34>    C       -2.54218         1.84621        -0.76397
| 35>    C       -3.21299         2.97806        -1.32039
| 36>    C       -4.06477         3.78595        -0.59787
| 37>    O       -4.47684         3.55417         0.64541
| 38>    C       -5.21779         4.57045         1.28120
| 39>    S       -4.76986         5.03170        -1.58399
| 40>    C       -3.86800         4.48701        -2.97937
| 41>    O       -3.96028         5.11497        -4.16301
| 42>    C       -4.76332         6.26983        -4.22124
| 43>    C       -3.10046         3.37921        -2.70783
| 44>    C       -2.18739         2.73016        -3.59368
| 45>    C       -1.88855         3.08325        -4.86967
| 46>    C       -0.92775         2.44067        -5.68496
| 47>    C       -0.24768         1.26982        -5.46616
| 48>    C        0.78193         0.76047        -6.30455
| 49>    C        1.32285        -0.41694        -5.89591
| 50>    C        0.73669        -0.93756        -4.71875
| 51>    S       -0.50894         0.14446        -4.13953
| 52>    C        1.04232        -2.09693        -4.04561
| 53>    C        2.11429        -2.98897        -4.29869
| 54>    C        2.20244        -4.00750        -3.40944
| 55>    C        1.18267        -4.00584        -2.41058
| 56>    S        0.10668        -2.63727        -2.66298
| 57>    C        1.09536        -4.85091        -1.35321
| 58>    C        0.02982        -4.89451        -0.38036
| 59>    C       -1.29591        -4.87674        -0.71674
| 60>    O       -1.77025        -4.79406        -1.96215
| 61>    C       -3.15890        -4.59208        -2.12588
| 62>    S       -2.33252        -5.17847         0.66583
| 63>    C       -0.95167        -5.29601         1.71408
| 64>    O       -1.04855        -5.56228         3.00865
| 65>    C       -2.31110        -5.39051         3.61584
| 66>    C        0.23916        -5.08047         1.03706
| 67>    C        1.44550        -4.80299         1.73039
| 68>    C        2.48061        -4.12641         1.15769
| 69>    C        3.67821        -3.75903         1.78281
| 70>    C        4.64853        -2.98374         1.19221
| 71>    C        4.60544        -2.23578        -0.03708
| 72>    C        3.50554        -1.63161        -0.60653
| 73>    C        3.52083        -0.95487        -1.83953
| 74>    N        3.45645        -0.42575        -2.85826
| 75>    C        2.25825        -1.49621         0.03154
| 76>    N        1.24849        -1.26259         0.52844
| 77>    C        5.98462        -2.04440        -0.47850
| 78>    C        6.85233        -2.46416         0.56062
| 79>    C        6.04386        -3.01288         1.67574
| 80>    O        6.44880        -3.43911         2.73559
| 81>    C        8.21767        -2.36893         0.46222
| 82>    C        8.75298        -1.84651        -0.72158
| 83>    C        7.87825        -1.44283        -1.75612
| 84>    C        6.49462        -1.52873        -1.65350
| 85>    S        8.75181        -0.83890        -3.13262
| 86>    C       10.25999        -1.12882        -2.30681
| 87>    C       10.11921        -1.65257        -1.06673
| 88>   Br       11.87748        -0.71518        -3.16304
| 89>    H       -0.13503         4.27496         3.35687
| 90>    H        0.45785        -0.68271         2.91937
| 91>    H        1.68980         4.05668         5.46857
| 92>    H       -2.45344         0.98078        -1.41045
| 93>    H       -5.45042         4.19811         2.27648
| 94>    H       -6.14476         4.77751         0.73468
| 95>    H       -4.62831         5.48812         1.35658
| 96>    H       -5.80101         6.04025        -3.95685
| 97>    H       -4.71469         6.62072        -5.25003
| 98>    H       -4.38841         7.04637        -3.54683
| 99>    H       -1.65377         1.90686        -3.14814
|100>    H       -2.37679         3.94512        -5.29991
|101>    H       -0.67937         2.94574        -6.61062
|102>    H        1.09631         1.29916        -7.18166
|103>    H        2.11453        -0.93215        -6.40901
|104>    H        2.80083        -2.82701        -5.10998
|105>    H        2.96018        -4.77182        -3.42271
|106>    H        1.88383        -5.58266        -1.22302
|107>    H       -3.72724        -5.40188        -1.65595
|108>    H       -3.33319        -4.59151        -3.19943
|109>    H       -3.46404        -3.63091        -1.70207
|110>    H       -2.18034        -5.64623         4.66500
|111>    H       -3.05571        -6.05101         3.15940
|112>    H       -2.63763        -4.35173         3.51862
|113>    H        1.46307        -5.03741         2.78577
|114>    H        2.36516        -3.84086         0.12202
|115>    H        3.92360        -4.18583         2.74811
|116>    H        8.85652        -2.68762         1.27087
|117>    H        5.86505        -1.21128        -2.46846
|118>    H       10.94290        -1.89385        -0.41994
|119> *
|120>
|121>                          ****END OF INPUT****

CARTESIAN COORDINATES (ANGSTROEM)
---------------------------------
  C     -1.404200    0.625440    1.109220
  C     -1.712040   -0.681280    0.838920
  C     -1.334860   -1.751200    1.671620
  N     -1.154060   -2.647970    2.366520
  C     -2.560150   -1.117140   -0.195690
  N     -3.265680   -1.560580   -0.987020
  C     -0.561470    1.080080    2.203620
  C     -0.697640    2.483620    2.329180
  C     -0.015290    3.205670    3.277850
  C      0.846310    2.508900    4.132830
  C      0.993550    1.109950    3.978220
  C      0.299570    0.377320    3.024260
  S      2.131700    0.456530    5.118060
  C      2.380030    2.048090    5.786380
  C      1.655600    3.020640    5.184570
  Br     3.572680    2.277620    7.215300
  C     -1.621030    2.983180    1.287720
  O     -1.953450    4.136620    1.116780
  C     -1.969090    1.795630    0.469050
  C     -2.542180    1.846210   -0.763970
  C     -3.212990    2.978060   -1.320390
  C     -4.064770    3.785950   -0.597870
  O     -4.476840    3.554170    0.645410
  C     -5.217790    4.570450    1.281200
  S     -4.769860    5.031700   -1.583990
  C     -3.868000    4.487010   -2.979370
  O     -3.960280    5.114970   -4.163010
  C     -4.763320    6.269830   -4.221240
  C     -3.100460    3.379210   -2.707830
  C     -2.187390    2.730160   -3.593680
  C     -1.888550    3.083250   -4.869670
  C     -0.927750    2.440670   -5.684960
  C     -0.247680    1.269820   -5.466160
  C      0.781930    0.760470   -6.304550
  C      1.322850   -0.416940   -5.895910
  C      0.736690   -0.937560   -4.718750
  S     -0.508940    0.144460   -4.139530
  C      1.042320   -2.096930   -4.045610
  C      2.114290   -2.988970   -4.298690
  C      2.202440   -4.007500   -3.409440
  C      1.182670   -4.005840   -2.410580
  S      0.106680   -2.637270   -2.662980
  C      1.095360   -4.850910   -1.353210
  C      0.029820   -4.894510   -0.380360
  C     -1.295910   -4.876740   -0.716740
  O     -1.770250   -4.794060   -1.962150
  C     -3.158900   -4.592080   -2.125880
  S     -2.332520   -5.178470    0.665830
  C     -0.951670   -5.296010    1.714080
  O     -1.048550   -5.562280    3.008650
  C     -2.311100   -5.390510    3.615840
  C      0.239160   -5.080470    1.037060
  C      1.445500   -4.802990    1.730390
  C      2.480610   -4.126410    1.157690
  C      3.678210   -3.759030    1.782810
  C      4.648530   -2.983740    1.192210
  C      4.605440   -2.235780   -0.037080
  C      3.505540   -1.631610   -0.606530
  C      3.520830   -0.954870   -1.839530
  N      3.456450   -0.425750   -2.858260
  C      2.258250   -1.496210    0.031540
  N      1.248490   -1.262590    0.528440
  C      5.984620   -2.044400   -0.478500
  C      6.852330   -2.464160    0.560620
  C      6.043860   -3.012880    1.675740
  O      6.448800   -3.439110    2.735590
  C      8.217670   -2.368930    0.462220
  C      8.752980   -1.846510   -0.721580
  C      7.878250   -1.442830   -1.756120
  C      6.494620   -1.528730   -1.653500
  S      8.751810   -0.838900   -3.132620
  C     10.259990   -1.128820   -2.306810
  C     10.119210   -1.652570   -1.066730
  Br    11.877480   -0.715180   -3.163040
  H     -0.135030    4.274960    3.356870
  H      0.457850   -0.682710    2.919370
  H      1.689800    4.056680    5.468570
  H     -2.453440    0.980780   -1.410450
  H     -5.450420    4.198110    2.276480
  H     -6.144760    4.777510    0.734680
  H     -4.628310    5.488120    1.356580
  H     -5.801010    6.040250   -3.956850
  H     -4.714690    6.620720   -5.250030
  H     -4.388410    7.046370   -3.546830
  H     -1.653770    1.906860   -3.148140
  H     -2.376790    3.945120   -5.299910
  H     -0.679370    2.945740   -6.610620
  H      1.096310    1.299160   -7.181660
  H      2.114530   -0.932150   -6.409010
  H      2.800830   -2.827010   -5.109980
  H      2.960180   -4.771820   -3.422710
  H      1.883830   -5.582660   -1.223020
  H     -3.727240   -5.401880   -1.655950
  H     -3.333190   -4.591510   -3.199430
  H     -3.464040   -3.630910   -1.702070
  H     -2.180340   -5.646230    4.665000
  H     -3.055710   -6.051010    3.159400
  H     -2.637630   -4.351730    3.518620
  H      1.463070   -5.037410    2.785770
  H      2.365160   -3.840860    0.122020
  H      3.923600   -4.185830    2.748110
  H      8.856520   -2.687620    1.270870
  H      5.865050   -1.211280   -2.468460
  H     10.942900   -1.893850   -0.419940

 Total Charge           Charge          ....    0
 Multiplicity           Mult            ....    1
 Number of Electrons    NEL             ....  608
 Basis Dimension        Dim             .... 1246

ORBITAL ENERGIES
----------------

  NO   OCC          E(Eh)            E(eV)
   0   2.0000    -482.876906    -13139.7486
   1   2.0000    -482.876315    -13139.7325
   2   2.0000     -88.964388     -2420.8441
   3   2.0000     -88.964109     -2420.8365
   4   2.0000     -88.963139     -2420.8101
   5   2.0000     -88.957127     -2420.6465
   6   2.0000     -88.924642     -2419.7625
   7   2.0000     -88.920863     -2419.6597
   8   2.0000     -62.554616     -1702.1976
   9   2.0000     -62.554006     -1702.1811
  10   2.0000     -56.388553     -1534.4105
  11   2.0000     -56.387942     -1534.3939
  12   2.0000     -56.385864     -1534.3374
  13   2.0000     -56.385824     -1534.3363
  14   2.0000     -56.385254     -1534.3208
  15   2.0000     -56.385220     -1534.3198
  16   2.0000     -19.264067      -524.2019
  17   2.0000     -19.264064      -524.2018
  18   2.0000     -19.262056      -524.1472
  19   2.0000     -19.245255      -523.6900
  20   2.0000     -19.200445      -522.4707
  21   2.0000     -19.194584      -522.3112
  22   2.0000     -14.405767      -392.0009
  23   2.0000     -14.401380      -391.8815
  24   2.0000     -14.399024      -391.8174
  25   2.0000     -14.398662      -391.8075
  26   2.0000     -10.360404      -281.9209
  27   2.0000     -10.359518      -281.8968
  28   2.0000     -10.350784      -281.6592
  29   2.0000     -10.347890      -281.5804
  30   2.0000     -10.347579      -281.5719
  31   2.0000     -10.346663      -281.5470
  32   2.0000     -10.346173      -281.5337
  33   2.0000     -10.342937      -281.4456
  34   2.0000     -10.333707      -281.1945
  35   2.0000     -10.331047      -281.1221
  36   2.0000     -10.324500      -280.9439
  37   2.0000     -10.323362      -280.9130
  38   2.0000     -10.323222      -280.9092
  39   2.0000     -10.322457      -280.8883
  40   2.0000     -10.322303      -280.8842
  41   2.0000     -10.312900      -280.6283
  42   2.0000     -10.311086      -280.5789
  43   2.0000     -10.310631      -280.5665
  44   2.0000     -10.308172      -280.4996
  45   2.0000     -10.305814      -280.4355
  46   2.0000     -10.305100      -280.4160
  47   2.0000     -10.302241      -280.3382
  48   2.0000     -10.300683      -280.2958
  49   2.0000     -10.295136      -280.1449
  50   2.0000     -10.294415      -280.1253
  51   2.0000     -10.294319      -280.1227
  52   2.0000     -10.293264      -280.0940
  53   2.0000     -10.291484      -280.0455
  54   2.0000     -10.290130      -280.0087
  55   2.0000     -10.288775      -279.9718
  56   2.0000     -10.288764      -279.9715
  57   2.0000     -10.287139      -279.9273
  58   2.0000     -10.286914      -279.9212
  59   2.0000     -10.286719      -279.9159
  60   2.0000     -10.286303      -279.9045
  61   2.0000     -10.285943      -279.8947
  62   2.0000     -10.285701      -279.8882
  63   2.0000     -10.285201      -279.8746
  64   2.0000     -10.284382      -279.8523
  65   2.0000     -10.278715      -279.6981
  66   2.0000     -10.277492      -279.6648
  67   2.0000     -10.277195      -279.6567
  68   2.0000     -10.271262      -279.4952
  69   2.0000     -10.269969      -279.4601
  70   2.0000     -10.267802      -279.4011
  71   2.0000     -10.267524      -279.3935
  72   2.0000     -10.265181      -279.3298
  73   2.0000     -10.265121      -279.3281
  74   2.0000     -10.264238      -279.3041
  75   2.0000     -10.263404      -279.2814
  76   2.0000     -10.262517      -279.2573
  77   2.0000     -10.262419      -279.2546
  78   2.0000     -10.258776      -279.1555
  79   2.0000     -10.255253      -279.0596
  80   2.0000     -10.254828      -279.0481
  81   2.0000     -10.250116      -278.9198
  82   2.0000      -8.784030      -239.0256
  83   2.0000      -8.783413      -239.0088
  84   2.0000      -8.060606      -219.3402
  85   2.0000      -8.060468      -219.3365
  86   2.0000      -8.059170      -219.3012
  87   2.0000      -8.053334      -219.1424
  88   2.0000      -8.020199      -218.2407
  89   2.0000      -8.016300      -218.1346
  90   2.0000      -6.620275      -180.1468
  91   2.0000      -6.619640      -180.1296
  92   2.0000      -6.605777      -179.7523
  93   2.0000      -6.605624      -179.7482
  94   2.0000      -6.605186      -179.7363
  95   2.0000      -6.604996      -179.7311
  96   2.0000      -6.030160      -164.0890
  97   2.0000      -6.029970      -164.0838
  98   2.0000      -6.028855      -164.0535
  99   2.0000      -6.026011      -163.9761
 100   2.0000      -6.025907      -163.9733
 101   2.0000      -6.024603      -163.9378
 102   2.0000      -6.022696      -163.8859
 103   2.0000      -6.022165      -163.8714
 104   2.0000      -6.021658      -163.8576
 105   2.0000      -6.020381      -163.8229
 106   2.0000      -6.018803      -163.7799
 107   2.0000      -6.014836      -163.6720
 108   2.0000      -5.989978      -162.9956
 109   2.0000      -5.986137      -162.8911
 110   2.0000      -5.985859      -162.8835
 111   2.0000      -5.982057      -162.7800
 112   2.0000      -5.981239      -162.7578
 113   2.0000      -5.977103      -162.6452
 114   2.0000      -2.736152       -74.4545
 115   2.0000      -2.735552       -74.4381
 116   2.0000      -2.732082       -74.3437
 117   2.0000      -2.731964       -74.3405
 118   2.0000      -2.731452       -74.3266
 119   2.0000      -2.731325       -74.3231
 120   2.0000      -2.720444       -74.0270
 121   2.0000      -2.720426       -74.0266
 122   2.0000      -2.719832       -74.0104
 123   2.0000      -2.719817       -74.0100
 124   2.0000      -1.175050       -31.9747
 125   2.0000      -1.173759       -31.9396
 126   2.0000      -1.168544       -31.7977
 127   2.0000      -1.154120       -31.4052
 128   2.0000      -1.114025       -30.3142
 129   2.0000      -1.108935       -30.1757
 130   2.0000      -1.009373       -27.4664
 131   2.0000      -1.008795       -27.4507
 132   2.0000      -1.001488       -27.2519
 133   2.0000      -0.998180       -27.1619
 134   2.0000      -0.983554       -26.7639
 135   2.0000      -0.977621       -26.6024
 136   2.0000      -0.977254       -26.5924
 137   2.0000      -0.974049       -26.5052
 138   2.0000      -0.973163       -26.4811
 139   2.0000      -0.971662       -26.4403
 140   2.0000      -0.967437       -26.3253
 141   2.0000      -0.949211       -25.8294
 142   2.0000      -0.929936       -25.3049
 143   2.0000      -0.929083       -25.2816
 144   2.0000      -0.903201       -24.5774
 145   2.0000      -0.895549       -24.3691
 146   2.0000      -0.893984       -24.3265
 147   2.0000      -0.892458       -24.2850
 148   2.0000      -0.887037       -24.1375
 149   2.0000      -0.875720       -23.8296
 150   2.0000      -0.872546       -23.7432
 151   2.0000      -0.871844       -23.7241
 152   2.0000      -0.868894       -23.6438
 153   2.0000      -0.858242       -23.3539
 154   2.0000      -0.851874       -23.1807
 155   2.0000      -0.846284       -23.0286
 156   2.0000      -0.833154       -22.6713
 157   2.0000      -0.821407       -22.3516
 158   2.0000      -0.820103       -22.3161
 159   2.0000      -0.816411       -22.2157
 160   2.0000      -0.815714       -22.1967
 161   2.0000      -0.813161       -22.1272
 162   2.0000      -0.809087       -22.0164
 163   2.0000      -0.800924       -21.7943
 164   2.0000      -0.796744       -21.6805
 165   2.0000      -0.788975       -21.4691
 166   2.0000      -0.771169       -20.9846
 167   2.0000      -0.759347       -20.6629
 168   2.0000      -0.750205       -20.4141
 169   2.0000      -0.744490       -20.2586
 170   2.0000      -0.741500       -20.1772
 171   2.0000      -0.734972       -19.9996
 172   2.0000      -0.728279       -19.8175
 173   2.0000      -0.707164       -19.2429
 174   2.0000      -0.694731       -18.9046
 175   2.0000      -0.693393       -18.8682
 176   2.0000      -0.682991       -18.5851
 177   2.0000      -0.677385       -18.4326
 178   2.0000      -0.674254       -18.3474
 179   2.0000      -0.668685       -18.1959
 180   2.0000      -0.666497       -18.1363
 181   2.0000      -0.653941       -17.7947
 182   2.0000      -0.651430       -17.7263
 183   2.0000      -0.646689       -17.5973
 184   2.0000      -0.645253       -17.5582
 185   2.0000      -0.642595       -17.4859
 186   2.0000      -0.639303       -17.3963
 187   2.0000      -0.635512       -17.2932
 188   2.0000      -0.622850       -16.9486
 189   2.0000      -0.618971       -16.8431
 190   2.0000      -0.612255       -16.6603
 191   2.0000      -0.608839       -16.5674
 192   2.0000      -0.606437       -16.5020
 193   2.0000      -0.602487       -16.3945
 194   2.0000      -0.598402       -16.2834
 195   2.0000      -0.587860       -15.9965
 196   2.0000      -0.587429       -15.9848
 197   2.0000      -0.584702       -15.9105
 198   2.0000      -0.582082       -15.8393
 199   2.0000      -0.578094       -15.7307
 200   2.0000      -0.576306       -15.6821
 201   2.0000      -0.571707       -15.5569
 202   2.0000      -0.568954       -15.4820
 203   2.0000      -0.567655       -15.4467
 204   2.0000      -0.566240       -15.4082
 205   2.0000      -0.562957       -15.3188
 206   2.0000      -0.560754       -15.2589
 207   2.0000      -0.555874       -15.1261
 208   2.0000      -0.547547       -14.8995
 209   2.0000      -0.545711       -14.8495
 210   2.0000      -0.540738       -14.7142
 211   2.0000      -0.536783       -14.6066
 212   2.0000      -0.533688       -14.5224
 213   2.0000      -0.533478       -14.5167
 214   2.0000      -0.528305       -14.3759
 215   2.0000      -0.525573       -14.3016
 216   2.0000      -0.523242       -14.2382
 217   2.0000      -0.521149       -14.1812
 218   2.0000      -0.519739       -14.1428
 219   2.0000      -0.513853       -13.9827
 220   2.0000      -0.512506       -13.9460
 221   2.0000      -0.511519       -13.9191
 222   2.0000      -0.506178       -13.7738
 223   2.0000      -0.500759       -13.6263
 224   2.0000      -0.498314       -13.5598
 225   2.0000      -0.496040       -13.4979
 226   2.0000      -0.495314       -13.4782
 227   2.0000      -0.493905       -13.4398
 228   2.0000      -0.492460       -13.4005
 229   2.0000      -0.487691       -13.2708
 230   2.0000      -0.485753       -13.2180
 231   2.0000      -0.483931       -13.1684
 232   2.0000      -0.482471       -13.1287
 233   2.0000      -0.480524       -13.0757
 234   2.0000      -0.476880       -12.9766
 235   2.0000      -0.476266       -12.9599
 236   2.0000      -0.471779       -12.8378
 237   2.0000      -0.471138       -12.8203
 238   2.0000      -0.470291       -12.7973
 239   2.0000      -0.469368       -12.7721
 240   2.0000      -0.466200       -12.6859
 241   2.0000      -0.463151       -12.6030
 242   2.0000      -0.461842       -12.5674
 243   2.0000      -0.458184       -12.4678
 244   2.0000      -0.456646       -12.4260
 245   2.0000      -0.452487       -12.3128
 246   2.0000      -0.450248       -12.2519
 247   2.0000      -0.449049       -12.2193
 248   2.0000      -0.446935       -12.1617
 249   2.0000      -0.442896       -12.0518
 250   2.0000      -0.441587       -12.0162
 251   2.0000      -0.439582       -11.9616
 252   2.0000      -0.437519       -11.9055
 253   2.0000      -0.435823       -11.8594
 254   2.0000      -0.435204       -11.8425
 255   2.0000      -0.433496       -11.7960
 256   2.0000      -0.432800       -11.7771
 257   2.0000      -0.430326       -11.7098
 258   2.0000      -0.428329       -11.6554
 259   2.0000      -0.427257       -11.6263
 260   2.0000      -0.424202       -11.5431
 261   2.0000      -0.421598       -11.4723
 262   2.0000      -0.418633       -11.3916
 263   2.0000      -0.415949       -11.3186
 264   2.0000      -0.413214       -11.2441
 265   2.0000      -0.411338       -11.1931
 266   2.0000      -0.409861       -11.1529
 267   2.0000      -0.407766       -11.0959
 268   2.0000      -0.404696       -11.0123
 269   2.0000      -0.403349       -10.9757
 270   2.0000      -0.401040       -10.9129
 271   2.0000      -0.398963       -10.8563
 272   2.0000      -0.397383       -10.8133
 273   2.0000      -0.394617       -10.7381
 274   2.0000      -0.391893       -10.6640
 275   2.0000      -0.390453       -10.6248
 276   2.0000      -0.388916       -10.5829
 277   2.0000      -0.384947       -10.4749
 278   2.0000      -0.379297       -10.3212
 279   2.0000      -0.374915       -10.2019
 280   2.0000      -0.373520       -10.1640
 281   2.0000      -0.371136       -10.0991
 282   2.0000      -0.366519        -9.9735
 283   2.0000      -0.365785        -9.9535
 284   2.0000      -0.363143        -9.8816
 285   2.0000      -0.362937        -9.8760
 286   2.0000      -0.352986        -9.6052
 287   2.0000      -0.349839        -9.5196
 288   2.0000      -0.334430        -9.1003
 289   2.0000      -0.326432        -8.8827
 290   2.0000      -0.323288        -8.7971
 291   2.0000      -0.317451        -8.6383
 292   2.0000      -0.314145        -8.5483
 293   2.0000      -0.311778        -8.4839
 294   2.0000      -0.302704        -8.2370
 295   2.0000      -0.301472        -8.2035
 296   2.0000      -0.298210        -8.1147
 297   2.0000      -0.284339        -7.7373
 298   2.0000      -0.280286        -7.6270
 299   2.0000      -0.277617        -7.5543
 300   2.0000      -0.262592        -7.1455
 301   2.0000      -0.244364        -6.6495
 302   2.0000      -0.234371        -6.3776
 303   2.0000      -0.192161        -5.2290
 304   0.0000      -0.074519        -2.0278
 305   0.0000      -0.068570        -1.8659
 306   0.0000      -0.049758        -1.3540
 307   0.0000      -0.042368        -1.1529
 308   0.0000      -0.038728        -1.0539

MULLIKEN ATOMIC CHARGES
-----------------------
   0 C :    0.302921
   1 C :   -0.319231
   2 C :   -0.139158
   3 N :    0.109666
   4 C :   -0.173348
   5 N :    0.139960
   6 C :    0.010942
   7 C :   -0.010295
   8 C :   -0.082641
   9 C :    0.115942
  10 C :   -0.090421
  11 C :   -0.001413
  12 S :    0.178899
  13 C :   -0.123271
  14 C :    0.036632
  15 Br:    0.014508
  16 C :    0.146584
  17 O :   -0.156109
  18 C :   -0.086318
  19 C :   -0.044873
  20 C :    0.048988
  21 C :    0.037614
  22 O :   -0.264631
  23 C :    0.175141
  24 S :    0.018965
  25 C :   -0.045199
  26 O :   -0.284004
  27 C :    0.176519
  28 C :    0.152589
  29 C :   -0.052985
  30 C :    0.021093
  31 C :   -0.021653
  32 C :   -0.008222
  33 C :    0.031253
  34 C :    0.042171
  35 C :   -0.023913
  36 S :    0.043522
  37 C :   -0.059113
  38 C :    0.043824
  39 C :    0.021035
  40 C :   -0.029530
  41 S :    0.099095
  42 C :   -0.052724
  43 C :    0.027819
  44 C :   -0.005653
  45 O :   -0.272386
  46 C :    0.170296
  47 S :    0.032125
  48 C :    0.049609
  49 O :   -0.264022
  50 C :    0.172052
  51 C :    0.063809
  52 C :    0.037698
  53 C :   -0.047342
  54 C :    0.056806
  55 C :   -0.135505
  56 C :    0.279566
  57 C :   -0.343252
  58 C :   -0.162669
  59 N :    0.131187
  60 C :   -0.206913
  61 N :    0.159802
  62 C :    0.004959
  63 C :   -0.005989
  64 C :    0.137783
  65 O :   -0.153421
  66 C :   -0.076282
  67 C :    0.110893
  68 C :   -0.087504
  69 C :   -0.026923
  70 S :    0.174473
  71 C :   -0.125094
  72 C :    0.040284
  73 Br:    0.013416
  74 H :   -0.017535
  75 H :    0.001668
  76 H :   -0.007895
  77 H :    0.051546
  78 H :    0.047381
  79 H :    0.029341
  80 H :    0.040990
  81 H :    0.030075
  82 H :    0.048964
  83 H :    0.032653
  84 H :   -0.020119
  85 H :   -0.016906
  86 H :   -0.025503
  87 H :   -0.021593
  88 H :   -0.020310
  89 H :   -0.018712
  90 H :   -0.018753
  91 H :    0.006292
  92 H :    0.016283
  93 H :    0.042573
  94 H :    0.038185
  95 H :    0.044485
  96 H :    0.028787
  97 H :    0.044474
  98 H :   -0.001795
  99 H :    0.042697
 100 H :    0.004482
 101 H :   -0.014054
 102 H :   -0.009360
 103 H :   -0.006773
Sum of atomic charges:   -0.0000000

LOEWDIN ATOMIC CHARGES
----------------------
   0 C :    0.087954
   1 C :   -0.136976
   2 C :    0.008771
   3 N :   -0.079156
   4 C :   -0.002514
   5 N :   -0.064339
   6 C :   -0.016832
   7 C :   -0.047163
   8 C :    0.013918
   9 C :   -0.034039
  10 C :   -0.146349
  11 C :    0.001441
  12 S :    0.427036
  13 C :   -0.274088
  14 C :   -0.072001
  15 Br:    0.130224
  16 C :    0.084316
  17 O :   -0.146618
  18 C :   -0.091977
  19 C :    0.080186
  20 C :   -0.103573
  21 C :   -0.070558
  22 O :   -0.068767
  23 C :    0.072162
  24 S :    0.393250
  25 C :   -0.105624
  26 O :   -0.086976
  27 C :    0.068411
  28 C :   -0.082562
  29 C :   -0.037258
  30 C :   -0.035776
  31 C :   -0.067323
  32 C :   -0.140743
  33 C :   -0.034122
  34 C :   -0.031632
  35 C :   -0.175395
  36 S :    0.381476
  37 C :   -0.174682
  38 C :   -0.026643
  39 C :   -0.041104
  40 C :   -0.147685
  41 S :    0.384663
  42 C :   -0.058548
  43 C :   -0.105297
  44 C :   -0.100936
  45 O :   -0.085914
  46 C :    0.066876
  47 S :    0.396234
  48 C :   -0.064395
  49 O :   -0.067576
  50 C :    0.073250
  51 C :   -0.107440
  52 C :    0.068385
  53 C :   -0.064784
  54 C :    0.075847
  55 C :   -0.117569
  56 C :    0.073808
  57 C :   -0.154640
  58 C :   -0.015442
  59 N :   -0.064884
  60 C :   -0.002464
  61 N :   -0.064671
  62 C :   -0.016314
  63 C :   -0.050119
  64 C :    0.078566
  65 O :   -0.156345
  66 C :    0.017791
  67 C :   -0.037136
  68 C :   -0.145760
  69 C :   -0.017378
  70 S :    0.423348
  71 C :   -0.275823
  72 C :   -0.070208
  73 Br:    0.128700
  74 H :    0.037533
  75 H :    0.040055
  76 H :    0.036874
  77 H :    0.045070
  78 H :    0.033388
  79 H :    0.011521
  80 H :    0.022110
  81 H :    0.014163
  82 H :    0.033508
  83 H :    0.016033
  84 H :    0.005684
  85 H :    0.024986
  86 H :    0.029839
  87 H :    0.029892
  88 H :    0.029952
  89 H :    0.030216
  90 H :    0.029946
  91 H :    0.033100
  92 H :    0.006050
  93 H :    0.032144
  94 H :    0.015370
  95 H :    0.031755
  96 H :    0.012023
  97 H :    0.020426
  98 H :    0.036367
  99 H :    0.034211
 100 H :    0.041105
 101 H :    0.039395
 102 H :    0.039197
 103 H :    0.037588

  Mayer bond orders larger than 0.100000
B(  0-C ,  1-C ) :   1.6373 B(  0-C ,  6-C ) :   1.0076 B(  0-C , 18-C ) :   1.0590
B(  1-C ,  2-C ) :   1.1490 B(  1-C ,  4-C ) :   1.1662 B(  2-C ,  3-N ) :   2.9030
B(  4-C ,  5-N ) :   2.8883 B(  6-C ,  7-C ) :   1.2699 B(  6-C , 11-C ) :   1.4176
B(  7-C ,  8-C ) :   1.4257 B(  7-C , 16-C ) :   0.9432 B(  8-C ,  9-C ) :   1.2473
B(  8-C , 74-H ) :   1.0157 B(  9-C , 10-C ) :   1.3083 B(  9-C , 14-C ) :   1.1614
B( 10-C , 11-C ) :   1.3284 B( 10-C , 12-S ) :   1.0776 B( 11-C , 75-H ) :   0.9764
B( 12-S , 13-C ) :   1.0870 B( 13-C , 14-C ) :   1.6190 B( 13-C , 15-Br) :   1.0138
B( 14-C , 76-H ) :   1.0001 B( 16-C , 17-O ) :   2.2043 B( 16-C , 18-C ) :   0.9492
B( 18-C , 19-C ) :   1.6417 B( 19-C , 20-C ) :   1.1223 B( 19-C , 77-H ) :   0.9247
B( 20-C , 21-C ) :   1.4734 B( 20-C , 28-C ) :   1.1504 B( 21-C , 22-O ) :   1.1945
B( 21-C , 24-S ) :   1.0810 B( 22-O , 23-C ) :   0.9366 B( 23-C , 78-H ) :   0.9820
B( 23-C , 79-H ) :   0.9624 B( 23-C , 80-H ) :   0.9680 B( 24-S , 25-C ) :   1.0424
B( 25-C , 26-O ) :   1.1398 B( 25-C , 28-C ) :   1.4901 B( 26-O , 27-C ) :   0.9468
B( 27-C , 81-H ) :   0.9644 B( 27-C , 82-H ) :   0.9815 B( 27-C , 83-H ) :   0.9668
B( 28-C , 29-C ) :   1.1565 B( 29-C , 30-C ) :   1.6470 B( 29-C , 84-H ) :   0.9271
B( 30-C , 31-C ) :   1.1691 B( 30-C , 85-H ) :   0.9699 B( 31-C , 32-C ) :   1.5871
B( 31-C , 86-H ) :   0.9621 B( 32-C , 33-C ) :   1.1410 B( 32-C , 36-S ) :   1.0337
B( 33-C , 34-C ) :   1.6013 B( 33-C , 87-H ) :   0.9973 B( 34-C , 35-C ) :   1.1753
B( 34-C , 88-H ) :   0.9917 B( 35-C , 36-S ) :   1.0349 B( 35-C , 37-C ) :   1.5437
B( 37-C , 38-C ) :   1.1609 B( 37-C , 41-S ) :   1.0490 B( 38-C , 39-C ) :   1.6198
B( 38-C , 89-H ) :   0.9937 B( 39-C , 40-C ) :   1.1050 B( 39-C , 90-H ) :   1.0011
B( 40-C , 41-S ) :   1.0398 B( 40-C , 42-C ) :   1.6817 B( 42-C , 43-C ) :   1.0316
B( 42-C , 91-H ) :   0.9511 B( 43-C , 44-C ) :   1.5728 B( 43-C , 51-C ) :   1.1391
B( 44-C , 45-O ) :   1.1921 B( 44-C , 47-S ) :   1.0274 B( 45-O , 46-C ) :   0.9239
B( 46-C , 92-H ) :   0.9595 B( 46-C , 93-H ) :   0.9788 B( 46-C , 94-H ) :   0.9514
B( 47-S , 48-C ) :   1.1039 B( 48-C , 49-O ) :   1.2109 B( 48-C , 51-C ) :   1.4168
B( 49-O , 50-C ) :   0.9297 B( 50-C , 95-H ) :   0.9820 B( 50-C , 96-H ) :   0.9636
B( 50-C , 97-H ) :   0.9615 B( 51-C , 52-C ) :   1.1761 B( 52-C , 53-C ) :   1.5605
B( 52-C , 98-H ) :   0.9814 B( 53-C , 54-C ) :   1.2091 B( 53-C , 99-H ) :   0.9332
B( 54-C , 55-C ) :   1.5119 B( 54-C ,100-H ) :   0.9698 B( 55-C , 56-C ) :   1.0869
B( 55-C , 64-C ) :   0.9609 B( 56-C , 57-C ) :   1.5817 B( 56-C , 62-C ) :   1.0178
B( 57-C , 58-C ) :   1.1537 B( 57-C , 60-C ) :   1.1743 B( 58-C , 59-N ) :   2.9193
B( 60-C , 61-N ) :   2.9641 B( 62-C , 63-C ) :   1.2744 B( 62-C , 69-C ) :   1.4234
B( 63-C , 64-C ) :   0.9129 B( 63-C , 66-C ) :   1.4358 B( 64-C , 65-O ) :   2.2653
B( 66-C , 67-C ) :   1.2438 B( 66-C ,101-H ) :   1.0156 B( 67-C , 68-C ) :   1.3207
B( 67-C , 72-C ) :   1.1605 B( 68-C , 69-C ) :   1.3161 B( 68-C , 70-S ) :   1.0798
B( 69-C ,102-H ) :   0.9817 B( 70-S , 71-C ) :   1.0850 B( 71-C , 72-C ) :   1.6224
B( 71-C , 73-Br) :   1.0122 B( 72-C ,103-H ) :   1.0001

-----------------------------------------------------------------------------
         ABSORPTION SPECTRUM VIA TRANSITION ELECTRIC DIPOLE MOMENTS
-----------------------------------------------------------------------------
State   Energy  Wavelength   fosc         T2         TX        TY        TZ
        (cm-1)    (nm)                  (au**2)     (au)      (au)      (au)
-----------------------------------------------------------------------------
   0   10415.5    960.1   0.032104460   1.01476   0.46672  -0.67131   0.58845
   1   11261.5    888.0   0.007380421   0.21576   0.28060  -0.36561  -0.05787
   2   16486.9    606.5   0.633996961  12.65968  -1.99029   2.89987  -0.53776
   3   18199.0    549.5   0.502130328   9.08332  -2.18856  -1.93266   0.74725
   4   18449.5    542.0   0.027423801   0.48935   0.43001   0.41041  -0.36879
   5   19260.3    519.2   0.036002020   0.61538  -0.17874  -0.76359   0.01896
   6   20379.6    490.7   0.124767908   2.01550  -0.56390   1.25629  -0.34532
   7   21727.5    460.2   0.222449292   3.37053  -0.90702   1.28576  -0.94587
   8   22718.0    440.2   0.046877121   0.67931  -0.14702   0.81076  -0.01903
   9   24485.4    408.4   0.034569806   0.46480   0.34079  -0.13417  -0.57503
  10   25161.7    397.4   0.347132588   4.54183  -1.29952   1.24347  -1.14317
  11   25449.5    392.9   0.057353626   0.74192   0.65173   0.53359  -0.18016
  12   25751.5    388.3   0.074577104   0.95341   0.57455   0.77834  -0.13225
  13   26094.2    383.2   0.032472308   0.40968   0.03848  -0.39124   0.50511
  14   26768.3    373.6   0.020327863   0.25000   0.34065  -0.36497  -0.02748
  15   28479.6    351.1   0.174920871   2.02201   1.15779  -0.18434  -0.80471
  16   29090.9    343.8   0.106789422   1.20850   1.01616  -0.40582   0.10598
  17   29126.3    343.3   0.186024723   2.10262   0.05928   0.00220  -1.44883
  18   29313.1    341.1   0.167093839   1.87661   0.06094  -0.28427  -1.33869
  19   29457.9    339.5   0.434956237   4.86093  -2.03903  -0.83494  -0.07856
  20   29628.4    337.5   0.043435327   0.48263  -0.42797  -0.45601  -0.30253
  21   29924.7    334.2   0.035437660   0.38986   0.60948   0.13466  -0.01630
  22   30389.6    329.1   0.069414153   0.75197  -0.79289  -0.14458   0.31998
  23   30668.0    326.1   0.020995511   0.22538  -0.18832   0.05322  -0.43253
  24   30722.2    325.5   0.268671181   2.87902  -1.16421   0.09055   1.23103
  25   30879.7    323.8   0.006287529   0.06703   0.14050  -0.04171  -0.21343
  26   30940.3    323.2   0.057138731   0.60797  -0.15205  -0.12529   0.75442
  27   31302.0    319.5   0.097390747   1.02429  -0.39359   0.90142   0.23835
  28   31330.1    319.2   0.094562044   0.99364  -0.62184  -0.32233   0.70927
  29   31670.0    315.8   0.203528451   2.11569   1.43442   0.23771   0.04047
  30   31994.3    312.6   0.014928358   0.15361  -0.20807   0.20728  -0.25952
  31   32495.3    307.7   0.097304325   0.98580   0.38136  -0.20898   0.89257
  32   32592.2    306.8   0.134243502   1.35599   1.04190   0.25324   0.45420
  33   33222.2    301.0   0.079431849   0.78712  -0.01931   0.31894   0.82766
  34   33340.4    299.9   0.137807919   1.36075   1.16446   0.01771  -0.06690
  35   33780.4    296.0   0.038366824   0.37391   0.17699  -0.20308   0.54895
  36   34260.0    291.9   0.096969784   0.93180   0.93332   0.00506   0.24635
  37   34344.3    291.2   0.223498082   2.14237  -1.16723   0.64088   0.60763
  38   34402.4    290.7   0.121447893   1.16219   0.87557  -0.62619   0.05881
  39   34498.9    289.9   0.017671749   0.16864   0.28410  -0.06284   0.28978
  40   34720.5    288.0   0.245328872   2.32615   1.24210   0.81991   0.33329
  41   34756.9    287.7   0.360974547   3.41909  -1.34341  -1.09063  -0.65183
  42   35009.5    285.6   0.046668844   0.43885   0.58330   0.27747   0.14706
  43   35302.4    283.3   0.019806911   0.18471  -0.31189  -0.21753  -0.20029
  44   35681.7    280.3   0.001377042   0.01271  -0.05123   0.02667   0.09679
  45   36324.1    275.3   0.006813007   0.06175   0.10005   0.14129  -0.17826
  46   36402.6    274.7   0.031222433   0.28236   0.09640   0.41578  -0.31654
  47   36592.6    273.3   0.060817303   0.54715  -0.40557   0.06578   0.61509
  48   36756.4    272.1   0.015403076   0.13796   0.31953  -0.07889   0.17216
  49   37109.5    269.5   0.019496981   0.17297   0.24066  -0.12344   0.31593
  50   37172.3    269.0   0.051079612   0.45238  -0.66595  -0.01314   0.09336
  51   37313.5    268.0   0.012274649   0.10830   0.00839  -0.18835  -0.26972
  52   37541.9    266.4   0.007680144   0.06735  -0.02999   0.25777  -0.00224
  53   37602.1    265.9   0.058514929   0.51231   0.46872  -0.33760   0.42266
  54   37642.0    265.7   0.015235636   0.13325   0.36381  -0.02889   0.00770
  55   37796.2    264.6   0.019042612   0.16586   0.24054   0.10472  -0.31151
  56   37911.0    263.8   0.031137762   0.27039   0.33473   0.34852  -0.19206
  57   38410.7    260.3   0.012165467   0.10427   0.02694  -0.17674  -0.26890
  58   38597.6    259.1   0.007845122   0.06691  -0.16407   0.18451  -0.07714
  59   38919.0    256.9   0.004042613   0.03420   0.03467  -0.17452  -0.05038
  60   38990.4    256.5   0.002873477   0.02426   0.07966   0.02940   0.13059
  61   39138.1    255.5   0.015022225   0.12636   0.29890   0.06632   0.18062
  62   39420.5    253.7   0.014784662   0.12347  -0.03074   0.27444   0.21727
  63   39986.8    250.1   0.074354917   0.61217   0.25490  -0.58488   0.45289
  64   40097.4    249.4   0.043137259   0.35417   0.26207  -0.45770   0.27568
  65   40145.0    249.1   0.086399069   0.70852   0.73911  -0.35044  -0.19856

FINAL SINGLE POINT ENERGY    -10354.954833545817

DIPOLE MOMENT
-------------
                                X             Y             Z
Electronic contribution:    167.27479      21.14901      62.13067
Nuclear contribution   :   -168.96478     -19.79478     -61.76574
                        -----------------------------------------
Total Dipole Moment    :     -1.68999       1.35424       0.36494
                        -----------------------------------------
Magnitude (a.u.)       :      2.19618
Magnitude (Debye)      :      5.58225

Rotational constants in cm-1:     0.000711     0.000465     0.000418
Rotational constants in MHz :    21.328687    13.931989    12.543232

                             ****ORCA TERMINATED NORMALLY****
TOTAL RUN TIME: 0 days 0 hours 12 minutes 10 seconds 524 msec
