                         Program Version 4.2.0 -  RELEASE  -
|  1> # ORCA input file
|  2> # SCF done       -144.492408680490          0.000952736200
|  3> ! CAM-B3LYP def2-SVP def2/J RIJCOSX Grid4 TightSCF
|  4> %maxcore 5000
|  5> %tddft
|  6>     Mode sTDDFT
|  7>     Ethresh 5.0
|  8>     maxcore 5000
|  9> end
| 10>
| 11> %pal
| 12>   nprocs 6
| 13>   end
| 14> * xyz 0 1
| 15>    C       -2.36590        -2.68440        -5.67576
| 16>    C       -2.84421        -3.90716        -6.06729
| 17>    C       -2.12321        -4.80771        -6.87891
| 18>    N       -1.58049        -5.57903        -7.53380
| 19>    C       -4.12825        -4.41506        -5.77457
| 20>    N       -5.15734        -4.89812        -5.61545
| 21>    C       -1.09534        -2.10305        -6.07317
| 22>    C       -1.06652        -0.75046        -5.65517
| 23>    C        0.00666         0.07482        -5.88975
| 24>    C        1.10938        -0.46229        -6.56178
| 25>    C        1.07375        -1.81721        -6.97206
| 26>    C       -0.01274        -2.65002        -6.74077
| 27>    S        2.54147        -2.27772        -7.78030
| 28>    C        3.17215        -0.66647        -7.56168
| 29>    C        2.33003         0.17461        -6.91553
| 30>   Br        4.88256        -0.24713        -8.20697
| 31>    C       -2.32985        -0.41034        -4.96652
| 32>    O       -2.64083         0.69413        -4.58871
| 33>    C       -3.07541        -1.70073        -4.85931
| 34>    C       -4.09655        -2.01255        -4.02871
| 35>    C       -4.85241        -1.15673        -3.13432
| 36>    N       -5.47972        -1.81415        -2.14867
| 37>    C       -6.19425        -1.08873        -1.30944
| 38>    C       -6.29975         0.28818        -1.41866
| 39>    C       -5.61313         0.89177        -2.48237
| 40>    N       -4.90858         0.14635        -3.33569
| 41>    C       -5.62337         2.32133        -2.69581
| 42>    C       -4.87434         2.87990        -3.66310
| 43>    C       -4.79409         4.28697        -3.91265
| 44>    C       -4.07275         4.85741        -4.89152
| 45>    C       -3.23988         4.10547        -5.87970
| 46>    C       -4.05260         6.36026        -5.04393
| 47>    N       -2.73129         6.88746        -4.79073
| 48>    C       -1.86625         7.23787        -5.76485
| 49>    C       -0.52716         7.39851        -5.58712
| 50>    C        0.33289         7.86608        -6.59616
| 51>    C        1.68893         8.00485        -6.46246
| 52>    C        2.59818         8.50503        -7.42639
| 53>    C        3.89384         8.53730        -7.01314
| 54>    C        4.09375         8.05192        -5.69868
| 55>    S        2.56792         7.56349        -4.99837
| 56>    C        5.27665         7.93723        -5.00047
| 57>    C        6.56964         8.31740        -5.42802
| 58>    C        7.53968         8.07239        -4.50788
| 59>    C        7.06368         7.47756        -3.30796
| 60>    S        5.33730         7.24693        -3.37790
| 61>    C        7.78656         7.10346        -2.21421
| 62>    C        7.16437         6.49612        -1.08546
| 63>    N        7.94704         6.14563        -0.05329
| 64>    C        7.35445         5.57628         0.97382
| 65>    C        5.98769         5.33935         1.01299
| 66>    C        5.23913         5.73796        -0.10169
| 67>    N        5.83913         6.31260        -1.13788
| 68>    C        3.79734         5.51770        -0.12266
| 69>    C        2.99342         5.85607        -1.12239
| 70>    H       -0.00054         1.10265        -5.56171
| 71>    H        0.00945        -3.67633        -7.06683
| 72>    H        2.55969         1.20100        -6.69438
| 73>    H       -4.39175        -3.05034        -3.93591
| 74>    H       -6.69737        -1.63812        -0.52325
| 75>    H       -6.88329         0.86996        -0.72332
| 76>    H       -6.24018         2.91295        -2.03215
| 77>    H       -4.28653         2.20700        -4.26744
| 78>    H       -5.37402         4.92343        -3.25358
| 79>    H       -2.89396         3.15838        -5.47705
| 80>    H       -2.37667         4.69718        -6.18178
| 81>    H       -3.82936         3.89639        -6.77348
| 82>    H       -4.75678         6.82083        -4.34324
| 83>    H       -4.34039         6.64065        -6.06125
| 84>    H       -2.32926         6.63439        -3.89849
| 85>    H       -2.31623         7.44410        -6.72760
| 86>    H       -0.08744         7.16667        -4.62624
| 87>    H       -0.10223         8.14231        -7.54820
| 88>    H        2.26002         8.83071        -8.39489
| 89>    H        4.71273         8.88952        -7.61436
| 90>    H        6.75027         8.76163        -6.39140
| 91>    H        8.58421         8.29228        -4.64221
| 92>    H        8.85361         7.25028        -2.17724
| 93>    H        8.00049         5.29909         1.79843
| 94>    H        5.51982         4.86938         1.86294
| 95>    H        3.40350         5.03993         0.76590
| 96>    H        3.37377         6.33197        -2.00775
| 97>    H        1.93377         5.66705        -1.07900
| 98> *
| 99>
|100>                          ****END OF INPUT****

CARTESIAN COORDINATES (ANGSTROEM)
---------------------------------
  C     -2.365900   -2.684400   -5.675760
  C     -2.844210   -3.907160   -6.067290
  C     -2.123210   -4.807710   -6.878910
  N     -1.580490   -5.579030   -7.533800
  C     -4.128250   -4.415060   -5.774570
  N     -5.157340   -4.898120   -5.615450
  C     -1.095340   -2.103050   -6.073170
  C     -1.066520   -0.750460   -5.655170
  C      0.006660    0.074820   -5.889750
  C      1.109380   -0.462290   -6.561780
  C      1.073750   -1.817210   -6.972060
  C     -0.012740   -2.650020   -6.740770
  S      2.541470   -2.277720   -7.780300
  C      3.172150   -0.666470   -7.561680
  C      2.330030    0.174610   -6.915530
  Br     4.882560   -0.247130   -8.206970
  C     -2.329850   -0.410340   -4.966520
  O     -2.640830    0.694130   -4.588710
  C     -3.075410   -1.700730   -4.859310
  C     -4.096550   -2.012550   -4.028710
  C     -4.852410   -1.156730   -3.134320
  N     -5.479720   -1.814150   -2.148670
  C     -6.194250   -1.088730   -1.309440
  C     -6.299750    0.288180   -1.418660
  C     -5.613130    0.891770   -2.482370
  N     -4.908580    0.146350   -3.335690
  C     -5.623370    2.321330   -2.695810
  C     -4.874340    2.879900   -3.663100
  C     -4.794090    4.286970   -3.912650
  C     -4.072750    4.857410   -4.891520
  C     -3.239880    4.105470   -5.879700
  C     -4.052600    6.360260   -5.043930
  N     -2.731290    6.887460   -4.790730
  C     -1.866250    7.237870   -5.764850
  C     -0.527160    7.398510   -5.587120
  C      0.332890    7.866080   -6.596160
  C      1.688930    8.004850   -6.462460
  C      2.598180    8.505030   -7.426390
  C      3.893840    8.537300   -7.013140
  C      4.093750    8.051920   -5.698680
  S      2.567920    7.563490   -4.998370
  C      5.276650    7.937230   -5.000470
  C      6.569640    8.317400   -5.428020
  C      7.539680    8.072390   -4.507880
  C      7.063680    7.477560   -3.307960
  S      5.337300    7.246930   -3.377900
  C      7.786560    7.103460   -2.214210
  C      7.164370    6.496120   -1.085460
  N      7.947040    6.145630   -0.053290
  C      7.354450    5.576280    0.973820
  C      5.987690    5.339350    1.012990
  C      5.239130    5.737960   -0.101690
  N      5.839130    6.312600   -1.137880
  C      3.797340    5.517700   -0.122660
  C      2.993420    5.856070   -1.122390
  H     -0.000540    1.102650   -5.561710
  H      0.009450   -3.676330   -7.066830
  H      2.559690    1.201000   -6.694380
  H     -4.391750   -3.050340   -3.935910
  H     -6.697370   -1.638120   -0.523250
  H     -6.883290    0.869960   -0.723320
  H     -6.240180    2.912950   -2.032150
  H     -4.286530    2.207000   -4.267440
  H     -5.374020    4.923430   -3.253580
  H     -2.893960    3.158380   -5.477050
  H     -2.376670    4.697180   -6.181780
  H     -3.829360    3.896390   -6.773480
  H     -4.756780    6.820830   -4.343240
  H     -4.340390    6.640650   -6.061250
  H     -2.329260    6.634390   -3.898490
  H     -2.316230    7.444100   -6.727600
  H     -0.087440    7.166670   -4.626240
  H     -0.102230    8.142310   -7.548200
  H      2.260020    8.830710   -8.394890
  H      4.712730    8.889520   -7.614360
  H      6.750270    8.761630   -6.391400
  H      8.584210    8.292280   -4.642210
  H      8.853610    7.250280   -2.177240
  H      8.000490    5.299090    1.798430
  H      5.519820    4.869380    1.862940
  H      3.403500    5.039930    0.765900
  H      3.373770    6.331970   -2.007750
  H      1.933770    5.667050   -1.079000

 Total Charge           Charge          ....    0
 Multiplicity           Mult            ....    1
 Number of Electrons    NEL             ....  426
 Basis Dimension        Dim             ....  940

ORBITAL ENERGIES
----------------

  NO   OCC          E(Eh)            E(eV)
   0   2.0000    -482.887269    -13140.0306
   1   2.0000     -88.978909     -2421.2392
   2   2.0000     -88.929346     -2419.8905
   3   2.0000     -88.919612     -2419.6257
   4   2.0000     -62.564939     -1702.4785
   5   2.0000     -56.398905     -1534.6922
   6   2.0000     -56.396159     -1534.6175
   7   2.0000     -56.396138     -1534.6169
   8   2.0000     -19.223442      -523.0965
   9   2.0000     -14.444101      -393.0440
  10   2.0000     -14.421331      -392.4244
  11   2.0000     -14.418462      -392.3463
  12   2.0000     -14.414577      -392.2406
  13   2.0000     -14.410335      -392.1252
  14   2.0000     -14.387195      -391.4955
  15   2.0000     -14.382736      -391.3741
  16   2.0000     -10.376972      -282.3718
  17   2.0000     -10.362343      -281.9737
  18   2.0000     -10.351067      -281.6668
  19   2.0000     -10.350390      -281.6484
  20   2.0000     -10.347380      -281.5665
  21   2.0000     -10.331127      -281.1243
  22   2.0000     -10.330470      -281.1064
  23   2.0000     -10.324759      -280.9510
  24   2.0000     -10.323313      -280.9116
  25   2.0000     -10.323005      -280.9033
  26   2.0000     -10.321127      -280.8521
  27   2.0000     -10.320295      -280.8295
  28   2.0000     -10.317513      -280.7538
  29   2.0000     -10.315194      -280.6907
  30   2.0000     -10.313830      -280.6536
  31   2.0000     -10.312702      -280.6229
  32   2.0000     -10.312254      -280.6107
  33   2.0000     -10.311043      -280.5778
  34   2.0000     -10.309484      -280.5353
  35   2.0000     -10.306091      -280.4430
  36   2.0000     -10.299336      -280.2592
  37   2.0000     -10.298957      -280.2489
  38   2.0000     -10.298038      -280.2239
  39   2.0000     -10.297631      -280.2128
  40   2.0000     -10.292174      -280.0643
  41   2.0000     -10.291721      -280.0520
  42   2.0000     -10.286963      -279.9225
  43   2.0000     -10.286373      -279.9064
  44   2.0000     -10.278380      -279.6889
  45   2.0000     -10.277132      -279.6550
  46   2.0000     -10.275296      -279.6050
  47   2.0000     -10.275231      -279.6033
  48   2.0000     -10.273815      -279.5647
  49   2.0000     -10.272389      -279.5259
  50   2.0000     -10.269779      -279.4549
  51   2.0000     -10.268583      -279.4223
  52   2.0000     -10.268111      -279.4095
  53   2.0000     -10.263250      -279.2772
  54   2.0000     -10.260934      -279.2142
  55   2.0000     -10.259965      -279.1879
  56   2.0000     -10.259751      -279.1820
  57   2.0000     -10.259671      -279.1799
  58   2.0000     -10.240526      -278.6589
  59   2.0000      -8.794352      -239.3065
  60   2.0000      -8.074958      -219.7308
  61   2.0000      -8.025335      -218.3805
  62   2.0000      -8.012968      -218.0439
  63   2.0000      -6.630690      -180.4302
  64   2.0000      -6.616091      -180.0330
  65   2.0000      -6.615831      -180.0259
  66   2.0000      -6.044641      -164.4830
  67   2.0000      -6.040378      -164.3670
  68   2.0000      -6.036152      -164.2520
  69   2.0000      -5.995058      -163.1338
  70   2.0000      -5.991133      -163.0270
  71   2.0000      -5.986280      -162.8950
  72   2.0000      -5.983046      -162.8069
  73   2.0000      -5.978470      -162.6824
  74   2.0000      -5.974044      -162.5620
  75   2.0000      -2.746569       -74.7379
  76   2.0000      -2.742457       -74.6260
  77   2.0000      -2.742272       -74.6210
  78   2.0000      -2.730651       -74.3048
  79   2.0000      -2.730647       -74.3047
  80   2.0000      -1.139843       -31.0167
  81   2.0000      -1.088476       -29.6189
  82   2.0000      -1.059099       -28.8195
  83   2.0000      -1.046027       -28.4639
  84   2.0000      -1.027965       -27.9724
  85   2.0000      -1.017509       -27.6878
  86   2.0000      -0.997849       -27.1529
  87   2.0000      -0.994727       -27.0679
  88   2.0000      -0.985979       -26.8298
  89   2.0000      -0.975039       -26.5322
  90   2.0000      -0.960545       -26.1377
  91   2.0000      -0.950649       -25.8685
  92   2.0000      -0.947976       -25.7957
  93   2.0000      -0.926658       -25.2156
  94   2.0000      -0.917275       -24.9603
  95   2.0000      -0.912512       -24.8307
  96   2.0000      -0.895627       -24.3713
  97   2.0000      -0.890760       -24.2388
  98   2.0000      -0.890142       -24.2220
  99   2.0000      -0.885968       -24.1084
 100   2.0000      -0.866414       -23.5763
 101   2.0000      -0.850915       -23.1546
 102   2.0000      -0.846718       -23.0404
 103   2.0000      -0.836820       -22.7710
 104   2.0000      -0.833284       -22.6748
 105   2.0000      -0.824830       -22.4448
 106   2.0000      -0.819250       -22.2929
 107   2.0000      -0.799980       -21.7686
 108   2.0000      -0.792941       -21.5770
 109   2.0000      -0.787971       -21.4418
 110   2.0000      -0.786519       -21.4023
 111   2.0000      -0.765565       -20.8321
 112   2.0000      -0.760699       -20.6997
 113   2.0000      -0.745423       -20.2840
 114   2.0000      -0.733385       -19.9564
 115   2.0000      -0.729756       -19.8577
 116   2.0000      -0.723892       -19.6981
 117   2.0000      -0.703695       -19.1485
 118   2.0000      -0.701366       -19.0851
 119   2.0000      -0.695877       -18.9358
 120   2.0000      -0.679874       -18.5003
 121   2.0000      -0.675082       -18.3699
 122   2.0000      -0.668519       -18.1913
 123   2.0000      -0.661910       -18.0115
 124   2.0000      -0.660060       -17.9612
 125   2.0000      -0.643187       -17.5020
 126   2.0000      -0.634793       -17.2736
 127   2.0000      -0.629077       -17.1181
 128   2.0000      -0.625640       -17.0245
 129   2.0000      -0.613280       -16.6882
 130   2.0000      -0.611542       -16.6409
 131   2.0000      -0.609240       -16.5783
 132   2.0000      -0.604775       -16.4568
 133   2.0000      -0.602164       -16.3857
 134   2.0000      -0.595838       -16.2136
 135   2.0000      -0.586066       -15.9477
 136   2.0000      -0.578565       -15.7435
 137   2.0000      -0.576893       -15.6981
 138   2.0000      -0.568818       -15.4783
 139   2.0000      -0.563850       -15.3431
 140   2.0000      -0.562254       -15.2997
 141   2.0000      -0.560803       -15.2602
 142   2.0000      -0.554783       -15.0964
 143   2.0000      -0.548035       -14.9128
 144   2.0000      -0.546809       -14.8794
 145   2.0000      -0.538840       -14.6626
 146   2.0000      -0.533335       -14.5128
 147   2.0000      -0.531269       -14.4566
 148   2.0000      -0.530026       -14.4228
 149   2.0000      -0.529229       -14.4011
 150   2.0000      -0.520996       -14.1770
 151   2.0000      -0.518872       -14.1192
 152   2.0000      -0.514826       -14.0091
 153   2.0000      -0.511221       -13.9110
 154   2.0000      -0.504390       -13.7252
 155   2.0000      -0.503924       -13.7125
 156   2.0000      -0.502674       -13.6785
 157   2.0000      -0.500237       -13.6121
 158   2.0000      -0.498602       -13.5677
 159   2.0000      -0.493572       -13.4308
 160   2.0000      -0.492208       -13.3937
 161   2.0000      -0.488809       -13.3012
 162   2.0000      -0.484327       -13.1792
 163   2.0000      -0.478497       -13.0206
 164   2.0000      -0.476912       -12.9774
 165   2.0000      -0.476005       -12.9528
 166   2.0000      -0.472344       -12.8531
 167   2.0000      -0.467755       -12.7283
 168   2.0000      -0.466809       -12.7025
 169   2.0000      -0.461836       -12.5672
 170   2.0000      -0.460948       -12.5430
 171   2.0000      -0.457757       -12.4562
 172   2.0000      -0.453745       -12.3470
 173   2.0000      -0.452537       -12.3142
 174   2.0000      -0.450385       -12.2556
 175   2.0000      -0.446911       -12.1611
 176   2.0000      -0.446130       -12.1398
 177   2.0000      -0.442741       -12.0476
 178   2.0000      -0.440163       -11.9775
 179   2.0000      -0.434660       -11.8277
 180   2.0000      -0.432626       -11.7724
 181   2.0000      -0.429649       -11.6913
 182   2.0000      -0.427765       -11.6401
 183   2.0000      -0.426940       -11.6176
 184   2.0000      -0.419049       -11.4029
 185   2.0000      -0.417150       -11.3512
 186   2.0000      -0.413558       -11.2535
 187   2.0000      -0.412208       -11.2168
 188   2.0000      -0.404726       -11.0132
 189   2.0000      -0.400612       -10.9012
 190   2.0000      -0.395184       -10.7535
 191   2.0000      -0.392573       -10.6825
 192   2.0000      -0.389009       -10.5855
 193   2.0000      -0.387206       -10.5364
 194   2.0000      -0.381578       -10.3833
 195   2.0000      -0.380908       -10.3650
 196   2.0000      -0.376243       -10.2381
 197   2.0000      -0.363126        -9.8812
 198   2.0000      -0.356772        -9.7083
 199   2.0000      -0.349864        -9.5203
 200   2.0000      -0.339752        -9.2451
 201   2.0000      -0.326491        -8.8843
 202   2.0000      -0.323216        -8.7951
 203   2.0000      -0.319668        -8.6986
 204   2.0000      -0.316623        -8.6158
 205   2.0000      -0.313653        -8.5349
 206   2.0000      -0.303068        -8.2469
 207   2.0000      -0.301566        -8.2060
 208   2.0000      -0.297055        -8.0833
 209   2.0000      -0.292225        -7.9518
 210   2.0000      -0.287202        -7.8152
 211   2.0000      -0.260563        -7.0903
 212   2.0000      -0.195327        -5.3151
 213   0.0000      -0.095195        -2.5904
 214   0.0000      -0.063411        -1.7255
 215   0.0000      -0.056635        -1.5411
 216   0.0000      -0.041722        -1.1353
 217   0.0000      -0.016213        -0.4412

MULLIKEN ATOMIC CHARGES
-----------------------
   0 C :    0.283538
   1 C :   -0.331725
   2 C :   -0.183664
   3 N :    0.154168
   4 C :   -0.202267
   5 N :    0.175735
   6 C :    0.017844
   7 C :   -0.011161
   8 C :   -0.074192
   9 C :    0.115950
  10 C :   -0.089877
  11 C :   -0.016108
  12 S :    0.189715
  13 C :   -0.124477
  14 C :    0.041427
  15 Br:    0.032352
  16 C :    0.153007
  17 O :   -0.109537
  18 C :   -0.037128
  19 C :    0.032230
  20 C :   -0.106136
  21 N :   -0.071636
  22 C :    0.079640
  23 C :   -0.032872
  24 C :    0.050690
  25 N :   -0.015059
  26 C :   -0.028007
  27 C :    0.048838
  28 C :    0.012946
  29 C :   -0.196980
  30 C :    0.082769
  31 C :    0.217798
  32 N :   -0.146074
  33 C :    0.052323
  34 C :   -0.027286
  35 C :   -0.007727
  36 C :   -0.037466
  37 C :    0.045256
  38 C :    0.011832
  39 C :   -0.044695
  40 S :    0.048782
  41 C :   -0.039852
  42 C :    0.029824
  43 C :    0.023467
  44 C :    0.038172
  45 S :    0.077330
  46 C :   -0.032071
  47 C :   -0.004030
  48 N :   -0.079928
  49 C :    0.076491
  50 C :   -0.067641
  51 C :    0.057743
  52 N :   -0.131753
  53 C :   -0.020818
  54 C :    0.032494
  55 H :   -0.009656
  56 H :   -0.003435
  57 H :    0.003523
  58 H :    0.031343
  59 H :    0.010608
  60 H :   -0.002865
  61 H :   -0.029926
  62 H :    0.029458
  63 H :   -0.031166
  64 H :    0.039424
  65 H :    0.017860
  66 H :    0.029908
  67 H :    0.008507
  68 H :    0.019587
  69 H :    0.121348
  70 H :    0.002036
  71 H :   -0.014136
  72 H :   -0.023876
  73 H :   -0.021129
  74 H :   -0.021040
  75 H :   -0.025117
  76 H :   -0.021972
  77 H :   -0.028822
  78 H :   -0.003545
  79 H :   -0.016892
  80 H :   -0.024638
  81 H :    0.037949
  82 H :    0.014468
Sum of atomic charges:   -0.0000000

LOEWDIN ATOMIC CHARGES
----------------------
   0 C :    0.074526
   1 C :   -0.127792
   2 C :   -0.016655
   3 N :   -0.046262
   4 C :   -0.027094
   5 N :   -0.036860
   6 C :   -0.023379
   7 C :   -0.051673
   8 C :    0.022102
   9 C :   -0.029719
  10 C :   -0.142196
  11 C :   -0.007895
  12 S :    0.434659
  13 C :   -0.268315
  14 C :   -0.069429
  15 Br:    0.143093
  16 C :    0.088896
  17 O :   -0.113972
  18 C :   -0.060261
  19 C :    0.066232
  20 C :    0.009689
  21 N :   -0.085449
  22 C :    0.047421
  23 C :   -0.052071
  24 C :    0.040078
  25 N :   -0.056736
  26 C :   -0.057517
  27 C :    0.029240
  28 C :   -0.053899
  29 C :   -0.022807
  30 C :   -0.055483
  31 C :    0.047545
  32 N :    0.003580
  33 C :    0.044205
  34 C :   -0.125431
  35 C :   -0.031897
  36 C :   -0.178854
  37 C :   -0.024712
  38 C :   -0.053027
  39 C :   -0.157818
  40 S :    0.354218
  41 C :   -0.215916
  42 C :   -0.022448
  43 C :   -0.053460
  44 C :   -0.114701
  45 S :    0.418999
  46 C :   -0.104729
  47 C :    0.030008
  48 N :   -0.099261
  49 C :    0.043712
  50 C :   -0.087031
  51 C :    0.037748
  52 N :   -0.117122
  53 C :   -0.044786
  54 C :   -0.003031
  55 H :    0.040797
  56 H :    0.041579
  57 H :    0.041497
  58 H :    0.051253
  59 H :    0.028404
  60 H :    0.034641
  61 H :    0.023110
  62 H :    0.035381
  63 H :    0.022438
  64 H :    0.036656
  65 H :    0.031344
  66 H :    0.041758
  67 H :    0.025662
  68 H :    0.032508
  69 H :    0.081355
  70 H :    0.026905
  71 H :    0.018266
  72 H :    0.029718
  73 H :    0.030256
  74 H :    0.028686
  75 H :    0.026002
  76 H :    0.029231
  77 H :    0.031714
  78 H :    0.022031
  79 H :    0.027498
  80 H :    0.025510
  81 H :    0.015895
  82 H :    0.023643

  Mayer bond orders larger than 0.100000
B(  0-C ,  1-C ) :   1.6662 B(  0-C ,  6-C ) :   1.0141 B(  0-C , 18-C ) :   1.0330
B(  1-C ,  2-C ) :   1.1374 B(  1-C ,  4-C ) :   1.1352 B(  2-C ,  3-N ) :   2.9764
B(  4-C ,  5-N ) :   3.0039 B(  6-C ,  7-C ) :   1.2712 B(  6-C , 11-C ) :   1.4008
B(  7-C ,  8-C ) :   1.4149 B(  7-C , 16-C ) :   0.9451 B(  8-C ,  9-C ) :   1.2558
B(  8-C , 55-H ) :   1.0171 B(  9-C , 10-C ) :   1.2991 B(  9-C , 14-C ) :   1.1642
B( 10-C , 11-C ) :   1.3392 B( 10-C , 12-S ) :   1.0866 B( 11-C , 56-H ) :   0.9801
B( 12-S , 13-C ) :   1.0866 B( 13-C , 14-C ) :   1.6164 B( 13-C , 15-Br) :   1.0248
B( 14-C , 57-H ) :   1.0004 B( 16-C , 17-O ) :   2.2008 B( 16-C , 18-C ) :   0.9113
B( 18-C , 19-C ) :   1.6820 B( 19-C , 20-C ) :   1.0222 B( 19-C , 58-H ) :   0.9424
B( 20-C , 21-N ) :   1.5251 B( 20-C , 25-N ) :   1.5754 B( 21-N , 22-C ) :   1.5463
B( 22-C , 23-C ) :   1.3763 B( 22-C , 59-H ) :   0.9796 B( 23-C , 24-C ) :   1.3198
B( 23-C , 60-H ) :   0.9758 B( 24-C , 25-N ) :   1.5025 B( 24-C , 26-C ) :   1.0610
B( 26-C , 27-C ) :   1.7243 B( 26-C , 61-H ) :   0.9844 B( 27-C , 28-C ) :   1.0812
B( 27-C , 62-H ) :   0.9563 B( 28-C , 29-C ) :   1.7594 B( 28-C , 63-H ) :   0.9762
B( 29-C , 30-C ) :   1.0695 B( 29-C , 31-C ) :   1.0440 B( 30-C , 64-H ) :   0.9420
B( 30-C , 65-H ) :   0.9470 B( 30-C , 66-H ) :   0.9396 B( 31-C , 32-N ) :   1.0014
B( 31-C , 67-H ) :   0.9382 B( 31-C , 68-H ) :   0.9295 B( 32-N , 33-C ) :   1.2307
B( 32-N , 69-H ) :   0.9371 B( 33-C , 34-C ) :   1.5866 B( 33-C , 70-H ) :   0.9664
B( 34-C , 35-C ) :   1.1752 B( 34-C , 71-H ) :   0.9629 B( 35-C , 36-C ) :   1.5835
B( 35-C , 72-H ) :   0.9785 B( 36-C , 37-C ) :   1.1459 B( 36-C , 40-S ) :   1.0062
B( 37-C , 38-C ) :   1.5914 B( 37-C , 73-H ) :   0.9969 B( 38-C , 39-C ) :   1.1810
B( 38-C , 74-H ) :   0.9927 B( 39-C , 40-S ) :   1.0556 B( 39-C , 41-C ) :   1.5268
B( 41-C , 42-C ) :   1.1885 B( 41-C , 45-S ) :   0.9647 B( 42-C , 43-C ) :   1.5923
B( 42-C , 75-H ) :   0.9932 B( 43-C , 44-C ) :   1.1362 B( 43-C , 76-H ) :   1.0000
B( 44-C , 45-S ) :   1.0791 B( 44-C , 46-C ) :   1.5313 B( 45-S , 52-N ) :   0.1038
B( 46-C , 47-C ) :   1.1218 B( 46-C , 77-H ) :   0.9816 B( 47-C , 48-N ) :   1.4742
B( 47-C , 52-N ) :   1.4217 B( 48-N , 49-C ) :   1.5847 B( 49-C , 50-C ) :   1.3438
B( 49-C , 78-H ) :   0.9782 B( 50-C , 51-C ) :   1.3482 B( 50-C , 79-H ) :   0.9728
B( 51-C , 52-N ) :   1.5132 B( 51-C , 53-C ) :   1.0658 B( 53-C , 54-C ) :   1.9522
B( 53-C , 80-H ) :   0.9624 B( 54-C , 81-H ) :   0.9409 B( 54-C , 82-H ) :   0.9456

-----------------------------------------------------------------------------
         ABSORPTION SPECTRUM VIA TRANSITION ELECTRIC DIPOLE MOMENTS
-----------------------------------------------------------------------------
State   Energy  Wavelength   fosc         T2         TX        TY        TZ
        (cm-1)    (nm)                  (au**2)     (au)      (au)      (au)
-----------------------------------------------------------------------------
   0   12685.3    788.3   0.000338759   0.00879  -0.08502  -0.02886   0.02703
   1   16519.3    605.4   1.126745532  22.45487   4.23911  -0.00349   2.11773
   2   18530.1    539.7   0.001156115   0.02054   0.03952  -0.07265   0.11705
   3   21956.4    455.4   0.099166527   1.48689  -0.14442   0.88315  -0.82830
   4   23356.2    428.2   0.002263833   0.03191   0.06485   0.15460   0.06168
   5   23374.3    427.8   0.001988650   0.02801  -0.12018  -0.10534   0.04967
   6   25181.9    397.1   0.042561911   0.55643   0.47013  -0.17401  -0.55238
   7   27213.8    367.5   0.040755377   0.49303   0.07183   0.51288  -0.47416
   8   27222.9    367.3   0.248456075   3.00463  -1.48441  -0.89411   0.04160
   9   27554.0    362.9   0.034862621   0.41653   0.47229  -0.10184  -0.42790
  10   28613.1    349.5   0.000298900   0.00344   0.04296   0.00688  -0.03933
  11   29176.1    342.7   0.028273406   0.31903   0.42985  -0.27378  -0.24351
  12   29703.3    336.7   0.011985391   0.13284  -0.24332  -0.26065  -0.07549
  13   30227.5    330.8   0.159775582   1.74014  -0.00004   1.31801  -0.05471
  14   30641.3    326.4   0.770051346   8.27347  -1.94020  -0.92058   1.91353
  15   30943.9    323.2   0.008976642   0.09550  -0.20044  -0.13940   0.18946
  16   31290.1    319.6   0.008487804   0.08930   0.02128  -0.27942  -0.10381
  17   32506.8    307.6   0.180223845   1.82521   1.18560  -0.41424  -0.49797
  18   32951.1    303.5   0.214557241   2.14362   1.39670   0.21378  -0.38361
  19   33209.9    301.1   0.281618743   2.79170  -0.89329  -1.36385  -0.36555
  20   33335.6    300.0   0.479184905   4.73228  -1.46607  -1.32913   0.90350
  21   33698.7    296.7   0.152749925   1.49225   0.48945  -0.72105  -0.85603
  22   33948.2    294.6   0.008426852   0.08172   0.09581  -0.20156  -0.17865
  23   34798.7    287.4   0.000019662   0.00019  -0.00510   0.01084   0.00651
  24   35048.4    285.3   0.000414466   0.00389  -0.01099   0.03649   0.04940
  25   35404.9    282.4   0.049808691   0.46315  -0.12814   0.66414  -0.07509
  26   35694.2    280.2   0.007402776   0.06828   0.01643  -0.25607   0.04934
  27   35959.9    278.1   0.000206835   0.00189   0.02032  -0.03356  -0.01883
  28   36210.5    276.2   0.030590178   0.27811  -0.28316   0.03819   0.44326
  29   36594.7    273.3   0.191019180   1.71844  -1.08877   0.67260   0.28397
  30   36808.7    271.7   0.000057985   0.00052  -0.01030  -0.01060   0.01732
  31   37855.3    264.2   0.065479217   0.56945  -0.26086   0.30066  -0.64109
  32   38040.7    262.9   0.285097954   2.46730   0.70917   1.28917  -0.54991
  33   38334.4    260.9   0.149951678   1.28777  -0.11071   0.94349  -0.62076
  34   38676.6    258.6   0.435130354   3.70379   1.30439  -0.44208  -1.34422
  35   39244.8    254.8   0.011982222   0.10052   0.01078   0.31685   0.00173
  36   39255.8    254.7   0.000046419   0.00039  -0.00945  -0.00952   0.01446
  37   39337.0    254.2   0.000862628   0.00722  -0.04559   0.01394   0.07033
  38   39567.5    252.7   0.105205898   0.87534  -0.39536  -0.65977   0.53267
  39   39853.7    250.9   0.174673547   1.44289   0.75206   0.66530  -0.65930

FINAL SINGLE POINT ENERGY     -5879.268049631023

DIPOLE MOMENT
-------------
                                X             Y             Z
Electronic contribution:     59.83862     -77.69014     -51.02723
Nuclear contribution   :    -61.62118      79.64992      51.01848
                        -----------------------------------------
Total Dipole Moment    :     -1.78256       1.95978      -0.00875
                        -----------------------------------------
Magnitude (a.u.)       :      2.64922
Magnitude (Debye)      :      6.73377

Rotational constants in cm-1:     0.001281     0.000616     0.000516
Rotational constants in MHz :    38.415916    18.455014    15.461997

                             ****ORCA TERMINATED NORMALLY****
TOTAL RUN TIME: 0 days 0 hours 6 minutes 3 seconds 91 msec
