                         Program Version 4.2.0 -  RELEASE  -
|  1> # ORCA input file
|  2> # SCF done       -182.297189756074          0.000526547175
|  3> ! CAM-B3LYP def2-SVP def2/J RIJCOSX Grid4 TightSCF
|  4> %maxcore 5000
|  5> %tddft
|  6>     Mode sTDDFT
|  7>     Ethresh 5.0
|  8>     maxcore 5000
|  9> end
| 10>
| 11> %pal
| 12>   nprocs 6
| 13>   end
| 14> * xyz 0 1
| 15>    C       -2.54210         2.36166        -0.74613
| 16>    C       -2.79200         1.28095         0.06406
| 17>    C       -1.79686         0.39869         0.53313
| 18>    N       -1.04437        -0.37532         0.92345
| 19>    C       -4.05555         0.91462         0.56540
| 20>    N       -5.04775         0.57042         1.03429
| 21>    C       -1.22308         2.84157        -1.14133
| 22>    C       -1.37388         4.06304        -1.84689
| 23>    C       -0.30384         4.80338        -2.28611
| 24>    C        0.97809         4.30959        -2.02595
| 25>    C        1.11864         3.08400        -1.33169
| 26>    C        0.03661         2.33781        -0.88253
| 27>    S        2.78816         2.66679        -1.10504
| 28>    C        3.26899         4.12453        -1.93166
| 29>    C        2.23399         4.88644        -2.35797
| 30>   Br        5.09122         4.50112        -2.15840
| 31>    C       -2.80460         4.39896        -1.94204
| 32>    O       -3.29114         5.39598        -2.44015
| 33>    C       -3.51925         3.28438        -1.27731
| 34>    C       -4.88606         3.16541        -1.20790
| 35>    C       -5.79905         4.12800        -1.64708
| 36>    C       -7.15211         4.00569        -1.43144
| 37>    C       -8.14356         4.99527        -1.64910
| 38>    C       -9.37521         4.66420        -1.17341
| 39>    C       -9.42383         3.38350        -0.57494
| 40>    S       -7.86812         2.58772        -0.69518
| 41>    C      -10.46196         2.79092         0.10961
| 42>    C      -11.71312         3.33600         0.48909
| 43>    C      -12.44636         2.52883         1.29634
| 44>    C      -11.83344         1.27509         1.59873
| 45>    S      -10.29200         1.16868         0.74329
| 46>    C      -12.37928         0.29471         2.36542
| 47>    C      -11.84388        -1.00913         2.66029
| 48>    C      -12.66753        -2.11908         2.64686
| 49>    C      -14.11337        -2.13133         2.31692
| 50>    F      -14.37846        -1.56428         1.12154
| 51>    F      -14.62016        -3.36639         2.27623
| 52>    F      -14.85830        -1.44164         3.20793
| 53>    S      -11.83954        -3.59916         2.93804
| 54>    C      -10.34429        -2.74042         3.11890
| 55>    O       -9.17996        -3.36267         3.30920
| 56>    C       -9.21675        -4.74622         3.59170
| 57>    C      -10.49546        -1.37268         2.99450
| 58>    N       -9.50059        -0.44170         3.23508
| 59>    C       -8.41733        -0.53375         4.03788
| 60>    S       -8.18295        -1.80956         5.17565
| 61>    C       -6.68872        -1.08178         5.68113
| 62>    N       -5.97051        -1.74809         6.67083
| 63>    O       -4.93138        -1.25096         7.06503
| 64>    O       -6.45277        -2.79595         7.07842
| 65>    C       -6.39285         0.07115         5.00507
| 66>    C       -7.38457         0.42461         4.07421
| 67>    C       -7.37481         1.63496         3.30056
| 68>    C       -6.27639         2.37309         3.05204
| 69>    C       -6.29316         3.62505         2.37374
| 70>    S       -7.75084         4.56167         2.10271
| 71>    C       -6.93248         5.85539         1.32338
| 72>    C       -5.58443         5.60556         1.26944
| 73>    C       -5.23993         4.34849         1.86671
| 74>    O       -3.90499         4.13717         1.79943
| 75>    C       -3.40137         5.24265         1.18209
| 76>    N       -2.00439         5.28821         0.98043
| 77>    O       -1.54785         6.30769         0.50056
| 78>    O       -1.35829         4.30278         1.27845
| 79>    C       -4.35045         6.16296         0.83223
| 80>    H       -0.45253         5.74275        -2.79446
| 81>    H        0.19513         1.42003        -0.34224
| 82>    H        2.34845         5.81838        -2.88076
| 83>    H       -5.30375         2.27634        -0.75054
| 84>    H       -5.42878         5.02906        -2.11404
| 85>    H       -7.90030         5.92924        -2.12355
| 86>    H      -10.24026         5.30034        -1.22644
| 87>    H      -12.01811         4.31713         0.17343
| 88>    H      -13.41004         2.78171         1.70031
| 89>    H      -13.38796         0.47320         2.71423
| 90>    H       -8.18284        -5.04821         3.74082
| 91>    H       -9.65242        -5.29945         2.75426
| 92>    H       -9.79426        -4.94554         4.49818
| 93>    H       -9.57614         0.42418         2.71356
| 94>    H       -5.50229         0.63913         5.19917
| 95>    H       -8.32229         1.99075         2.91314
| 96>    H       -5.29668         2.02771         3.34558
| 97>    H       -7.48277         6.70246         0.97123
| 98>    H       -4.17041         7.09013         0.32905
| 99> *
|100>
|101>                          ****END OF INPUT****

CARTESIAN COORDINATES (ANGSTROEM)
---------------------------------
  C     -2.542100    2.361660   -0.746130
  C     -2.792000    1.280950    0.064060
  C     -1.796860    0.398690    0.533130
  N     -1.044370   -0.375320    0.923450
  C     -4.055550    0.914620    0.565400
  N     -5.047750    0.570420    1.034290
  C     -1.223080    2.841570   -1.141330
  C     -1.373880    4.063040   -1.846890
  C     -0.303840    4.803380   -2.286110
  C      0.978090    4.309590   -2.025950
  C      1.118640    3.084000   -1.331690
  C      0.036610    2.337810   -0.882530
  S      2.788160    2.666790   -1.105040
  C      3.268990    4.124530   -1.931660
  C      2.233990    4.886440   -2.357970
  Br     5.091220    4.501120   -2.158400
  C     -2.804600    4.398960   -1.942040
  O     -3.291140    5.395980   -2.440150
  C     -3.519250    3.284380   -1.277310
  C     -4.886060    3.165410   -1.207900
  C     -5.799050    4.128000   -1.647080
  C     -7.152110    4.005690   -1.431440
  C     -8.143560    4.995270   -1.649100
  C     -9.375210    4.664200   -1.173410
  C     -9.423830    3.383500   -0.574940
  S     -7.868120    2.587720   -0.695180
  C    -10.461960    2.790920    0.109610
  C    -11.713120    3.336000    0.489090
  C    -12.446360    2.528830    1.296340
  C    -11.833440    1.275090    1.598730
  S    -10.292000    1.168680    0.743290
  C    -12.379280    0.294710    2.365420
  C    -11.843880   -1.009130    2.660290
  C    -12.667530   -2.119080    2.646860
  C    -14.113370   -2.131330    2.316920
  F    -14.378460   -1.564280    1.121540
  F    -14.620160   -3.366390    2.276230
  F    -14.858300   -1.441640    3.207930
  S    -11.839540   -3.599160    2.938040
  C    -10.344290   -2.740420    3.118900
  O     -9.179960   -3.362670    3.309200
  C     -9.216750   -4.746220    3.591700
  C    -10.495460   -1.372680    2.994500
  N     -9.500590   -0.441700    3.235080
  C     -8.417330   -0.533750    4.037880
  S     -8.182950   -1.809560    5.175650
  C     -6.688720   -1.081780    5.681130
  N     -5.970510   -1.748090    6.670830
  O     -4.931380   -1.250960    7.065030
  O     -6.452770   -2.795950    7.078420
  C     -6.392850    0.071150    5.005070
  C     -7.384570    0.424610    4.074210
  C     -7.374810    1.634960    3.300560
  C     -6.276390    2.373090    3.052040
  C     -6.293160    3.625050    2.373740
  S     -7.750840    4.561670    2.102710
  C     -6.932480    5.855390    1.323380
  C     -5.584430    5.605560    1.269440
  C     -5.239930    4.348490    1.866710
  O     -3.904990    4.137170    1.799430
  C     -3.401370    5.242650    1.182090
  N     -2.004390    5.288210    0.980430
  O     -1.547850    6.307690    0.500560
  O     -1.358290    4.302780    1.278450
  C     -4.350450    6.162960    0.832230
  H     -0.452530    5.742750   -2.794460
  H      0.195130    1.420030   -0.342240
  H      2.348450    5.818380   -2.880760
  H     -5.303750    2.276340   -0.750540
  H     -5.428780    5.029060   -2.114040
  H     -7.900300    5.929240   -2.123550
  H    -10.240260    5.300340   -1.226440
  H    -12.018110    4.317130    0.173430
  H    -13.410040    2.781710    1.700310
  H    -13.387960    0.473200    2.714230
  H     -8.182840   -5.048210    3.740820
  H     -9.652420   -5.299450    2.754260
  H     -9.794260   -4.945540    4.498180
  H     -9.576140    0.424180    2.713560
  H     -5.502290    0.639130    5.199170
  H     -8.322290    1.990750    2.913140
  H     -5.296680    2.027710    3.345580
  H     -7.482770    6.702460    0.971230
  H     -4.170410    7.090130    0.329050

 Total Charge           Charge          ....    0
 Multiplicity           Mult            ....    1
 Number of Electrons    NEL             ....  526
 Basis Dimension        Dim             .... 1047

ORBITAL ENERGIES
----------------

  NO   OCC          E(Eh)            E(eV)
   0   2.0000    -482.876568    -13139.7394
   1   2.0000     -88.991407     -2421.5793
   2   2.0000     -88.979409     -2421.2528
   3   2.0000     -88.976122     -2421.1634
   4   2.0000     -88.968128     -2420.9458
   5   2.0000     -88.965031     -2420.8616
   6   2.0000     -88.964518     -2420.8476
   7   2.0000     -62.554273     -1702.1883
   8   2.0000     -56.388208     -1534.4012
   9   2.0000     -56.385521     -1534.3280
  10   2.0000     -56.385484     -1534.3270
  11   2.0000     -24.814875      -675.2471
  12   2.0000     -24.805626      -674.9954
  13   2.0000     -24.804087      -674.9535
  14   2.0000     -19.308087      -525.3998
  15   2.0000     -19.283975      -524.7436
  16   2.0000     -19.249883      -523.8160
  17   2.0000     -19.248465      -523.7774
  18   2.0000     -19.215763      -522.8875
  19   2.0000     -19.215281      -522.8744
  20   2.0000     -19.210252      -522.7375
  21   2.0000     -14.659393      -398.9024
  22   2.0000     -14.627594      -398.0371
  23   2.0000     -14.468670      -393.7125
  24   2.0000     -14.410201      -392.1215
  25   2.0000     -14.403323      -391.9343
  26   2.0000     -10.533022      -286.6181
  27   2.0000     -10.388668      -282.6900
  28   2.0000     -10.379392      -282.4376
  29   2.0000     -10.360114      -281.9130
  30   2.0000     -10.354960      -281.7728
  31   2.0000     -10.348065      -281.5852
  32   2.0000     -10.345587      -281.5177
  33   2.0000     -10.345478      -281.5148
  34   2.0000     -10.345281      -281.5094
  35   2.0000     -10.340378      -281.3760
  36   2.0000     -10.339927      -281.3637
  37   2.0000     -10.336696      -281.2758
  38   2.0000     -10.336356      -281.2665
  39   2.0000     -10.330194      -281.0989
  40   2.0000     -10.329629      -281.0835
  41   2.0000     -10.323927      -280.9283
  42   2.0000     -10.322749      -280.8963
  43   2.0000     -10.317266      -280.7471
  44   2.0000     -10.317026      -280.7405
  45   2.0000     -10.316889      -280.7368
  46   2.0000     -10.316406      -280.7237
  47   2.0000     -10.315685      -280.7041
  48   2.0000     -10.314828      -280.6807
  49   2.0000     -10.313985      -280.6578
  50   2.0000     -10.313933      -280.6564
  51   2.0000     -10.313725      -280.6507
  52   2.0000     -10.313642      -280.6485
  53   2.0000     -10.309038      -280.5232
  54   2.0000     -10.308741      -280.5151
  55   2.0000     -10.306698      -280.4595
  56   2.0000     -10.298996      -280.2499
  57   2.0000     -10.295886      -280.1653
  58   2.0000     -10.295122      -280.1445
  59   2.0000     -10.291498      -280.0459
  60   2.0000     -10.289883      -280.0020
  61   2.0000     -10.289558      -279.9931
  62   2.0000     -10.288234      -279.9571
  63   2.0000     -10.288041      -279.9518
  64   2.0000     -10.286176      -279.9011
  65   2.0000     -10.282346      -279.7969
  66   2.0000     -10.280461      -279.7456
  67   2.0000     -10.280414      -279.7443
  68   2.0000     -10.279156      -279.7101
  69   2.0000      -8.783694      -239.0165
  70   2.0000      -8.086967      -220.0575
  71   2.0000      -8.075443      -219.7440
  72   2.0000      -8.070235      -219.6022
  73   2.0000      -8.063782      -219.4267
  74   2.0000      -8.060544      -219.3386
  75   2.0000      -8.060204      -219.3293
  76   2.0000      -6.619939      -180.1377
  77   2.0000      -6.605461      -179.7437
  78   2.0000      -6.605257      -179.7382
  79   2.0000      -6.056338      -164.8013
  80   2.0000      -6.052270      -164.6906
  81   2.0000      -6.048738      -164.5945
  82   2.0000      -6.045145      -164.4967
  83   2.0000      -6.041118      -164.3872
  84   2.0000      -6.039569      -164.3450
  85   2.0000      -6.036354      -164.2575
  86   2.0000      -6.035284      -164.2284
  87   2.0000      -6.033500      -164.1799
  88   2.0000      -6.032680      -164.1576
  89   2.0000      -6.030225      -164.0908
  90   2.0000      -6.029889      -164.0816
  91   2.0000      -6.029468      -164.0702
  92   2.0000      -6.025964      -163.9748
  93   2.0000      -6.025337      -163.9578
  94   2.0000      -6.024738      -163.9415
  95   2.0000      -6.021770      -163.8607
  96   2.0000      -6.021700      -163.8588
  97   2.0000      -2.735833       -74.4458
  98   2.0000      -2.731742       -74.3345
  99   2.0000      -2.731627       -74.3314
 100   2.0000      -2.720098       -74.0176
 101   2.0000      -2.720091       -74.0175
 102   2.0000      -1.398639       -38.0589
 103   2.0000      -1.331680       -36.2368
 104   2.0000      -1.304789       -35.5051
 105   2.0000      -1.296058       -35.2675
 106   2.0000      -1.294335       -35.2206
 107   2.0000      -1.227151       -33.3925
 108   2.0000      -1.195479       -32.5306
 109   2.0000      -1.147593       -31.2276
 110   2.0000      -1.123531       -30.5728
 111   2.0000      -1.114976       -30.3400
 112   2.0000      -1.079583       -29.3770
 113   2.0000      -1.025047       -27.8929
 114   2.0000      -1.012493       -27.5513
 115   2.0000      -1.011098       -27.5134
 116   2.0000      -1.004174       -27.3250
 117   2.0000      -1.000765       -27.2322
 118   2.0000      -0.995507       -27.0891
 119   2.0000      -0.985863       -26.8267
 120   2.0000      -0.981240       -26.7009
 121   2.0000      -0.979552       -26.6550
 122   2.0000      -0.938394       -25.5350
 123   2.0000      -0.935105       -25.4455
 124   2.0000      -0.925211       -25.1763
 125   2.0000      -0.910121       -24.7657
 126   2.0000      -0.909354       -24.7448
 127   2.0000      -0.898489       -24.4491
 128   2.0000      -0.891558       -24.2605
 129   2.0000      -0.885053       -24.0835
 130   2.0000      -0.880581       -23.9618
 131   2.0000      -0.874371       -23.7928
 132   2.0000      -0.872647       -23.7459
 133   2.0000      -0.865677       -23.5563
 134   2.0000      -0.858787       -23.3688
 135   2.0000      -0.849283       -23.1102
 136   2.0000      -0.846805       -23.0427
 137   2.0000      -0.835700       -22.7406
 138   2.0000      -0.829523       -22.5725
 139   2.0000      -0.818428       -22.2706
 140   2.0000      -0.810673       -22.0595
 141   2.0000      -0.803050       -21.8521
 142   2.0000      -0.784511       -21.3476
 143   2.0000      -0.779770       -21.2186
 144   2.0000      -0.763609       -20.7789
 145   2.0000      -0.754846       -20.5404
 146   2.0000      -0.749771       -20.4023
 147   2.0000      -0.735294       -20.0084
 148   2.0000      -0.724780       -19.7223
 149   2.0000      -0.717845       -19.5336
 150   2.0000      -0.706912       -19.2360
 151   2.0000      -0.705197       -19.1894
 152   2.0000      -0.692880       -18.8542
 153   2.0000      -0.688317       -18.7300
 154   2.0000      -0.682154       -18.5624
 155   2.0000      -0.681037       -18.5320
 156   2.0000      -0.680084       -18.5060
 157   2.0000      -0.673072       -18.3152
 158   2.0000      -0.667850       -18.1731
 159   2.0000      -0.661033       -17.9876
 160   2.0000      -0.654104       -17.7991
 161   2.0000      -0.650202       -17.6929
 162   2.0000      -0.648269       -17.6403
 163   2.0000      -0.647890       -17.6300
 164   2.0000      -0.642772       -17.4907
 165   2.0000      -0.640317       -17.4239
 166   2.0000      -0.630059       -17.1448
 167   2.0000      -0.627239       -17.0680
 168   2.0000      -0.624233       -16.9863
 169   2.0000      -0.616180       -16.7671
 170   2.0000      -0.614169       -16.7124
 171   2.0000      -0.613340       -16.6898
 172   2.0000      -0.609075       -16.5738
 173   2.0000      -0.609032       -16.5726
 174   2.0000      -0.594073       -16.1655
 175   2.0000      -0.592359       -16.1189
 176   2.0000      -0.591094       -16.0845
 177   2.0000      -0.587616       -15.9898
 178   2.0000      -0.586340       -15.9551
 179   2.0000      -0.581640       -15.8272
 180   2.0000      -0.580173       -15.7873
 181   2.0000      -0.569291       -15.4912
 182   2.0000      -0.568030       -15.4569
 183   2.0000      -0.563511       -15.3339
 184   2.0000      -0.558535       -15.1985
 185   2.0000      -0.558410       -15.1951
 186   2.0000      -0.557249       -15.1635
 187   2.0000      -0.545425       -14.8418
 188   2.0000      -0.544845       -14.8260
 189   2.0000      -0.540207       -14.6998
 190   2.0000      -0.535458       -14.5705
 191   2.0000      -0.533439       -14.5156
 192   2.0000      -0.531719       -14.4688
 193   2.0000      -0.528417       -14.3789
 194   2.0000      -0.526719       -14.3328
 195   2.0000      -0.524316       -14.2674
 196   2.0000      -0.522576       -14.2200
 197   2.0000      -0.519114       -14.1258
 198   2.0000      -0.517423       -14.0798
 199   2.0000      -0.514783       -14.0079
 200   2.0000      -0.512398       -13.9431
 201   2.0000      -0.511172       -13.9097
 202   2.0000      -0.504548       -13.7295
 203   2.0000      -0.502191       -13.6653
 204   2.0000      -0.498348       -13.5607
 205   2.0000      -0.497110       -13.5271
 206   2.0000      -0.495918       -13.4946
 207   2.0000      -0.493701       -13.4343
 208   2.0000      -0.492982       -13.4147
 209   2.0000      -0.491342       -13.3701
 210   2.0000      -0.489077       -13.3085
 211   2.0000      -0.485243       -13.2041
 212   2.0000      -0.483466       -13.1558
 213   2.0000      -0.482464       -13.1285
 214   2.0000      -0.475687       -12.9441
 215   2.0000      -0.468842       -12.7578
 216   2.0000      -0.465184       -12.6583
 217   2.0000      -0.462817       -12.5939
 218   2.0000      -0.462251       -12.5785
 219   2.0000      -0.456220       -12.4144
 220   2.0000      -0.454350       -12.3635
 221   2.0000      -0.451871       -12.2960
 222   2.0000      -0.447589       -12.1795
 223   2.0000      -0.446332       -12.1453
 224   2.0000      -0.444492       -12.0952
 225   2.0000      -0.439157       -11.9501
 226   2.0000      -0.437639       -11.9088
 227   2.0000      -0.434496       -11.8232
 228   2.0000      -0.430682       -11.7195
 229   2.0000      -0.429053       -11.6751
 230   2.0000      -0.427697       -11.6382
 231   2.0000      -0.425150       -11.5689
 232   2.0000      -0.421867       -11.4796
 233   2.0000      -0.421278       -11.4635
 234   2.0000      -0.415261       -11.2998
 235   2.0000      -0.414629       -11.2826
 236   2.0000      -0.407849       -11.0981
 237   2.0000      -0.402472       -10.9518
 238   2.0000      -0.399069       -10.8592
 239   2.0000      -0.395332       -10.7575
 240   2.0000      -0.389380       -10.5956
 241   2.0000      -0.381516       -10.3816
 242   2.0000      -0.376513       -10.2454
 243   2.0000      -0.373235       -10.1562
 244   2.0000      -0.372111       -10.1257
 245   2.0000      -0.368095       -10.0164
 246   2.0000      -0.366091        -9.9619
 247   2.0000      -0.364117        -9.9081
 248   2.0000      -0.357208        -9.7201
 249   2.0000      -0.355823        -9.6824
 250   2.0000      -0.351082        -9.5534
 251   2.0000      -0.344862        -9.3842
 252   2.0000      -0.339616        -9.2414
 253   2.0000      -0.329535        -8.9671
 254   2.0000      -0.328963        -8.9516
 255   2.0000      -0.319526        -8.6947
 256   2.0000      -0.313740        -8.5373
 257   2.0000      -0.304296        -8.2803
 258   2.0000      -0.299988        -8.1631
 259   2.0000      -0.281620        -7.6633
 260   2.0000      -0.280232        -7.6255
 261   2.0000      -0.244670        -6.6578
 262   2.0000      -0.240107        -6.5336
 263   0.0000      -0.115883        -3.1533
 264   0.0000      -0.071824        -1.9544
 265   0.0000      -0.063615        -1.7311
 266   0.0000      -0.046022        -1.2523
 267   0.0000      -0.032764        -0.8916

MULLIKEN ATOMIC CHARGES
-----------------------
   0 C :    0.321450
   1 C :   -0.341395
   2 C :   -0.188775
   3 N :    0.145787
   4 C :   -0.195997
   5 N :    0.138579
   6 C :    0.031729
   7 C :   -0.017187
   8 C :   -0.058851
   9 C :    0.116668
  10 C :   -0.085607
  11 C :   -0.008077
  12 S :    0.182614
  13 C :   -0.124426
  14 C :    0.042651
  15 Br:    0.015683
  16 C :    0.113414
  17 O :   -0.164325
  18 C :   -0.076817
  19 C :   -0.064879
  20 C :   -0.003363
  21 C :   -0.006241
  22 C :    0.053030
  23 C :    0.020751
  24 C :   -0.035411
  25 S :    0.101849
  26 C :   -0.052663
  27 C :    0.046805
  28 C :    0.050506
  29 C :   -0.034986
  30 S :    0.071310
  31 C :   -0.054258
  32 C :    0.090865
  33 C :   -0.295097
  34 C :    0.528212
  35 F :   -0.165236
  36 F :   -0.150978
  37 F :   -0.166738
  38 S :    0.151316
  39 C :   -0.058001
  40 O :   -0.281301
  41 C :    0.165426
  42 C :    0.080814
  43 N :   -0.014072
  44 C :   -0.093062
  45 S :    0.165361
  46 C :   -0.022735
  47 N :    0.280062
  48 O :   -0.259615
  49 O :   -0.288209
  50 C :    0.009300
  51 C :    0.131235
  52 C :   -0.051070
  53 C :    0.062092
  54 C :   -0.221398
  55 S :    0.125972
  56 C :   -0.147270
  57 C :    0.140382
  58 C :    0.223879
  59 O :   -0.199914
  60 C :    0.235193
  61 N :    0.257724
  62 O :   -0.235459
  63 O :   -0.221251
  64 C :   -0.047962
  65 H :   -0.016277
  66 H :   -0.011107
  67 H :   -0.006914
  68 H :    0.024337
  69 H :    0.018422
  70 H :   -0.000062
  71 H :   -0.003635
  72 H :   -0.004335
  73 H :    0.004963
  74 H :    0.021859
  75 H :    0.066823
  76 H :    0.041283
  77 H :    0.041126
  78 H :    0.143185
  79 H :    0.004203
  80 H :   -0.026893
  81 H :    0.004941
  82 H :    0.020125
  83 H :    0.009924
Sum of atomic charges:   -0.0000000

LOEWDIN ATOMIC CHARGES
----------------------
   0 C :    0.072465
   1 C :   -0.142127
   2 C :   -0.017001
   3 N :   -0.057576
   4 C :   -0.015170
   5 N :   -0.061684
   6 C :   -0.017077
   7 C :   -0.059515
   8 C :    0.028700
   9 C :   -0.032162
  10 C :   -0.139011
  11 C :   -0.005585
  12 S :    0.431933
  13 C :   -0.273931
  14 C :   -0.068705
  15 Br:    0.131520
  16 C :    0.074207
  17 O :   -0.157413
  18 C :   -0.099314
  19 C :    0.044300
  20 C :   -0.059695
  21 C :   -0.109000
  22 C :   -0.027770
  23 C :   -0.018554
  24 C :   -0.184926
  25 S :    0.407927
  26 C :   -0.160280
  27 C :   -0.029311
  28 C :   -0.010598
  29 C :   -0.144621
  30 S :    0.405498
  31 C :   -0.040356
  32 C :   -0.045595
  33 C :   -0.263763
  34 C :    0.151110
  35 F :   -0.067172
  36 F :   -0.052321
  37 F :   -0.069880
  38 S :    0.467814
  39 C :   -0.127983
  40 O :   -0.087508
  41 C :    0.073533
  42 C :   -0.062165
  43 N :    0.025034
  44 C :   -0.092094
  45 S :    0.475160
  46 C :   -0.225220
  47 N :    0.273980
  48 O :   -0.225278
  49 O :   -0.253163
  50 C :    0.005314
  51 C :   -0.108224
  52 C :   -0.025330
  53 C :   -0.031234
  54 C :   -0.193089
  55 S :    0.475455
  56 C :   -0.191494
  57 C :   -0.082697
  58 C :    0.014978
  59 O :   -0.002362
  60 C :    0.020789
  61 N :    0.273281
  62 O :   -0.200450
  63 O :   -0.185763
  64 C :    0.000144
  65 H :    0.039741
  66 H :    0.040356
  67 H :    0.037780
  68 H :    0.031346
  69 H :    0.037611
  70 H :    0.038378
  71 H :    0.035305
  72 H :    0.036888
  73 H :    0.040836
  74 H :    0.042281
  75 H :    0.041208
  76 H :    0.018945
  77 H :    0.020765
  78 H :    0.050054
  79 H :    0.043145
  80 H :    0.007276
  81 H :    0.037920
  82 H :    0.023510
  83 H :    0.047674

  Mayer bond orders larger than 0.100000
B(  0-C ,  1-C ) :   1.6129 B(  0-C ,  6-C ) :   1.0003 B(  0-C , 18-C ) :   1.0720
B(  1-C ,  2-C ) :   1.1409 B(  1-C ,  4-C ) :   1.1658 B(  2-C ,  3-N ) :   2.9680
B(  4-C ,  5-N ) :   2.9202 B(  6-C ,  7-C ) :   1.2678 B(  6-C , 11-C ) :   1.4150
B(  7-C ,  8-C ) :   1.4238 B(  7-C , 16-C ) :   0.9437 B(  8-C ,  9-C ) :   1.2443
B(  8-C , 65-H ) :   1.0147 B(  9-C , 10-C ) :   1.3067 B(  9-C , 14-C ) :   1.1613
B( 10-C , 11-C ) :   1.3304 B( 10-C , 12-S ) :   1.0856 B( 11-C , 66-H ) :   0.9764
B( 12-S , 13-C ) :   1.0854 B( 13-C , 14-C ) :   1.6202 B( 13-C , 15-Br) :   1.0138
B( 14-C , 67-H ) :   0.9993 B( 16-C , 17-O ) :   2.1742 B( 16-C , 18-C ) :   0.9510
B( 18-C , 19-C ) :   1.5446 B( 19-C , 20-C ) :   1.2183 B( 19-C , 68-H ) :   0.9382
B( 20-C , 21-C ) :   1.4732 B( 20-C , 69-H ) :   0.9769 B( 21-C , 22-C ) :   1.1430
B( 21-C , 25-S ) :   1.0754 B( 22-C , 23-C ) :   1.5741 B( 22-C , 70-H ) :   1.0025
B( 23-C , 24-C ) :   1.1810 B( 23-C , 71-H ) :   0.9980 B( 24-C , 25-S ) :   1.0468
B( 24-C , 26-C ) :   1.5140 B( 26-C , 27-C ) :   1.1672 B( 26-C , 30-S ) :   1.0461
B( 27-C , 28-C ) :   1.6220 B( 27-C , 72-H ) :   0.9929 B( 28-C , 29-C ) :   1.1115
B( 28-C , 73-H ) :   0.9975 B( 29-C , 30-S ) :   1.0006 B( 29-C , 31-C ) :   1.6909
B( 31-C , 32-C ) :   1.0644 B( 31-C , 74-H ) :   0.9329 B( 32-C , 33-C ) :   1.5188
B( 32-C , 42-C ) :   1.2510 B( 33-C , 34-C ) :   0.9834 B( 33-C , 38-S ) :   1.1058
B( 34-C , 35-F ) :   1.1575 B( 34-C , 36-F ) :   1.1742 B( 34-C , 37-F ) :   1.1387
B( 38-S , 39-C ) :   1.1192 B( 39-C , 40-O ) :   1.1634 B( 39-C , 42-C ) :   1.4644
B( 40-O , 41-C ) :   0.9186 B( 41-C , 75-H ) :   0.9793 B( 41-C , 76-H ) :   0.9674
B( 41-C , 77-H ) :   0.9673 B( 42-C , 43-N ) :   1.1085 B( 43-N , 44-C ) :   1.2417
B( 43-N , 78-H ) :   0.8654 B( 44-C , 45-S ) :   1.1481 B( 44-C , 51-C ) :   1.3383
B( 45-S , 46-C ) :   1.0760 B( 46-C , 47-N ) :   0.9909 B( 46-C , 50-C ) :   1.4587
B( 47-N , 48-O ) :   1.5273 B( 47-N , 49-O ) :   1.4942 B( 48-O , 49-O ) :   0.2460
B( 50-C , 51-C ) :   1.2650 B( 50-C , 79-H ) :   1.0007 B( 51-C , 52-C ) :   1.0618
B( 52-C , 53-C ) :   1.7273 B( 52-C , 80-H ) :   0.9571 B( 53-C , 54-C ) :   1.1323
B( 53-C , 81-H ) :   0.9732 B( 54-C , 55-S ) :   1.1201 B( 54-C , 56-C ) :   0.1123
B( 54-C , 58-C ) :   1.4631 B( 55-S , 56-C ) :   1.1787 B( 56-C , 57-C ) :   1.4348
B( 56-C , 82-H ) :   0.9730 B( 57-C , 58-C ) :   1.2137 B( 57-C , 64-C ) :   1.0408
B( 58-C , 59-O ) :   1.0938 B( 59-O , 60-C ) :   1.1083 B( 60-C , 61-N ) :   0.9116
B( 60-C , 64-C ) :   1.5888 B( 61-N , 62-O ) :   1.5314 B( 61-N , 63-O ) :   1.5037
B( 62-O , 63-O ) :   0.2690 B( 64-C , 83-H ) :   1.0273

-----------------------------------------------------------------------------
         ABSORPTION SPECTRUM VIA TRANSITION ELECTRIC DIPOLE MOMENTS
-----------------------------------------------------------------------------
State   Energy  Wavelength   fosc         T2         TX        TY        TZ
        (cm-1)    (nm)                  (au**2)     (au)      (au)      (au)
-----------------------------------------------------------------------------
   0   10732.3    931.8   0.039336626   1.20665  -0.30189  -0.50738   0.92632
   1   13324.6    750.5   0.837188673  20.68453  -4.30328  -0.98208   1.09629
   2   19151.7    522.1   0.017130044   0.29446  -0.16868   0.39310  -0.33389
   3   20538.5    486.9   0.095524013   1.53116  -1.09842   0.33316   0.46220
   4   21154.5    472.7   0.057461406   0.89423  -0.19035  -0.85674   0.35212
   5   22119.7    452.1   0.045262938   0.67366  -0.73587  -0.36120   0.04105
   6   22743.6    439.7   0.033708085   0.48792  -0.69398  -0.03863   0.06944
   7   23748.2    421.1   0.070621980   0.97901   0.65266   0.59255  -0.44936
   8   24807.1    403.1   0.389176343   5.16471   0.76988   1.56643  -1.45544
   9   25870.7    386.5   0.009559724   0.12165   0.29716   0.06268  -0.17152
  10   26157.8    382.3   0.031201198   0.39269   0.22331   0.33393  -0.48094
  11   26781.3    373.4   0.168390372   2.06996   0.39376  -0.88501   1.06380
  12   27045.9    369.7   0.193354087   2.35357   0.93004  -0.59561   1.06482
  13   27546.8    363.0   0.067511031   0.80682  -0.47742   0.76041  -0.02589
  14   27663.7    361.5   0.050623428   0.60244   0.24295  -0.43969   0.59169
  15   28069.8    356.3   0.170458172   1.99919  -1.19693  -0.31673   0.68281
  16   28700.1    348.4   0.690628879   7.92203  -2.59308  -1.09371   0.04166
  17   29448.2    339.6   0.108352705   1.21131   0.95317  -0.41671   0.35936
  18   29753.4    336.1   0.141303125   1.56347   0.79094   0.88641  -0.39009
  19   30880.5    323.8   0.004019743   0.04285   0.08142  -0.18976   0.01473
  20   31025.2    322.3   0.172260945   1.82788  -1.28234  -0.39822   0.15784
  21   31187.2    320.6   0.033314510   0.35167  -0.31484  -0.38253   0.32591
  22   31559.7    316.9   0.048013788   0.50085  -0.48593   0.49355  -0.14536
  23   31976.9    312.7   0.080320828   0.82693  -0.40375   0.81204  -0.06714
  24   32050.5    312.0   0.033978897   0.34902  -0.51266   0.28420   0.07369
  25   32310.4    309.5   0.452967456   4.61531  -0.94382  -1.76562   0.77915
  26   32511.8    307.6   0.225997185   2.28843  -0.28293  -1.34937   0.62256
  27   32678.1    306.0   0.099035516   0.99772  -0.21655   0.86543  -0.44930
  28   32908.9    303.9   0.025304268   0.25314  -0.24448   0.42732  -0.10374
  29   33228.2    300.9   0.032995322   0.32690   0.10967   0.45221  -0.33224
  30   33689.5    296.8   0.000260362   0.00254  -0.02516   0.01883  -0.03946
  31   34167.2    292.7   0.016990494   0.16371   0.24731   0.31726  -0.04352
  32   34772.6    287.6   0.073382868   0.69476   0.80633   0.17064  -0.12439
  33   34947.4    286.1   0.051528719   0.48541   0.68048   0.14240  -0.04563
  34   35126.6    284.7   0.116620538   1.09299  -0.95747   0.39505  -0.14205
  35   35341.4    283.0   0.026382526   0.24576  -0.47869   0.12291  -0.03885
  36   35861.7    278.8   0.201327883   1.84820  -1.21808  -0.55684   0.23324
  37   35968.8    278.0   0.048126399   0.44049  -0.34453  -0.20219   0.53001
  38   36431.5    274.5   0.072400468   0.65424   0.49483  -0.04991   0.63789
  39   36561.1    273.5   0.196116712   1.76592  -0.93719   0.90993  -0.24418
  40   36889.5    271.1   0.105852465   0.94466   0.96986  -0.06284   0.00906
  41   37261.0    268.4   0.026001409   0.22973   0.41550   0.22930  -0.06719
  42   37472.8    266.9   0.056278880   0.49443  -0.17107   0.48048  -0.48405
  43   38062.2    262.7   0.152225343   1.31665   0.76791   0.61321  -0.59240
  44   38391.6    260.5   0.027902830   0.23927  -0.31586   0.35594  -0.11318
  45   38651.3    258.7   0.006109616   0.05204  -0.17227  -0.05513   0.13901
  46   38758.3    258.0   0.015006587   0.12747   0.10738  -0.24330   0.23820
  47   38808.2    257.7   0.062041903   0.52630  -0.17169   0.39600  -0.58310
  48   39331.3    254.3   0.017254299   0.14442   0.29311   0.00931  -0.24170
  49   39596.7    252.5   0.002329959   0.01937   0.13789  -0.00887  -0.01668
  50   39906.0    250.6   0.019144702   0.15794   0.05566  -0.28407   0.27230
  51   40236.1    248.5   0.089450565   0.73189   0.08403  -0.59889   0.60510
  52   40271.2    248.3   0.102432315   0.83737   0.69895   0.56923  -0.15754

FINAL SINGLE POINT ENERGY     -7708.602912602536

DIPOLE MOMENT
-------------
                                X             Y             Z
Electronic contribution:     95.24531       8.28325     -27.71357
Nuclear contribution   :    -99.17114      -6.07252      25.44191
                        -----------------------------------------
Total Dipole Moment    :     -3.92583       2.21073      -2.27166
                        -----------------------------------------
Magnitude (a.u.)       :      5.04578
Magnitude (Debye)      :     12.82535

Rotational constants in cm-1:     0.001888     0.000426     0.000383
Rotational constants in MHz :    56.599072    12.780162    11.486303

                             ****ORCA TERMINATED NORMALLY****
TOTAL RUN TIME: 0 days 0 hours 11 minutes 3 seconds 507 msec
