                         Program Version 4.2.0 -  RELEASE  -
|  1> # ORCA input file
|  2> # SCF done       -201.616322284587          0.000297599036
|  3> ! CAM-B3LYP def2-SVP def2/J RIJCOSX Grid4 TightSCF
|  4> %maxcore 5000
|  5> %tddft
|  6>     Mode sTDDFT
|  7>     Ethresh 5.0
|  8>     maxcore 5000
|  9> end
| 10>
| 11> %pal
| 12>   nprocs 6
| 13>   end
| 14> * xyz 0 1
| 15>    C       -2.52122        -1.47698        -0.48311
| 16>    C       -1.17739        -1.33746        -0.25083
| 17>    C       -0.23474        -2.37288        -0.42115
| 18>    N        0.58041        -3.17189        -0.54512
| 19>    C       -0.54171        -0.16567         0.21160
| 20>    N        0.05624         0.73580         0.59791
| 21>    C       -3.18403        -2.71283        -0.87890
| 22>    C       -4.58102        -2.48921        -0.89981
| 23>    C       -5.48558        -3.46866        -1.23017
| 24>    C       -4.98669        -4.73431        -1.55344
| 25>    C       -3.58777        -4.94875        -1.53516
| 26>    C       -2.67367        -3.95692        -1.20332
| 27>    S       -3.18664        -6.58231        -1.97298
| 28>    C       -4.88010        -6.94961        -2.16820
| 29>    C       -5.70519        -5.90507        -1.92039
| 30>   Br       -5.39897        -8.67744        -2.68138
| 31>    C       -4.86881        -1.08892        -0.52616
| 32>    O       -5.96793        -0.58088        -0.49269
| 33>    C       -3.54241        -0.45695        -0.30179
| 34>    C       -3.29334         0.87539        -0.16087
| 35>    C       -4.21311         1.93861         0.11864
| 36>    C       -3.89787         3.22523        -0.36233
| 37>    C       -4.75804         4.26533        -0.12826
| 38>    C       -5.93554         4.06101         0.61568
| 39>    C       -6.22786         2.80992         1.14309
| 40>    C       -5.37089         1.76046         0.89149
| 41>    C       -6.63551         5.31944         0.71931
| 42>    C       -5.89017         6.30812         0.05157
| 43>    C       -4.66739         5.70199        -0.59949
| 44>    C       -3.36647         6.38115        -0.14746
| 45>    C       -3.16461         6.30275         1.36153
| 46>    C       -4.79341         5.67694        -2.14181
| 47>    C       -4.92352         7.03392        -2.82065
| 48>    C       -6.30659         7.61785         0.07896
| 49>    C       -7.51376         7.95613         0.70730
| 50>    C       -8.25446         6.95343         1.34431
| 51>    C       -7.81831         5.64528         1.36834
| 52>    C       -7.94811         9.33986         0.67398
| 53>    C       -9.20199         9.76464         0.87690
| 54>    C       -9.62850        11.15470         0.76263
| 55>    C      -10.58369        11.76041         1.59470
| 56>    N      -11.20395        11.30045         2.73854
| 57>    C      -10.83650        10.08870         3.43097
| 58>    C      -11.82781         8.95146         3.19098
| 59>    C      -12.09934        12.25605         3.17792
| 60>    C      -12.02657        13.37481         2.31091
| 61>    C      -11.04187        13.06831         1.31709
| 62>    C      -10.53763        13.80263         0.25317
| 63>    C       -9.56276        13.22518        -0.53409
| 64>    C       -9.12839        11.93139        -0.28179
| 65>    C      -12.82759        14.49306         2.48740
| 66>    C      -13.73213        14.49075         3.52923
| 67>    C      -13.83724        13.38653         4.36059
| 68>    C      -13.04104        12.24695         4.22386
| 69>    C      -13.25898        11.13967         5.14115
| 70>    C      -14.47478        10.77427         5.58465
| 71>    C      -14.70858         9.67440         6.46761
| 72>    O      -15.98232         9.38841         6.83308
| 73>    C      -15.98693         8.29944         7.63644
| 74>    C      -14.68294         7.86934         7.79640
| 75>    C      -13.87072         8.74273         7.05305
| 76>    F      -12.53943         8.67642         6.92537
| 77>    F      -14.27288         6.82007         8.51763
| 78>    C      -17.22193         7.78678         8.14474
| 79>    C      -18.48420         8.31079         7.91489
| 80>    C      -19.43648         7.49108         8.58823
| 81>    C      -20.80638         7.56617         8.67607
| 82>    C      -21.46660         6.57803         9.42621
| 83>    C      -22.81443         6.37517         9.69866
| 84>    C      -22.95563         5.21119        10.51456
| 85>    C      -21.69178         4.69743        10.74562
| 86>    C      -20.72786         5.52097        10.08287
| 87>    C      -19.36167         5.44537         9.99920
| 88>    C      -18.69752         6.43488         9.24630
| 89>    C      -17.35208         6.62760         8.97018
| 90>    C      -24.18643         4.65045        11.01958
| 91>    C      -25.40610         5.13172        10.79691
| 92>    H       -6.54479        -3.26427        -1.23598
| 93>    H       -1.61779        -4.16933        -1.20964
| 94>    H       -6.77625        -5.95554        -1.99290
| 95>    H       -2.27135         1.20213        -0.31794
| 96>    H       -2.99012         3.36801        -0.93117
| 97>    H       -7.11154         2.65918         1.74394
| 98>    H       -5.57510         0.79497         1.32230
| 99>    H       -3.38770         7.42923        -0.44875
|100>    H       -2.52438         5.90335        -0.65234
|101>    H       -3.98801         6.78540         1.88378
|102>    H       -2.23943         6.80083         1.64182
|103>    H       -3.11029         5.26741         1.69052
|104>    H       -5.66903         5.07360        -2.39635
|105>    H       -3.91387         5.16357        -2.53702
|106>    H       -5.84464         7.52865        -2.52526
|107>    H       -4.94726         6.89447        -3.89942
|108>    H       -4.08158         7.67914        -2.58404
|109>    H       -5.72090         8.39951        -0.38208
|110>    H       -9.16942         7.21083         1.85563
|111>    H       -8.38615         4.88806         1.88788
|112>    H       -7.17618        10.06566         0.45030
|113>    H       -9.98276         9.04171         1.06551
|114>    H      -10.75336        10.29852         4.49949
|115>    H       -9.83999         9.80090         3.08660
|116>    H      -12.82348         9.23711         3.52123
|117>    H      -11.51787         8.06998         3.74629
|118>    H      -11.88280         8.70276         2.13316
|119>    H      -10.90166        14.79848         0.05338
|120>    H       -9.14496        13.77003        -1.36730
|121>    H       -8.40398        11.48434        -0.94627
|122>    H      -12.74335        15.33573         1.81886
|123>    H      -14.36803        15.34624         3.70000
|124>    H      -14.54642        13.41346         5.17397
|125>    H      -12.40244        10.58900         5.49089
|126>    H      -15.36932        11.28266         5.25515
|127>    H      -18.70578         9.18245         7.32885
|128>    H      -21.36458         8.35251         8.18738
|129>    H      -23.62231         6.99345         9.35206
|130>    H      -21.46039         3.82246        11.32558
|131>    H      -18.80158         4.65961        10.48625
|132>    H      -16.53585         6.01725         9.30920
|133>    H      -24.06502         3.76182        11.62673
|134>    H      -25.57766         6.01091        10.19988
|135>    H      -26.28133         4.65865        11.20707
|136> *
|137>
|138>                          ****END OF INPUT****

CARTESIAN COORDINATES (ANGSTROEM)
---------------------------------
  C     -2.521220   -1.476980   -0.483110
  C     -1.177390   -1.337460   -0.250830
  C     -0.234740   -2.372880   -0.421150
  N      0.580410   -3.171890   -0.545120
  C     -0.541710   -0.165670    0.211600
  N      0.056240    0.735800    0.597910
  C     -3.184030   -2.712830   -0.878900
  C     -4.581020   -2.489210   -0.899810
  C     -5.485580   -3.468660   -1.230170
  C     -4.986690   -4.734310   -1.553440
  C     -3.587770   -4.948750   -1.535160
  C     -2.673670   -3.956920   -1.203320
  S     -3.186640   -6.582310   -1.972980
  C     -4.880100   -6.949610   -2.168200
  C     -5.705190   -5.905070   -1.920390
  Br    -5.398970   -8.677440   -2.681380
  C     -4.868810   -1.088920   -0.526160
  O     -5.967930   -0.580880   -0.492690
  C     -3.542410   -0.456950   -0.301790
  C     -3.293340    0.875390   -0.160870
  C     -4.213110    1.938610    0.118640
  C     -3.897870    3.225230   -0.362330
  C     -4.758040    4.265330   -0.128260
  C     -5.935540    4.061010    0.615680
  C     -6.227860    2.809920    1.143090
  C     -5.370890    1.760460    0.891490
  C     -6.635510    5.319440    0.719310
  C     -5.890170    6.308120    0.051570
  C     -4.667390    5.701990   -0.599490
  C     -3.366470    6.381150   -0.147460
  C     -3.164610    6.302750    1.361530
  C     -4.793410    5.676940   -2.141810
  C     -4.923520    7.033920   -2.820650
  C     -6.306590    7.617850    0.078960
  C     -7.513760    7.956130    0.707300
  C     -8.254460    6.953430    1.344310
  C     -7.818310    5.645280    1.368340
  C     -7.948110    9.339860    0.673980
  C     -9.201990    9.764640    0.876900
  C     -9.628500   11.154700    0.762630
  C    -10.583690   11.760410    1.594700
  N    -11.203950   11.300450    2.738540
  C    -10.836500   10.088700    3.430970
  C    -11.827810    8.951460    3.190980
  C    -12.099340   12.256050    3.177920
  C    -12.026570   13.374810    2.310910
  C    -11.041870   13.068310    1.317090
  C    -10.537630   13.802630    0.253170
  C     -9.562760   13.225180   -0.534090
  C     -9.128390   11.931390   -0.281790
  C    -12.827590   14.493060    2.487400
  C    -13.732130   14.490750    3.529230
  C    -13.837240   13.386530    4.360590
  C    -13.041040   12.246950    4.223860
  C    -13.258980   11.139670    5.141150
  C    -14.474780   10.774270    5.584650
  C    -14.708580    9.674400    6.467610
  O    -15.982320    9.388410    6.833080
  C    -15.986930    8.299440    7.636440
  C    -14.682940    7.869340    7.796400
  C    -13.870720    8.742730    7.053050
  F    -12.539430    8.676420    6.925370
  F    -14.272880    6.820070    8.517630
  C    -17.221930    7.786780    8.144740
  C    -18.484200    8.310790    7.914890
  C    -19.436480    7.491080    8.588230
  C    -20.806380    7.566170    8.676070
  C    -21.466600    6.578030    9.426210
  C    -22.814430    6.375170    9.698660
  C    -22.955630    5.211190   10.514560
  C    -21.691780    4.697430   10.745620
  C    -20.727860    5.520970   10.082870
  C    -19.361670    5.445370    9.999200
  C    -18.697520    6.434880    9.246300
  C    -17.352080    6.627600    8.970180
  C    -24.186430    4.650450   11.019580
  C    -25.406100    5.131720   10.796910
  H     -6.544790   -3.264270   -1.235980
  H     -1.617790   -4.169330   -1.209640
  H     -6.776250   -5.955540   -1.992900
  H     -2.271350    1.202130   -0.317940
  H     -2.990120    3.368010   -0.931170
  H     -7.111540    2.659180    1.743940
  H     -5.575100    0.794970    1.322300
  H     -3.387700    7.429230   -0.448750
  H     -2.524380    5.903350   -0.652340
  H     -3.988010    6.785400    1.883780
  H     -2.239430    6.800830    1.641820
  H     -3.110290    5.267410    1.690520
  H     -5.669030    5.073600   -2.396350
  H     -3.913870    5.163570   -2.537020
  H     -5.844640    7.528650   -2.525260
  H     -4.947260    6.894470   -3.899420
  H     -4.081580    7.679140   -2.584040
  H     -5.720900    8.399510   -0.382080
  H     -9.169420    7.210830    1.855630
  H     -8.386150    4.888060    1.887880
  H     -7.176180   10.065660    0.450300
  H     -9.982760    9.041710    1.065510
  H    -10.753360   10.298520    4.499490
  H     -9.839990    9.800900    3.086600
  H    -12.823480    9.237110    3.521230
  H    -11.517870    8.069980    3.746290
  H    -11.882800    8.702760    2.133160
  H    -10.901660   14.798480    0.053380
  H     -9.144960   13.770030   -1.367300
  H     -8.403980   11.484340   -0.946270
  H    -12.743350   15.335730    1.818860
  H    -14.368030   15.346240    3.700000
  H    -14.546420   13.413460    5.173970
  H    -12.402440   10.589000    5.490890
  H    -15.369320   11.282660    5.255150
  H    -18.705780    9.182450    7.328850
  H    -21.364580    8.352510    8.187380
  H    -23.622310    6.993450    9.352060
  H    -21.460390    3.822460   11.325580
  H    -18.801580    4.659610   10.486250
  H    -16.535850    6.017250    9.309200
  H    -24.065020    3.761820   11.626730
  H    -25.577660    6.010910   10.199880
  H    -26.281330    4.658650   11.207070

 Total Charge           Charge          ....    0
 Multiplicity           Mult            ....    1
 Number of Electrons    NEL             ....  558
 Basis Dimension        Dim             .... 1320

ORBITAL ENERGIES
----------------

  NO   OCC          E(Eh)            E(eV)
   0   2.0000    -482.885132    -13139.9725
   1   2.0000     -88.974635     -2421.1229
   2   2.0000     -62.562825     -1702.4210
   3   2.0000     -56.396775     -1534.6343
   4   2.0000     -56.394059     -1534.5604
   5   2.0000     -56.394029     -1534.5595
   6   2.0000     -24.800367      -674.8523
   7   2.0000     -24.796799      -674.7552
   8   2.0000     -19.296532      -525.0853
   9   2.0000     -19.213236      -522.8187
  10   2.0000     -14.448138      -393.1538
  11   2.0000     -14.412777      -392.1916
  12   2.0000     -14.412644      -392.1880
  13   2.0000     -10.365824      -282.0684
  14   2.0000     -10.358798      -281.8772
  15   2.0000     -10.358344      -281.8649
  16   2.0000     -10.357638      -281.8457
  17   2.0000     -10.339365      -281.3484
  18   2.0000     -10.338629      -281.3284
  19   2.0000     -10.336796      -281.2785
  20   2.0000     -10.335084      -281.2319
  21   2.0000     -10.324611      -280.9469
  22   2.0000     -10.315829      -280.7080
  23   2.0000     -10.315723      -280.7051
  24   2.0000     -10.313542      -280.6458
  25   2.0000     -10.308084      -280.4972
  26   2.0000     -10.306628      -280.4576
  27   2.0000     -10.306277      -280.4480
  28   2.0000     -10.304197      -280.3914
  29   2.0000     -10.302666      -280.3498
  30   2.0000     -10.300388      -280.2878
  31   2.0000     -10.300022      -280.2778
  32   2.0000     -10.299390      -280.2606
  33   2.0000     -10.298831      -280.2454
  34   2.0000     -10.295918      -280.1662
  35   2.0000     -10.294569      -280.1295
  36   2.0000     -10.290302      -280.0133
  37   2.0000     -10.285166      -279.8736
  38   2.0000     -10.285064      -279.8708
  39   2.0000     -10.284731      -279.8618
  40   2.0000     -10.281557      -279.7754
  41   2.0000     -10.281145      -279.7642
  42   2.0000     -10.280919      -279.7580
  43   2.0000     -10.280476      -279.7460
  44   2.0000     -10.280457      -279.7455
  45   2.0000     -10.277893      -279.6757
  46   2.0000     -10.277200      -279.6568
  47   2.0000     -10.276857      -279.6475
  48   2.0000     -10.275380      -279.6073
  49   2.0000     -10.274934      -279.5952
  50   2.0000     -10.274179      -279.5746
  51   2.0000     -10.273812      -279.5646
  52   2.0000     -10.273278      -279.5501
  53   2.0000     -10.273148      -279.5466
  54   2.0000     -10.273017      -279.5430
  55   2.0000     -10.272679      -279.5338
  56   2.0000     -10.272075      -279.5174
  57   2.0000     -10.271804      -279.5100
  58   2.0000     -10.271120      -279.4914
  59   2.0000     -10.270528      -279.4753
  60   2.0000     -10.270437      -279.4728
  61   2.0000     -10.268251      -279.4133
  62   2.0000     -10.266744      -279.3723
  63   2.0000     -10.265453      -279.3372
  64   2.0000     -10.264239      -279.3041
  65   2.0000     -10.264080      -279.2998
  66   2.0000     -10.264076      -279.2997
  67   2.0000     -10.264000      -279.2976
  68   2.0000     -10.263454      -279.2828
  69   2.0000     -10.263420      -279.2819
  70   2.0000     -10.263249      -279.2772
  71   2.0000     -10.262271      -279.2506
  72   2.0000     -10.261405      -279.2270
  73   2.0000     -10.261367      -279.2260
  74   2.0000     -10.259734      -279.1816
  75   2.0000     -10.258466      -279.1470
  76   2.0000     -10.256756      -279.1005
  77   2.0000     -10.255698      -279.0717
  78   2.0000     -10.255101      -279.0555
  79   2.0000     -10.252725      -278.9908
  80   2.0000     -10.246644      -278.8253
  81   2.0000      -8.792250      -239.2493
  82   2.0000      -8.070584      -219.6117
  83   2.0000      -6.628520      -180.3712
  84   2.0000      -6.614000      -179.9761
  85   2.0000      -6.613792      -179.9704
  86   2.0000      -6.040271      -164.3641
  87   2.0000      -6.036010      -164.2482
  88   2.0000      -6.031812      -164.1339
  89   2.0000      -2.744432       -74.6798
  90   2.0000      -2.740304       -74.5675
  91   2.0000      -2.740154       -74.5634
  92   2.0000      -2.728612       -74.2493
  93   2.0000      -2.728593       -74.2488
  94   2.0000      -1.314053       -35.7572
  95   2.0000      -1.304687       -35.5023
  96   2.0000      -1.215165       -33.0663
  97   2.0000      -1.129159       -30.7260
  98   2.0000      -1.076373       -29.2896
  99   2.0000      -1.021295       -27.7909
 100   2.0000      -1.011439       -27.5227
 101   2.0000      -0.991796       -26.9881
 102   2.0000      -0.991228       -26.9727
 103   2.0000      -0.987247       -26.8643
 104   2.0000      -0.986956       -26.8564
 105   2.0000      -0.961803       -26.1720
 106   2.0000      -0.953061       -25.9341
 107   2.0000      -0.943692       -25.6792
 108   2.0000      -0.941724       -25.6256
 109   2.0000      -0.939325       -25.5603
 110   2.0000      -0.923759       -25.1368
 111   2.0000      -0.912742       -24.8370
 112   2.0000      -0.906782       -24.6748
 113   2.0000      -0.904184       -24.6041
 114   2.0000      -0.898769       -24.4567
 115   2.0000      -0.896307       -24.3897
 116   2.0000      -0.888467       -24.1764
 117   2.0000      -0.884545       -24.0697
 118   2.0000      -0.878888       -23.9158
 119   2.0000      -0.867919       -23.6173
 120   2.0000      -0.862383       -23.4666
 121   2.0000      -0.859953       -23.4005
 122   2.0000      -0.850821       -23.1520
 123   2.0000      -0.845240       -23.0002
 124   2.0000      -0.839475       -22.8433
 125   2.0000      -0.835807       -22.7435
 126   2.0000      -0.835500       -22.7351
 127   2.0000      -0.828808       -22.5530
 128   2.0000      -0.826534       -22.4911
 129   2.0000      -0.821118       -22.3438
 130   2.0000      -0.806319       -21.9411
 131   2.0000      -0.796787       -21.6817
 132   2.0000      -0.795992       -21.6601
 133   2.0000      -0.786795       -21.4098
 134   2.0000      -0.767798       -20.8928
 135   2.0000      -0.767063       -20.8728
 136   2.0000      -0.762876       -20.7589
 137   2.0000      -0.755606       -20.5611
 138   2.0000      -0.749367       -20.3913
 139   2.0000      -0.741269       -20.1710
 140   2.0000      -0.726647       -19.7731
 141   2.0000      -0.720580       -19.6080
 142   2.0000      -0.716343       -19.4927
 143   2.0000      -0.713173       -19.4064
 144   2.0000      -0.705984       -19.2108
 145   2.0000      -0.699823       -19.0431
 146   2.0000      -0.692394       -18.8410
 147   2.0000      -0.691302       -18.8113
 148   2.0000      -0.688701       -18.7405
 149   2.0000      -0.688240       -18.7280
 150   2.0000      -0.685779       -18.6610
 151   2.0000      -0.680701       -18.5228
 152   2.0000      -0.668246       -18.1839
 153   2.0000      -0.667510       -18.1639
 154   2.0000      -0.663627       -18.0582
 155   2.0000      -0.657935       -17.9033
 156   2.0000      -0.655513       -17.8374
 157   2.0000      -0.652141       -17.7457
 158   2.0000      -0.647005       -17.6059
 159   2.0000      -0.635408       -17.2903
 160   2.0000      -0.631138       -17.1741
 161   2.0000      -0.624967       -17.0062
 162   2.0000      -0.621415       -16.9096
 163   2.0000      -0.620432       -16.8828
 164   2.0000      -0.615937       -16.7605
 165   2.0000      -0.606674       -16.5084
 166   2.0000      -0.600946       -16.3526
 167   2.0000      -0.598444       -16.2845
 168   2.0000      -0.594573       -16.1792
 169   2.0000      -0.593617       -16.1531
 170   2.0000      -0.591028       -16.0827
 171   2.0000      -0.588826       -16.0228
 172   2.0000      -0.583954       -15.8902
 173   2.0000      -0.583412       -15.8755
 174   2.0000      -0.578254       -15.7351
 175   2.0000      -0.573235       -15.5985
 176   2.0000      -0.564408       -15.3583
 177   2.0000      -0.560901       -15.2629
 178   2.0000      -0.558298       -15.1921
 179   2.0000      -0.548670       -14.9301
 180   2.0000      -0.547226       -14.8908
 181   2.0000      -0.546463       -14.8700
 182   2.0000      -0.545977       -14.8568
 183   2.0000      -0.540334       -14.7032
 184   2.0000      -0.538522       -14.6539
 185   2.0000      -0.537157       -14.6168
 186   2.0000      -0.535436       -14.5699
 187   2.0000      -0.534910       -14.5556
 188   2.0000      -0.533394       -14.5144
 189   2.0000      -0.532639       -14.4938
 190   2.0000      -0.530618       -14.4389
 191   2.0000      -0.528357       -14.3773
 192   2.0000      -0.525093       -14.2885
 193   2.0000      -0.523171       -14.2362
 194   2.0000      -0.521991       -14.2041
 195   2.0000      -0.520027       -14.1507
 196   2.0000      -0.516753       -14.0616
 197   2.0000      -0.514032       -13.9875
 198   2.0000      -0.513465       -13.9721
 199   2.0000      -0.511886       -13.9291
 200   2.0000      -0.509503       -13.8643
 201   2.0000      -0.509269       -13.8579
 202   2.0000      -0.506095       -13.7715
 203   2.0000      -0.504258       -13.7215
 204   2.0000      -0.501609       -13.6495
 205   2.0000      -0.499614       -13.5952
 206   2.0000      -0.498319       -13.5599
 207   2.0000      -0.494197       -13.4478
 208   2.0000      -0.492748       -13.4083
 209   2.0000      -0.491440       -13.3727
 210   2.0000      -0.490729       -13.3534
 211   2.0000      -0.487177       -13.2567
 212   2.0000      -0.485861       -13.2209
 213   2.0000      -0.479258       -13.0413
 214   2.0000      -0.473632       -12.8882
 215   2.0000      -0.473145       -12.8749
 216   2.0000      -0.472618       -12.8606
 217   2.0000      -0.470351       -12.7989
 218   2.0000      -0.465766       -12.6741
 219   2.0000      -0.465448       -12.6655
 220   2.0000      -0.461929       -12.5697
 221   2.0000      -0.458912       -12.4876
 222   2.0000      -0.457391       -12.4462
 223   2.0000      -0.454044       -12.3552
 224   2.0000      -0.452820       -12.3219
 225   2.0000      -0.452520       -12.3137
 226   2.0000      -0.451470       -12.2851
 227   2.0000      -0.447298       -12.1716
 228   2.0000      -0.446243       -12.1429
 229   2.0000      -0.446113       -12.1394
 230   2.0000      -0.442718       -12.0470
 231   2.0000      -0.440867       -11.9966
 232   2.0000      -0.440594       -11.9892
 233   2.0000      -0.440215       -11.9789
 234   2.0000      -0.437692       -11.9102
 235   2.0000      -0.435431       -11.8487
 236   2.0000      -0.433276       -11.7900
 237   2.0000      -0.430118       -11.7041
 238   2.0000      -0.428368       -11.6565
 239   2.0000      -0.426430       -11.6038
 240   2.0000      -0.424561       -11.5529
 241   2.0000      -0.423592       -11.5265
 242   2.0000      -0.420325       -11.4376
 243   2.0000      -0.419645       -11.4191
 244   2.0000      -0.417792       -11.3687
 245   2.0000      -0.415470       -11.3055
 246   2.0000      -0.412849       -11.2342
 247   2.0000      -0.409355       -11.1391
 248   2.0000      -0.405562       -11.0359
 249   2.0000      -0.404947       -11.0192
 250   2.0000      -0.404391       -11.0040
 251   2.0000      -0.398672       -10.8484
 252   2.0000      -0.397783       -10.8242
 253   2.0000      -0.390810       -10.6345
 254   2.0000      -0.390041       -10.6136
 255   2.0000      -0.387929       -10.5561
 256   2.0000      -0.385261       -10.4835
 257   2.0000      -0.381420       -10.3790
 258   2.0000      -0.379980       -10.3398
 259   2.0000      -0.374384       -10.1875
 260   2.0000      -0.370964       -10.0945
 261   2.0000      -0.365094        -9.9347
 262   2.0000      -0.354552        -9.6478
 263   2.0000      -0.348608        -9.4861
 264   2.0000      -0.343332        -9.3425
 265   2.0000      -0.339287        -9.2325
 266   2.0000      -0.329240        -8.9591
 267   2.0000      -0.322068        -8.7639
 268   2.0000      -0.317066        -8.6278
 269   2.0000      -0.314902        -8.5689
 270   2.0000      -0.313865        -8.5407
 271   2.0000      -0.302430        -8.2295
 272   2.0000      -0.292121        -7.9490
 273   2.0000      -0.279678        -7.6104
 274   2.0000      -0.273333        -7.4378
 275   2.0000      -0.266894        -7.2626
 276   2.0000      -0.261592        -7.1183
 277   2.0000      -0.246780        -6.7152
 278   2.0000      -0.227068        -6.1788
 279   0.0000      -0.095665        -2.6032
 280   0.0000      -0.086718        -2.3597
 281   0.0000      -0.057569        -1.5665
 282   0.0000      -0.028785        -0.7833
 283   0.0000      -0.023657        -0.6437

MULLIKEN ATOMIC CHARGES
-----------------------
   0 C :    0.299635
   1 C :   -0.348108
   2 C :   -0.185499
   3 N :    0.148137
   4 C :   -0.201923
   5 N :    0.157772
   6 C :    0.021905
   7 C :   -0.017710
   8 C :   -0.075363
   9 C :    0.120877
  10 C :   -0.090669
  11 C :   -0.024739
  12 S :    0.185608
  13 C :   -0.122415
  14 C :    0.037431
  15 Br:    0.023216
  16 C :    0.138656
  17 O :   -0.144922
  18 C :   -0.072739
  19 C :   -0.033687
  20 C :    0.073577
  21 C :   -0.090447
  22 C :    0.017501
  23 C :    0.116523
  24 C :   -0.065456
  25 C :    0.071526
  26 C :    0.098937
  27 C :    0.027780
  28 C :   -0.131545
  29 C :    0.051458
  30 C :    0.026491
  31 C :    0.078698
  32 C :    0.026399
  33 C :   -0.110647
  34 C :    0.123181
  35 C :   -0.015927
  36 C :   -0.042047
  37 C :   -0.006751
  38 C :   -0.048995
  39 C :    0.034734
  40 C :    0.100395
  41 N :   -0.198226
  42 C :    0.086388
  43 C :    0.014465
  44 C :    0.116737
  45 C :    0.050329
  46 C :    0.059665
  47 C :   -0.045540
  48 C :    0.031485
  49 C :   -0.044738
  50 C :   -0.046309
  51 C :    0.032165
  52 C :   -0.052993
  53 C :    0.046981
  54 C :   -0.069963
  55 C :    0.011840
  56 C :    0.105110
  57 O :   -0.199499
  58 C :    0.119406
  59 C :    0.133149
  60 C :    0.144983
  61 F :   -0.176892
  62 F :   -0.176005
  63 C :    0.046124
  64 C :   -0.051768
  65 C :    0.061588
  66 C :   -0.002234
  67 C :    0.040360
  68 C :   -0.017374
  69 C :    0.060319
  70 C :   -0.027155
  71 C :    0.055738
  72 C :   -0.002177
  73 C :    0.056962
  74 C :   -0.037389
  75 C :    0.011620
  76 C :   -0.025422
  77 H :   -0.010570
  78 H :   -0.005414
  79 H :   -0.002372
  80 H :    0.027192
  81 H :   -0.028704
  82 H :   -0.030938
  83 H :   -0.016505
  84 H :    0.007026
  85 H :    0.001114
  86 H :    0.018933
  87 H :    0.011427
  88 H :    0.021780
  89 H :    0.006039
  90 H :   -0.003788
  91 H :    0.021067
  92 H :    0.015044
  93 H :    0.004650
  94 H :   -0.037451
  95 H :   -0.037406
  96 H :   -0.033681
  97 H :   -0.012687
  98 H :    0.002547
  99 H :    0.023992
 100 H :    0.035140
 101 H :    0.030577
 102 H :    0.023877
 103 H :    0.018761
 104 H :   -0.035939
 105 H :   -0.025779
 106 H :   -0.030266
 107 H :   -0.033750
 108 H :   -0.025532
 109 H :   -0.025820
 110 H :    0.002994
 111 H :   -0.005416
 112 H :   -0.022398
 113 H :   -0.024194
 114 H :   -0.023873
 115 H :   -0.028377
 116 H :   -0.024267
 117 H :   -0.016186
 118 H :   -0.019809
 119 H :    0.006809
 120 H :    0.019578
Sum of atomic charges:   -0.0000000

LOEWDIN ATOMIC CHARGES
----------------------
   0 C :    0.076989
   1 C :   -0.142253
   2 C :   -0.017748
   3 N :   -0.055457
   4 C :   -0.024826
   5 N :   -0.052183
   6 C :   -0.021824
   7 C :   -0.050062
   8 C :    0.021100
   9 C :   -0.032396
  10 C :   -0.143685
  11 C :   -0.010123
  12 S :    0.431758
  13 C :   -0.271342
  14 C :   -0.070830
  15 Br:    0.136482
  16 C :    0.081592
  17 O :   -0.136428
  18 C :   -0.100409
  19 C :    0.086365
  20 C :   -0.045747
  21 C :    0.001718
  22 C :   -0.001746
  23 C :    0.008906
  24 C :   -0.023529
  25 C :    0.027948
  26 C :   -0.024952
  27 C :    0.009213
  28 C :   -0.034463
  29 C :   -0.015373
  30 C :   -0.055942
  31 C :   -0.009248
  32 C :   -0.059451
  33 C :   -0.023909
  34 C :   -0.015768
  35 C :   -0.020419
  36 C :   -0.011032
  37 C :   -0.024238
  38 C :   -0.018519
  39 C :   -0.055670
  40 C :    0.034128
  41 N :    0.018788
  42 C :    0.039320
  43 C :   -0.064076
  44 C :    0.035024
  45 C :   -0.039775
  46 C :   -0.042708
  47 C :   -0.012292
  48 C :   -0.046124
  49 C :   -0.015606
  50 C :   -0.012476
  51 C :   -0.045028
  52 C :   -0.016920
  53 C :   -0.054945
  54 C :   -0.014172
  55 C :   -0.039659
  56 C :   -0.003746
  57 O :    0.019808
  58 C :    0.007984
  59 C :    0.010256
  60 C :    0.015393
  61 F :   -0.050233
  62 F :   -0.050772
  63 C :   -0.075443
  64 C :    0.012181
  65 C :   -0.059988
  66 C :    0.073770
  67 C :   -0.066245
  68 C :    0.049608
  69 C :   -0.062020
  70 C :    0.015855
  71 C :   -0.061049
  72 C :    0.071606
  73 C :   -0.064614
  74 C :    0.037468
  75 C :   -0.020632
  76 C :   -0.056112
  77 H :    0.040659
  78 H :    0.041068
  79 H :    0.038979
  80 H :    0.045141
  81 H :    0.028373
  82 H :    0.029173
  83 H :    0.030820
  84 H :    0.020167
  85 H :    0.021335
  86 H :    0.025043
  87 H :    0.025252
  88 H :    0.025394
  89 H :    0.026973
  90 H :    0.019921
  91 H :    0.024400
  92 H :    0.028496
  93 H :    0.020178
  94 H :    0.024213
  95 H :    0.024292
  96 H :    0.027976
  97 H :    0.027893
  98 H :    0.025998
  99 H :    0.025926
 100 H :    0.033759
 101 H :    0.029940
 102 H :    0.029853
 103 H :    0.023127
 104 H :    0.026292
 105 H :    0.025408
 106 H :    0.025444
 107 H :    0.026814
 108 H :    0.025785
 109 H :    0.026242
 110 H :    0.022875
 111 H :    0.037105
 112 H :    0.025898
 113 H :    0.034970
 114 H :    0.024973
 115 H :    0.023677
 116 H :    0.035019
 117 H :    0.025607
 118 H :    0.029059
 119 H :    0.017337
 120 H :    0.024091

  Mayer bond orders larger than 0.100000
B(  0-C ,  1-C ) :   1.6347 B(  0-C ,  6-C ) :   1.0060 B(  0-C , 18-C ) :   1.0615
B(  1-C ,  2-C ) :   1.1422 B(  1-C ,  4-C ) :   1.1423 B(  2-C ,  3-N ) :   2.9708
B(  4-C ,  5-N ) :   2.9872 B(  6-C ,  7-C ) :   1.2732 B(  6-C , 11-C ) :   1.4032
B(  7-C ,  8-C ) :   1.4222 B(  7-C , 16-C ) :   0.9407 B(  8-C ,  9-C ) :   1.2449
B(  8-C , 77-H ) :   1.0178 B(  9-C , 10-C ) :   1.3050 B(  9-C , 14-C ) :   1.1622
B( 10-C , 11-C ) :   1.3328 B( 10-C , 12-S ) :   1.0847 B( 11-C , 78-H ) :   0.9811
B( 12-S , 13-C ) :   1.0857 B( 13-C , 14-C ) :   1.6183 B( 13-C , 15-Br) :   1.0190
B( 14-C , 79-H ) :   1.0006 B( 16-C , 17-O ) :   2.2278 B( 16-C , 18-C ) :   0.9365
B( 18-C , 19-C ) :   1.5966 B( 19-C , 20-C ) :   1.1028 B( 19-C , 80-H ) :   0.9515
B( 20-C , 21-C ) :   1.2477 B( 20-C , 25-C ) :   1.3454 B( 21-C , 22-C ) :   1.4015
B( 21-C , 81-H ) :   1.0103 B( 22-C , 23-C ) :   1.3600 B( 22-C , 28-C ) :   0.9242
B( 23-C , 24-C ) :   1.3233 B( 23-C , 26-C ) :   1.0070 B( 24-C , 25-C ) :   1.4094
B( 24-C , 82-H ) :   0.9931 B( 25-C , 83-H ) :   0.9752 B( 26-C , 27-C ) :   1.3815
B( 26-C , 36-C ) :   1.3235 B( 27-C , 28-C ) :   0.9197 B( 27-C , 33-C ) :   1.3790
B( 28-C , 29-C ) :   1.0316 B( 28-C , 31-C ) :   1.0145 B( 29-C , 30-C ) :   1.1043
B( 29-C , 84-H ) :   0.9382 B( 29-C , 85-H ) :   0.9394 B( 30-C , 86-H ) :   0.9652
B( 30-C , 87-H ) :   0.9649 B( 30-C , 88-H ) :   0.9630 B( 31-C , 32-C ) :   1.1133
B( 31-C , 89-H ) :   0.9393 B( 31-C , 90-H ) :   0.9371 B( 32-C , 91-H ) :   0.9612
B( 32-C , 92-H ) :   0.9594 B( 32-C , 93-H ) :   0.9637 B( 33-C , 34-C ) :   1.2946
B( 33-C , 94-H ) :   1.0072 B( 34-C , 35-C ) :   1.3518 B( 34-C , 37-C ) :   1.0418
B( 35-C , 36-C ) :   1.3956 B( 35-C , 95-H ) :   0.9842 B( 36-C , 96-H ) :   0.9912
B( 37-C , 38-C ) :   1.7854 B( 37-C , 97-H ) :   0.9769 B( 38-C , 39-C ) :   0.9947
B( 38-C , 98-H ) :   0.9523 B( 39-C , 40-C ) :   1.2964 B( 39-C , 49-C ) :   1.4130
B( 40-C , 41-N ) :   1.1366 B( 40-C , 46-C ) :   1.2871 B( 41-N , 42-C ) :   0.9501
B( 41-N , 44-C ) :   1.1299 B( 42-C , 43-C ) :   1.1088 B( 42-C , 99-H ) :   0.9451
B( 42-C ,100-H ) :   0.9336 B( 43-C ,101-H ) :   0.9569 B( 43-C ,102-H ) :   0.9621
B( 43-C ,103-H ) :   0.9544 B( 44-C , 45-C ) :   1.2873 B( 44-C , 53-C ) :   1.2947
B( 45-C , 46-C ) :   1.0803 B( 45-C , 50-C ) :   1.3452 B( 46-C , 47-C ) :   1.3405
B( 47-C , 48-C ) :   1.3850 B( 47-C ,104-H ) :   0.9981 B( 48-C , 49-C ) :   1.3370
B( 48-C ,105-H ) :   0.9859 B( 49-C ,106-H ) :   0.9901 B( 50-C , 51-C ) :   1.3762
B( 50-C ,107-H ) :   0.9984 B( 51-C , 52-C ) :   1.3432 B( 51-C ,108-H ) :   0.9854
B( 52-C , 53-C ) :   1.3978 B( 52-C ,109-H ) :   0.9916 B( 53-C , 54-C ) :   1.0100
B( 54-C , 55-C ) :   1.7340 B( 54-C ,110-H ) :   0.9644 B( 55-C , 56-C ) :   1.1124
B( 55-C ,111-H ) :   0.9635 B( 56-C , 57-O ) :   1.1069 B( 56-C , 58-C ) :   0.1379
B( 56-C , 60-C ) :   1.4036 B( 57-O , 58-C ) :   1.1667 B( 58-C , 59-C ) :   1.3990
B( 58-C , 63-C ) :   1.0262 B( 59-C , 60-C ) :   1.2020 B( 59-C , 62-F ) :   1.1404
B( 60-C , 61-F ) :   1.1218 B( 63-C , 64-C ) :   1.4769 B( 63-C , 74-C ) :   1.1867
B( 64-C , 65-C ) :   1.0891 B( 64-C ,112-H ) :   1.0282 B( 65-C , 66-C ) :   1.4309
B( 65-C , 73-C ) :   1.1445 B( 66-C , 67-C ) :   1.1420 B( 66-C ,113-H ) :   1.0047
B( 67-C , 68-C ) :   1.4197 B( 67-C , 71-C ) :   1.1372 B( 68-C , 69-C ) :   1.1566
B( 68-C ,114-H ) :   1.0073 B( 69-C , 70-C ) :   1.5006 B( 69-C , 75-C ) :   1.0825
B( 70-C , 71-C ) :   1.0861 B( 70-C ,115-H ) :   1.0165 B( 71-C , 72-C ) :   1.4594
B( 72-C , 73-C ) :   1.1281 B( 72-C ,116-H ) :   1.0044 B( 73-C , 74-C ) :   1.4099
B( 74-C ,117-H ) :   1.0103 B( 75-C , 76-C ) :   1.9351 B( 75-C ,118-H ) :   0.9665
B( 76-C ,119-H ) :   0.9527 B( 76-C ,120-H ) :   0.9496

-----------------------------------------------------------------------------
         ABSORPTION SPECTRUM VIA TRANSITION ELECTRIC DIPOLE MOMENTS
-----------------------------------------------------------------------------
State   Energy  Wavelength   fosc         T2         TX        TY        TZ
        (cm-1)    (nm)                  (au**2)     (au)      (au)      (au)
-----------------------------------------------------------------------------
   0    8264.7   1210.0   0.005236905   0.20860  -0.39002  -0.15145   0.18316
   1   20662.6    484.0   0.073932355   1.17795  -1.04269   0.12791   0.27273
   2   21917.4    456.3   1.291215806  19.39484  -2.52665   3.50438   0.85450
   3   22798.1    438.6   0.380773054   5.49849   1.75823   1.27330  -0.88646
   4   24472.2    408.6   0.051241815   0.68933   0.29424  -0.77630  -0.01084
   5   25289.6    395.4   0.114557529   1.49127   0.52554   0.77376  -0.78510
   6   27172.2    368.0   1.688245474  20.45436   3.38758   1.93971  -2.28391
   7   27261.6    366.8   0.030815977   0.37213  -0.34292  -0.31695   0.39254
   8   27875.5    358.7   0.169364868   2.00021   0.47758   1.28012  -0.36527
   9   28647.8    349.1   0.371083544   4.26439  -0.97210  -1.71951  -0.60225
  10   28974.6    345.1   0.206419092   2.34535  -1.37426  -0.35857   0.57288
  11   30011.7    333.2   0.326706091   3.58379  -0.17819  -1.88264  -0.08776
  12   30425.5    328.7   0.077437495   0.83789   0.73614  -0.51044  -0.18827
  13   30513.9    327.7   0.052908234   0.57082   0.70863  -0.25968  -0.03518
  14   30772.3    325.0   0.008291444   0.08870  -0.25247  -0.14644   0.05930
  15   31589.6    316.6   0.186748398   1.94620   1.16816  -0.71263  -0.27159
  16   31989.3    312.6   0.130253052   1.34048   0.07861   1.12838   0.24710
  17   32032.3    312.2   0.029510620   0.30330  -0.54590   0.06841  -0.02476
  18   32399.4    308.6   0.100768408   1.02391   0.79501  -0.62506  -0.03423
  19   32971.4    303.3   0.097368877   0.97221   0.33463   0.91638   0.14309
  20   33484.9    298.6   0.024506045   0.24094  -0.35346  -0.06884   0.33356
  21   33588.8    297.7   0.004401145   0.04314   0.04896   0.16764   0.11241
  22   33909.1    294.9   0.009838608   0.09552   0.06296   0.29371   0.07274
  23   33977.1    294.3   0.618262928   5.99050  -1.79353  -1.55031  -0.60852
  24   34801.5    287.3   0.039261030   0.37140  -0.31388   0.52076  -0.04102
  25   35037.8    285.4   0.011808719   0.11095  -0.22564  -0.13302   0.20578
  26   35699.8    280.1   0.194358668   1.79231  -0.96321  -0.91839   0.14526
  27   35928.8    278.3   0.040632759   0.37231  -0.38946  -0.37737  -0.27969
  28   36287.9    275.6   0.480121301   4.35577   1.42095  -1.52861   0.00014
  29   36520.7    273.8   0.313606480   2.82697   1.54987  -0.64711   0.07815
  30   36842.7    271.4   0.198963558   1.77786  -1.28166   0.36226   0.06312
  31   36946.3    270.7   0.003122624   0.02782   0.10906   0.01023  -0.12580
  32   37621.5    265.8   0.011629446   0.10176   0.30125  -0.08634  -0.05966
  33   37835.0    264.3   0.076089285   0.66207   0.34433  -0.44575  -0.58721
  34   38472.0    259.9   0.001344530   0.01151  -0.03833  -0.09074   0.04247
  35   38771.8    257.9   0.002452253   0.02082  -0.06409   0.00883   0.12899
  36   38994.5    256.4   0.060208275   0.50831  -0.08621  -0.62096   0.33954
  37   39305.7    254.4   0.040800064   0.34173  -0.35185   0.23310  -0.40447
  38   39617.3    252.4   0.346468027   2.87908   1.24276  -1.12329  -0.26990
  39   39949.8    250.3   0.029319553   0.24161   0.17104  -0.44664   0.11347
  40   40186.7    248.8   0.012320441   0.10093  -0.22206  -0.22538   0.02866

FINAL SINGLE POINT ENERGY     -6100.081422779872

DIPOLE MOMENT
-------------
                                X             Y             Z
Electronic contribution:     68.20059    -224.14139     -49.02060
Nuclear contribution   :    -71.06141     224.50770      48.77415
                        -----------------------------------------
Total Dipole Moment    :     -2.86081       0.36631      -0.24645
                        -----------------------------------------
Magnitude (a.u.)       :      2.89468
Magnitude (Debye)      :      7.35769

Rotational constants in cm-1:     0.000631     0.000194     0.000154
Rotational constants in MHz :    18.914621     5.820498     4.626943

                             ****ORCA TERMINATED NORMALLY****
TOTAL RUN TIME: 0 days 0 hours 12 minutes 33 seconds 601 msec
