                         Program Version 4.2.0 -  RELEASE  -
|  1> # ORCA input file
|  2> # SCF done       -155.074958671089          0.000465107052
|  3> ! CAM-B3LYP def2-SVP def2/J RIJCOSX Grid4 TightSCF
|  4> %maxcore 5000
|  5> %tddft
|  6>     Mode sTDDFT
|  7>     Ethresh 5.0
|  8>     maxcore 5000
|  9> end
| 10>
| 11> %pal
| 12>   nprocs 6
| 13>   end
| 14> * xyz 0 1
| 15>    C       -6.49516         6.78142         2.50837
| 16>    C       -5.49174         7.45101         1.86038
| 17>    C       -5.47205         8.84850         1.66152
| 18>    N       -5.39235         9.97767         1.47124
| 19>    C       -4.32369         6.86916         1.32299
| 20>    N       -3.34534         6.48039         0.86395
| 21>    C       -7.67894         7.39594         3.09329
| 22>    C       -8.42961         6.40219         3.76814
| 23>    C       -9.59967         6.67786         4.43293
| 24>    C      -10.05856         7.99859         4.42585
| 25>    C       -9.30426         8.98642         3.74701
| 26>    C       -8.11940         8.70869         3.07930
| 27>    S      -10.04707        10.55313         3.86993
| 28>    C      -11.34096         9.86917         4.81804
| 29>    C      -11.22637         8.53681         5.03176
| 30>   Br      -12.71983        10.97873         5.43724
| 31>    C       -7.73854         5.10284         3.65818
| 32>    O       -8.01165         4.08979         4.25806
| 33>    C       -6.57812         5.34378         2.75314
| 34>    C       -5.74192         4.39714         2.27047
| 35>    C       -5.88107         2.95570         2.39399
| 36>    C       -4.78115         2.17711         2.40276
| 37>    C       -7.17009         2.38448         2.43119
| 38>    C       -8.26233         1.86154         2.38494
| 39>    C       -9.53328         1.29924         2.36440
| 40>    C      -10.59705         1.93246         1.81473
| 41>    C      -11.90526         1.39427         1.77478
| 42>    S      -12.32495        -0.14749         2.48011
| 43>    C      -14.00443        -0.03676         2.01146
| 44>    C      -14.21554         1.16376         1.32529
| 45>    C      -13.03815         1.94790         1.20622
| 46>    S      -13.39368         3.41398         0.35160
| 47>    C      -15.05666         2.84668         0.23431
| 48>    N      -15.32179         1.71550         0.76150
| 49>    C      -14.89311        -1.05945         2.36197
| 50>    C      -16.22857        -1.06077         2.03321
| 51>    C      -17.18063        -2.01931         2.39521
| 52>    C      -17.03937        -3.12492         3.21513
| 53>    C      -18.06676        -4.03818         3.54975
| 54>    C      -17.68925        -5.03597         4.40541
| 55>    C      -16.33809        -4.96093         4.78931
| 56>    S      -15.56522        -3.59118         4.03146
| 57>    C      -15.57854        -5.76577         5.62587
| 58>    C      -15.91114        -6.91720         6.36345
| 59>    C      -14.86452        -7.42953         7.07623
| 60>    C      -13.65049        -6.70967         6.93451
| 61>    S      -13.89883        -5.35207         5.86094
| 62>    C      -12.45429        -7.00784         7.54320
| 63>    C      -11.23322        -6.31896         7.41196
| 64>    S       -9.83655        -6.84239         8.34908
| 65>    C       -8.78736        -5.62951         7.72581
| 66>    C       -9.46042        -4.83793         6.82608
| 67>    C      -10.82671        -5.23022         6.65524
| 68>    O      -11.43297        -4.42930         5.75528
| 69>    C      -10.49260        -3.53702         5.35503
| 70>    N      -10.89305        -2.58082         4.40329
| 71>    O      -10.05066        -1.78079         4.02932
| 72>    O      -12.04439        -2.61047         4.01394
| 73>    C       -9.27605        -3.72449         5.96123
| 74>    H      -10.14302         5.89663         4.94087
| 75>    H       -7.58292         9.49721         2.57892
| 76>    H      -11.93377         7.95585         5.59482
| 77>    H       -4.86387         4.70969         1.72019
| 78>    H       -3.79429         2.60343         2.34235
| 79>    H       -4.85662         1.10890         2.50461
| 80>    H       -9.64544         0.31956         2.81365
| 81>    H      -10.47336         2.90938         1.36248
| 82>    H      -15.78486         3.45382        -0.26624
| 83>    H      -14.44863        -1.87076         2.91836
| 84>    H      -16.58253        -0.23278         1.43323
| 85>    H      -18.17892        -1.87314         2.00037
| 86>    H      -19.06049        -3.93199         3.15024
| 87>    H      -18.34448        -5.80987         4.76379
| 88>    H      -16.90121        -7.33757         6.35303
| 89>    H      -14.92474        -8.30463         7.69913
| 90>    H      -12.43952        -7.86331         8.20479
| 91>    H       -7.77010        -5.57901         8.05144
| 92>    H       -8.39284        -3.14233         5.79956
| 93> *
| 94>
| 95>                          ****END OF INPUT****

CARTESIAN COORDINATES (ANGSTROEM)
---------------------------------
  C     -6.495160    6.781420    2.508370
  C     -5.491740    7.451010    1.860380
  C     -5.472050    8.848500    1.661520
  N     -5.392350    9.977670    1.471240
  C     -4.323690    6.869160    1.322990
  N     -3.345340    6.480390    0.863950
  C     -7.678940    7.395940    3.093290
  C     -8.429610    6.402190    3.768140
  C     -9.599670    6.677860    4.432930
  C    -10.058560    7.998590    4.425850
  C     -9.304260    8.986420    3.747010
  C     -8.119400    8.708690    3.079300
  S    -10.047070   10.553130    3.869930
  C    -11.340960    9.869170    4.818040
  C    -11.226370    8.536810    5.031760
  Br   -12.719830   10.978730    5.437240
  C     -7.738540    5.102840    3.658180
  O     -8.011650    4.089790    4.258060
  C     -6.578120    5.343780    2.753140
  C     -5.741920    4.397140    2.270470
  C     -5.881070    2.955700    2.393990
  C     -4.781150    2.177110    2.402760
  C     -7.170090    2.384480    2.431190
  C     -8.262330    1.861540    2.384940
  C     -9.533280    1.299240    2.364400
  C    -10.597050    1.932460    1.814730
  C    -11.905260    1.394270    1.774780
  S    -12.324950   -0.147490    2.480110
  C    -14.004430   -0.036760    2.011460
  C    -14.215540    1.163760    1.325290
  C    -13.038150    1.947900    1.206220
  S    -13.393680    3.413980    0.351600
  C    -15.056660    2.846680    0.234310
  N    -15.321790    1.715500    0.761500
  C    -14.893110   -1.059450    2.361970
  C    -16.228570   -1.060770    2.033210
  C    -17.180630   -2.019310    2.395210
  C    -17.039370   -3.124920    3.215130
  C    -18.066760   -4.038180    3.549750
  C    -17.689250   -5.035970    4.405410
  C    -16.338090   -4.960930    4.789310
  S    -15.565220   -3.591180    4.031460
  C    -15.578540   -5.765770    5.625870
  C    -15.911140   -6.917200    6.363450
  C    -14.864520   -7.429530    7.076230
  C    -13.650490   -6.709670    6.934510
  S    -13.898830   -5.352070    5.860940
  C    -12.454290   -7.007840    7.543200
  C    -11.233220   -6.318960    7.411960
  S     -9.836550   -6.842390    8.349080
  C     -8.787360   -5.629510    7.725810
  C     -9.460420   -4.837930    6.826080
  C    -10.826710   -5.230220    6.655240
  O    -11.432970   -4.429300    5.755280
  C    -10.492600   -3.537020    5.355030
  N    -10.893050   -2.580820    4.403290
  O    -10.050660   -1.780790    4.029320
  O    -12.044390   -2.610470    4.013940
  C     -9.276050   -3.724490    5.961230
  H    -10.143020    5.896630    4.940870
  H     -7.582920    9.497210    2.578920
  H    -11.933770    7.955850    5.594820
  H     -4.863870    4.709690    1.720190
  H     -3.794290    2.603430    2.342350
  H     -4.856620    1.108900    2.504610
  H     -9.645440    0.319560    2.813650
  H    -10.473360    2.909380    1.362480
  H    -15.784860    3.453820   -0.266240
  H    -14.448630   -1.870760    2.918360
  H    -16.582530   -0.232780    1.433230
  H    -18.178920   -1.873140    2.000370
  H    -19.060490   -3.931990    3.150240
  H    -18.344480   -5.809870    4.763790
  H    -16.901210   -7.337570    6.353030
  H    -14.924740   -8.304630    7.699130
  H    -12.439520   -7.863310    8.204790
  H     -7.770100   -5.579010    8.051440
  H     -8.392840   -3.142330    5.799560

 Total Charge           Charge          ....    0
 Multiplicity           Mult            ....    1
 Number of Electrons    NEL             ....  474
 Basis Dimension        Dim             ....  963

ORBITAL ENERGIES
----------------

  NO   OCC          E(Eh)            E(eV)
   0   2.0000    -482.885776    -13139.9900
   1   2.0000     -88.975392     -2421.1435
   2   2.0000     -88.975181     -2421.1378
   3   2.0000     -88.954066     -2420.5632
   4   2.0000     -88.945086     -2420.3188
   5   2.0000     -88.938436     -2420.1379
   6   2.0000     -88.935098     -2420.0471
   7   2.0000     -62.563501     -1702.4394
   8   2.0000     -56.397454     -1534.6527
   9   2.0000     -56.394730     -1534.5786
  10   2.0000     -56.394702     -1534.5778
  11   2.0000     -19.309360      -525.4344
  12   2.0000     -19.255425      -523.9668
  13   2.0000     -19.253646      -523.9183
  14   2.0000     -19.213518      -522.8264
  15   2.0000     -14.665822      -399.0773
  16   2.0000     -14.418238      -392.3402
  17   2.0000     -14.416885      -392.3034
  18   2.0000     -14.410449      -392.1283
  19   2.0000     -10.392389      -282.7913
  20   2.0000     -10.363804      -282.0134
  21   2.0000     -10.359482      -281.8958
  22   2.0000     -10.348117      -281.5866
  23   2.0000     -10.345106      -281.5047
  24   2.0000     -10.343888      -281.4715
  25   2.0000     -10.331776      -281.1419
  26   2.0000     -10.325829      -280.9801
  27   2.0000     -10.320745      -280.8417
  28   2.0000     -10.320534      -280.8360
  29   2.0000     -10.319531      -280.8087
  30   2.0000     -10.317843      -280.7628
  31   2.0000     -10.315920      -280.7105
  32   2.0000     -10.312257      -280.6108
  33   2.0000     -10.308888      -280.5191
  34   2.0000     -10.308352      -280.5045
  35   2.0000     -10.308338      -280.5041
  36   2.0000     -10.308232      -280.5013
  37   2.0000     -10.306385      -280.4510
  38   2.0000     -10.304590      -280.4021
  39   2.0000     -10.301013      -280.3048
  40   2.0000     -10.300779      -280.2984
  41   2.0000     -10.300611      -280.2939
  42   2.0000     -10.300148      -280.2813
  43   2.0000     -10.296939      -280.1940
  44   2.0000     -10.296696      -280.1873
  45   2.0000     -10.296478      -280.1814
  46   2.0000     -10.296001      -280.1684
  47   2.0000     -10.295594      -280.1573
  48   2.0000     -10.295177      -280.1460
  49   2.0000     -10.291978      -280.0589
  50   2.0000     -10.288513      -279.9647
  51   2.0000     -10.286862      -279.9197
  52   2.0000     -10.285313      -279.8776
  53   2.0000     -10.281118      -279.7634
  54   2.0000     -10.280620      -279.7499
  55   2.0000     -10.279974      -279.7323
  56   2.0000     -10.279165      -279.7103
  57   2.0000     -10.275358      -279.6067
  58   2.0000     -10.272068      -279.5172
  59   2.0000     -10.270041      -279.4620
  60   2.0000     -10.261400      -279.2269
  61   2.0000     -10.259826      -279.1841
  62   2.0000     -10.256662      -279.0980
  63   2.0000      -8.792938      -239.2680
  64   2.0000      -8.071483      -219.6362
  65   2.0000      -8.070199      -219.6013
  66   2.0000      -8.050312      -219.0601
  67   2.0000      -8.039805      -218.7742
  68   2.0000      -8.034310      -218.6247
  69   2.0000      -8.031614      -218.5513
  70   2.0000      -6.629267      -180.3915
  71   2.0000      -6.614667      -179.9942
  72   2.0000      -6.614448      -179.9883
  73   2.0000      -6.041174      -164.3887
  74   2.0000      -6.039547      -164.3444
  75   2.0000      -6.036906      -164.2726
  76   2.0000      -6.035239      -164.2272
  77   2.0000      -6.032657      -164.1569
  78   2.0000      -6.032460      -164.1516
  79   2.0000      -6.019738      -163.8054
  80   2.0000      -6.015792      -163.6980
  81   2.0000      -6.011778      -163.5888
  82   2.0000      -6.009045      -163.5144
  83   2.0000      -6.004938      -163.4027
  84   2.0000      -6.003997      -163.3771
  85   2.0000      -6.001878      -163.3194
  86   2.0000      -6.001355      -163.3052
  87   2.0000      -5.999782      -163.2624
  88   2.0000      -5.997174      -163.1914
  89   2.0000      -5.995479      -163.1453
  90   2.0000      -5.992353      -163.0602
  91   2.0000      -2.745089       -74.6977
  92   2.0000      -2.741073       -74.5884
  93   2.0000      -2.740884       -74.5832
  94   2.0000      -2.729287       -74.2677
  95   2.0000      -2.729268       -74.2672
  96   2.0000      -1.335774       -36.3482
  97   2.0000      -1.233487       -33.5649
  98   2.0000      -1.150994       -31.3202
  99   2.0000      -1.129382       -30.7321
 100   2.0000      -1.061883       -28.8953
 101   2.0000      -1.023596       -27.8535
 102   2.0000      -1.014684       -27.6110
 103   2.0000      -0.997115       -27.1329
 104   2.0000      -0.995991       -27.1023
 105   2.0000      -0.990092       -26.9418
 106   2.0000      -0.989712       -26.9314
 107   2.0000      -0.968341       -26.3499
 108   2.0000      -0.966566       -26.3016
 109   2.0000      -0.946518       -25.7561
 110   2.0000      -0.941124       -25.6093
 111   2.0000      -0.928257       -25.2591
 112   2.0000      -0.909700       -24.7542
 113   2.0000      -0.909097       -24.7378
 114   2.0000      -0.902302       -24.5529
 115   2.0000      -0.888735       -24.1837
 116   2.0000      -0.886268       -24.1166
 117   2.0000      -0.885292       -24.0900
 118   2.0000      -0.880854       -23.9693
 119   2.0000      -0.874276       -23.7902
 120   2.0000      -0.851635       -23.1742
 121   2.0000      -0.839910       -22.8551
 122   2.0000      -0.835098       -22.7242
 123   2.0000      -0.829047       -22.5595
 124   2.0000      -0.823986       -22.4218
 125   2.0000      -0.816672       -22.2228
 126   2.0000      -0.814976       -22.1766
 127   2.0000      -0.806717       -21.9519
 128   2.0000      -0.796629       -21.6774
 129   2.0000      -0.781775       -21.2732
 130   2.0000      -0.770938       -20.9783
 131   2.0000      -0.761284       -20.7156
 132   2.0000      -0.757794       -20.6206
 133   2.0000      -0.738224       -20.0881
 134   2.0000      -0.714693       -19.4478
 135   2.0000      -0.712017       -19.3750
 136   2.0000      -0.705093       -19.1865
 137   2.0000      -0.696766       -18.9600
 138   2.0000      -0.690949       -18.8017
 139   2.0000      -0.685063       -18.6415
 140   2.0000      -0.680164       -18.5082
 141   2.0000      -0.671375       -18.2691
 142   2.0000      -0.665859       -18.1189
 143   2.0000      -0.665257       -18.1026
 144   2.0000      -0.658183       -17.9101
 145   2.0000      -0.653586       -17.7850
 146   2.0000      -0.648940       -17.6586
 147   2.0000      -0.634831       -17.2746
 148   2.0000      -0.630907       -17.1679
 149   2.0000      -0.625209       -17.0128
 150   2.0000      -0.620813       -16.8932
 151   2.0000      -0.619554       -16.8589
 152   2.0000      -0.613940       -16.7062
 153   2.0000      -0.612215       -16.6592
 154   2.0000      -0.608964       -16.5707
 155   2.0000      -0.599297       -16.3077
 156   2.0000      -0.597782       -16.2665
 157   2.0000      -0.586928       -15.9711
 158   2.0000      -0.580109       -15.7856
 159   2.0000      -0.575286       -15.6543
 160   2.0000      -0.569394       -15.4940
 161   2.0000      -0.565697       -15.3934
 162   2.0000      -0.554526       -15.0894
 163   2.0000      -0.552727       -15.0405
 164   2.0000      -0.549134       -14.9427
 165   2.0000      -0.542670       -14.7668
 166   2.0000      -0.539611       -14.6836
 167   2.0000      -0.537813       -14.6346
 168   2.0000      -0.536006       -14.5855
 169   2.0000      -0.530442       -14.4341
 170   2.0000      -0.526734       -14.3332
 171   2.0000      -0.524827       -14.2813
 172   2.0000      -0.520310       -14.1584
 173   2.0000      -0.518094       -14.0981
 174   2.0000      -0.514755       -14.0072
 175   2.0000      -0.513263       -13.9666
 176   2.0000      -0.508543       -13.8381
 177   2.0000      -0.507304       -13.8044
 178   2.0000      -0.505775       -13.7628
 179   2.0000      -0.497382       -13.5344
 180   2.0000      -0.493460       -13.4277
 181   2.0000      -0.493184       -13.4202
 182   2.0000      -0.492516       -13.4020
 183   2.0000      -0.486956       -13.2507
 184   2.0000      -0.483785       -13.1645
 185   2.0000      -0.481256       -13.0956
 186   2.0000      -0.476011       -12.9529
 187   2.0000      -0.472579       -12.8595
 188   2.0000      -0.466415       -12.6918
 189   2.0000      -0.464373       -12.6362
 190   2.0000      -0.457396       -12.4464
 191   2.0000      -0.457228       -12.4418
 192   2.0000      -0.452723       -12.3192
 193   2.0000      -0.450513       -12.2591
 194   2.0000      -0.448539       -12.2054
 195   2.0000      -0.447079       -12.1656
 196   2.0000      -0.446914       -12.1612
 197   2.0000      -0.444470       -12.0946
 198   2.0000      -0.440122       -11.9763
 199   2.0000      -0.439804       -11.9677
 200   2.0000      -0.436871       -11.8879
 201   2.0000      -0.435043       -11.8381
 202   2.0000      -0.430929       -11.7262
 203   2.0000      -0.428407       -11.6575
 204   2.0000      -0.424653       -11.5554
 205   2.0000      -0.421238       -11.4625
 206   2.0000      -0.419228       -11.4078
 207   2.0000      -0.416220       -11.3259
 208   2.0000      -0.410452       -11.1690
 209   2.0000      -0.409222       -11.1355
 210   2.0000      -0.408603       -11.1186
 211   2.0000      -0.405936       -11.0461
 212   2.0000      -0.392506       -10.6806
 213   2.0000      -0.389658       -10.6031
 214   2.0000      -0.384828       -10.4717
 215   2.0000      -0.383962       -10.4481
 216   2.0000      -0.379117       -10.3163
 217   2.0000      -0.375832       -10.2269
 218   2.0000      -0.375107       -10.2072
 219   2.0000      -0.372188       -10.1277
 220   2.0000      -0.364064        -9.9067
 221   2.0000      -0.356773        -9.7083
 222   2.0000      -0.344273        -9.3681
 223   2.0000      -0.341880        -9.3030
 224   2.0000      -0.334625        -9.1056
 225   2.0000      -0.328622        -8.9423
 226   2.0000      -0.325730        -8.8636
 227   2.0000      -0.322502        -8.7757
 228   2.0000      -0.316748        -8.6191
 229   2.0000      -0.315608        -8.5881
 230   2.0000      -0.312311        -8.4984
 231   2.0000      -0.301611        -8.2073
 232   2.0000      -0.299586        -8.1521
 233   2.0000      -0.293448        -7.9851
 234   2.0000      -0.275889        -7.5073
 235   2.0000      -0.237821        -6.4714
 236   2.0000      -0.195730        -5.3261
 237   0.0000      -0.088718        -2.4142
 238   0.0000      -0.087611        -2.3840
 239   0.0000      -0.068907        -1.8751
 240   0.0000      -0.054460        -1.4819
 241   0.0000      -0.036817        -1.0018

MULLIKEN ATOMIC CHARGES
-----------------------
   0 C :    0.312011
   1 C :   -0.348498
   2 C :   -0.184746
   3 N :    0.150719
   4 C :   -0.185786
   5 N :    0.154936
   6 C :    0.012216
   7 C :   -0.012056
   8 C :   -0.070565
   9 C :    0.119060
  10 C :   -0.088705
  11 C :   -0.019595
  12 S :    0.186108
  13 C :   -0.123389
  14 C :    0.038742
  15 Br:    0.025180
  16 C :    0.127574
  17 O :   -0.116241
  18 C :   -0.043629
  19 C :   -0.028017
  20 C :   -0.039359
  21 C :    0.018296
  22 C :    0.027439
  23 C :    0.010124
  24 C :   -0.104945
  25 C :    0.024961
  26 C :   -0.180464
  27 S :    0.160549
  28 C :   -0.152103
  29 C :    0.066117
  30 C :    0.007371
  31 S :    0.080656
  32 C :    0.013176
  33 N :   -0.043291
  34 C :    0.017011
  35 C :    0.003018
  36 C :    0.014124
  37 C :   -0.029651
  38 C :    0.040917
  39 C :    0.016946
  40 C :   -0.024128
  41 S :    0.056593
  42 C :   -0.033439
  43 C :    0.038665
  44 C :    0.024782
  45 C :   -0.025773
  46 S :    0.077120
  47 C :    0.042502
  48 C :   -0.224099
  49 S :    0.146755
  50 C :   -0.140610
  51 C :    0.126582
  52 C :    0.190189
  53 O :   -0.194436
  54 C :    0.250840
  55 N :    0.304838
  56 O :   -0.249066
  57 O :   -0.228224
  58 C :   -0.080624
  59 H :   -0.006154
  60 H :   -0.006605
  61 H :   -0.000720
  62 H :    0.020912
  63 H :    0.035119
  64 H :    0.039564
  65 H :    0.037298
  66 H :   -0.010156
  67 H :    0.039238
  68 H :   -0.000142
  69 H :   -0.001706
  70 H :   -0.018216
  71 H :   -0.014774
  72 H :   -0.017786
  73 H :   -0.015039
  74 H :   -0.015979
  75 H :   -0.025081
  76 H :    0.031558
  77 H :    0.013986
Sum of atomic charges:   -0.0000000

LOEWDIN ATOMIC CHARGES
----------------------
   0 C :    0.078636
   1 C :   -0.135422
   2 C :   -0.017208
   3 N :   -0.050406
   4 C :   -0.020551
   5 N :   -0.047716
   6 C :   -0.023866
   7 C :   -0.048525
   8 C :    0.021766
   9 C :   -0.030045
  10 C :   -0.143902
  11 C :   -0.008573
  12 S :    0.431865
  13 C :   -0.270171
  14 C :   -0.070012
  15 Br:    0.138235
  16 C :    0.079957
  17 O :   -0.107870
  18 C :   -0.078316
  19 C :    0.082441
  20 C :   -0.044876
  21 C :    0.026437
  22 C :   -0.044536
  23 C :   -0.016193
  24 C :   -0.049395
  25 C :   -0.018137
  26 C :   -0.203151
  27 S :    0.484724
  28 C :   -0.164029
  29 C :   -0.072039
  30 C :   -0.201176
  31 S :    0.365164
  32 C :   -0.099950
  33 N :   -0.081699
  34 C :   -0.045682
  35 C :   -0.030889
  36 C :   -0.049533
  37 C :   -0.152595
  38 C :   -0.025713
  39 C :   -0.047943
  40 C :   -0.172415
  41 S :    0.408467
  42 C :   -0.188099
  43 C :   -0.028672
  44 C :   -0.041619
  45 C :   -0.140506
  46 S :    0.401945
  47 C :   -0.097505
  48 C :   -0.194278
  49 S :    0.472056
  50 C :   -0.193663
  51 C :   -0.080984
  52 C :    0.006202
  53 O :   -0.000769
  54 C :    0.023976
  55 N :    0.283593
  56 O :   -0.210783
  57 O :   -0.193004
  58 C :   -0.003102
  59 H :    0.042433
  60 H :    0.040883
  61 H :    0.039801
  62 H :    0.046457
  63 H :    0.031061
  64 H :    0.036142
  65 H :    0.037441
  66 H :    0.033939
  67 H :    0.018627
  68 H :    0.012298
  69 H :    0.032905
  70 H :    0.034299
  71 H :    0.032440
  72 H :    0.030428
  73 H :    0.031849
  74 H :    0.030987
  75 H :    0.032204
  76 H :    0.028197
  77 H :    0.047661

  Mayer bond orders larger than 0.100000
B(  0-C ,  1-C ) :   1.6459 B(  0-C ,  6-C ) :   1.0132 B(  0-C , 18-C ) :   1.0463
B(  1-C ,  2-C ) :   1.1392 B(  1-C ,  4-C ) :   1.1417 B(  2-C ,  3-N ) :   2.9713
B(  4-C ,  5-N ) :   2.9681 B(  6-C ,  7-C ) :   1.2716 B(  6-C , 11-C ) :   1.3984
B(  7-C ,  8-C ) :   1.4204 B(  7-C , 16-C ) :   0.9333 B(  8-C ,  9-C ) :   1.2502
B(  8-C , 59-H ) :   1.0171 B(  9-C , 10-C ) :   1.2988 B(  9-C , 14-C ) :   1.1632
B( 10-C , 11-C ) :   1.3421 B( 10-C , 12-S ) :   1.0840 B( 11-C , 60-H ) :   0.9798
B( 12-S , 13-C ) :   1.0869 B( 13-C , 14-C ) :   1.6167 B( 13-C , 15-Br) :   1.0196
B( 14-C , 61-H ) :   1.0008 B( 16-C , 17-O ) :   2.2598 B( 16-C , 18-C ) :   0.9109
B( 18-C , 19-C ) :   1.7046 B( 19-C , 20-C ) :   1.0660 B( 19-C , 62-H ) :   0.9393
B( 20-C , 21-C ) :   1.8625 B( 20-C , 22-C ) :   0.8882 B( 21-C , 63-H ) :   0.9483
B( 21-C , 64-H ) :   0.9480 B( 22-C , 23-C ) :   2.3022 B( 23-C , 24-C ) :   1.0001
B( 24-C , 25-C ) :   1.6845 B( 24-C , 65-H ) :   0.9413 B( 25-C , 26-C ) :   1.1794
B( 25-C , 66-H ) :   0.9757 B( 26-C , 27-S ) :   1.1048 B( 26-C , 28-C ) :   0.1090
B( 26-C , 30-C ) :   1.4682 B( 27-S , 28-C ) :   1.1339 B( 28-C , 29-C ) :   1.3586
B( 28-C , 34-C ) :   1.2496 B( 29-C , 30-C ) :   1.2724 B( 29-C , 33-N ) :   1.2995
B( 30-C , 31-S ) :   1.0389 B( 31-S , 32-C ) :   1.0851 B( 31-S , 33-N ) :   0.1074
B( 32-C , 33-N ) :   1.7764 B( 32-C , 67-H ) :   0.9636 B( 34-C , 35-C ) :   1.5400
B( 34-C , 68-H ) :   0.9243 B( 35-C , 36-C ) :   1.2506 B( 35-C , 69-H ) :   0.9567
B( 36-C , 37-C ) :   1.5076 B( 36-C , 70-H ) :   0.9652 B( 37-C , 38-C ) :   1.1767
B( 37-C , 41-S ) :   1.0438 B( 38-C , 39-C ) :   1.5572 B( 38-C , 71-H ) :   0.9978
B( 39-C , 40-C ) :   1.2104 B( 39-C , 72-H ) :   0.9948 B( 40-C , 41-S ) :   1.0566
B( 40-C , 42-C ) :   1.4651 B( 42-C , 43-C ) :   1.2051 B( 42-C , 46-S ) :   1.0376
B( 43-C , 44-C ) :   1.5725 B( 43-C , 73-H ) :   0.9943 B( 44-C , 45-C ) :   1.1541
B( 44-C , 74-H ) :   0.9994 B( 45-C , 46-S ) :   1.0546 B( 45-C , 47-C ) :   1.5766
B( 47-C , 48-C ) :   1.1622 B( 47-C , 75-H ) :   0.9457 B( 48-C , 49-S ) :   1.1329
B( 48-C , 50-C ) :   0.1072 B( 48-C , 52-C ) :   1.4180 B( 49-S , 50-C ) :   1.1778
B( 50-C , 51-C ) :   1.4280 B( 50-C , 76-H ) :   0.9762 B( 51-C , 52-C ) :   1.2332
B( 51-C , 58-C ) :   1.0709 B( 52-C , 53-O ) :   1.0834 B( 53-O , 54-C ) :   1.1192
B( 54-C , 55-N ) :   0.9238 B( 54-C , 58-C ) :   1.5627 B( 55-N , 56-O ) :   1.4906
B( 55-N , 57-O ) :   1.4839 B( 56-O , 57-O ) :   0.2704 B( 58-C , 77-H ) :   1.0261

-----------------------------------------------------------------------------
         ABSORPTION SPECTRUM VIA TRANSITION ELECTRIC DIPOLE MOMENTS
-----------------------------------------------------------------------------
State   Energy  Wavelength   fosc         T2         TX        TY        TZ
        (cm-1)    (nm)                  (au**2)     (au)      (au)      (au)
-----------------------------------------------------------------------------
   0    8934.2   1119.3   0.181711901   6.69582   0.57279  -1.98885   1.55313
   1   12024.5    831.6   0.551888464  15.10982  -0.38471  -3.23856   2.11507
   2   13071.7    765.0   0.016802844   0.42318  -0.27767   0.56257  -0.17203
   3   17829.8    560.9   0.056124903   1.03630   0.96625   0.27770   0.15985
   4   19164.7    521.8   0.040839677   0.70155   0.81981  -0.15453   0.07474
   5   19458.3    513.9   0.093722664   1.58568   1.13874   0.49035   0.22025
   6   20833.0    480.0   0.020513775   0.32417   0.13073   0.54553   0.09731
   7   22277.8    448.9   1.599476688  23.63634  -4.54999  -1.60108  -0.60868
   8   25487.5    392.3   0.074739123   0.96537   0.92160   0.22044   0.25968
   9   26481.7    377.6   0.001584423   0.01970  -0.12702   0.04780   0.03575
  10   27093.1    369.1   0.005483310   0.06663   0.06678  -0.15722  -0.19353
  11   28034.8    356.7   0.099804058   1.17200  -0.95451   0.08635   0.50344
  12   28209.1    354.5   0.245462231   2.86464   1.45743  -0.58526  -0.63088
  13   28333.3    352.9   0.058520202   0.67996   0.27005  -0.09945  -0.77275
  14   29007.6    344.7   0.131288698   1.49002   0.40366  -1.14986   0.06991
  15   29901.5    334.4   0.032967534   0.36297   0.57016   0.16935  -0.09599
  16   30079.0    332.5   0.139726829   1.52930   0.49191  -0.89989   0.69103
  17   30230.8    330.8   0.056060156   0.61049   0.36540   0.47594  -0.50046
  18   30662.8    326.1   0.032329272   0.34710  -0.22847  -0.46830   0.27497
  19   31072.4    321.8   0.008557680   0.09067  -0.14347   0.19592  -0.17805
  20   31352.3    319.0   0.026705243   0.28042   0.18278  -0.42331   0.26041
  21   31694.7    315.5   0.109623214   1.13865   0.65120  -0.56986   0.62438
  22   32523.6    307.5   0.086609419   0.87668  -0.91337  -0.13770  -0.15324
  23   33117.9    302.0   0.015919086   0.15825   0.08629  -0.38124  -0.07388
  24   33160.2    301.6   0.014639675   0.14534   0.32139  -0.07393  -0.19127
  25   33227.1    301.0   0.003816721   0.03782  -0.02991   0.17001  -0.08955
  26   33421.8    299.2   0.110661079   1.09003  -0.26220  -0.98752   0.21469
  27   33572.6    297.9   0.075071871   0.73615  -0.18151   0.59154  -0.59438
  28   33912.4    294.9   0.049039000   0.47606  -0.01118   0.50875  -0.46595
  29   34043.5    293.7   0.298630333   2.88786   1.46340  -0.54511  -0.67021
  30   34098.8    293.3   0.370805750   3.58000  -1.65373   0.46745   0.79162
  31   34721.2    288.0   0.004177770   0.03961   0.17114   0.06225  -0.08030
  32   34784.4    287.5   0.008975004   0.08494   0.25651   0.13431  -0.03324
  33   35032.8    285.4   0.238710290   2.24322   0.22333   1.39936  -0.48490
  34   35508.8    281.6   0.208050486   1.92889  -0.01875   1.00765  -0.95561
  35   35626.4    280.7   0.033890357   0.31317   0.14261   0.29554  -0.45331
  36   35876.3    278.7   0.041359500   0.37953  -0.31311  -0.03344  -0.52950
  37   36059.4    277.3   0.023277682   0.21252   0.21252  -0.26383   0.31264
  38   36085.6    277.1   0.031330621   0.28583  -0.29987   0.20006  -0.39482
  39   36366.1    275.0   0.093463371   0.84610   0.48751  -0.68517   0.37279
  40   36797.5    271.8   0.105332542   0.94237   0.77286  -0.58613   0.03878
  41   37500.3    266.7   0.014413943   0.12654  -0.12602  -0.31283   0.11312
  42   37683.1    265.4   0.138045046   1.20601  -0.64324   0.55596  -0.69510
  43   37896.2    263.9   0.027392124   0.23796  -0.40388  -0.27055   0.04058
  44   38059.9    262.7   0.006378795   0.05518  -0.15953   0.05180  -0.16445
  45   38201.8    261.8   0.084258839   0.72612  -0.34216   0.55074  -0.55293
  46   38678.5    258.5   0.007443088   0.06335   0.12479   0.18237  -0.12051
  47   38703.9    258.4   0.047842405   0.40694  -0.23965  -0.56894   0.16068
  48   38954.4    256.7   0.012382923   0.10465  -0.12163  -0.16543  -0.24998
  49   39353.4    254.1   0.107045593   0.89549   0.73219  -0.58295  -0.13986
  50   39530.8    253.0   0.138288372   1.15166   0.54009  -0.88950  -0.26222
  51   39788.0    251.3   0.235348890   1.94731   0.42475  -1.32881   0.03416
  52   39966.9    250.2   0.006758253   0.05567   0.02902   0.18654  -0.14152
  53   40053.7    249.7   0.001174786   0.00966   0.08804  -0.04297  -0.00757
  54   40111.6    249.3   0.008532086   0.07003   0.09655   0.23230  -0.08211

FINAL SINGLE POINT ENERGY     -7167.303738380099

DIPOLE MOMENT
-------------
                                X             Y             Z
Electronic contribution:     -4.25279     120.01180      16.53677
Nuclear contribution   :      2.54977    -122.27085     -14.62116
                        -----------------------------------------
Total Dipole Moment    :     -1.70303      -2.25905       1.91562
                        -----------------------------------------
Magnitude (a.u.)       :      3.41660
Magnitude (Debye)      :      8.68432

Rotational constants in cm-1:     0.001395     0.000418     0.000368
Rotational constants in MHz :    41.832369    12.526396    11.026257

                             ****ORCA TERMINATED NORMALLY****
TOTAL RUN TIME: 0 days 0 hours 6 minutes 46 seconds 721 msec
