                         Program Version 4.2.0 -  RELEASE  -
|  1> # ORCA input file
|  2> # SCF done       -176.127633059064          0.000489473149
|  3> ! CAM-B3LYP def2-SVP def2/J RIJCOSX Grid4 TightSCF
|  4> %maxcore 5000
|  5> %tddft
|  6>     Mode sTDDFT
|  7>     Ethresh 5.0
|  8>     maxcore 5000
|  9> end
| 10>
| 11> %pal
| 12>   nprocs 6
| 13>   end
| 14> * xyz 0 1
| 15>    C       -9.75824        -1.14539        -3.40524
| 16>    C      -10.69223        -1.66413        -2.53897
| 17>    C      -11.60248        -2.68620        -2.87839
| 18>    N      -12.36816        -3.51744        -3.08335
| 19>    C      -10.91260        -1.26932        -1.20447
| 20>    N      -11.17756        -1.00859        -0.11570
| 21>    C       -9.60256        -1.55842        -4.79658
| 22>    C       -8.57574        -0.78199        -5.38291
| 23>    C       -8.19307        -0.92085        -6.69413
| 24>    C       -8.85675        -1.87791        -7.46904
| 25>    C       -9.88065        -2.65234        -6.87536
| 26>    C      -10.26741        -2.50955        -5.54804
| 27>    S      -10.57115        -3.77455        -8.00890
| 28>    C       -9.48911        -3.19491        -9.24712
| 29>    C       -8.65312        -2.21230        -8.83579
| 30>   Br       -9.56641        -3.93961       -10.96728
| 31>    C       -8.02647         0.14862        -4.37700
| 32>    O       -7.14068         0.95625        -4.58543
| 33>    C       -8.77758        -0.11108        -3.13378
| 34>    C       -8.64173         0.49745        -1.90741
| 35>    C       -7.77984         1.50538        -1.44945
| 36>    C       -6.66981         2.09531        -2.00588
| 37>    C       -6.13345         3.12619        -1.16766
| 38>    C       -6.92679         3.15650        -0.03239
| 39>    C       -7.94517         2.06644        -0.05809
| 40>    C       -9.23827         2.70569         0.43709
| 41>    C       -8.80517         3.53048         1.64558
| 42>    S       -7.19345         4.30944         1.19886
| 43>    C       -5.01882         3.97923        -1.39638
| 44>    C       -4.32849         4.17480        -2.55870
| 45>    C       -4.57089         3.72906        -3.88744
| 46>    C       -3.64313         4.13900        -4.79054
| 47>    C       -2.59980         4.92729        -4.24589
| 48>    S       -2.86791         5.16805        -2.53462
| 49>    C       -1.50552         5.43764        -4.91031
| 50>    C       -1.18330         5.28118        -6.27958
| 51>    C       -0.01817         5.87345        -6.65299
| 52>    C        0.66596         6.53646        -5.60248
| 53>    S       -0.26048         6.37044        -4.11067
| 54>    C        1.86517         7.19994        -5.57537
| 55>    C        2.73374         7.51294        -6.64317
| 56>    C        2.60000         7.40046        -8.00013
| 57>    C        3.76624         7.88775        -8.69602
| 58>    C        4.64906         8.33249        -7.73360
| 59>    C        4.12416         8.03322        -6.36624
| 60>    C        4.39090         9.28853        -5.54341
| 61>    C        5.81250         9.69164        -5.92094
| 62>    S        5.96650         9.41905        -7.73566
| 63>    C        3.84565         7.97915       -10.10523
| 64>    C        4.91169         8.22272       -10.92131
| 65>    C        6.33740         8.24617       -10.71779
| 66>    C        7.05359         7.54780        -9.77305
| 67>    C        8.45617         7.59171        -9.65140
| 68>    N        9.59290         7.59998        -9.48852
| 69>    C        6.48233         6.62379        -8.88027
| 70>    N        6.06252         5.85397        -8.13789
| 71>    C        6.92788         8.96952       -11.84132
| 72>    C        5.92597         9.19006       -12.81897
| 73>    C        4.63969         8.66899       -12.31544
| 74>    O        3.57520         8.64090       -12.89066
| 75>    C        6.18515         9.80917       -14.01678
| 76>    C        7.49335        10.24414       -14.25665
| 77>    C        8.48244        10.03490       -13.26737
| 78>    C        8.22227         9.39934       -12.05867
| 79>    S       10.02551        10.65996       -13.76506
| 80>    C        9.33100        11.18157       -15.27741
| 81>    C        8.01180        10.90561       -15.40399
| 82>   Br       10.41344        12.04270       -16.54464
| 83>    H       -7.40656        -0.31038        -7.10946
| 84>    H      -11.05433        -3.12544        -5.14688
| 85>    H       -7.92310        -1.74141        -9.46854
| 86>    H       -9.34410         0.17085        -1.15172
| 87>    H       -6.25649         1.80964        -2.95156
| 88>    H       -7.65019         1.28118         0.65322
| 89>    H       -9.98950         1.96974         0.72180
| 90>    H       -9.65165         3.35242        -0.33933
| 91>    H       -8.63189         2.90101         2.51888
| 92>    H       -9.49989         4.32584         1.90437
| 93>    H       -4.68204         4.52959        -0.52688
| 94>    H       -5.43369         3.14953        -4.15570
| 95>    H       -3.67916         3.89482        -5.83705
| 96>    H       -1.81736         4.72861        -6.94954
| 97>    H        0.38050         5.81891        -7.64746
| 98>    H        2.19545         7.53395        -4.59987
| 99>    H        1.73895         7.04887        -8.53488
|100>    H        4.71228         7.20239        -5.95145
|101>    H        4.31678         9.11389        -4.47073
|102>    H        3.68377        10.07170        -5.82450
|103>    H        6.55252         9.05277        -5.43784
|104>    H        6.04329        10.73469        -5.71735
|105>    H        2.89382         7.91880       -10.62503
|106>    H        5.40471         9.95418       -14.74721
|107>    H        9.00770         9.26578       -11.33357
|108>    H        7.42619        11.15674       -16.26944
|109> *
|110>
|111>                          ****END OF INPUT****

CARTESIAN COORDINATES (ANGSTROEM)
---------------------------------
  C     -9.758240   -1.145390   -3.405240
  C    -10.692230   -1.664130   -2.538970
  C    -11.602480   -2.686200   -2.878390
  N    -12.368160   -3.517440   -3.083350
  C    -10.912600   -1.269320   -1.204470
  N    -11.177560   -1.008590   -0.115700
  C     -9.602560   -1.558420   -4.796580
  C     -8.575740   -0.781990   -5.382910
  C     -8.193070   -0.920850   -6.694130
  C     -8.856750   -1.877910   -7.469040
  C     -9.880650   -2.652340   -6.875360
  C    -10.267410   -2.509550   -5.548040
  S    -10.571150   -3.774550   -8.008900
  C     -9.489110   -3.194910   -9.247120
  C     -8.653120   -2.212300   -8.835790
  Br    -9.566410   -3.939610  -10.967280
  C     -8.026470    0.148620   -4.377000
  O     -7.140680    0.956250   -4.585430
  C     -8.777580   -0.111080   -3.133780
  C     -8.641730    0.497450   -1.907410
  C     -7.779840    1.505380   -1.449450
  C     -6.669810    2.095310   -2.005880
  C     -6.133450    3.126190   -1.167660
  C     -6.926790    3.156500   -0.032390
  C     -7.945170    2.066440   -0.058090
  C     -9.238270    2.705690    0.437090
  C     -8.805170    3.530480    1.645580
  S     -7.193450    4.309440    1.198860
  C     -5.018820    3.979230   -1.396380
  C     -4.328490    4.174800   -2.558700
  C     -4.570890    3.729060   -3.887440
  C     -3.643130    4.139000   -4.790540
  C     -2.599800    4.927290   -4.245890
  S     -2.867910    5.168050   -2.534620
  C     -1.505520    5.437640   -4.910310
  C     -1.183300    5.281180   -6.279580
  C     -0.018170    5.873450   -6.652990
  C      0.665960    6.536460   -5.602480
  S     -0.260480    6.370440   -4.110670
  C      1.865170    7.199940   -5.575370
  C      2.733740    7.512940   -6.643170
  C      2.600000    7.400460   -8.000130
  C      3.766240    7.887750   -8.696020
  C      4.649060    8.332490   -7.733600
  C      4.124160    8.033220   -6.366240
  C      4.390900    9.288530   -5.543410
  C      5.812500    9.691640   -5.920940
  S      5.966500    9.419050   -7.735660
  C      3.845650    7.979150  -10.105230
  C      4.911690    8.222720  -10.921310
  C      6.337400    8.246170  -10.717790
  C      7.053590    7.547800   -9.773050
  C      8.456170    7.591710   -9.651400
  N      9.592900    7.599980   -9.488520
  C      6.482330    6.623790   -8.880270
  N      6.062520    5.853970   -8.137890
  C      6.927880    8.969520  -11.841320
  C      5.925970    9.190060  -12.818970
  C      4.639690    8.668990  -12.315440
  O      3.575200    8.640900  -12.890660
  C      6.185150    9.809170  -14.016780
  C      7.493350   10.244140  -14.256650
  C      8.482440   10.034900  -13.267370
  C      8.222270    9.399340  -12.058670
  S     10.025510   10.659960  -13.765060
  C      9.331000   11.181570  -15.277410
  C      8.011800   10.905610  -15.403990
  Br    10.413440   12.042700  -16.544640
  H     -7.406560   -0.310380   -7.109460
  H    -11.054330   -3.125440   -5.146880
  H     -7.923100   -1.741410   -9.468540
  H     -9.344100    0.170850   -1.151720
  H     -6.256490    1.809640   -2.951560
  H     -7.650190    1.281180    0.653220
  H     -9.989500    1.969740    0.721800
  H     -9.651650    3.352420   -0.339330
  H     -8.631890    2.901010    2.518880
  H     -9.499890    4.325840    1.904370
  H     -4.682040    4.529590   -0.526880
  H     -5.433690    3.149530   -4.155700
  H     -3.679160    3.894820   -5.837050
  H     -1.817360    4.728610   -6.949540
  H      0.380500    5.818910   -7.647460
  H      2.195450    7.533950   -4.599870
  H      1.738950    7.048870   -8.534880
  H      4.712280    7.202390   -5.951450
  H      4.316780    9.113890   -4.470730
  H      3.683770   10.071700   -5.824500
  H      6.552520    9.052770   -5.437840
  H      6.043290   10.734690   -5.717350
  H      2.893820    7.918800  -10.625030
  H      5.404710    9.954180  -14.747210
  H      9.007700    9.265780  -11.333570
  H      7.426190   11.156740  -16.269440

 Total Charge           Charge          ....    0
 Multiplicity           Mult            ....    1
 Number of Electrons    NEL             ....  560
 Basis Dimension        Dim             .... 1142

ORBITAL ENERGIES
----------------

  NO   OCC          E(Eh)            E(eV)
   0   2.0000    -482.883132    -13139.9181
   1   2.0000    -482.881613    -13139.8767
   2   2.0000     -88.972069     -2421.0531
   3   2.0000     -88.970777     -2421.0179
   4   2.0000     -88.961701     -2420.7710
   5   2.0000     -88.955474     -2420.6015
   6   2.0000     -88.942652     -2420.2526
   7   2.0000     -88.942129     -2420.2384
   8   2.0000     -62.560869     -1702.3678
   9   2.0000     -62.559308     -1702.3253
  10   2.0000     -56.394817     -1534.5810
  11   2.0000     -56.393253     -1534.5384
  12   2.0000     -56.392106     -1534.5072
  13   2.0000     -56.392070     -1534.5062
  14   2.0000     -56.390553     -1534.4650
  15   2.0000     -56.390511     -1534.4638
  16   2.0000     -19.214302      -522.8477
  17   2.0000     -19.209579      -522.7192
  18   2.0000     -14.413836      -392.2204
  19   2.0000     -14.409501      -392.1025
  20   2.0000     -14.408690      -392.0804
  21   2.0000     -14.407732      -392.0543
  22   2.0000     -10.364319      -282.0275
  23   2.0000     -10.359109      -281.8857
  24   2.0000     -10.355832      -281.7965
  25   2.0000     -10.353467      -281.7322
  26   2.0000     -10.335791      -281.2512
  27   2.0000     -10.335191      -281.2348
  28   2.0000     -10.333286      -281.1830
  29   2.0000     -10.331289      -281.1287
  30   2.0000     -10.322846      -280.8989
  31   2.0000     -10.322116      -280.8791
  32   2.0000     -10.321301      -280.8569
  33   2.0000     -10.320197      -280.8268
  34   2.0000     -10.318421      -280.7785
  35   2.0000     -10.318214      -280.7729
  36   2.0000     -10.318044      -280.7683
  37   2.0000     -10.312517      -280.6178
  38   2.0000     -10.312247      -280.6105
  39   2.0000     -10.311922      -280.6017
  40   2.0000     -10.311518      -280.5907
  41   2.0000     -10.311352      -280.5862
  42   2.0000     -10.310894      -280.5737
  43   2.0000     -10.310536      -280.5639
  44   2.0000     -10.308462      -280.5075
  45   2.0000     -10.304647      -280.4037
  46   2.0000     -10.303701      -280.3780
  47   2.0000     -10.302759      -280.3523
  48   2.0000     -10.301978      -280.3311
  49   2.0000     -10.300946      -280.3030
  50   2.0000     -10.300841      -280.3001
  51   2.0000     -10.299137      -280.2538
  52   2.0000     -10.298527      -280.2372
  53   2.0000     -10.297374      -280.2058
  54   2.0000     -10.296869      -280.1921
  55   2.0000     -10.295834      -280.1639
  56   2.0000     -10.295635      -280.1585
  57   2.0000     -10.294900      -280.1385
  58   2.0000     -10.294450      -280.1262
  59   2.0000     -10.293955      -280.1128
  60   2.0000     -10.292291      -280.0675
  61   2.0000     -10.292010      -280.0598
  62   2.0000     -10.291404      -280.0433
  63   2.0000     -10.290206      -280.0107
  64   2.0000     -10.289128      -279.9814
  65   2.0000     -10.289028      -279.9787
  66   2.0000     -10.288702      -279.9698
  67   2.0000     -10.287013      -279.9238
  68   2.0000     -10.286898      -279.9207
  69   2.0000     -10.285560      -279.8843
  70   2.0000     -10.284512      -279.8558
  71   2.0000     -10.283537      -279.8293
  72   2.0000     -10.283262      -279.8218
  73   2.0000     -10.282893      -279.8117
  74   2.0000     -10.280489      -279.7463
  75   2.0000     -10.276598      -279.6404
  76   2.0000      -8.790311      -239.1965
  77   2.0000      -8.788720      -239.1532
  78   2.0000      -8.068130      -219.5450
  79   2.0000      -8.066677      -219.5054
  80   2.0000      -8.056674      -219.2332
  81   2.0000      -8.051687      -219.0976
  82   2.0000      -8.039232      -218.7586
  83   2.0000      -8.038680      -218.7436
  84   2.0000      -6.626617      -180.3194
  85   2.0000      -6.624984      -180.2750
  86   2.0000      -6.612036      -179.9227
  87   2.0000      -6.611854      -179.9177
  88   2.0000      -6.610454      -179.8796
  89   2.0000      -6.610300      -179.8754
  90   2.0000      -6.037806      -164.2971
  91   2.0000      -6.036386      -164.2584
  92   2.0000      -6.033555      -164.1814
  93   2.0000      -6.032086      -164.1414
  94   2.0000      -6.029335      -164.0665
  95   2.0000      -6.027941      -164.0286
  96   2.0000      -6.026326      -163.9847
  97   2.0000      -6.022225      -163.8731
  98   2.0000      -6.021416      -163.8510
  99   2.0000      -6.017955      -163.7569
 100   2.0000      -6.017480      -163.7440
 101   2.0000      -6.012495      -163.6083
 102   2.0000      -6.009028      -163.5140
 103   2.0000      -6.008443      -163.4980
 104   2.0000      -6.005062      -163.4061
 105   2.0000      -6.004521      -163.3913
 106   2.0000      -5.999900      -163.2656
 107   2.0000      -5.999395      -163.2518
 108   2.0000      -2.742439       -74.6256
 109   2.0000      -2.740871       -74.5829
 110   2.0000      -2.738413       -74.5160
 111   2.0000      -2.738275       -74.5122
 112   2.0000      -2.736768       -74.4712
 113   2.0000      -2.736660       -74.4683
 114   2.0000      -2.726687       -74.1969
 115   2.0000      -2.726658       -74.1961
 116   2.0000      -2.725106       -74.1539
 117   2.0000      -2.725093       -74.1535
 118   2.0000      -1.127900       -30.6917
 119   2.0000      -1.124186       -30.5906
 120   2.0000      -1.018634       -27.7184
 121   2.0000      -1.017758       -27.6946
 122   2.0000      -1.010198       -27.4889
 123   2.0000      -1.010020       -27.4840
 124   2.0000      -1.007205       -27.4074
 125   2.0000      -1.001472       -27.2515
 126   2.0000      -0.993884       -27.0450
 127   2.0000      -0.989933       -26.9375
 128   2.0000      -0.987427       -26.8692
 129   2.0000      -0.984118       -26.7792
 130   2.0000      -0.982801       -26.7434
 131   2.0000      -0.971851       -26.4454
 132   2.0000      -0.940424       -25.5902
 133   2.0000      -0.937752       -25.5175
 134   2.0000      -0.932742       -25.3812
 135   2.0000      -0.931236       -25.3402
 136   2.0000      -0.905499       -24.6399
 137   2.0000      -0.903910       -24.5966
 138   2.0000      -0.902967       -24.5710
 139   2.0000      -0.898938       -24.4613
 140   2.0000      -0.884029       -24.0556
 141   2.0000      -0.881669       -23.9914
 142   2.0000      -0.880177       -23.9508
 143   2.0000      -0.876571       -23.8527
 144   2.0000      -0.866769       -23.5860
 145   2.0000      -0.850372       -23.1398
 146   2.0000      -0.846088       -23.0232
 147   2.0000      -0.843252       -22.9461
 148   2.0000      -0.840584       -22.8735
 149   2.0000      -0.825361       -22.4592
 150   2.0000      -0.823397       -22.4058
 151   2.0000      -0.822709       -22.3870
 152   2.0000      -0.811400       -22.0793
 153   2.0000      -0.801836       -21.8191
 154   2.0000      -0.800475       -21.7820
 155   2.0000      -0.786839       -21.4110
 156   2.0000      -0.774220       -21.0676
 157   2.0000      -0.760915       -20.7056
 158   2.0000      -0.755765       -20.5654
 159   2.0000      -0.751516       -20.4498
 160   2.0000      -0.736251       -20.0344
 161   2.0000      -0.721895       -19.6438
 162   2.0000      -0.702688       -19.1211
 163   2.0000      -0.700242       -19.0546
 164   2.0000      -0.698494       -19.0070
 165   2.0000      -0.696419       -18.9505
 166   2.0000      -0.687212       -18.7000
 167   2.0000      -0.683224       -18.5915
 168   2.0000      -0.681750       -18.5514
 169   2.0000      -0.677514       -18.4361
 170   2.0000      -0.671467       -18.2715
 171   2.0000      -0.659547       -17.9472
 172   2.0000      -0.654760       -17.8169
 173   2.0000      -0.652903       -17.7664
 174   2.0000      -0.644422       -17.5356
 175   2.0000      -0.637283       -17.3414
 176   2.0000      -0.626743       -17.0546
 177   2.0000      -0.626004       -17.0344
 178   2.0000      -0.620297       -16.8791
 179   2.0000      -0.617855       -16.8127
 180   2.0000      -0.616427       -16.7738
 181   2.0000      -0.606738       -16.5102
 182   2.0000      -0.601093       -16.3566
 183   2.0000      -0.593539       -16.1510
 184   2.0000      -0.592274       -16.1166
 185   2.0000      -0.588841       -16.0232
 186   2.0000      -0.587469       -15.9859
 187   2.0000      -0.580754       -15.8031
 188   2.0000      -0.574679       -15.6378
 189   2.0000      -0.570512       -15.5244
 190   2.0000      -0.568019       -15.4566
 191   2.0000      -0.553331       -15.0569
 192   2.0000      -0.550199       -14.9717
 193   2.0000      -0.544840       -14.8259
 194   2.0000      -0.543228       -14.7820
 195   2.0000      -0.539815       -14.6891
 196   2.0000      -0.539196       -14.6723
 197   2.0000      -0.535676       -14.5765
 198   2.0000      -0.535156       -14.5623
 199   2.0000      -0.533455       -14.5160
 200   2.0000      -0.529202       -14.4003
 201   2.0000      -0.525497       -14.2995
 202   2.0000      -0.523404       -14.2426
 203   2.0000      -0.521788       -14.1986
 204   2.0000      -0.515732       -14.0338
 205   2.0000      -0.514449       -13.9989
 206   2.0000      -0.508603       -13.8398
 207   2.0000      -0.507135       -13.7998
 208   2.0000      -0.505256       -13.7487
 209   2.0000      -0.503963       -13.7135
 210   2.0000      -0.502454       -13.6725
 211   2.0000      -0.499094       -13.5810
 212   2.0000      -0.497380       -13.5344
 213   2.0000      -0.495532       -13.4841
 214   2.0000      -0.494885       -13.4665
 215   2.0000      -0.492245       -13.3947
 216   2.0000      -0.490386       -13.3441
 217   2.0000      -0.488131       -13.2827
 218   2.0000      -0.487403       -13.2629
 219   2.0000      -0.484767       -13.1912
 220   2.0000      -0.480642       -13.0789
 221   2.0000      -0.476333       -12.9617
 222   2.0000      -0.473158       -12.8753
 223   2.0000      -0.470581       -12.8052
 224   2.0000      -0.465133       -12.6569
 225   2.0000      -0.461824       -12.5669
 226   2.0000      -0.457325       -12.4444
 227   2.0000      -0.454303       -12.3622
 228   2.0000      -0.452495       -12.3130
 229   2.0000      -0.449924       -12.2430
 230   2.0000      -0.447836       -12.1862
 231   2.0000      -0.445916       -12.1340
 232   2.0000      -0.445666       -12.1272
 233   2.0000      -0.444948       -12.1076
 234   2.0000      -0.443674       -12.0730
 235   2.0000      -0.441645       -12.0178
 236   2.0000      -0.438732       -11.9385
 237   2.0000      -0.438382       -11.9290
 238   2.0000      -0.435701       -11.8560
 239   2.0000      -0.435349       -11.8464
 240   2.0000      -0.431240       -11.7346
 241   2.0000      -0.431032       -11.7290
 242   2.0000      -0.429234       -11.6801
 243   2.0000      -0.426323       -11.6008
 244   2.0000      -0.423058       -11.5120
 245   2.0000      -0.422818       -11.5055
 246   2.0000      -0.421572       -11.4716
 247   2.0000      -0.419783       -11.4229
 248   2.0000      -0.418157       -11.3786
 249   2.0000      -0.416628       -11.3370
 250   2.0000      -0.414732       -11.2854
 251   2.0000      -0.412544       -11.2259
 252   2.0000      -0.410041       -11.1578
 253   2.0000      -0.403326       -10.9750
 254   2.0000      -0.401826       -10.9342
 255   2.0000      -0.400693       -10.9034
 256   2.0000      -0.398414       -10.8414
 257   2.0000      -0.391908       -10.6644
 258   2.0000      -0.386989       -10.5305
 259   2.0000      -0.382025       -10.3954
 260   2.0000      -0.381108       -10.3705
 261   2.0000      -0.372687       -10.1413
 262   2.0000      -0.371175       -10.1002
 263   2.0000      -0.363258        -9.8848
 264   2.0000      -0.361273        -9.8307
 265   2.0000      -0.358204        -9.7472
 266   2.0000      -0.341904        -9.3037
 267   2.0000      -0.337801        -9.1920
 268   2.0000      -0.335339        -9.1250
 269   2.0000      -0.333869        -9.0850
 270   2.0000      -0.326451        -8.8832
 271   2.0000      -0.322353        -8.7717
 272   2.0000      -0.312251        -8.4968
 273   2.0000      -0.309708        -8.4276
 274   2.0000      -0.306520        -8.3408
 275   2.0000      -0.290596        -7.9075
 276   2.0000      -0.288089        -7.8393
 277   2.0000      -0.277296        -7.5456
 278   2.0000      -0.253952        -6.9104
 279   2.0000      -0.208016        -5.6604
 280   0.0000      -0.088485        -2.4078
 281   0.0000      -0.080495        -2.1904
 282   0.0000      -0.073862        -2.0099
 283   0.0000      -0.056932        -1.5492
 284   0.0000      -0.052290        -1.4229

MULLIKEN ATOMIC CHARGES
-----------------------
   0 C :    0.324830
   1 C :   -0.374252
   2 C :   -0.188627
   3 N :    0.140531
   4 C :   -0.171887
   5 N :    0.130837
   6 C :    0.010674
   7 C :   -0.006119
   8 C :   -0.078882
   9 C :    0.121194
  10 C :   -0.091157
  11 C :   -0.021608
  12 S :    0.184619
  13 C :   -0.122487
  14 C :    0.035212
  15 Br:    0.020442
  16 C :    0.152642
  17 O :   -0.175228
  18 C :   -0.078092
  19 C :    0.013378
  20 C :   -0.015258
  21 C :   -0.031238
  22 C :    0.044983
  23 C :   -0.114286
  24 C :   -0.008519
  25 C :    0.066337
  26 C :   -0.058778
  27 S :    0.059647
  28 C :    0.012312
  29 C :   -0.053454
  30 C :    0.021110
  31 C :    0.020208
  32 C :   -0.047037
  33 S :    0.085438
  34 C :   -0.044959
  35 C :    0.021187
  36 C :    0.030177
  37 C :   -0.050613
  38 S :    0.082551
  39 C :    0.038491
  40 C :    0.046421
  41 C :   -0.065976
  42 C :    0.086454
  43 C :   -0.187667
  44 C :    0.010872
  45 C :    0.060724
  46 C :   -0.046099
  47 S :    0.094128
  48 C :    0.003053
  49 C :   -0.112647
  50 C :    0.274968
  51 C :   -0.357679
  52 C :   -0.176701
  53 N :    0.147645
  54 C :   -0.190594
  55 N :    0.154068
  56 C :    0.008909
  57 C :    0.003580
  58 C :    0.131405
  59 O :   -0.148115
  60 C :   -0.076816
  61 C :    0.111685
  62 C :   -0.086539
  63 C :   -0.031985
  64 S :    0.179930
  65 C :   -0.125701
  66 C :    0.041022
  67 Br:    0.017275
  68 H :   -0.016470
  69 H :   -0.008323
  70 H :   -0.005462
  71 H :   -0.018239
  72 H :    0.010366
  73 H :    0.060150
  74 H :    0.048197
  75 H :    0.027955
  76 H :    0.064929
  77 H :    0.065367
  78 H :   -0.018628
  79 H :    0.000511
  80 H :   -0.011766
  81 H :   -0.011990
  82 H :   -0.019567
  83 H :   -0.030677
  84 H :   -0.030118
  85 H :    0.063112
  86 H :    0.032000
  87 H :    0.029823
  88 H :    0.068654
  89 H :    0.062834
  90 H :    0.010230
  91 H :   -0.011348
  92 H :   -0.006952
  93 H :   -0.004526
Sum of atomic charges:   -0.0000000

LOEWDIN ATOMIC CHARGES
----------------------
   0 C :    0.079670
   1 C :   -0.155780
   2 C :   -0.018510
   3 N :   -0.063086
   4 C :   -0.018593
   5 N :   -0.070165
   6 C :   -0.021311
   7 C :   -0.049440
   8 C :    0.018077
   9 C :   -0.034088
  10 C :   -0.145269
  11 C :   -0.010259
  12 S :    0.431148
  13 C :   -0.272686
  14 C :   -0.071211
  15 Br:    0.134191
  16 C :    0.088405
  17 O :   -0.162481
  18 C :   -0.112095
  19 C :    0.061808
  20 C :   -0.062955
  21 C :    0.068919
  22 C :   -0.075050
  23 C :   -0.122567
  24 C :   -0.030332
  25 C :   -0.024833
  26 C :   -0.104890
  27 S :    0.344361
  28 C :   -0.069890
  29 C :   -0.132771
  30 C :   -0.040301
  31 C :   -0.020679
  32 C :   -0.178740
  33 S :    0.367233
  34 C :   -0.180688
  35 C :   -0.019707
  36 C :   -0.041450
  37 C :   -0.134451
  38 S :    0.366692
  39 C :   -0.069642
  40 C :   -0.028552
  41 C :   -0.012984
  42 C :   -0.073688
  43 C :   -0.112212
  44 C :   -0.025089
  45 C :   -0.025062
  46 C :   -0.108799
  47 S :    0.398600
  48 C :    0.054685
  49 C :   -0.096111
  50 C :    0.047905
  51 C :   -0.159400
  52 C :   -0.020591
  53 N :   -0.062238
  54 C :   -0.019743
  55 N :   -0.060605
  56 C :   -0.014133
  57 C :   -0.055263
  58 C :    0.085533
  59 O :   -0.145613
  60 C :    0.022078
  61 C :   -0.037786
  62 C :   -0.142912
  63 C :   -0.017851
  64 S :    0.428347
  65 C :   -0.274791
  66 C :   -0.070173
  67 Br:    0.132047
  68 H :    0.038378
  69 H :    0.040670
  70 H :    0.037933
  71 H :    0.042570
  72 H :    0.025985
  73 H :    0.061729
  74 H :    0.040130
  75 H :    0.034053
  76 H :    0.028662
  77 H :    0.031555
  78 H :    0.028521
  79 H :    0.037580
  80 H :    0.033254
  81 H :    0.032719
  82 H :    0.031197
  83 H :    0.025534
  84 H :    0.020351
  85 H :    0.065120
  86 H :    0.033483
  87 H :    0.033828
  88 H :    0.031347
  89 H :    0.030814
  90 H :    0.044107
  91 H :    0.040388
  92 H :    0.039684
  93 H :    0.038228

  Mayer bond orders larger than 0.100000
B(  0-C ,  1-C ) :   1.5878 B(  0-C ,  6-C ) :   0.9874 B(  0-C , 18-C ) :   1.1065
B(  1-C ,  2-C ) :   1.1503 B(  1-C ,  4-C ) :   1.1499 B(  2-C ,  3-N ) :   2.9628
B(  4-C ,  5-N ) :   2.9466 B(  6-C ,  7-C ) :   1.2780 B(  6-C , 11-C ) :   1.4116
B(  7-C ,  8-C ) :   1.4213 B(  7-C , 16-C ) :   0.9524 B(  8-C ,  9-C ) :   1.2385
B(  8-C , 68-H ) :   1.0183 B(  9-C , 10-C ) :   1.3113 B(  9-C , 14-C ) :   1.1607
B( 10-C , 11-C ) :   1.3244 B( 10-C , 12-S ) :   1.0852 B( 11-C , 69-H ) :   0.9810
B( 12-S , 13-C ) :   1.0871 B( 13-C , 14-C ) :   1.6182 B( 13-C , 15-Br) :   1.0164
B( 14-C , 70-H ) :   1.0009 B( 16-C , 17-O ) :   2.1414 B( 16-C , 18-C ) :   0.9583
B( 18-C , 19-C ) :   1.4753 B( 19-C , 20-C ) :   1.2657 B( 19-C , 71-H ) :   0.9228
B( 20-C , 21-C ) :   1.5182 B( 20-C , 24-C ) :   1.0080 B( 21-C , 22-C ) :   1.1155
B( 21-C , 72-H ) :   0.9916 B( 22-C , 23-C ) :   1.5284 B( 22-C , 28-C ) :   1.1377
B( 23-C , 24-C ) :   1.0088 B( 23-C , 27-S ) :   1.1366 B( 24-C , 25-C ) :   1.0506
B( 24-C , 73-H ) :   0.8544 B( 25-C , 26-C ) :   1.0561 B( 25-C , 74-H ) :   0.9316
B( 25-C , 75-H ) :   0.9403 B( 26-C , 27-S ) :   0.9743 B( 26-C , 76-H ) :   0.9481
B( 26-C , 77-H ) :   0.9534 B( 28-C , 29-C ) :   1.6033 B( 28-C , 78-H ) :   0.9525
B( 29-C , 30-C ) :   1.1278 B( 29-C , 33-S ) :   1.0315 B( 30-C , 31-C ) :   1.6181
B( 30-C , 79-H ) :   0.9883 B( 31-C , 32-C ) :   1.1823 B( 31-C , 80-H ) :   0.9924
B( 32-C , 33-S ) :   1.0493 B( 32-C , 34-C ) :   1.5039 B( 34-C , 35-C ) :   1.1889
B( 34-C , 38-S ) :   1.0495 B( 35-C , 36-C ) :   1.6042 B( 35-C , 81-H ) :   0.9922
B( 36-C , 37-C ) :   1.1437 B( 36-C , 82-H ) :   0.9940 B( 37-C , 38-S ) :   1.0349
B( 37-C , 39-C ) :   1.5804 B( 39-C , 40-C ) :   1.1875 B( 39-C , 83-H ) :   0.9427
B( 40-C , 41-C ) :   1.5923 B( 40-C , 44-C ) :   1.0324 B( 41-C , 42-C ) :   1.0948
B( 41-C , 84-H ) :   1.0097 B( 42-C , 43-C ) :   1.5340 B( 42-C , 48-C ) :   1.1400
B( 43-C , 44-C ) :   1.0005 B( 43-C , 47-S ) :   1.1661 B( 44-C , 45-C ) :   1.0471
B( 44-C , 85-H ) :   0.8402 B( 45-C , 46-C ) :   1.0610 B( 45-C , 86-H ) :   0.9343
B( 45-C , 87-H ) :   0.9410 B( 46-C , 47-S ) :   0.9677 B( 46-C , 88-H ) :   0.9457
B( 46-C , 89-H ) :   0.9531 B( 48-C , 49-C ) :   1.5886 B( 48-C , 90-H ) :   0.9434
B( 49-C , 50-C ) :   1.0774 B( 49-C , 58-C ) :   0.9416 B( 50-C , 51-C ) :   1.5823
B( 50-C , 56-C ) :   1.0106 B( 51-C , 52-C ) :   1.1311 B( 51-C , 54-C ) :   1.1798
B( 52-C , 53-N ) :   2.9859 B( 54-C , 55-N ) :   2.9754 B( 56-C , 57-C ) :   1.2766
B( 56-C , 63-C ) :   1.4228 B( 57-C , 58-C ) :   0.9212 B( 57-C , 60-C ) :   1.4293
B( 58-C , 59-O ) :   2.2580 B( 60-C , 61-C ) :   1.2460 B( 60-C , 91-H ) :   1.0161
B( 61-C , 62-C ) :   1.3151 B( 61-C , 66-C ) :   1.1624 B( 62-C , 63-C ) :   1.3185
B( 62-C , 64-S ) :   1.0844 B( 63-C , 92-H ) :   0.9824 B( 64-S , 65-C ) :   1.0852
B( 65-C , 66-C ) :   1.6215 B( 65-C , 67-Br) :   1.0149 B( 66-C , 93-H ) :   0.9995

-----------------------------------------------------------------------------
         ABSORPTION SPECTRUM VIA TRANSITION ELECTRIC DIPOLE MOMENTS
-----------------------------------------------------------------------------
State   Energy  Wavelength   fosc         T2         TX        TY        TZ
        (cm-1)    (nm)                  (au**2)     (au)      (au)      (au)
-----------------------------------------------------------------------------
   0   13165.3    759.6   1.193184503  29.83678   4.37651   2.98417  -1.33330
   1   14913.5    670.5   0.745980327  16.46739  -2.67547  -0.48050   3.01303
   2   16474.9    607.0   0.454588204   9.08387   2.43503   1.31715  -1.19147
   3   20498.6    487.8   0.009077506   0.14579  -0.26583  -0.19308   0.19453
   4   21224.8    471.1   0.014687686   0.22782   0.01755  -0.46062  -0.12383
   5   21870.3    457.2   0.373900395   5.62829  -0.37550  -1.44484  -1.84383
   6   23657.6    422.7   0.156424177   2.17675  -0.70153  -0.96405  -0.86903
   7   25633.6    390.1   0.157754300   2.02603   0.53444  -0.24281  -1.29671
   8   26950.3    371.1   0.028133396   0.34366  -0.17070  -0.37739  -0.41485
   9   27361.5    365.5   0.013390600   0.16111   0.26942   0.23591  -0.18132
  10   28456.5    351.4   0.222952729   2.57933  -0.21008   0.47797   1.51880
  11   28758.8    347.7   0.295295864   3.38035  -0.31843   0.53772   1.72910
  12   29394.2    340.2   0.089512294   1.00253   0.00514   0.78797  -0.61774
  13   29427.2    339.8   0.069027798   0.77224  -0.25175  -0.67675   0.50086
  14   30213.2    331.0   0.014684480   0.16001  -0.28079  -0.28469  -0.01095
  15   30296.4    330.1   0.034738220   0.37748   0.31357   0.02311  -0.52784
  16   30420.2    328.7   0.150975068   1.63387  -0.51008  -0.77696  -0.87751
  17   31116.7    321.4   0.040198857   0.42530  -0.37316   0.03857   0.53344
  18   31315.0    319.3   0.115533871   1.21460   0.23805   0.45966  -0.97296
  19   32092.7    311.6   0.097287896   0.99800  -0.66517  -0.08865   0.74006
  20   32390.9    308.7   0.029835891   0.30324  -0.43464   0.32467   0.09444
  21   32610.8    306.6   0.016214472   0.16369  -0.11412  -0.23884  -0.30597
  22   32805.1    304.8   0.002997563   0.03008  -0.11882  -0.08321   0.09508
  23   33042.5    302.6   0.007556128   0.07528  -0.10271   0.25315   0.02553
  24   33241.7    300.8   0.036889112   0.36533  -0.03819  -0.52184   0.30258
  25   33429.6    299.1   0.535529039   5.27384  -0.85392  -0.08123   2.13027
  26   33873.2    295.2   0.188572885   1.83273   0.19983  -0.36228   1.28901
  27   34184.2    292.5   0.272425248   2.62360   0.14156   0.81293  -1.39381
  28   35064.3    285.2   0.189361974   1.77788   0.28205   0.70714  -1.09466
  29   35996.4    277.8   0.021905548   0.20034  -0.39759   0.11340  -0.17149
  30   36139.2    276.7   0.019851083   0.18083  -0.17178  -0.18315  -0.34320
  31   36207.1    276.2   0.084883404   0.77180  -0.78751  -0.02338   0.38869
  32   36695.2    272.5   0.020329724   0.18239  -0.15475  -0.14780  -0.36959
  33   36704.4    272.4   0.005538664   0.04968  -0.06507   0.21091   0.03099
  34   36993.3    270.3   0.057062136   0.50781   0.51467   0.01528  -0.49264
  35   37301.2    268.1   0.030750387   0.27140  -0.05128  -0.10393  -0.50790
  36   37695.3    265.3   0.175612346   1.53371  -0.60571  -0.39022   1.00725
  37   37927.3    263.7   0.109783450   0.95293   0.42941   0.13635  -0.86600
  38   38537.1    259.5   0.027744890   0.23702  -0.32284   0.15006   0.33207
  39   38621.7    258.9   0.048095942   0.40997  -0.41883  -0.19630  -0.44274
  40   38755.5    258.0   0.025171753   0.21382   0.20142   0.30513   0.28311
  41   38990.7    256.5   0.109747849   0.92664   0.89910   0.19123   0.28583
  42   39188.1    255.2   0.168587775   1.41627  -0.78104  -0.89764   0.02194
  43   39882.7    250.7   0.036855787   0.30423   0.34659  -0.01819  -0.42869
  44   40259.5    248.4   0.182995747   1.49640   0.88138   0.71171  -0.46156

FINAL SINGLE POINT ENERGY     -9975.940479725356

DIPOLE MOMENT
-------------
                                X             Y             Z
Electronic contribution:     46.80175     -19.64835    -167.69395
Nuclear contribution   :    -46.66649      22.24362     167.96697
                        -----------------------------------------
Total Dipole Moment    :      0.13526       2.59527       0.27302
                        -----------------------------------------
Magnitude (a.u.)       :      2.61310
Magnitude (Debye)      :      6.64196

Rotational constants in cm-1:     0.000994     0.000160     0.000140
Rotational constants in MHz :    29.791278     4.795979     4.199889

                             ****ORCA TERMINATED NORMALLY****
TOTAL RUN TIME: 0 days 0 hours 9 minutes 44 seconds 119 msec
