                         Program Version 4.2.0 -  RELEASE  -
|  1> # ORCA input file
|  2> # SCF done       -189.698205069845          0.000382141433
|  3> ! CAM-B3LYP def2-SVP def2/J RIJCOSX Grid4 TightSCF
|  4> %maxcore 5000
|  5> %tddft
|  6>     Mode sTDDFT
|  7>     Ethresh 5.0
|  8>     maxcore 5000
|  9> end
| 10>
| 11> %pal
| 12>   nprocs 6
| 13>   end
| 14> * xyz 0 1
| 15>    C       -1.05946         1.82552         4.28718
| 16>    C        0.24703         1.75088         3.87465
| 17>    C        1.31924         1.38458         4.71218
| 18>    N        2.22762         1.08822         5.34926
| 19>    C        0.69479         2.07508         2.57685
| 20>    N        1.14189         2.35399         1.55663
| 21>    C       -1.53838         1.62667         5.65047
| 22>    C       -2.91963         1.93502         5.69300
| 23>    C       -3.66126         1.85029         6.84541
| 24>    C       -3.00689         1.44883         8.01507
| 25>    C       -1.62752         1.14037         7.96220
| 26>    C       -0.87785         1.22107         6.79473
| 27>    S       -1.02073         0.65783         9.51798
| 28>    C       -2.60677         0.87732        10.20816
| 29>    C       -3.54383         1.28922         9.32232
| 30>   Br       -2.87668         0.54142        12.03386
| 31>    C       -3.38486         2.30923         4.34075
| 32>    O       -4.53566         2.51303         4.01493
| 33>    C       -2.18537         2.22587         3.47417
| 34>    C       -2.21572         2.30719         2.10956
| 35>    C       -3.25307         2.91624         1.35848
| 36>    C       -3.59260         2.43331         0.07463
| 37>    C       -4.69909         2.97862        -0.66284
| 38>    N       -5.04371         2.45695        -1.83870
| 39>    C       -4.35719         1.44425        -2.33101
| 40>    C       -3.24924         0.91394        -1.60330
| 41>    N       -2.90164         1.40047        -0.43487
| 42>    C       -2.50911        -0.16728        -2.14774
| 43>    N       -1.94144        -1.04436        -2.61647
| 44>    C       -4.73363         0.89951        -3.58018
| 45>    N       -5.01990         0.44035        -4.59065
| 46>    C       -5.48207         4.06513        -0.18006
| 47>    C       -5.05820         4.62623         1.05189
| 48>    C       -3.96348         4.05760         1.80156
| 49>    N       -3.69054         4.76905         2.89102
| 50>    S       -4.72752         5.98842         2.99841
| 51>    N       -5.55980         5.70349         1.65047
| 52>    C       -6.59638         4.51470        -0.90599
| 53>    S       -7.06513         3.72413        -2.40698
| 54>    C       -8.40281         4.79004        -2.55112
| 55>    C       -8.46851         5.72811        -1.48609
| 56>    C       -7.45806         5.56699        -0.56759
| 57>    C       -9.64007         6.61407        -1.67534
| 58>    O      -10.01785         7.53128        -0.98886
| 59>    C      -10.25412         6.09865        -2.93322
| 60>    C       -9.47816         5.01511        -3.41573
| 61>    S      -10.13521         4.35359        -4.85145
| 62>    C      -11.46378         5.52255        -4.81591
| 63>    C      -11.35090         6.38327        -3.70675
| 64>    C      -12.42782         5.45752        -5.81327
| 65>    C      -13.54455         6.26196        -5.98592
| 66>    C      -14.50225         6.10537        -7.00697
| 67>    C      -15.52324         7.01842        -6.97087
| 68>    C      -15.41299         7.94377        -5.92291
| 69>    S      -13.97983         7.61950        -4.97679
| 70>    C      -16.25936         9.00180        -5.60284
| 71>    C      -17.45796         9.38114        -6.23339
| 72>    C      -18.04848        10.47808        -5.67115
| 73>    C      -17.34669        11.02536        -4.57387
| 74>    S      -15.90174        10.07318        -4.27837
| 75>    C      -17.73241        12.13783        -3.85836
| 76>    C      -17.09115        12.76478        -2.77930
| 77>    C      -17.58061        13.92406        -2.14192
| 78>    C      -16.68964        14.29288        -1.12041
| 79>    C      -16.70054        15.34582        -0.21801
| 80>    C      -15.63974        15.43821         0.68250
| 81>    C      -15.35768        16.36287         1.69019
| 82>    C      -14.13708        16.00201         2.32208
| 83>    C      -13.65775        14.84887         1.70833
| 84>    C      -14.56111        14.46249         0.67971
| 85>    C      -14.54289        13.41640        -0.20849
| 86>    C      -15.60913        13.32024        -1.12372
| 87>    C      -15.86521        12.40441        -2.12860
| 88>    C      -13.48111        16.68896         3.40896
| 89>    C      -13.91863        17.79907         3.99729
| 90>    H       -4.71348         2.08827         6.84636
| 91>    H        0.16921         0.96778         6.80251
| 92>    H       -4.57181         1.47214         9.57709
| 93>    H       -1.43371         1.83701         1.52633
| 94>    H       -7.30975         6.15420         0.32023
| 95>    H      -12.05316         7.16639        -3.49175
| 96>    H      -12.30178         4.67503        -6.55075
| 97>    H      -14.41764         5.32301        -7.74008
| 98>    H      -16.33627         7.04101        -7.67374
| 99>    H      -17.85646         8.84401        -7.07484
|100>    H      -18.96989        10.91181        -6.01812
|101>    H      -18.65838        12.59747        -4.18459
|102>    H      -18.48681        14.43982        -2.40199
|103>    H      -17.50070        16.07237        -0.21225
|104>    H      -15.96690        17.21031         1.94496
|105>    H      -12.75216        14.32933         1.96331
|106>    H      -13.74472        12.68814        -0.21729
|107>    H      -15.24503        11.56436        -2.37731
|108>    H      -12.55812        16.23307         3.74450
|109>    H      -14.82957        18.28858         3.69804
|110>    H      -13.37554        18.25860         4.80451
|111> *
|112>
|113>                          ****END OF INPUT****

CARTESIAN COORDINATES (ANGSTROEM)
---------------------------------
  C     -1.059460    1.825520    4.287180
  C      0.247030    1.750880    3.874650
  C      1.319240    1.384580    4.712180
  N      2.227620    1.088220    5.349260
  C      0.694790    2.075080    2.576850
  N      1.141890    2.353990    1.556630
  C     -1.538380    1.626670    5.650470
  C     -2.919630    1.935020    5.693000
  C     -3.661260    1.850290    6.845410
  C     -3.006890    1.448830    8.015070
  C     -1.627520    1.140370    7.962200
  C     -0.877850    1.221070    6.794730
  S     -1.020730    0.657830    9.517980
  C     -2.606770    0.877320   10.208160
  C     -3.543830    1.289220    9.322320
  Br    -2.876680    0.541420   12.033860
  C     -3.384860    2.309230    4.340750
  O     -4.535660    2.513030    4.014930
  C     -2.185370    2.225870    3.474170
  C     -2.215720    2.307190    2.109560
  C     -3.253070    2.916240    1.358480
  C     -3.592600    2.433310    0.074630
  C     -4.699090    2.978620   -0.662840
  N     -5.043710    2.456950   -1.838700
  C     -4.357190    1.444250   -2.331010
  C     -3.249240    0.913940   -1.603300
  N     -2.901640    1.400470   -0.434870
  C     -2.509110   -0.167280   -2.147740
  N     -1.941440   -1.044360   -2.616470
  C     -4.733630    0.899510   -3.580180
  N     -5.019900    0.440350   -4.590650
  C     -5.482070    4.065130   -0.180060
  C     -5.058200    4.626230    1.051890
  C     -3.963480    4.057600    1.801560
  N     -3.690540    4.769050    2.891020
  S     -4.727520    5.988420    2.998410
  N     -5.559800    5.703490    1.650470
  C     -6.596380    4.514700   -0.905990
  S     -7.065130    3.724130   -2.406980
  C     -8.402810    4.790040   -2.551120
  C     -8.468510    5.728110   -1.486090
  C     -7.458060    5.566990   -0.567590
  C     -9.640070    6.614070   -1.675340
  O    -10.017850    7.531280   -0.988860
  C    -10.254120    6.098650   -2.933220
  C     -9.478160    5.015110   -3.415730
  S    -10.135210    4.353590   -4.851450
  C    -11.463780    5.522550   -4.815910
  C    -11.350900    6.383270   -3.706750
  C    -12.427820    5.457520   -5.813270
  C    -13.544550    6.261960   -5.985920
  C    -14.502250    6.105370   -7.006970
  C    -15.523240    7.018420   -6.970870
  C    -15.412990    7.943770   -5.922910
  S    -13.979830    7.619500   -4.976790
  C    -16.259360    9.001800   -5.602840
  C    -17.457960    9.381140   -6.233390
  C    -18.048480   10.478080   -5.671150
  C    -17.346690   11.025360   -4.573870
  S    -15.901740   10.073180   -4.278370
  C    -17.732410   12.137830   -3.858360
  C    -17.091150   12.764780   -2.779300
  C    -17.580610   13.924060   -2.141920
  C    -16.689640   14.292880   -1.120410
  C    -16.700540   15.345820   -0.218010
  C    -15.639740   15.438210    0.682500
  C    -15.357680   16.362870    1.690190
  C    -14.137080   16.002010    2.322080
  C    -13.657750   14.848870    1.708330
  C    -14.561110   14.462490    0.679710
  C    -14.542890   13.416400   -0.208490
  C    -15.609130   13.320240   -1.123720
  C    -15.865210   12.404410   -2.128600
  C    -13.481110   16.688960    3.408960
  C    -13.918630   17.799070    3.997290
  H     -4.713480    2.088270    6.846360
  H      0.169210    0.967780    6.802510
  H     -4.571810    1.472140    9.577090
  H     -1.433710    1.837010    1.526330
  H     -7.309750    6.154200    0.320230
  H    -12.053160    7.166390   -3.491750
  H    -12.301780    4.675030   -6.550750
  H    -14.417640    5.323010   -7.740080
  H    -16.336270    7.041010   -7.673740
  H    -17.856460    8.844010   -7.074840
  H    -18.969890   10.911810   -6.018120
  H    -18.658380   12.597470   -4.184590
  H    -18.486810   14.439820   -2.401990
  H    -17.500700   16.072370   -0.212250
  H    -15.966900   17.210310    1.944960
  H    -12.752160   14.329330    1.963310
  H    -13.744720   12.688140   -0.217290
  H    -15.245030   11.564360   -2.377310
  H    -12.558120   16.233070    3.744500
  H    -14.829570   18.288580    3.698040
  H    -13.375540   18.258600    4.804510

 Total Charge           Charge          ....    0
 Multiplicity           Mult            ....    1
 Number of Electrons    NEL             ....  572
 Basis Dimension        Dim             .... 1197

ORBITAL ENERGIES
----------------

  NO   OCC          E(Eh)            E(eV)
   0   2.0000    -482.876726    -13139.7437
   1   2.0000     -89.025073     -2422.4954
   2   2.0000     -88.979086     -2421.2440
   3   2.0000     -88.976118     -2421.1633
   4   2.0000     -88.967221     -2420.9212
   5   2.0000     -88.964884     -2420.8576
   6   2.0000     -88.964170     -2420.8381
   7   2.0000     -62.554420     -1702.1923
   8   2.0000     -56.388359     -1534.4053
   9   2.0000     -56.385667     -1534.3320
  10   2.0000     -56.385629     -1534.3310
  11   2.0000     -19.224980      -523.1383
  12   2.0000     -19.196831      -522.3723
  13   2.0000     -14.459125      -393.4528
  14   2.0000     -14.447632      -393.1401
  15   2.0000     -14.442181      -392.9917
  16   2.0000     -14.431262      -392.6946
  17   2.0000     -14.419425      -392.3725
  18   2.0000     -14.418820      -392.3560
  19   2.0000     -14.398790      -391.8110
  20   2.0000     -14.395594      -391.7240
  21   2.0000     -10.375693      -282.3370
  22   2.0000     -10.374022      -282.2915
  23   2.0000     -10.367911      -282.1252
  24   2.0000     -10.348044      -281.5846
  25   2.0000     -10.347911      -281.5810
  26   2.0000     -10.341552      -281.4079
  27   2.0000     -10.340086      -281.3680
  28   2.0000     -10.336106      -281.2597
  29   2.0000     -10.331012      -281.1211
  30   2.0000     -10.330289      -281.1015
  31   2.0000     -10.328030      -281.0400
  32   2.0000     -10.327921      -281.0370
  33   2.0000     -10.326859      -281.0081
  34   2.0000     -10.325433      -280.9693
  35   2.0000     -10.323530      -280.9175
  36   2.0000     -10.323233      -280.9094
  37   2.0000     -10.321956      -280.8747
  38   2.0000     -10.321113      -280.8518
  39   2.0000     -10.321043      -280.8498
  40   2.0000     -10.320246      -280.8282
  41   2.0000     -10.319948      -280.8201
  42   2.0000     -10.316956      -280.7386
  43   2.0000     -10.313984      -280.6578
  44   2.0000     -10.312631      -280.6209
  45   2.0000     -10.312393      -280.6145
  46   2.0000     -10.310149      -280.5534
  47   2.0000     -10.307946      -280.4935
  48   2.0000     -10.307278      -280.4753
  49   2.0000     -10.302539      -280.3463
  50   2.0000     -10.302143      -280.3356
  51   2.0000     -10.301888      -280.3286
  52   2.0000     -10.301002      -280.3045
  53   2.0000     -10.300318      -280.2859
  54   2.0000     -10.298774      -280.2439
  55   2.0000     -10.297217      -280.2015
  56   2.0000     -10.297205      -280.2012
  57   2.0000     -10.296797      -280.1901
  58   2.0000     -10.296711      -280.1878
  59   2.0000     -10.295339      -280.1504
  60   2.0000     -10.294734      -280.1339
  61   2.0000     -10.294254      -280.1209
  62   2.0000     -10.293227      -280.0929
  63   2.0000     -10.292884      -280.0836
  64   2.0000     -10.291566      -280.0478
  65   2.0000     -10.291434      -280.0441
  66   2.0000     -10.287001      -279.9235
  67   2.0000     -10.286993      -279.9233
  68   2.0000     -10.286233      -279.9026
  69   2.0000     -10.285488      -279.8823
  70   2.0000     -10.285278      -279.8766
  71   2.0000     -10.284269      -279.8492
  72   2.0000     -10.284053      -279.8433
  73   2.0000     -10.283805      -279.8366
  74   2.0000     -10.283429      -279.8263
  75   2.0000     -10.282757      -279.8080
  76   2.0000     -10.277020      -279.6519
  77   2.0000     -10.276297      -279.6323
  78   2.0000     -10.271726      -279.5079
  79   2.0000      -8.783828      -239.0201
  80   2.0000      -8.116586      -220.8635
  81   2.0000      -8.074020      -219.7052
  82   2.0000      -8.068620      -219.5583
  83   2.0000      -8.063116      -219.4085
  84   2.0000      -8.060701      -219.3428
  85   2.0000      -8.060104      -219.3266
  86   2.0000      -6.620072      -180.1413
  87   2.0000      -6.605575      -179.7468
  88   2.0000      -6.605413      -179.7424
  89   2.0000      -6.087809      -165.6577
  90   2.0000      -6.079957      -165.4440
  91   2.0000      -6.079126      -165.4214
  92   2.0000      -6.043331      -164.4474
  93   2.0000      -6.039305      -164.3378
  94   2.0000      -6.038390      -164.3129
  95   2.0000      -6.036035      -164.2489
  96   2.0000      -6.033408      -164.1774
  97   2.0000      -6.032806      -164.1610
  98   2.0000      -6.030766      -164.1055
  99   2.0000      -6.030327      -164.0936
 100   2.0000      -6.029815      -164.0796
 101   2.0000      -6.028678      -164.0487
 102   2.0000      -6.026223      -163.9819
 103   2.0000      -6.025532      -163.9631
 104   2.0000      -6.024270      -163.9287
 105   2.0000      -6.021981      -163.8664
 106   2.0000      -6.021331      -163.8487
 107   2.0000      -2.735970       -74.4495
 108   2.0000      -2.731880       -74.3382
 109   2.0000      -2.731749       -74.3347
 110   2.0000      -2.720230       -74.0212
 111   2.0000      -2.720228       -74.0212
 112   2.0000      -1.137067       -30.9412
 113   2.0000      -1.126055       -30.6415
 114   2.0000      -1.112898       -30.2835
 115   2.0000      -1.110820       -30.2269
 116   2.0000      -1.040741       -28.3200
 117   2.0000      -1.023657       -27.8551
 118   2.0000      -1.014103       -27.5952
 119   2.0000      -1.008685       -27.4477
 120   2.0000      -1.006919       -27.3997
 121   2.0000      -1.004515       -27.3342
 122   2.0000      -0.997071       -27.1317
 123   2.0000      -0.995660       -27.0933
 124   2.0000      -0.992923       -27.0188
 125   2.0000      -0.988133       -26.8885
 126   2.0000      -0.980420       -26.6786
 127   2.0000      -0.978792       -26.6343
 128   2.0000      -0.975967       -26.5574
 129   2.0000      -0.973047       -26.4780
 130   2.0000      -0.964856       -26.2551
 131   2.0000      -0.929446       -25.2915
 132   2.0000      -0.925565       -25.1859
 133   2.0000      -0.920177       -25.0393
 134   2.0000      -0.900970       -24.5166
 135   2.0000      -0.898045       -24.4370
 136   2.0000      -0.894540       -24.3417
 137   2.0000      -0.891169       -24.2499
 138   2.0000      -0.884570       -24.0704
 139   2.0000      -0.879005       -23.9189
 140   2.0000      -0.872600       -23.7446
 141   2.0000      -0.867427       -23.6039
 142   2.0000      -0.866789       -23.5865
 143   2.0000      -0.858637       -23.3647
 144   2.0000      -0.854932       -23.2639
 145   2.0000      -0.846856       -23.0441
 146   2.0000      -0.838785       -22.8245
 147   2.0000      -0.834631       -22.7115
 148   2.0000      -0.824667       -22.4403
 149   2.0000      -0.819388       -22.2967
 150   2.0000      -0.818237       -22.2654
 151   2.0000      -0.815427       -22.1889
 152   2.0000      -0.799918       -21.7669
 153   2.0000      -0.787824       -21.4378
 154   2.0000      -0.776696       -21.1350
 155   2.0000      -0.767630       -20.8883
 156   2.0000      -0.760773       -20.7017
 157   2.0000      -0.746445       -20.3118
 158   2.0000      -0.740918       -20.1614
 159   2.0000      -0.738708       -20.1013
 160   2.0000      -0.727633       -19.7999
 161   2.0000      -0.721886       -19.6435
 162   2.0000      -0.708037       -19.2667
 163   2.0000      -0.697157       -18.9706
 164   2.0000      -0.693239       -18.8640
 165   2.0000      -0.687856       -18.7175
 166   2.0000      -0.684090       -18.6150
 167   2.0000      -0.682904       -18.5828
 168   2.0000      -0.674795       -18.3621
 169   2.0000      -0.668472       -18.1901
 170   2.0000      -0.662385       -18.0244
 171   2.0000      -0.658541       -17.9198
 172   2.0000      -0.652130       -17.7454
 173   2.0000      -0.649342       -17.6695
 174   2.0000      -0.645201       -17.5568
 175   2.0000      -0.642821       -17.4920
 176   2.0000      -0.642435       -17.4816
 177   2.0000      -0.638266       -17.3681
 178   2.0000      -0.634480       -17.2651
 179   2.0000      -0.630394       -17.1539
 180   2.0000      -0.626756       -17.0549
 181   2.0000      -0.614613       -16.7245
 182   2.0000      -0.612385       -16.6638
 183   2.0000      -0.609202       -16.5772
 184   2.0000      -0.604568       -16.4511
 185   2.0000      -0.598883       -16.2964
 186   2.0000      -0.596916       -16.2429
 187   2.0000      -0.591979       -16.1086
 188   2.0000      -0.581995       -15.8369
 189   2.0000      -0.576180       -15.6787
 190   2.0000      -0.571193       -15.5429
 191   2.0000      -0.569949       -15.5091
 192   2.0000      -0.567584       -15.4448
 193   2.0000      -0.559376       -15.2214
 194   2.0000      -0.556664       -15.1476
 195   2.0000      -0.552784       -15.0420
 196   2.0000      -0.546111       -14.8604
 197   2.0000      -0.545305       -14.8385
 198   2.0000      -0.543261       -14.7829
 199   2.0000      -0.538296       -14.6478
 200   2.0000      -0.533318       -14.5123
 201   2.0000      -0.532100       -14.4792
 202   2.0000      -0.531113       -14.4523
 203   2.0000      -0.524657       -14.2766
 204   2.0000      -0.522187       -14.2094
 205   2.0000      -0.520389       -14.1605
 206   2.0000      -0.518789       -14.1170
 207   2.0000      -0.517425       -14.0798
 208   2.0000      -0.511960       -13.9311
 209   2.0000      -0.510598       -13.8941
 210   2.0000      -0.509704       -13.8698
 211   2.0000      -0.508550       -13.8383
 212   2.0000      -0.505521       -13.7559
 213   2.0000      -0.499343       -13.5878
 214   2.0000      -0.498776       -13.5724
 215   2.0000      -0.494856       -13.4657
 216   2.0000      -0.493764       -13.4360
 217   2.0000      -0.493610       -13.4318
 218   2.0000      -0.493431       -13.4269
 219   2.0000      -0.491196       -13.3661
 220   2.0000      -0.487794       -13.2736
 221   2.0000      -0.486082       -13.2270
 222   2.0000      -0.481345       -13.0981
 223   2.0000      -0.480081       -13.0637
 224   2.0000      -0.475474       -12.9383
 225   2.0000      -0.475144       -12.9293
 226   2.0000      -0.472675       -12.8621
 227   2.0000      -0.470175       -12.7941
 228   2.0000      -0.468785       -12.7563
 229   2.0000      -0.466538       -12.6951
 230   2.0000      -0.466135       -12.6842
 231   2.0000      -0.465506       -12.6671
 232   2.0000      -0.461480       -12.5575
 233   2.0000      -0.459212       -12.4958
 234   2.0000      -0.458437       -12.4747
 235   2.0000      -0.456994       -12.4354
 236   2.0000      -0.448898       -12.2151
 237   2.0000      -0.446103       -12.1391
 238   2.0000      -0.445258       -12.1161
 239   2.0000      -0.443762       -12.0754
 240   2.0000      -0.441343       -12.0096
 241   2.0000      -0.437982       -11.9181
 242   2.0000      -0.436356       -11.8738
 243   2.0000      -0.435386       -11.8475
 244   2.0000      -0.433891       -11.8068
 245   2.0000      -0.432446       -11.7674
 246   2.0000      -0.431612       -11.7448
 247   2.0000      -0.427746       -11.6396
 248   2.0000      -0.424965       -11.5639
 249   2.0000      -0.424603       -11.5540
 250   2.0000      -0.420776       -11.4499
 251   2.0000      -0.420033       -11.4297
 252   2.0000      -0.413506       -11.2521
 253   2.0000      -0.411129       -11.1874
 254   2.0000      -0.409571       -11.1450
 255   2.0000      -0.407984       -11.1018
 256   2.0000      -0.404375       -11.0036
 257   2.0000      -0.400830       -10.9071
 258   2.0000      -0.397522       -10.8171
 259   2.0000      -0.394377       -10.7315
 260   2.0000      -0.391985       -10.6665
 261   2.0000      -0.389503       -10.5989
 262   2.0000      -0.386581       -10.5194
 263   2.0000      -0.378237       -10.2923
 264   2.0000      -0.375939       -10.2298
 265   2.0000      -0.366295        -9.9674
 266   2.0000      -0.365245        -9.9388
 267   2.0000      -0.358481        -9.7548
 268   2.0000      -0.355655        -9.6779
 269   2.0000      -0.350918        -9.5490
 270   2.0000      -0.349687        -9.5155
 271   2.0000      -0.347726        -9.4621
 272   2.0000      -0.341251        -9.2859
 273   2.0000      -0.339485        -9.2379
 274   2.0000      -0.337735        -9.1902
 275   2.0000      -0.336774        -9.1641
 276   2.0000      -0.330818        -9.0020
 277   2.0000      -0.320513        -8.7216
 278   2.0000      -0.314155        -8.5486
 279   2.0000      -0.301598        -8.2069
 280   2.0000      -0.295030        -8.0282
 281   2.0000      -0.287781        -7.8309
 282   2.0000      -0.280814        -7.6413
 283   2.0000      -0.268939        -7.3182
 284   2.0000      -0.245423        -6.6783
 285   2.0000      -0.208882        -5.6840
 286   0.0000      -0.128166        -3.4876
 287   0.0000      -0.117557        -3.1989
 288   0.0000      -0.092595        -2.5196
 289   0.0000      -0.069745        -1.8979
 290   0.0000      -0.065806        -1.7907

MULLIKEN ATOMIC CHARGES
-----------------------
   0 C :    0.298598
   1 C :   -0.345424
   2 C :   -0.186814
   3 N :    0.140671
   4 C :   -0.201326
   5 N :    0.159312
   6 C :    0.018939
   7 C :   -0.017217
   8 C :   -0.076057
   9 C :    0.119464
  10 C :   -0.093361
  11 C :   -0.024472
  12 S :    0.180624
  13 C :   -0.123531
  14 C :    0.037258
  15 Br:    0.014509
  16 C :    0.153433
  17 O :   -0.163420
  18 C :   -0.073963
  19 C :   -0.069305
  20 C :    0.041356
  21 C :   -0.027536
  22 C :   -0.053485
  23 N :   -0.028735
  24 C :   -0.101031
  25 C :   -0.133890
  26 N :    0.057060
  27 C :   -0.214081
  28 N :    0.240020
  29 C :   -0.243940
  30 N :    0.236772
  31 C :    0.191285
  32 C :   -0.003615
  33 C :    0.030304
  34 N :   -0.275398
  35 S :    0.526683
  36 N :   -0.289852
  37 C :   -0.196172
  38 S :    0.204249
  39 C :   -0.016942
  40 C :   -0.029417
  41 C :   -0.016814
  42 C :    0.204950
  43 O :   -0.107554
  44 C :   -0.033910
  45 C :   -0.098127
  46 S :    0.181436
  47 C :   -0.079487
  48 C :   -0.035570
  49 C :    0.016441
  50 C :   -0.021699
  51 C :    0.016358
  52 C :    0.037519
  53 C :   -0.049807
  54 S :    0.068114
  55 C :   -0.010583
  56 C :    0.016054
  57 C :    0.050026
  58 C :   -0.043004
  59 S :    0.067395
  60 C :    0.016774
  61 C :    0.037854
  62 C :   -0.019805
  63 C :    0.055782
  64 C :    0.016932
  65 C :    0.036198
  66 C :   -0.001682
  67 C :    0.051438
  68 C :   -0.008089
  69 C :    0.053336
  70 C :    0.014633
  71 C :    0.032329
  72 C :   -0.018938
  73 C :    0.014164
  74 C :   -0.021645
  75 H :   -0.017113
  76 H :   -0.008521
  77 H :   -0.006956
  78 H :    0.041358
  79 H :    0.015524
  80 H :    0.008580
  81 H :   -0.011840
  82 H :   -0.007630
  83 H :   -0.007980
  84 H :   -0.009483
  85 H :   -0.005723
  86 H :   -0.014269
  87 H :   -0.021241
  88 H :   -0.015739
  89 H :   -0.015683
  90 H :   -0.015688
  91 H :   -0.010289
  92 H :   -0.001287
  93 H :   -0.014737
  94 H :    0.009164
  95 H :    0.026985
Sum of atomic charges:   -0.0000000

LOEWDIN ATOMIC CHARGES
----------------------
   0 C :    0.075210
   1 C :   -0.143260
   2 C :   -0.017647
   3 N :   -0.062030
   4 C :   -0.023824
   5 N :   -0.054236
   6 C :   -0.018677
   7 C :   -0.046146
   8 C :    0.016429
   9 C :   -0.035134
  10 C :   -0.145683
  11 C :   -0.012240
  12 S :    0.427595
  13 C :   -0.274390
  14 C :   -0.071515
  15 Br:    0.130029
  16 C :    0.082381
  17 O :   -0.155133
  18 C :   -0.094077
  19 C :    0.083764
  20 C :   -0.081357
  21 C :    0.022243
  22 C :   -0.020648
  23 N :   -0.024551
  24 C :   -0.045074
  25 C :   -0.014456
  26 N :   -0.010553
  27 C :   -0.032564
  28 N :   -0.002912
  29 C :   -0.040981
  30 N :   -0.017469
  31 C :   -0.011975
  32 C :   -0.047948
  33 C :   -0.020182
  34 N :   -0.273740
  35 S :    0.658346
  36 N :   -0.279238
  37 C :   -0.168922
  38 S :    0.500448
  39 C :   -0.145624
  40 C :   -0.107032
  41 C :    0.023784
  42 C :    0.089246
  43 O :   -0.112844
  44 C :   -0.058282
  45 C :   -0.207055
  46 S :    0.458758
  47 C :   -0.130985
  48 C :   -0.048048
  49 C :   -0.103267
  50 C :   -0.127352
  51 C :   -0.049010
  52 C :   -0.020671
  53 C :   -0.203027
  54 S :    0.402941
  55 C :   -0.148667
  56 C :   -0.051812
  57 C :   -0.007663
  58 C :   -0.172265
  59 S :    0.397851
  60 C :   -0.006914
  61 C :   -0.078085
  62 C :    0.037718
  63 C :   -0.069838
  64 C :    0.091301
  65 C :   -0.068311
  66 C :    0.065227
  67 C :   -0.059934
  68 C :    0.038540
  69 C :   -0.062727
  70 C :    0.085053
  71 C :   -0.063954
  72 C :    0.033243
  73 C :   -0.022710
  74 C :   -0.046211
  75 H :    0.038149
  76 H :    0.040245
  77 H :    0.037240
  78 H :    0.046186
  79 H :    0.041732
  80 H :    0.024925
  81 H :    0.035147
  82 H :    0.034726
  83 H :    0.034314
  84 H :    0.033524
  85 H :    0.036409
  86 H :    0.039543
  87 H :    0.026751
  88 H :    0.038286
  89 H :    0.028653
  90 H :    0.029282
  91 H :    0.040561
  92 H :    0.016278
  93 H :    0.031094
  94 H :    0.018432
  95 H :    0.027268

  Mayer bond orders larger than 0.100000
B(  0-C ,  1-C ) :   1.6320 B(  0-C ,  6-C ) :   0.9990 B(  0-C , 18-C ) :   1.0827
B(  1-C ,  2-C ) :   1.1427 B(  1-C ,  4-C ) :   1.1442 B(  2-C ,  3-N ) :   2.9684
B(  4-C ,  5-N ) :   2.9930 B(  6-C ,  7-C ) :   1.2781 B(  6-C , 11-C ) :   1.4138
B(  7-C ,  8-C ) :   1.4295 B(  7-C , 16-C ) :   0.9435 B(  8-C ,  9-C ) :   1.2418
B(  8-C , 75-H ) :   1.0162 B(  9-C , 10-C ) :   1.3135 B(  9-C , 14-C ) :   1.1608
B( 10-C , 11-C ) :   1.3257 B( 10-C , 12-S ) :   1.0821 B( 11-C , 76-H ) :   0.9801
B( 12-S , 13-C ) :   1.0854 B( 13-C , 14-C ) :   1.6212 B( 13-C , 15-Br) :   1.0133
B( 14-C , 77-H ) :   0.9993 B( 16-C , 17-O ) :   2.2083 B( 16-C , 18-C ) :   0.9585
B( 18-C , 19-C ) :   1.5415 B( 19-C , 20-C ) :   1.2150 B( 19-C , 78-H ) :   0.9325
B( 20-C , 21-C ) :   1.2463 B( 20-C , 33-C ) :   1.1688 B( 21-C , 22-C ) :   1.1244
B( 21-C , 26-N ) :   1.4590 B( 22-C , 23-N ) :   1.4558 B( 22-C , 31-C ) :   1.1554
B( 23-N , 24-C ) :   1.6193 B( 24-C , 25-C ) :   1.2508 B( 24-C , 29-C ) :   1.1626
B( 25-C , 26-N ) :   1.7181 B( 25-C , 27-C ) :   1.1630 B( 27-C , 28-N ) :   3.0479
B( 29-C , 30-N ) :   3.0369 B( 31-C , 32-C ) :   1.1622 B( 31-C , 37-C ) :   1.3698
B( 32-C , 33-C ) :   1.1182 B( 32-C , 36-N ) :   1.5371 B( 33-C , 34-N ) :   1.5313
B( 34-N , 35-S ) :   1.2626 B( 34-N , 36-N ) :   0.1396 B( 35-S , 36-N ) :   1.2630
B( 37-C , 38-S ) :   1.0399 B( 37-C , 41-C ) :   1.2992 B( 38-S , 39-C ) :   1.0935
B( 39-C , 40-C ) :   1.3081 B( 39-C , 45-C ) :   1.2700 B( 40-C , 41-C ) :   1.3921
B( 40-C , 42-C ) :   0.9105 B( 41-C , 79-H ) :   0.9919 B( 42-C , 43-O ) :   2.3293
B( 42-C , 44-C ) :   0.8944 B( 44-C , 45-C ) :   1.3564 B( 44-C , 48-C ) :   1.4432
B( 45-C , 46-S ) :   1.0795 B( 46-S , 47-C ) :   1.1008 B( 47-C , 48-C ) :   1.3051
B( 47-C , 49-C ) :   1.2762 B( 48-C , 80-H ) :   0.9790 B( 49-C , 50-C ) :   1.4795
B( 49-C , 81-H ) :   0.9507 B( 50-C , 51-C ) :   1.2078 B( 50-C , 54-S ) :   1.0788
B( 51-C , 52-C ) :   1.5185 B( 51-C , 82-H ) :   1.0005 B( 52-C , 53-C ) :   1.2473
B( 52-C , 83-H ) :   0.9935 B( 53-C , 54-S ) :   1.0390 B( 53-C , 55-C ) :   1.4229
B( 55-C , 56-C ) :   1.2236 B( 55-C , 59-S ) :   1.0838 B( 56-C , 57-C ) :   1.5464
B( 56-C , 84-H ) :   0.9948 B( 57-C , 58-C ) :   1.1742 B( 57-C , 85-H ) :   0.9993
B( 58-C , 59-S ) :   1.0192 B( 58-C , 60-C ) :   1.5257 B( 60-C , 61-C ) :   1.1725
B( 60-C , 86-H ) :   0.9693 B( 61-C , 62-C ) :   1.3508 B( 61-C , 72-C ) :   1.1602
B( 62-C , 63-C ) :   1.1855 B( 62-C , 87-H ) :   1.0183 B( 63-C , 64-C ) :   1.3418
B( 63-C , 71-C ) :   1.1390 B( 64-C , 65-C ) :   1.2100 B( 64-C , 88-H ) :   1.0039
B( 65-C , 66-C ) :   1.3501 B( 65-C , 69-C ) :   1.1257 B( 66-C , 67-C ) :   1.2067
B( 66-C , 89-H ) :   1.0085 B( 67-C , 68-C ) :   1.4405 B( 67-C , 73-C ) :   1.0815
B( 68-C , 69-C ) :   1.1232 B( 68-C , 90-H ) :   1.0169 B( 69-C , 70-C ) :   1.4254
B( 70-C , 71-C ) :   1.1502 B( 70-C , 91-H ) :   1.0046 B( 71-C , 72-C ) :   1.4290
B( 72-C , 92-H ) :   0.9907 B( 73-C , 74-C ) :   1.9376 B( 73-C , 93-H ) :   0.9667
B( 74-C , 94-H ) :   0.9535 B( 74-C , 95-H ) :   0.9500

-----------------------------------------------------------------------------
         ABSORPTION SPECTRUM VIA TRANSITION ELECTRIC DIPOLE MOMENTS
-----------------------------------------------------------------------------
State   Energy  Wavelength   fosc         T2         TX        TY        TZ
        (cm-1)    (nm)                  (au**2)     (au)      (au)      (au)
-----------------------------------------------------------------------------
   0    4992.7   2002.9   0.377504823  24.89198  -3.80347   3.02810  -1.12079
   1    5630.5   1776.1   0.545326599  31.88513  -4.42932   2.96181  -1.86920
   2   12491.2    800.6   0.176863451   4.66134   0.21464   1.22361   1.76580
   3   13041.3    766.8   0.228334365   5.76404  -0.56543   1.74731   1.54637
   4   13719.1    728.9   0.009113821   0.21870  -0.10471  -0.28264  -0.35756
   5   16271.8    614.6   0.349846824   7.07812   0.83677  -2.26026  -1.12657
   6   18561.5    538.7   0.693359234  12.29761   1.74060   0.27441   3.03193
   7   19239.6    519.8   0.062090237   1.06243  -0.44795  -0.77630  -0.50905
   8   20305.2    492.5   0.049372835   0.80049   0.05276  -0.68542  -0.57263
   9   21132.8    473.2   0.059171835   0.92179   0.56008   0.32298   0.70978
  10   21642.8    462.0   0.066264696   1.00796   0.09686   0.56798   0.82218
  11   22277.3    448.9   0.149955515   2.21603   0.67757   0.94158   0.93292
  12   23255.0    430.0   0.014920404   0.21122  -0.21705   0.08099   0.39693
  13   23572.5    424.2   0.035421508   0.49469   0.69504  -0.01238   0.10705
  14   23834.7    419.6   0.003990491   0.05512   0.15524   0.17544   0.01550
  15   24073.5    415.4   0.213203965   2.91562   0.86738   0.13612   1.46449
  16   24756.6    403.9   0.200268394   2.66316  -0.79968  -0.45330  -1.34840
  17   24921.4    401.3   0.090394057   1.19411   0.20011   0.20403   1.05472
  18   25659.3    389.7   0.000592583   0.00760  -0.02853  -0.01518   0.08099
  19   25823.7    387.2   0.087359829   1.11370  -0.57521   0.45372  -0.75959
  20   26075.2    383.5   0.288120337   3.63766   1.42060   0.43283   1.19676
  21   26327.1    379.8   0.017171209   0.21472   0.22120  -0.07224   0.40071
  22   26807.2    373.0   0.009082565   0.11154   0.02020  -0.33219  -0.02800
  23   27230.6    367.2   0.194688531   2.35374   0.33537   0.91136   1.18773
  24   27478.3    363.9   0.002852734   0.03418   0.01966   0.18260  -0.02122
  25   27966.6    357.6   0.031270749   0.36811   0.19625   0.12777   0.55970
  26   28112.6    355.7   0.603985544   7.07295   1.20919   1.06662   2.11498
  27   28692.3    348.5   0.042516608   0.48783  -0.56293   0.05451   0.40984
  28   29929.3    334.1   0.080212493   0.88231  -0.06702   0.36774   0.86174
  29   30037.7    332.9   0.079831737   0.87495   0.19385   0.68085   0.61141
  30   30492.8    327.9   0.186786344   2.01662   0.50910   0.49883  -1.22825
  31   30536.3    327.5   0.106121319   1.14410  -0.39327  -0.71160   0.69502
  32   30605.7    326.7   0.026972307   0.29013   0.02020   0.15775  -0.51462
  33   30853.6    324.1   0.028860335   0.30794  -0.33966  -0.08959   0.42959
  34   31113.9    321.4   0.098852387   1.04594   0.31759  -0.39541  -0.88811
  35   31200.7    320.5   0.075095052   0.79236  -0.69990   0.28574   0.46995
  36   31457.7    317.9   0.181999419   1.90466  -0.00242   0.29366   1.34849
  37   31748.3    315.0   0.051406715   0.53306  -0.43247   0.24066   0.53676
  38   31829.5    314.2   0.043711356   0.45211  -0.37057  -0.29771  -0.47555
  39   31973.8    312.8   0.023819080   0.24525   0.15679   0.40544   0.23723
  40   32188.4    310.7   0.074564109   0.76262   0.04477  -0.64622  -0.58567
  41   32338.4    309.2   0.016245019   0.16538  -0.34305   0.20331   0.07975
  42   32662.9    306.2   0.078879149   0.79503   0.17489   0.51559   0.70612
  43   32747.5    305.4   0.051766521   0.52041  -0.23948  -0.09866  -0.67330
  44   33137.7    301.8   0.289159091   2.87270  -0.43903   1.23081   1.07938
  45   33433.0    299.1   0.051128134   0.50345   0.00902  -0.56895  -0.42387
  46   33599.9    297.6   0.074467187   0.72963  -0.21738  -0.71657  -0.41098
  47   33895.5    295.0   0.068934771   0.66953  -0.31330   0.60268   0.45624
  48   34018.7    294.0   0.030648866   0.29660   0.25160  -0.31367  -0.36730
  49   34157.3    292.8   0.007794443   0.07512  -0.07672  -0.05830  -0.25659
  50   34547.8    289.5   0.015880255   0.15133  -0.17202   0.01672   0.34851
  51   34635.0    288.7   0.024269621   0.23069   0.19895  -0.38994  -0.19762
  52   34812.9    287.2   0.281673651   2.66368  -0.13979   0.43360   1.56720
  53   35120.6    284.7   0.115927497   1.08668  -0.91579  -0.46650  -0.17433
  54   35411.2    282.4   0.176740643   1.64313   1.08422  -0.15126  -0.66687
  55   35694.6    280.2   0.051672282   0.47657  -0.44654  -0.51058  -0.12837
  56   36030.2    277.5   0.103893504   0.94929   0.81054   0.23387   0.48746
  57   36116.5    276.9   0.024385526   0.22228  -0.12473   0.04786   0.45214
  58   36572.3    273.4   0.005141279   0.04628  -0.15395  -0.04743  -0.14258
  59   36880.7    271.1   0.012022054   0.10731  -0.21535   0.18453  -0.16397
  60   37091.7    269.6   0.015221004   0.13510   0.20092  -0.12983   0.27905
  61   37126.8    269.3   0.005893085   0.05226  -0.16355  -0.04375  -0.15360
  62   37262.6    268.4   0.002443293   0.02159  -0.10391  -0.01172   0.10321
  63   37419.8    267.2   0.012610542   0.11095  -0.01916  -0.09264  -0.31937
  64   37735.8    265.0   0.080175234   0.69946  -0.49659   0.27382   0.61472
  65   37843.8    264.2   0.149856967   1.30364   1.04263  -0.44883  -0.12296
  66   37971.1    263.4   0.000952799   0.00826   0.07677   0.04689  -0.01297
  67   38074.3    262.6   0.014629313   0.12649  -0.26340  -0.12759   0.20207
  68   38133.5    262.2   0.017016913   0.14691   0.31057  -0.21589   0.06201
  69   38427.5    260.2   0.051597235   0.44204   0.34311  -0.02299   0.56902
  70   38515.2    259.6   0.024645942   0.21066  -0.20353  -0.01606  -0.41107
  71   38606.3    259.0   0.035109371   0.29939  -0.31478   0.43874  -0.08840
  72   38661.2    258.7   0.000391736   0.00334  -0.04716  -0.01167   0.03122
  73   38875.0    257.2   0.004809555   0.04073  -0.14303   0.07332   0.12205
  74   39149.2    255.4   0.016577864   0.13941   0.22477   0.13044   0.26809
  75   39204.0    255.1   0.067444814   0.56636  -0.14413   0.18342   0.71551
  76   39316.5    254.3   0.000538771   0.00451  -0.05995   0.02614  -0.01532
  77   39376.7    254.0   0.009855076   0.08239   0.12998  -0.21116  -0.14461
  78   39473.0    253.3   0.002695060   0.02248  -0.01593   0.11245  -0.09787
  79   39703.7    251.9   0.105856989   0.87774  -0.17414  -0.69810  -0.60005
  80   39860.9    250.9   0.013596452   0.11229   0.28004  -0.09689   0.15646
  81   39916.6    250.5   0.055415112   0.45704   0.43512   0.21945   0.46856
  82   40058.7    249.6   0.007076146   0.05815   0.05362  -0.03847   0.23194
  83   40122.1    249.2   0.026533655   0.21772  -0.32287  -0.19301  -0.27607
  84   40215.7    248.7   0.274294940   2.24542  -0.91837  -0.18125  -1.17011

FINAL SINGLE POINT ENERGY     -7769.865003878664

DIPOLE MOMENT
-------------
                                X             Y             Z
Electronic contribution:    127.35043    -124.96139     125.60973
Nuclear contribution   :   -136.87986     131.38494    -126.58864
                        -----------------------------------------
Total Dipole Moment    :     -9.52943       6.42355      -0.97891
                        -----------------------------------------
Magnitude (a.u.)       :     11.53388
Magnitude (Debye)      :     29.31679

Rotational constants in cm-1:     0.000776     0.000213     0.000177
Rotational constants in MHz :    23.255592     6.379618     5.309317

                             ****ORCA TERMINATED NORMALLY****
TOTAL RUN TIME: 0 days 0 hours 14 minutes 9 seconds 333 msec
