                         Program Version 4.2.0 -  RELEASE  -
|  1> # ORCA input file
|  2> # SCF done       -189.880899541709          0.000850116761
|  3> ! CAM-B3LYP def2-SVP def2/J RIJCOSX Grid4 TightSCF
|  4> %maxcore 5000
|  5> %tddft
|  6>     Mode sTDDFT
|  7>     Ethresh 5.0
|  8>     maxcore 5000
|  9> end
| 10>
| 11> %pal
| 12>   nprocs 6
| 13>   end
| 14> * xyz 0 1
| 15>    C       -3.23943        -0.61141         0.56184
| 16>    C       -3.41378        -1.67425         1.41056
| 17>    C       -2.36141        -2.44705         1.94120
| 18>    N       -1.54546        -3.11115         2.40033
| 19>    C       -4.67124        -2.12662         1.85887
| 20>    N       -5.67438        -2.52436         2.25067
| 21>    C       -1.95724        -0.11001         0.07172
| 22>    C       -2.19236         1.00091        -0.77969
| 23>    C       -1.17676         1.69072        -1.39654
| 24>    C        0.13540         1.26630        -1.16284
| 25>    C        0.36095         0.15788        -0.31261
| 26>    C       -0.66727        -0.54066         0.31097
| 27>    S        2.05386        -0.19689        -0.16101
| 28>    C        2.43202         1.13031        -1.22683
| 29>    C        1.34670         1.80539        -1.67521
| 30>   Br        4.22200         1.49927        -1.64759
| 31>    C       -3.63738         1.23835        -0.85645
| 32>    O       -4.21375         2.11810        -1.49518
| 33>    C       -4.26833         0.22157        -0.01413
| 34>    C       -5.63594         0.15827         0.13621
| 35>    N       -6.40621         1.04155        -0.50249
| 36>    C       -7.75698         1.15626        -0.48855
| 37>    S       -8.76666         0.10301         0.45035
| 38>    C      -10.15422         0.96544        -0.12998
| 39>    N      -11.41650         0.54993         0.31646
| 40>    O      -12.38721         1.15923        -0.09149
| 41>    O      -11.44327        -0.39420         1.08544
| 42>    C       -9.85404         1.99030        -0.98649
| 43>    C       -8.47035         2.12331        -1.21308
| 44>    C       -7.82753         3.09374        -2.05516
| 45>    C       -8.44553         4.05173        -2.77099
| 46>    C       -7.77753         5.02160        -3.60723
| 47>    C       -6.37778         5.11910        -3.67464
| 48>    C       -5.79810         6.05332        -4.49532
| 49>    C       -6.59354         6.94756        -5.23540
| 50>    C       -7.97782         6.86410        -5.17788
| 51>    C       -8.55385         5.90164        -4.37410
| 52>    C       -5.72448         7.87547        -5.92394
| 53>    C       -4.39245         7.55692        -5.60986
| 54>    C       -4.33008         6.32997        -4.72431
| 55>    C       -3.58143         6.60013        -3.41039
| 56>    C       -4.17521         7.76938        -2.63338
| 57>    C       -3.64929         5.20437        -5.53847
| 58>    C       -3.72956         3.80703        -4.93627
| 59>    C       -3.35994         8.30514        -6.11776
| 60>    C       -3.63160         9.40417        -6.94907
| 61>    C       -4.96668         9.70514        -7.25342
| 62>    C       -6.00840         8.95332        -6.75140
| 63>    C       -2.51920        10.17101        -7.45404
| 64>    C       -2.57616        11.27185        -8.22743
| 65>    C       -1.43320        11.98293        -8.69204
| 66>    S        0.20113        11.51231        -8.32129
| 67>    C        0.83446        12.82483        -9.22584
| 68>    C       -0.13491        13.59020        -9.78977
| 69>    C       -1.43566        13.11939        -9.48693
| 70>    O       -2.61316        13.63840        -9.91956
| 71>    C       -2.66279        14.92624       -10.35160
| 72>    C       -3.73432        15.38182       -11.01111
| 73>    C       -3.90059        16.73102       -11.47634
| 74>    C       -3.05163        17.81536       -11.33309
| 75>    C       -3.64157        18.94827       -11.97505
| 76>    C       -3.21255        20.24353       -12.11879
| 77>    C       -4.04645        21.13455       -12.82216
| 78>    C       -3.90300        22.47975       -13.13116
| 79>    C       -5.04814        22.91392       -13.87079
| 80>    C       -5.89570        21.83151       -14.01558
| 81>    C       -5.31010        20.69516       -13.37246
| 82>    C       -5.74018        19.40133       -13.22828
| 83>    C       -4.90647        18.51018       -12.52457
| 84>    C       -5.04686        17.16624       -12.21308
| 85>    C       -5.29677        24.23980       -14.38356
| 86>    C       -4.49377        25.29068       -14.24136
| 87>    H       -1.38465         2.53035        -2.04107
| 88>    H       -0.44342        -1.37842         0.94983
| 89>    H        1.39738         2.64907        -2.33891
| 90>    H       -6.12431        -0.58384         0.75405
| 91>    H       -5.86285         1.71693        -1.07293
| 92>    H      -10.61558         2.60925        -1.42322
| 93>    H       -6.75105         3.02990        -2.10522
| 94>    H       -9.52430         4.12530        -2.74654
| 95>    H       -5.75810         4.47872        -3.06890
| 96>    H       -8.59468         7.54494        -5.74505
| 97>    H       -9.63087         5.82579        -4.32337
| 98>    H       -2.53475         6.81199        -3.63971
| 99>    H       -3.61510         5.70486        -2.78782
|100>    H       -4.13336         8.68284        -3.22250
|101>    H       -3.62059         7.92827        -1.71124
|102>    H       -5.21487         7.57289        -2.38035
|103>    H       -2.60042         5.48082        -5.66926
|104>    H       -4.10790         5.18152        -6.53062
|105>    H       -3.35453         3.78457        -3.91670
|106>    H       -3.12955         3.12246        -5.53273
|107>    H       -4.75372         3.44380        -4.93744
|108>    H       -2.33294         8.06598        -5.88007
|109>    H       -5.18761        10.54323        -7.89573
|110>    H       -7.02994         9.20231        -6.99812
|111>    H       -1.53801         9.80927        -7.16757
|112>    H       -3.51839        11.69295        -8.54828
|113>    H        1.89606        12.95033        -9.29860
|114>    H        0.07446        14.43759       -10.41736
|115>    H       -1.81911        15.55802       -10.10891
|116>    H       -4.54077        14.69256       -11.21867
|117>    H       -2.10470        17.82929       -10.82649
|118>    H       -2.26991        20.58062       -11.71008
|119>    H       -3.06721        23.09913       -12.86084
|120>    H       -6.84257        21.83184       -14.52460
|121>    H       -6.68261        19.06434       -13.63742
|122>    H       -5.87816        16.53628       -12.47639
|123>    H       -6.22858        24.34960       -14.92500
|124>    H       -3.55822        25.23234       -13.71199
|125>    H       -4.74689        26.25246       -14.65267
|126> *
|127>
|128>                          ****END OF INPUT****

CARTESIAN COORDINATES (ANGSTROEM)
---------------------------------
  C     -3.239430   -0.611410    0.561840
  C     -3.413780   -1.674250    1.410560
  C     -2.361410   -2.447050    1.941200
  N     -1.545460   -3.111150    2.400330
  C     -4.671240   -2.126620    1.858870
  N     -5.674380   -2.524360    2.250670
  C     -1.957240   -0.110010    0.071720
  C     -2.192360    1.000910   -0.779690
  C     -1.176760    1.690720   -1.396540
  C      0.135400    1.266300   -1.162840
  C      0.360950    0.157880   -0.312610
  C     -0.667270   -0.540660    0.310970
  S      2.053860   -0.196890   -0.161010
  C      2.432020    1.130310   -1.226830
  C      1.346700    1.805390   -1.675210
  Br     4.222000    1.499270   -1.647590
  C     -3.637380    1.238350   -0.856450
  O     -4.213750    2.118100   -1.495180
  C     -4.268330    0.221570   -0.014130
  C     -5.635940    0.158270    0.136210
  N     -6.406210    1.041550   -0.502490
  C     -7.756980    1.156260   -0.488550
  S     -8.766660    0.103010    0.450350
  C    -10.154220    0.965440   -0.129980
  N    -11.416500    0.549930    0.316460
  O    -12.387210    1.159230   -0.091490
  O    -11.443270   -0.394200    1.085440
  C     -9.854040    1.990300   -0.986490
  C     -8.470350    2.123310   -1.213080
  C     -7.827530    3.093740   -2.055160
  C     -8.445530    4.051730   -2.770990
  C     -7.777530    5.021600   -3.607230
  C     -6.377780    5.119100   -3.674640
  C     -5.798100    6.053320   -4.495320
  C     -6.593540    6.947560   -5.235400
  C     -7.977820    6.864100   -5.177880
  C     -8.553850    5.901640   -4.374100
  C     -5.724480    7.875470   -5.923940
  C     -4.392450    7.556920   -5.609860
  C     -4.330080    6.329970   -4.724310
  C     -3.581430    6.600130   -3.410390
  C     -4.175210    7.769380   -2.633380
  C     -3.649290    5.204370   -5.538470
  C     -3.729560    3.807030   -4.936270
  C     -3.359940    8.305140   -6.117760
  C     -3.631600    9.404170   -6.949070
  C     -4.966680    9.705140   -7.253420
  C     -6.008400    8.953320   -6.751400
  C     -2.519200   10.171010   -7.454040
  C     -2.576160   11.271850   -8.227430
  C     -1.433200   11.982930   -8.692040
  S      0.201130   11.512310   -8.321290
  C      0.834460   12.824830   -9.225840
  C     -0.134910   13.590200   -9.789770
  C     -1.435660   13.119390   -9.486930
  O     -2.613160   13.638400   -9.919560
  C     -2.662790   14.926240  -10.351600
  C     -3.734320   15.381820  -11.011110
  C     -3.900590   16.731020  -11.476340
  C     -3.051630   17.815360  -11.333090
  C     -3.641570   18.948270  -11.975050
  C     -3.212550   20.243530  -12.118790
  C     -4.046450   21.134550  -12.822160
  C     -3.903000   22.479750  -13.131160
  C     -5.048140   22.913920  -13.870790
  C     -5.895700   21.831510  -14.015580
  C     -5.310100   20.695160  -13.372460
  C     -5.740180   19.401330  -13.228280
  C     -4.906470   18.510180  -12.524570
  C     -5.046860   17.166240  -12.213080
  C     -5.296770   24.239800  -14.383560
  C     -4.493770   25.290680  -14.241360
  H     -1.384650    2.530350   -2.041070
  H     -0.443420   -1.378420    0.949830
  H      1.397380    2.649070   -2.338910
  H     -6.124310   -0.583840    0.754050
  H     -5.862850    1.716930   -1.072930
  H    -10.615580    2.609250   -1.423220
  H     -6.751050    3.029900   -2.105220
  H     -9.524300    4.125300   -2.746540
  H     -5.758100    4.478720   -3.068900
  H     -8.594680    7.544940   -5.745050
  H     -9.630870    5.825790   -4.323370
  H     -2.534750    6.811990   -3.639710
  H     -3.615100    5.704860   -2.787820
  H     -4.133360    8.682840   -3.222500
  H     -3.620590    7.928270   -1.711240
  H     -5.214870    7.572890   -2.380350
  H     -2.600420    5.480820   -5.669260
  H     -4.107900    5.181520   -6.530620
  H     -3.354530    3.784570   -3.916700
  H     -3.129550    3.122460   -5.532730
  H     -4.753720    3.443800   -4.937440
  H     -2.332940    8.065980   -5.880070
  H     -5.187610   10.543230   -7.895730
  H     -7.029940    9.202310   -6.998120
  H     -1.538010    9.809270   -7.167570
  H     -3.518390   11.692950   -8.548280
  H      1.896060   12.950330   -9.298600
  H      0.074460   14.437590  -10.417360
  H     -1.819110   15.558020  -10.108910
  H     -4.540770   14.692560  -11.218670
  H     -2.104700   17.829290  -10.826490
  H     -2.269910   20.580620  -11.710080
  H     -3.067210   23.099130  -12.860840
  H     -6.842570   21.831840  -14.524600
  H     -6.682610   19.064340  -13.637420
  H     -5.878160   16.536280  -12.476390
  H     -6.228580   24.349600  -14.925000
  H     -3.558220   25.232340  -13.711990
  H     -4.746890   26.252460  -14.652670

 Total Charge           Charge          ....    0
 Multiplicity           Mult            ....    1
 Number of Electrons    NEL             ....  542
 Basis Dimension        Dim             .... 1233

ORBITAL ENERGIES
----------------

  NO   OCC          E(Eh)            E(eV)
   0   2.0000    -482.891146    -13140.1361
   1   2.0000     -88.990637     -2421.5583
   2   2.0000     -88.982436     -2421.3352
   3   2.0000     -88.954371     -2420.5715
   4   2.0000     -62.568826     -1702.5843
   5   2.0000     -56.402786     -1534.7978
   6   2.0000     -56.400054     -1534.7235
   7   2.0000     -56.400026     -1534.7227
   8   2.0000     -19.268853      -524.3322
   9   2.0000     -19.239982      -523.5465
  10   2.0000     -19.239791      -523.5413
  11   2.0000     -19.239130      -523.5233
  12   2.0000     -14.651370      -398.6841
  13   2.0000     -14.498777      -394.5318
  14   2.0000     -14.422501      -392.4562
  15   2.0000     -14.418248      -392.3405
  16   2.0000     -10.385311      -282.5987
  17   2.0000     -10.373962      -282.2899
  18   2.0000     -10.370866      -282.2056
  19   2.0000     -10.365222      -282.0520
  20   2.0000     -10.350152      -281.6419
  21   2.0000     -10.348806      -281.6053
  22   2.0000     -10.345721      -281.5214
  23   2.0000     -10.335850      -281.2528
  24   2.0000     -10.332726      -281.1678
  25   2.0000     -10.327878      -281.0358
  26   2.0000     -10.324796      -280.9520
  27   2.0000     -10.321471      -280.8615
  28   2.0000     -10.316206      -280.7182
  29   2.0000     -10.314680      -280.6767
  30   2.0000     -10.312916      -280.6287
  31   2.0000     -10.311927      -280.6018
  32   2.0000     -10.311103      -280.5794
  33   2.0000     -10.307883      -280.4918
  34   2.0000     -10.303347      -280.3683
  35   2.0000     -10.302904      -280.3563
  36   2.0000     -10.302873      -280.3554
  37   2.0000     -10.298840      -280.2457
  38   2.0000     -10.294942      -280.1396
  39   2.0000     -10.294411      -280.1252
  40   2.0000     -10.291868      -280.0560
  41   2.0000     -10.287847      -279.9465
  42   2.0000     -10.286528      -279.9107
  43   2.0000     -10.280143      -279.7369
  44   2.0000     -10.279678      -279.7243
  45   2.0000     -10.278505      -279.6923
  46   2.0000     -10.278239      -279.6851
  47   2.0000     -10.278152      -279.6827
  48   2.0000     -10.274882      -279.5937
  49   2.0000     -10.274687      -279.5884
  50   2.0000     -10.272259      -279.5224
  51   2.0000     -10.271816      -279.5103
  52   2.0000     -10.270904      -279.4855
  53   2.0000     -10.270261      -279.4680
  54   2.0000     -10.269039      -279.4348
  55   2.0000     -10.268548      -279.4214
  56   2.0000     -10.268321      -279.4152
  57   2.0000     -10.267582      -279.3951
  58   2.0000     -10.267359      -279.3890
  59   2.0000     -10.266436      -279.3639
  60   2.0000     -10.266186      -279.3571
  61   2.0000     -10.265591      -279.3409
  62   2.0000     -10.265188      -279.3300
  63   2.0000     -10.265042      -279.3260
  64   2.0000     -10.265016      -279.3253
  65   2.0000     -10.264199      -279.3031
  66   2.0000     -10.263763      -279.2912
  67   2.0000     -10.263336      -279.2796
  68   2.0000     -10.262264      -279.2504
  69   2.0000     -10.260127      -279.1923
  70   2.0000     -10.259633      -279.1788
  71   2.0000     -10.258758      -279.1550
  72   2.0000     -10.258611      -279.1510
  73   2.0000     -10.253499      -279.0119
  74   2.0000     -10.251644      -278.9614
  75   2.0000     -10.246557      -278.8230
  76   2.0000      -8.798237      -239.4122
  77   2.0000      -8.085832      -220.0267
  78   2.0000      -8.078417      -219.8249
  79   2.0000      -8.050035      -219.0526
  80   2.0000      -6.634560      -180.5356
  81   2.0000      -6.619969      -180.1385
  82   2.0000      -6.619742      -180.1323
  83   2.0000      -6.055457      -164.7774
  84   2.0000      -6.051131      -164.6596
  85   2.0000      -6.048067      -164.5763
  86   2.0000      -6.047330      -164.5562
  87   2.0000      -6.043813      -164.4605
  88   2.0000      -6.039681      -164.3481
  89   2.0000      -6.019281      -163.7930
  90   2.0000      -6.015234      -163.6828
  91   2.0000      -6.012187      -163.5999
  92   2.0000      -2.750460       -74.8438
  93   2.0000      -2.746294       -74.7304
  94   2.0000      -2.746187       -74.7276
  95   2.0000      -2.734559       -74.4111
  96   2.0000      -2.734556       -74.4111
  97   2.0000      -1.321194       -35.9515
  98   2.0000      -1.176034       -32.0015
  99   2.0000      -1.153270       -31.3821
 100   2.0000      -1.140260       -31.0280
 101   2.0000      -1.106408       -30.1069
 102   2.0000      -1.030251       -28.0346
 103   2.0000      -1.019434       -27.7402
 104   2.0000      -1.011613       -27.5274
 105   2.0000      -0.999909       -27.2089
 106   2.0000      -0.996331       -27.1115
 107   2.0000      -0.986190       -26.8356
 108   2.0000      -0.982000       -26.7216
 109   2.0000      -0.980539       -26.6818
 110   2.0000      -0.955993       -26.0139
 111   2.0000      -0.948966       -25.8227
 112   2.0000      -0.946707       -25.7612
 113   2.0000      -0.926289       -25.2056
 114   2.0000      -0.916840       -24.9485
 115   2.0000      -0.915543       -24.9132
 116   2.0000      -0.901470       -24.5302
 117   2.0000      -0.897247       -24.4153
 118   2.0000      -0.893387       -24.3103
 119   2.0000      -0.890610       -24.2347
 120   2.0000      -0.884427       -24.0665
 121   2.0000      -0.872104       -23.7311
 122   2.0000      -0.868065       -23.6212
 123   2.0000      -0.857716       -23.3396
 124   2.0000      -0.855142       -23.2696
 125   2.0000      -0.846411       -23.0320
 126   2.0000      -0.842520       -22.9261
 127   2.0000      -0.837037       -22.7769
 128   2.0000      -0.836445       -22.7608
 129   2.0000      -0.831914       -22.6375
 130   2.0000      -0.830291       -22.5934
 131   2.0000      -0.817600       -22.2480
 132   2.0000      -0.812382       -22.1060
 133   2.0000      -0.800357       -21.7788
 134   2.0000      -0.791621       -21.5411
 135   2.0000      -0.784587       -21.3497
 136   2.0000      -0.769905       -20.9502
 137   2.0000      -0.763373       -20.7724
 138   2.0000      -0.762666       -20.7532
 139   2.0000      -0.755316       -20.5532
 140   2.0000      -0.743327       -20.2269
 141   2.0000      -0.739138       -20.1130
 142   2.0000      -0.730368       -19.8743
 143   2.0000      -0.717853       -19.5338
 144   2.0000      -0.715222       -19.4622
 145   2.0000      -0.708678       -19.2841
 146   2.0000      -0.697642       -18.9838
 147   2.0000      -0.694971       -18.9111
 148   2.0000      -0.689993       -18.7757
 149   2.0000      -0.684455       -18.6250
 150   2.0000      -0.679825       -18.4990
 151   2.0000      -0.674110       -18.3435
 152   2.0000      -0.665892       -18.1198
 153   2.0000      -0.664129       -18.0719
 154   2.0000      -0.661050       -17.9881
 155   2.0000      -0.653930       -17.7943
 156   2.0000      -0.652633       -17.7590
 157   2.0000      -0.650643       -17.7049
 158   2.0000      -0.639889       -17.4123
 159   2.0000      -0.637227       -17.3398
 160   2.0000      -0.632691       -17.2164
 161   2.0000      -0.629310       -17.1244
 162   2.0000      -0.626379       -17.0446
 163   2.0000      -0.624812       -17.0020
 164   2.0000      -0.618096       -16.8192
 165   2.0000      -0.616190       -16.7674
 166   2.0000      -0.609274       -16.5792
 167   2.0000      -0.609038       -16.5728
 168   2.0000      -0.601413       -16.3653
 169   2.0000      -0.598894       -16.2967
 170   2.0000      -0.590126       -16.0581
 171   2.0000      -0.586278       -15.9534
 172   2.0000      -0.576056       -15.6753
 173   2.0000      -0.575221       -15.6526
 174   2.0000      -0.573967       -15.6184
 175   2.0000      -0.572053       -15.5663
 176   2.0000      -0.563773       -15.3410
 177   2.0000      -0.562697       -15.3118
 178   2.0000      -0.561739       -15.2857
 179   2.0000      -0.554329       -15.0841
 180   2.0000      -0.552342       -15.0300
 181   2.0000      -0.544880       -14.8269
 182   2.0000      -0.542955       -14.7746
 183   2.0000      -0.539988       -14.6938
 184   2.0000      -0.539065       -14.6687
 185   2.0000      -0.538693       -14.6586
 186   2.0000      -0.535369       -14.5681
 187   2.0000      -0.533732       -14.5236
 188   2.0000      -0.531682       -14.4678
 189   2.0000      -0.528609       -14.3842
 190   2.0000      -0.527576       -14.3561
 191   2.0000      -0.525277       -14.2935
 192   2.0000      -0.523767       -14.2524
 193   2.0000      -0.518935       -14.1210
 194   2.0000      -0.516588       -14.0571
 195   2.0000      -0.515249       -14.0206
 196   2.0000      -0.511763       -13.9258
 197   2.0000      -0.509612       -13.8672
 198   2.0000      -0.504322       -13.7233
 199   2.0000      -0.503894       -13.7117
 200   2.0000      -0.500208       -13.6113
 201   2.0000      -0.496710       -13.5162
 202   2.0000      -0.492386       -13.3985
 203   2.0000      -0.489152       -13.3105
 204   2.0000      -0.489086       -13.3087
 205   2.0000      -0.486527       -13.2391
 206   2.0000      -0.483559       -13.1583
 207   2.0000      -0.480668       -13.0796
 208   2.0000      -0.473664       -12.8891
 209   2.0000      -0.473147       -12.8750
 210   2.0000      -0.469789       -12.7836
 211   2.0000      -0.467810       -12.7298
 212   2.0000      -0.466500       -12.6941
 213   2.0000      -0.465284       -12.6610
 214   2.0000      -0.464189       -12.6312
 215   2.0000      -0.460198       -12.5226
 216   2.0000      -0.457493       -12.4490
 217   2.0000      -0.456206       -12.4140
 218   2.0000      -0.455003       -12.3812
 219   2.0000      -0.454067       -12.3558
 220   2.0000      -0.452321       -12.3083
 221   2.0000      -0.450121       -12.2484
 222   2.0000      -0.448361       -12.2005
 223   2.0000      -0.446482       -12.1494
 224   2.0000      -0.446007       -12.1365
 225   2.0000      -0.445634       -12.1263
 226   2.0000      -0.443278       -12.0622
 227   2.0000      -0.441099       -12.0029
 228   2.0000      -0.438622       -11.9355
 229   2.0000      -0.434883       -11.8338
 230   2.0000      -0.432496       -11.7688
 231   2.0000      -0.432342       -11.7646
 232   2.0000      -0.431486       -11.7413
 233   2.0000      -0.424740       -11.5578
 234   2.0000      -0.422957       -11.5093
 235   2.0000      -0.419308       -11.4100
 236   2.0000      -0.418551       -11.3894
 237   2.0000      -0.415827       -11.3152
 238   2.0000      -0.415273       -11.3001
 239   2.0000      -0.414449       -11.2777
 240   2.0000      -0.411183       -11.1889
 241   2.0000      -0.407370       -11.0851
 242   2.0000      -0.399824       -10.8798
 243   2.0000      -0.395562       -10.7638
 244   2.0000      -0.393114       -10.6972
 245   2.0000      -0.388516       -10.5721
 246   2.0000      -0.387862       -10.5543
 247   2.0000      -0.386957       -10.5296
 248   2.0000      -0.384256       -10.4561
 249   2.0000      -0.380470       -10.3531
 250   2.0000      -0.379059       -10.3147
 251   2.0000      -0.378494       -10.2993
 252   2.0000      -0.377100       -10.2614
 253   2.0000      -0.368585       -10.0297
 254   2.0000      -0.361811        -9.8454
 255   2.0000      -0.360643        -9.8136
 256   2.0000      -0.357329        -9.7234
 257   2.0000      -0.350437        -9.5359
 258   2.0000      -0.344316        -9.3693
 259   2.0000      -0.326525        -8.8852
 260   2.0000      -0.324788        -8.8379
 261   2.0000      -0.319262        -8.6876
 262   2.0000      -0.314706        -8.5636
 263   2.0000      -0.312493        -8.5034
 264   2.0000      -0.302087        -8.2202
 265   2.0000      -0.296491        -8.0679
 266   2.0000      -0.284653        -7.7458
 267   2.0000      -0.265481        -7.2241
 268   2.0000      -0.262165        -7.1339
 269   2.0000      -0.240788        -6.5522
 270   2.0000      -0.226554        -6.1648
 271   0.0000      -0.091610        -2.4928
 272   0.0000      -0.091181        -2.4812
 273   0.0000      -0.074331        -2.0226
 274   0.0000      -0.048388        -1.3167
 275   0.0000      -0.037374        -1.0170

MULLIKEN ATOMIC CHARGES
-----------------------
   0 C :    0.324802
   1 C :   -0.343440
   2 C :   -0.188137
   3 N :    0.152934
   4 C :   -0.197250
   5 N :    0.149330
   6 C :    0.009306
   7 C :    0.001087
   8 C :   -0.066868
   9 C :    0.115045
  10 C :   -0.093273
  11 C :   -0.018402
  12 S :    0.192980
  13 C :   -0.124186
  14 C :    0.038340
  15 Br:    0.027949
  16 C :    0.169226
  17 O :   -0.230423
  18 C :   -0.132722
  19 C :    0.033010
  20 N :   -0.004453
  21 C :   -0.132183
  22 S :    0.179400
  23 C :    0.000993
  24 N :    0.274559
  25 O :   -0.246713
  26 O :   -0.255099
  27 C :    0.002632
  28 C :    0.158172
  29 C :   -0.032759
  30 C :   -0.002476
  31 C :    0.123847
  32 C :   -0.098780
  33 C :    0.011251
  34 C :    0.106073
  35 C :   -0.050715
  36 C :   -0.022442
  37 C :    0.090871
  38 C :    0.029730
  39 C :   -0.130794
  40 C :    0.050432
  41 C :    0.026957
  42 C :    0.081377
  43 C :    0.027615
  44 C :   -0.116119
  45 C :    0.136735
  46 C :   -0.017140
  47 C :   -0.040091
  48 C :   -0.029229
  49 C :    0.044039
  50 C :   -0.160377
  51 S :    0.112536
  52 C :   -0.058067
  53 C :   -0.024987
  54 C :    0.210773
  55 O :   -0.239846
  56 C :    0.144328
  57 C :    0.001896
  58 C :    0.068706
  59 C :   -0.041155
  60 C :    0.052912
  61 C :   -0.004832
  62 C :    0.045092
  63 C :   -0.024064
  64 C :    0.059895
  65 C :   -0.028111
  66 C :    0.055512
  67 C :   -0.004625
  68 C :    0.055599
  69 C :   -0.035569
  70 C :    0.012135
  71 C :   -0.026751
  72 H :   -0.015079
  73 H :   -0.004763
  74 H :   -0.002712
  75 H :    0.045513
  76 H :    0.184970
  77 H :    0.013332
  78 H :   -0.016799
  79 H :   -0.027198
  80 H :   -0.033396
  81 H :   -0.034771
  82 H :   -0.027907
  83 H :   -0.007070
  84 H :    0.008345
  85 H :    0.022973
  86 H :    0.007045
  87 H :    0.019874
  88 H :   -0.008294
  89 H :    0.005241
  90 H :    0.004544
  91 H :    0.007995
  92 H :    0.020701
  93 H :   -0.045141
  94 H :   -0.031737
  95 H :   -0.038823
  96 H :   -0.025858
  97 H :   -0.005569
  98 H :    0.031495
  99 H :   -0.008006
 100 H :    0.006053
 101 H :   -0.017413
 102 H :   -0.040991
 103 H :   -0.029646
 104 H :   -0.026595
 105 H :   -0.031911
 106 H :   -0.029149
 107 H :   -0.026520
 108 H :   -0.021588
 109 H :    0.005230
 110 H :    0.017632
Sum of atomic charges:   -0.0000000

LOEWDIN ATOMIC CHARGES
----------------------
   0 C :    0.078630
   1 C :   -0.148494
   2 C :   -0.020156
   3 N :   -0.053247
   4 C :   -0.020856
   5 N :   -0.052293
   6 C :   -0.017524
   7 C :   -0.051230
   8 C :    0.023272
   9 C :   -0.034125
  10 C :   -0.143684
  11 C :   -0.007026
  12 S :    0.438825
  13 C :   -0.271070
  14 C :   -0.070373
  15 Br:    0.139789
  16 C :    0.098910
  17 O :   -0.182678
  18 C :   -0.149379
  19 C :    0.113704
  20 N :    0.083793
  21 C :   -0.121030
  22 S :    0.470073
  23 C :   -0.198765
  24 N :    0.273136
  25 O :   -0.213083
  26 O :   -0.222196
  27 C :    0.003112
  28 C :   -0.076314
  29 C :   -0.043214
  30 C :    0.002252
  31 C :   -0.032687
  32 C :   -0.014613
  33 C :    0.004355
  34 C :   -0.009170
  35 C :   -0.022185
  36 C :   -0.016093
  37 C :   -0.024877
  38 C :    0.005752
  39 C :   -0.034549
  40 C :   -0.016101
  41 C :   -0.056608
  42 C :   -0.009399
  43 C :   -0.060258
  44 C :   -0.025207
  45 C :   -0.018555
  46 C :   -0.016701
  47 C :   -0.015655
  48 C :   -0.035761
  49 C :   -0.027544
  50 C :   -0.206253
  51 S :    0.436588
  52 C :   -0.171654
  53 C :   -0.095975
  54 C :    0.014464
  55 O :   -0.041084
  56 C :    0.060440
  57 C :   -0.066904
  58 C :   -0.055566
  59 C :   -0.005692
  60 C :   -0.056374
  61 C :    0.067892
  62 C :   -0.065630
  63 C :    0.044929
  64 C :   -0.063413
  65 C :    0.012354
  66 C :   -0.063009
  67 C :    0.068859
  68 C :   -0.067657
  69 C :    0.033693
  70 C :   -0.020107
  71 C :   -0.059291
  72 H :    0.040863
  73 H :    0.042285
  74 H :    0.038889
  75 H :    0.037449
  76 H :    0.083592
  77 H :    0.045407
  78 H :    0.026081
  79 H :    0.026959
  80 H :    0.025126
  81 H :    0.027054
  82 H :    0.026016
  83 H :    0.018579
  84 H :    0.019938
  85 H :    0.026054
  86 H :    0.023083
  87 H :    0.025279
  88 H :    0.018344
  89 H :    0.026827
  90 H :    0.016777
  91 H :    0.025545
  92 H :    0.025027
  93 H :    0.021853
  94 H :    0.025460
  95 H :    0.026028
  96 H :    0.017340
  97 H :    0.033014
  98 H :    0.025607
  99 H :    0.031398
 100 H :    0.016057
 101 H :    0.032564
 102 H :    0.017228
 103 H :    0.032797
 104 H :    0.023737
 105 H :    0.022523
 106 H :    0.033352
 107 H :    0.023708
 108 H :    0.028565
 109 H :    0.016837
 110 H :    0.023242

  Mayer bond orders larger than 0.100000
B(  0-C ,  1-C ) :   1.6282 B(  0-C ,  6-C ) :   1.0027 B(  0-C , 18-C ) :   1.0991
B(  1-C ,  2-C ) :   1.1442 B(  1-C ,  4-C ) :   1.1480 B(  2-C ,  3-N ) :   2.9686
B(  4-C ,  5-N ) :   2.9561 B(  6-C ,  7-C ) :   1.2740 B(  6-C , 11-C ) :   1.4284
B(  7-C ,  8-C ) :   1.4196 B(  7-C , 16-C ) :   0.9830 B(  8-C ,  9-C ) :   1.2468
B(  8-C , 72-H ) :   1.0214 B(  9-C , 10-C ) :   1.3094 B(  9-C , 14-C ) :   1.1628
B( 10-C , 11-C ) :   1.3167 B( 10-C , 12-S ) :   1.0911 B( 11-C , 73-H ) :   0.9804
B( 12-S , 13-C ) :   1.0885 B( 13-C , 14-C ) :   1.6164 B( 13-C , 15-Br) :   1.0215
B( 14-C , 74-H ) :   1.0003 B( 16-C , 17-O ) :   1.9998 B( 16-C , 18-C ) :   1.0192
B( 17-O , 76-H ) :   0.1480 B( 18-C , 19-C ) :   1.4346 B( 19-C , 20-N ) :   1.3565
B( 19-C , 75-H ) :   0.9325 B( 20-N , 21-C ) :   1.1879 B( 20-N , 76-H ) :   0.8218
B( 21-C , 22-S ) :   1.1283 B( 21-C , 28-C ) :   1.3729 B( 22-S , 23-C ) :   1.0859
B( 23-C , 24-N ) :   0.9630 B( 23-C , 27-C ) :   1.5028 B( 24-N , 25-O ) :   1.5346
B( 24-N , 26-O ) :   1.5177 B( 25-O , 26-O ) :   0.2627 B( 27-C , 28-C ) :   1.2167
B( 27-C , 77-H ) :   1.0010 B( 28-C , 29-C ) :   1.0679 B( 29-C , 30-C ) :   1.7323
B( 29-C , 78-H ) :   0.9619 B( 30-C , 31-C ) :   1.0632 B( 30-C , 79-H ) :   0.9861
B( 31-C , 32-C ) :   1.2854 B( 31-C , 36-C ) :   1.3391 B( 32-C , 33-C ) :   1.4284
B( 32-C , 80-H ) :   0.9912 B( 33-C , 34-C ) :   1.3686 B( 33-C , 39-C ) :   0.9194
B( 34-C , 35-C ) :   1.3466 B( 34-C , 37-C ) :   0.9971 B( 35-C , 36-C ) :   1.3727
B( 35-C , 81-H ) :   0.9902 B( 36-C , 82-H ) :   0.9933 B( 37-C , 38-C ) :   1.3811
B( 37-C , 47-C ) :   1.3275 B( 38-C , 39-C ) :   0.9242 B( 38-C , 44-C ) :   1.3724
B( 39-C , 40-C ) :   1.0328 B( 39-C , 42-C ) :   1.0153 B( 40-C , 41-C ) :   1.1043
B( 40-C , 83-H ) :   0.9376 B( 40-C , 84-H ) :   0.9384 B( 41-C , 85-H ) :   0.9636
B( 41-C , 86-H ) :   0.9640 B( 41-C , 87-H ) :   0.9647 B( 42-C , 43-C ) :   1.1143
B( 42-C , 88-H ) :   0.9359 B( 42-C , 89-H ) :   0.9385 B( 43-C , 90-H ) :   0.9620
B( 43-C , 91-H ) :   0.9580 B( 43-C , 92-H ) :   0.9579 B( 44-C , 45-C ) :   1.2902
B( 44-C , 93-H ) :   1.0122 B( 45-C , 46-C ) :   1.3432 B( 45-C , 48-C ) :   1.0748
B( 46-C , 47-C ) :   1.4015 B( 46-C , 94-H ) :   0.9848 B( 47-C , 95-H ) :   0.9897
B( 48-C , 49-C ) :   1.6711 B( 48-C , 96-H ) :   0.9819 B( 49-C , 50-C ) :   1.1557
B( 49-C , 97-H ) :   0.9695 B( 50-C , 51-S ) :   1.1037 B( 50-C , 54-C ) :   1.4812
B( 51-S , 52-C ) :   1.1772 B( 52-C , 53-C ) :   1.5534 B( 52-C , 98-H ) :   0.9695
B( 53-C , 54-C ) :   1.2138 B( 53-C , 99-H ) :   0.9979 B( 54-C , 55-O ) :   1.1070
B( 55-O , 56-C ) :   1.0458 B( 56-C , 57-C ) :   1.7654 B( 56-C ,100-H ) :   0.9543
B( 57-C , 58-C ) :   1.0672 B( 57-C ,101-H ) :   0.9757 B( 58-C , 59-C ) :   1.5069
B( 58-C , 69-C ) :   1.1556 B( 59-C , 60-C ) :   1.1065 B( 59-C ,102-H ) :   1.0056
B( 60-C , 61-C ) :   1.4499 B( 60-C , 68-C ) :   1.1404 B( 61-C , 62-C ) :   1.1290
B( 61-C ,103-H ) :   1.0037 B( 62-C , 63-C ) :   1.4299 B( 62-C , 66-C ) :   1.1408
B( 63-C , 64-C ) :   1.1511 B( 63-C ,104-H ) :   1.0072 B( 64-C , 65-C ) :   1.5052
B( 64-C , 70-C ) :   1.0836 B( 65-C , 66-C ) :   1.0846 B( 65-C ,105-H ) :   1.0158
B( 66-C , 67-C ) :   1.4558 B( 67-C , 68-C ) :   1.1313 B( 67-C ,106-H ) :   1.0054
B( 68-C , 69-C ) :   1.4143 B( 69-C ,107-H ) :   1.0135 B( 70-C , 71-C ) :   1.9352
B( 70-C ,108-H ) :   0.9658 B( 71-C ,109-H ) :   0.9521 B( 71-C ,110-H ) :   0.9492

-----------------------------------------------------------------------------
         ABSORPTION SPECTRUM VIA TRANSITION ELECTRIC DIPOLE MOMENTS
-----------------------------------------------------------------------------
State   Energy  Wavelength   fosc         T2         TX        TY        TZ
        (cm-1)    (nm)                  (au**2)     (au)      (au)      (au)
-----------------------------------------------------------------------------
   0    8367.7   1195.1   0.001596219   0.06280   0.01844  -0.22806   0.10223
   1   19609.5    510.0   0.634386655  10.65033   1.92725  -2.19189   1.46002
   2   21026.9    475.6   0.050089065   0.78423  -0.38018  -0.76413   0.23623
   3   22770.9    439.2   0.049681872   0.71828   0.53598  -0.60013   0.26617
   4   22848.1    437.7   0.373265810   5.37828  -0.10128   2.11717  -0.94107
   5   23935.0    417.8   0.267663787   3.68156  -1.91769   0.00499   0.06338
   6   25978.4    384.9   0.284405359   3.60414   0.24622   1.33279  -1.32935
   7   26250.6    380.9   1.618618629  20.29926  -1.87979  -3.45424   2.19860
   8   26331.8    379.8   0.302794584   3.78567   1.92987   0.11112  -0.22117
   9   27073.4    369.4   0.096073630   1.16825  -0.25057   0.88507  -0.56756
  10   28805.4    347.2   0.090364024   1.03275   0.27154  -0.95426   0.22000
  11   29183.3    342.7   0.002718349   0.03067  -0.16013  -0.03960   0.05878
  12   29730.0    336.4   0.493235112   5.46178  -1.91426  -1.03604   0.85088
  13   30498.9    327.9   0.045155173   0.48742   0.67605   0.08252  -0.15348
  14   30786.4    324.8   0.183108680   1.95806   1.33972  -0.39724   0.07349
  15   30945.1    323.2   0.424191843   4.51279  -1.85440  -0.74893   0.71630
  16   31269.8    319.8   0.385636803   4.06002   1.43489   1.07093  -0.92425
  17   32502.2    307.7   0.000485378   0.00492   0.06428   0.00849  -0.02669
  18   32922.9    303.7   0.930845511   9.30799   0.62402  -2.78750   1.07165
  19   33535.2    298.2   0.020183346   0.19814   0.27459  -0.35009  -0.01307
  20   33563.0    297.9   0.122155449   1.19820  -1.03050  -0.24429   0.27676
  21   33951.1    294.5   0.275466234   2.67110   0.00508   1.55772  -0.49454
  22   34003.7    294.1   0.000256579   0.00248   0.00817  -0.04285   0.02411
  23   34187.9    292.5   0.346504877   3.33667   1.26452   0.93992  -0.92424
  24   34397.0    290.7   0.000236314   0.00226   0.03042   0.03568   0.00798
  25   34547.8    289.5   0.035671529   0.33992   0.30404  -0.08563  -0.49005
  26   34904.4    286.5   0.638837432   6.02540  -0.35099   2.24560  -0.92708
  27   35405.9    282.4   0.023411278   0.21768  -0.22749  -0.31869   0.25371
  28   35886.3    278.7   0.028419428   0.26071   0.42034   0.23188  -0.17394
  29   36151.9    276.6   0.000248241   0.00226  -0.03715   0.01073   0.02766
  30   36324.8    275.3   0.017993462   0.16307   0.18948  -0.27613   0.22567
  31   36772.9    271.9   0.000233113   0.00209  -0.03288   0.02033  -0.02434
  32   36904.9    271.0   0.040385784   0.36026   0.21506  -0.45121   0.33230
  33   37551.5    266.3   0.036106840   0.31655   0.17029  -0.41819   0.33566
  34   37918.5    263.7   0.007603104   0.06601  -0.05686  -0.24019   0.07131
  35   38189.1    261.9   0.192366939   1.65831   1.23471  -0.33243   0.15264
  36   38385.8    260.5   0.037787705   0.32408   0.20305  -0.43375   0.30776
  37   38653.2    258.7   0.018592782   0.15836  -0.29475  -0.22631   0.14234
  38   38729.8    258.2   0.022795035   0.19376   0.16314   0.40707  -0.03803
  39   39015.5    256.3   0.002509903   0.02118  -0.13012  -0.05404   0.03642
  40   39268.2    254.7   0.005125755   0.04297  -0.14344  -0.09582   0.11496
  41   39346.4    254.2   0.023124974   0.19349  -0.15879   0.31659  -0.26086
  42   39545.9    252.9   0.125009732   1.04068  -0.24666  -0.95906   0.24504
  43   39599.2    252.5   0.040343856   0.33540  -0.46279  -0.29299  -0.18812
  44   39838.5    251.0   0.004117903   0.03403  -0.17359   0.04004  -0.04787
  45   40012.2    249.9   0.004602872   0.03787  -0.05732   0.16493  -0.08593

FINAL SINGLE POINT ENERGY     -6594.138651294697

DIPOLE MOMENT
-------------
                                X             Y             Z
Electronic contribution:     97.53972    -160.36162      98.21190
Nuclear contribution   :    -94.96933     163.32593    -100.61046
                        -----------------------------------------
Total Dipole Moment    :      2.57038       2.96430      -2.39857
                        -----------------------------------------
Magnitude (a.u.)       :      4.59860
Magnitude (Debye)      :     11.68870

Rotational constants in cm-1:     0.001007     0.000192     0.000163
Rotational constants in MHz :    30.192360     5.754163     4.876279

                             ****ORCA TERMINATED NORMALLY****
TOTAL RUN TIME: 0 days 0 hours 11 minutes 0 seconds 552 msec
