                         Program Version 4.2.0 -  RELEASE  -
|  1> # ORCA input file
|  2> # SCF done       -177.226259508677          0.000704433349
|  3> ! CAM-B3LYP def2-SVP def2/J RIJCOSX Grid4 TightSCF
|  4> %maxcore 5000
|  5> %tddft
|  6>     Mode sTDDFT
|  7>     Ethresh 5.0
|  8>     maxcore 5000
|  9> end
| 10>
| 11> %pal
| 12>   nprocs 6
| 13>   end
| 14> * xyz 0 1
| 15>    C      -10.12449        -1.76413        -1.34327
| 16>    C      -10.89954        -1.24669        -0.32529
| 17>    C      -11.88287        -1.96910         0.37696
| 18>    N      -12.69996        -2.49310         0.99219
| 19>    C      -10.82902         0.06880         0.15144
| 20>    N      -10.84034         1.13607         0.58486
| 21>    C      -10.19473        -3.14324        -1.81841
| 22>    C       -9.23509        -3.31429        -2.84330
| 23>    C       -9.05843        -4.50405        -3.50254
| 24>    C       -9.86225        -5.58604        -3.12274
| 25>    C      -10.81705        -5.40654        -2.09605
| 26>    C      -11.00077        -4.19754        -1.43455
| 27>    S      -11.70908        -6.86694        -1.78997
| 28>    C      -10.79735        -7.68684        -3.02905
| 29>    C       -9.87265        -6.90990        -3.64118
| 30>   Br      -11.15332        -9.49138        -3.39934
| 31>    C       -8.53731        -2.02918        -3.07792
| 32>    O       -7.78760        -1.79408        -4.00208
| 33>    C       -9.07968        -1.09305        -2.06798
| 34>    C       -8.73243         0.23985        -1.92523
| 35>    C       -7.53841         0.83221        -2.35801
| 36>    C       -7.34370         2.21471        -2.46743
| 37>    O       -6.19640         2.71631        -3.03981
| 38>    C       -5.28409         1.82498        -3.50956
| 39>    C       -5.45974         0.42527        -3.32727
| 40>    C       -4.45110        -0.30507        -3.86255
| 41>    S       -3.26654         0.71607        -4.59175
| 42>    C       -4.14319         2.13984        -4.17249
| 43>    O       -6.53371        -0.06005        -2.66035
| 44>    C       -8.17683         3.31002        -2.14781
| 45>    C       -9.28623         3.49696        -1.36807
| 46>    C       -9.84820         4.78082        -1.22971
| 47>    S       -9.13164         6.12426        -2.08816
| 48>    C      -10.94293         5.20925        -0.45963
| 49>    C      -11.79482         4.26335         0.31645
| 50>    C      -12.97814         3.74590        -0.54376
| 51>    N      -12.61398         2.89015        -1.64635
| 52>    C      -11.17672         6.58284        -0.55773
| 53>    C      -12.26869         7.33225         0.13591
| 54>    C      -13.42741         7.68301        -0.81074
| 55>    N      -14.28697         8.66053        -0.16603
| 56>    C      -10.27092         7.24330        -1.40809
| 57>    C      -10.22396         8.60788        -1.71367
| 58>    C       -9.35395         9.21953        -2.58984
| 59>    C       -9.30825        10.60192        -2.89685
| 60>    C       -8.35748        10.94638        -3.81195
| 61>    C       -7.60022         9.85150        -4.27971
| 62>    S       -8.13312         8.37226        -3.51348
| 63>    C       -6.56926         9.82028        -5.20040
| 64>    C       -5.98197        10.88554        -5.91771
| 65>    C       -4.97384        10.49924        -6.74699
| 66>    C       -4.70829         9.10459        -6.73381
| 67>    S       -5.79859         8.30366        -5.61864
| 68>    C       -3.75039         8.45816        -7.46886
| 69>    C       -3.47093         7.08049        -7.48613
| 70>    S       -4.32296         5.84818        -6.56658
| 71>    C       -3.37827         4.55355        -7.18575
| 72>    C       -2.42998         5.02136        -8.06574
| 73>    C       -2.49165         6.43779        -8.22701
| 74>    O       -1.55243         6.86656        -9.09383
| 75>    C       -0.89143         5.74296        -9.48675
| 76>    N        0.16934         5.89663       -10.41251
| 77>    O        0.74653         4.87951       -10.74651
| 78>    O        0.42674         7.01510       -10.80075
| 79>    C       -1.36579         4.59674        -8.90840
| 80>    H       -8.32268        -4.60128        -4.28541
| 81>    H      -11.74828        -4.11085        -0.66404
| 82>    H       -9.22507        -7.25382        -4.42696
| 83>    H       -9.42437         0.88636        -1.41813
| 84>    H       -4.33933        -1.36827        -3.87225
| 85>    H       -3.77154         3.11345        -4.41490
| 86>    H       -7.76416         4.21496        -2.58511
| 87>    H       -9.74112         2.70069        -0.79980
| 88>    H      -12.20353         4.76086         1.19577
| 89>    H      -11.21598         3.40561         0.65451
| 90>    H      -13.52926         4.59736        -0.95243
| 91>    H      -13.64989         3.17828         0.10430
| 92>    H      -11.97205         3.35999        -2.27615
| 93>    H      -12.16199         2.05128        -1.30027
| 94>    H      -11.87781         8.26780         0.54091
| 95>    H      -12.65959         6.74839         0.96935
| 96>    H      -13.95230         6.75805        -1.10292
| 97>    H      -13.03243         8.13999        -1.72266
| 98>    H      -14.70830         8.26335         0.66772
| 99>    H      -15.03837         8.93860        -0.78738
|100>    H      -10.93963         9.25058        -1.21999
|101>    H       -9.98203        11.29894        -2.43032
|102>    H       -8.18631        11.94942        -4.15936
|103>    H       -6.31679        11.90057        -5.80108
|104>    H       -4.40823        11.16709        -7.37212
|105>    H       -3.12711         9.05819        -8.11914
|106>    H       -3.57519         3.54672        -6.88058
|107>    H       -0.99498         3.60643        -9.07261
|108> *
|109>
|110>                          ****END OF INPUT****

CARTESIAN COORDINATES (ANGSTROEM)
---------------------------------
  C    -10.124490   -1.764130   -1.343270
  C    -10.899540   -1.246690   -0.325290
  C    -11.882870   -1.969100    0.376960
  N    -12.699960   -2.493100    0.992190
  C    -10.829020    0.068800    0.151440
  N    -10.840340    1.136070    0.584860
  C    -10.194730   -3.143240   -1.818410
  C     -9.235090   -3.314290   -2.843300
  C     -9.058430   -4.504050   -3.502540
  C     -9.862250   -5.586040   -3.122740
  C    -10.817050   -5.406540   -2.096050
  C    -11.000770   -4.197540   -1.434550
  S    -11.709080   -6.866940   -1.789970
  C    -10.797350   -7.686840   -3.029050
  C     -9.872650   -6.909900   -3.641180
  Br   -11.153320   -9.491380   -3.399340
  C     -8.537310   -2.029180   -3.077920
  O     -7.787600   -1.794080   -4.002080
  C     -9.079680   -1.093050   -2.067980
  C     -8.732430    0.239850   -1.925230
  C     -7.538410    0.832210   -2.358010
  C     -7.343700    2.214710   -2.467430
  O     -6.196400    2.716310   -3.039810
  C     -5.284090    1.824980   -3.509560
  C     -5.459740    0.425270   -3.327270
  C     -4.451100   -0.305070   -3.862550
  S     -3.266540    0.716070   -4.591750
  C     -4.143190    2.139840   -4.172490
  O     -6.533710   -0.060050   -2.660350
  C     -8.176830    3.310020   -2.147810
  C     -9.286230    3.496960   -1.368070
  C     -9.848200    4.780820   -1.229710
  S     -9.131640    6.124260   -2.088160
  C    -10.942930    5.209250   -0.459630
  C    -11.794820    4.263350    0.316450
  C    -12.978140    3.745900   -0.543760
  N    -12.613980    2.890150   -1.646350
  C    -11.176720    6.582840   -0.557730
  C    -12.268690    7.332250    0.135910
  C    -13.427410    7.683010   -0.810740
  N    -14.286970    8.660530   -0.166030
  C    -10.270920    7.243300   -1.408090
  C    -10.223960    8.607880   -1.713670
  C     -9.353950    9.219530   -2.589840
  C     -9.308250   10.601920   -2.896850
  C     -8.357480   10.946380   -3.811950
  C     -7.600220    9.851500   -4.279710
  S     -8.133120    8.372260   -3.513480
  C     -6.569260    9.820280   -5.200400
  C     -5.981970   10.885540   -5.917710
  C     -4.973840   10.499240   -6.746990
  C     -4.708290    9.104590   -6.733810
  S     -5.798590    8.303660   -5.618640
  C     -3.750390    8.458160   -7.468860
  C     -3.470930    7.080490   -7.486130
  S     -4.322960    5.848180   -6.566580
  C     -3.378270    4.553550   -7.185750
  C     -2.429980    5.021360   -8.065740
  C     -2.491650    6.437790   -8.227010
  O     -1.552430    6.866560   -9.093830
  C     -0.891430    5.742960   -9.486750
  N      0.169340    5.896630  -10.412510
  O      0.746530    4.879510  -10.746510
  O      0.426740    7.015100  -10.800750
  C     -1.365790    4.596740   -8.908400
  H     -8.322680   -4.601280   -4.285410
  H    -11.748280   -4.110850   -0.664040
  H     -9.225070   -7.253820   -4.426960
  H     -9.424370    0.886360   -1.418130
  H     -4.339330   -1.368270   -3.872250
  H     -3.771540    3.113450   -4.414900
  H     -7.764160    4.214960   -2.585110
  H     -9.741120    2.700690   -0.799800
  H    -12.203530    4.760860    1.195770
  H    -11.215980    3.405610    0.654510
  H    -13.529260    4.597360   -0.952430
  H    -13.649890    3.178280    0.104300
  H    -11.972050    3.359990   -2.276150
  H    -12.161990    2.051280   -1.300270
  H    -11.877810    8.267800    0.540910
  H    -12.659590    6.748390    0.969350
  H    -13.952300    6.758050   -1.102920
  H    -13.032430    8.139990   -1.722660
  H    -14.708300    8.263350    0.667720
  H    -15.038370    8.938600   -0.787380
  H    -10.939630    9.250580   -1.219990
  H     -9.982030   11.298940   -2.430320
  H     -8.186310   11.949420   -4.159360
  H     -6.316790   11.900570   -5.801080
  H     -4.408230   11.167090   -7.372120
  H     -3.127110    9.058190   -8.119140
  H     -3.575190    3.546720   -6.880580
  H     -0.994980    3.606430   -9.072610

 Total Charge           Charge          ....    0
 Multiplicity           Mult            ....    1
 Number of Electrons    NEL             ....  524
 Basis Dimension        Dim             .... 1092

ORBITAL ENERGIES
----------------

  NO   OCC          E(Eh)            E(eV)
   0   2.0000    -482.879387    -13139.8161
   1   2.0000     -88.984725     -2421.3975
   2   2.0000     -88.967101     -2420.9179
   3   2.0000     -88.961992     -2420.7789
   4   2.0000     -88.959283     -2420.7052
   5   2.0000     -88.957280     -2420.6506
   6   2.0000     -88.955667     -2420.6068
   7   2.0000     -62.557083     -1702.2648
   8   2.0000     -56.391024     -1534.4778
   9   2.0000     -56.388330     -1534.4045
  10   2.0000     -56.388289     -1534.4033
  11   2.0000     -19.316164      -525.6195
  12   2.0000     -19.292907      -524.9867
  13   2.0000     -19.267314      -524.2903
  14   2.0000     -19.248118      -523.7679
  15   2.0000     -19.245857      -523.7064
  16   2.0000     -19.197167      -522.3815
  17   2.0000     -14.659806      -398.9136
  18   2.0000     -14.420148      -392.3922
  19   2.0000     -14.404097      -391.9554
  20   2.0000     -14.384145      -391.4125
  21   2.0000     -14.369762      -391.0211
  22   2.0000     -10.392620      -282.7976
  23   2.0000     -10.379601      -282.4433
  24   2.0000     -10.354542      -281.7614
  25   2.0000     -10.351164      -281.6695
  26   2.0000     -10.350730      -281.6577
  27   2.0000     -10.350617      -281.6546
  28   2.0000     -10.345314      -281.5103
  29   2.0000     -10.341042      -281.3941
  30   2.0000     -10.332694      -281.1669
  31   2.0000     -10.327968      -281.0383
  32   2.0000     -10.327486      -281.0252
  33   2.0000     -10.326058      -280.9863
  34   2.0000     -10.325483      -280.9707
  35   2.0000     -10.320622      -280.8384
  36   2.0000     -10.320568      -280.8369
  37   2.0000     -10.320335      -280.8306
  38   2.0000     -10.319391      -280.8049
  39   2.0000     -10.317925      -280.7650
  40   2.0000     -10.315425      -280.6970
  41   2.0000     -10.311834      -280.5993
  42   2.0000     -10.310349      -280.5589
  43   2.0000     -10.308965      -280.5212
  44   2.0000     -10.306177      -280.4453
  45   2.0000     -10.304940      -280.4117
  46   2.0000     -10.304250      -280.3929
  47   2.0000     -10.301839      -280.3273
  48   2.0000     -10.301312      -280.3130
  49   2.0000     -10.299096      -280.2527
  50   2.0000     -10.298364      -280.2327
  51   2.0000     -10.298117      -280.2260
  52   2.0000     -10.298021      -280.2234
  53   2.0000     -10.296790      -280.1899
  54   2.0000     -10.295860      -280.1646
  55   2.0000     -10.294583      -280.1298
  56   2.0000     -10.294184      -280.1190
  57   2.0000     -10.292700      -280.0786
  58   2.0000     -10.290364      -280.0150
  59   2.0000     -10.289839      -280.0008
  60   2.0000     -10.289062      -279.9796
  61   2.0000     -10.287524      -279.9377
  62   2.0000     -10.285825      -279.8915
  63   2.0000     -10.284646      -279.8594
  64   2.0000     -10.281079      -279.7624
  65   2.0000     -10.280397      -279.7438
  66   2.0000     -10.280226      -279.7392
  67   2.0000     -10.270578      -279.4766
  68   2.0000     -10.256579      -279.0957
  69   2.0000      -8.786493      -239.0926
  70   2.0000      -8.079042      -219.8419
  71   2.0000      -8.063161      -219.4098
  72   2.0000      -8.057691      -219.2609
  73   2.0000      -8.055528      -219.2021
  74   2.0000      -8.053389      -219.1439
  75   2.0000      -8.051128      -219.0823
  76   2.0000      -6.622742      -180.2140
  77   2.0000      -6.608231      -179.8191
  78   2.0000      -6.608079      -179.8150
  79   2.0000      -6.048329      -164.5834
  80   2.0000      -6.043998      -164.4655
  81   2.0000      -6.041502      -164.3976
  82   2.0000      -6.032869      -164.1627
  83   2.0000      -6.028581      -164.0460
  84   2.0000      -6.027198      -164.0084
  85   2.0000      -6.025284      -163.9563
  86   2.0000      -6.024350      -163.9309
  87   2.0000      -6.023101      -163.8969
  88   2.0000      -6.023011      -163.8945
  89   2.0000      -6.021172      -163.8444
  90   2.0000      -6.020292      -163.8205
  91   2.0000      -6.019395      -163.7961
  92   2.0000      -6.018910      -163.7829
  93   2.0000      -6.016428      -163.7153
  94   2.0000      -6.016399      -163.7145
  95   2.0000      -6.014415      -163.6606
  96   2.0000      -6.013149      -163.6261
  97   2.0000      -2.738655       -74.5226
  98   2.0000      -2.734554       -74.4110
  99   2.0000      -2.734390       -74.4065
 100   2.0000      -2.722884       -74.0935
 101   2.0000      -2.722883       -74.0934
 102   2.0000      -1.331421       -36.2298
 103   2.0000      -1.236118       -33.6365
 104   2.0000      -1.213126       -33.0108
 105   2.0000      -1.170417       -31.8487
 106   2.0000      -1.147805       -31.2334
 107   2.0000      -1.111256       -30.2388
 108   2.0000      -1.017147       -27.6780
 109   2.0000      -1.011002       -27.5108
 110   2.0000      -1.009350       -27.4658
 111   2.0000      -1.003648       -27.3107
 112   2.0000      -0.995436       -27.0872
 113   2.0000      -0.991635       -26.9838
 114   2.0000      -0.990547       -26.9542
 115   2.0000      -0.982296       -26.7296
 116   2.0000      -0.979280       -26.6476
 117   2.0000      -0.964949       -26.2576
 118   2.0000      -0.954509       -25.9735
 119   2.0000      -0.941451       -25.6182
 120   2.0000      -0.937321       -25.5058
 121   2.0000      -0.928808       -25.2741
 122   2.0000      -0.912322       -24.8255
 123   2.0000      -0.904294       -24.6071
 124   2.0000      -0.900149       -24.4943
 125   2.0000      -0.894166       -24.3315
 126   2.0000      -0.883891       -24.0519
 127   2.0000      -0.878356       -23.9013
 128   2.0000      -0.876697       -23.8561
 129   2.0000      -0.866209       -23.5707
 130   2.0000      -0.861299       -23.4371
 131   2.0000      -0.851271       -23.1643
 132   2.0000      -0.840787       -22.8790
 133   2.0000      -0.838174       -22.8079
 134   2.0000      -0.828883       -22.5551
 135   2.0000      -0.825913       -22.4742
 136   2.0000      -0.820053       -22.3148
 137   2.0000      -0.810969       -22.0676
 138   2.0000      -0.802198       -21.8289
 139   2.0000      -0.790023       -21.4976
 140   2.0000      -0.783077       -21.3086
 141   2.0000      -0.778212       -21.1762
 142   2.0000      -0.763411       -20.7735
 143   2.0000      -0.753118       -20.4934
 144   2.0000      -0.746638       -20.3171
 145   2.0000      -0.731305       -19.8998
 146   2.0000      -0.714295       -19.4370
 147   2.0000      -0.710372       -19.3302
 148   2.0000      -0.703325       -19.1384
 149   2.0000      -0.694735       -18.9047
 150   2.0000      -0.693449       -18.8697
 151   2.0000      -0.689783       -18.7699
 152   2.0000      -0.682599       -18.5745
 153   2.0000      -0.679370       -18.4866
 154   2.0000      -0.678122       -18.4526
 155   2.0000      -0.674136       -18.3442
 156   2.0000      -0.661278       -17.9943
 157   2.0000      -0.652993       -17.7688
 158   2.0000      -0.648236       -17.6394
 159   2.0000      -0.645897       -17.5757
 160   2.0000      -0.645124       -17.5547
 161   2.0000      -0.637000       -17.3337
 162   2.0000      -0.635448       -17.2914
 163   2.0000      -0.631122       -17.1737
 164   2.0000      -0.623651       -16.9704
 165   2.0000      -0.614637       -16.7251
 166   2.0000      -0.608242       -16.5511
 167   2.0000      -0.602585       -16.3972
 168   2.0000      -0.600662       -16.3449
 169   2.0000      -0.594564       -16.1789
 170   2.0000      -0.590406       -16.0658
 171   2.0000      -0.589664       -16.0456
 172   2.0000      -0.586573       -15.9615
 173   2.0000      -0.580773       -15.8036
 174   2.0000      -0.578206       -15.7338
 175   2.0000      -0.572871       -15.5886
 176   2.0000      -0.572704       -15.5841
 177   2.0000      -0.567198       -15.4342
 178   2.0000      -0.564151       -15.3513
 179   2.0000      -0.558923       -15.2091
 180   2.0000      -0.556515       -15.1435
 181   2.0000      -0.548558       -14.9270
 182   2.0000      -0.546886       -14.8815
 183   2.0000      -0.538943       -14.6654
 184   2.0000      -0.537697       -14.6315
 185   2.0000      -0.532233       -14.4828
 186   2.0000      -0.527058       -14.3420
 187   2.0000      -0.526786       -14.3346
 188   2.0000      -0.524005       -14.2589
 189   2.0000      -0.517545       -14.0831
 190   2.0000      -0.516875       -14.0649
 191   2.0000      -0.516220       -14.0471
 192   2.0000      -0.512707       -13.9515
 193   2.0000      -0.510550       -13.8928
 194   2.0000      -0.510060       -13.8794
 195   2.0000      -0.507581       -13.8120
 196   2.0000      -0.504329       -13.7235
 197   2.0000      -0.503813       -13.7094
 198   2.0000      -0.501163       -13.6374
 199   2.0000      -0.499901       -13.6030
 200   2.0000      -0.496816       -13.5190
 201   2.0000      -0.492203       -13.3935
 202   2.0000      -0.489771       -13.3273
 203   2.0000      -0.487301       -13.2601
 204   2.0000      -0.486441       -13.2367
 205   2.0000      -0.484915       -13.1952
 206   2.0000      -0.483813       -13.1652
 207   2.0000      -0.479681       -13.0528
 208   2.0000      -0.477071       -12.9818
 209   2.0000      -0.474306       -12.9065
 210   2.0000      -0.469370       -12.7722
 211   2.0000      -0.466646       -12.6981
 212   2.0000      -0.465174       -12.6580
 213   2.0000      -0.461314       -12.5530
 214   2.0000      -0.460851       -12.5404
 215   2.0000      -0.456331       -12.4174
 216   2.0000      -0.455243       -12.3878
 217   2.0000      -0.452936       -12.3250
 218   2.0000      -0.449901       -12.2424
 219   2.0000      -0.443879       -12.0785
 220   2.0000      -0.441624       -12.0172
 221   2.0000      -0.439486       -11.9590
 222   2.0000      -0.437532       -11.9058
 223   2.0000      -0.435673       -11.8553
 224   2.0000      -0.431808       -11.7501
 225   2.0000      -0.429761       -11.6944
 226   2.0000      -0.426030       -11.5929
 227   2.0000      -0.425494       -11.5783
 228   2.0000      -0.423145       -11.5144
 229   2.0000      -0.422525       -11.4975
 230   2.0000      -0.418474       -11.3873
 231   2.0000      -0.413106       -11.2412
 232   2.0000      -0.412053       -11.2125
 233   2.0000      -0.407716       -11.0945
 234   2.0000      -0.404946       -11.0191
 235   2.0000      -0.404035       -10.9944
 236   2.0000      -0.401371       -10.9218
 237   2.0000      -0.393917       -10.7190
 238   2.0000      -0.389526       -10.5995
 239   2.0000      -0.384032       -10.4501
 240   2.0000      -0.381135       -10.3712
 241   2.0000      -0.380059       -10.3419
 242   2.0000      -0.375663       -10.2223
 243   2.0000      -0.373322       -10.1586
 244   2.0000      -0.368819       -10.0361
 245   2.0000      -0.359438        -9.7808
 246   2.0000      -0.351206        -9.5568
 247   2.0000      -0.345764        -9.4087
 248   2.0000      -0.340143        -9.2558
 249   2.0000      -0.328228        -8.9315
 250   2.0000      -0.322163        -8.7665
 251   2.0000      -0.318498        -8.6668
 252   2.0000      -0.316770        -8.6198
 253   2.0000      -0.307847        -8.3769
 254   2.0000      -0.305990        -8.3264
 255   2.0000      -0.305149        -8.3035
 256   2.0000      -0.300347        -8.1729
 257   2.0000      -0.289727        -7.8839
 258   2.0000      -0.285876        -7.7791
 259   2.0000      -0.277168        -7.5421
 260   2.0000      -0.248964        -6.7747
 261   2.0000      -0.215591        -5.8665
 262   0.0000      -0.107916        -2.9365
 263   0.0000      -0.083150        -2.2626
 264   0.0000      -0.065078        -1.7709
 265   0.0000      -0.052775        -1.4361
 266   0.0000      -0.027082        -0.7369

MULLIKEN ATOMIC CHARGES
-----------------------
   0 C :    0.319050
   1 C :   -0.374553
   2 C :   -0.185177
   3 N :    0.141269
   4 C :   -0.164111
   5 N :    0.120369
   6 C :    0.012398
   7 C :   -0.005341
   8 C :   -0.083667
   9 C :    0.120786
  10 C :   -0.089325
  11 C :   -0.029057
  12 S :    0.179751
  13 C :   -0.122038
  14 C :    0.034874
  15 Br:    0.016578
  16 C :    0.136666
  17 O :   -0.147107
  18 C :   -0.091718
  19 C :   -0.035667
  20 C :    0.127602
  21 C :    0.227168
  22 O :   -0.229459
  23 C :    0.207637
  24 C :    0.235371
  25 C :   -0.164903
  26 S :    0.104732
  27 C :   -0.174904
  28 O :   -0.234636
  29 C :   -0.073625
  30 C :    0.053549
  31 C :   -0.122244
  32 S :    0.053923
  33 C :   -0.039952
  34 C :    0.084112
  35 C :    0.121229
  36 N :   -0.233217
  37 C :   -0.057943
  38 C :    0.107391
  39 C :    0.083836
  40 N :   -0.226831
  41 C :   -0.070559
  42 C :   -0.016392
  43 C :   -0.030409
  44 C :    0.028201
  45 C :    0.038243
  46 C :   -0.034779
  47 S :    0.066655
  48 C :   -0.028334
  49 C :    0.027439
  50 C :    0.042362
  51 C :   -0.029057
  52 S :    0.066380
  53 C :   -0.002362
  54 C :   -0.193945
  55 S :    0.147413
  56 C :   -0.126476
  57 C :    0.121382
  58 C :    0.195898
  59 O :   -0.183048
  60 C :    0.234365
  61 N :    0.275084
  62 O :   -0.247435
  63 O :   -0.228499
  64 C :   -0.065993
  65 H :   -0.015182
  66 H :   -0.007819
  67 H :   -0.005859
  68 H :   -0.037972
  69 H :    0.031779
  70 H :    0.015452
  71 H :    0.024456
  72 H :   -0.002264
  73 H :   -0.009707
  74 H :    0.026039
  75 H :   -0.016174
  76 H :    0.014008
  77 H :    0.094508
  78 H :    0.087057
  79 H :    0.010916
  80 H :   -0.008645
  81 H :   -0.004305
  82 H :    0.002432
  83 H :    0.092630
  84 H :    0.093504
  85 H :    0.001863
  86 H :   -0.006098
  87 H :   -0.011213
  88 H :   -0.009040
  89 H :   -0.003959
  90 H :    0.009825
  91 H :    0.029704
  92 H :    0.015115
Sum of atomic charges:   -0.0000000

LOEWDIN ATOMIC CHARGES
----------------------
   0 C :    0.083246
   1 C :   -0.172017
   2 C :   -0.021299
   3 N :   -0.067247
   4 C :    0.008798
   5 N :   -0.083433
   6 C :   -0.022856
   7 C :   -0.044534
   8 C :    0.015382
   9 C :   -0.033570
  10 C :   -0.147395
  11 C :   -0.011502
  12 S :    0.427759
  13 C :   -0.273651
  14 C :   -0.071318
  15 Br:    0.131445
  16 C :    0.073239
  17 O :   -0.147210
  18 C :   -0.107809
  19 C :    0.043045
  20 C :   -0.003439
  21 C :    0.094334
  22 O :   -0.030033
  23 C :   -0.013182
  24 C :   -0.001553
  25 C :   -0.201304
  26 S :    0.434158
  27 C :   -0.215928
  28 O :   -0.036902
  29 C :   -0.088215
  30 C :    0.009952
  31 C :   -0.187597
  32 S :    0.431096
  33 C :   -0.020692
  34 C :   -0.049131
  35 C :    0.027082
  36 N :   -0.106057
  37 C :   -0.055040
  38 C :   -0.032373
  39 C :    0.021719
  40 N :   -0.122596
  41 C :   -0.150065
  42 C :   -0.077829
  43 C :   -0.142402
  44 C :   -0.031819
  45 C :   -0.030477
  46 C :   -0.183026
  47 S :    0.382518
  48 C :   -0.165577
  49 C :   -0.036409
  50 C :   -0.021063
  51 C :   -0.155348
  52 S :    0.370213
  53 C :   -0.057877
  54 C :   -0.205888
  55 S :    0.476664
  56 C :   -0.186488
  57 C :   -0.083688
  58 C :    0.023893
  59 O :    0.002819
  60 C :    0.026545
  61 N :    0.271850
  62 O :   -0.208041
  63 O :   -0.190724
  64 C :   -0.006988
  65 H :    0.038559
  66 H :    0.040200
  67 H :    0.037715
  68 H :    0.037719
  69 H :    0.033045
  70 H :    0.023456
  71 H :    0.028431
  72 H :    0.032613
  73 H :    0.027286
  74 H :    0.028810
  75 H :    0.011270
  76 H :    0.023871
  77 H :    0.047920
  78 H :    0.043919
  79 H :    0.030796
  80 H :    0.025941
  81 H :    0.002078
  82 H :    0.016461
  83 H :    0.052812
  84 H :    0.055982
  85 H :    0.042606
  86 H :    0.035972
  87 H :    0.033334
  88 H :    0.034298
  89 H :    0.036896
  90 H :    0.048307
  91 H :    0.027174
  92 H :    0.048365

  Mayer bond orders larger than 0.100000
B(  0-C ,  1-C ) :   1.5465 B(  0-C ,  6-C ) :   0.9951 B(  0-C , 18-C ) :   1.1522
B(  1-C ,  2-C ) :   1.1451 B(  1-C ,  4-C ) :   1.1795 B(  2-C ,  3-N ) :   2.9650
B(  4-C ,  5-N ) :   2.8801 B(  6-C ,  7-C ) :   1.2764 B(  6-C , 11-C ) :   1.4137
B(  7-C ,  8-C ) :   1.4371 B(  7-C , 16-C ) :   0.9228 B(  8-C ,  9-C ) :   1.2336
B(  8-C , 65-H ) :   1.0177 B(  9-C , 10-C ) :   1.3160 B(  9-C , 14-C ) :   1.1623
B( 10-C , 11-C ) :   1.3232 B( 10-C , 12-S ) :   1.0813 B( 11-C , 66-H ) :   0.9807
B( 12-S , 13-C ) :   1.0875 B( 13-C , 14-C ) :   1.6175 B( 13-C , 15-Br) :   1.0152
B( 14-C , 67-H ) :   1.0012 B( 16-C , 17-O ) :   2.2482 B( 16-C , 18-C ) :   0.9518
B( 18-C , 19-C ) :   1.4371 B( 19-C , 20-C ) :   1.3408 B( 19-C , 68-H ) :   0.9248
B( 20-C , 21-C ) :   1.3035 B( 20-C , 28-O ) :   1.0674 B( 21-C , 22-O ) :   1.1125
B( 21-C , 29-C ) :   1.2169 B( 22-O , 23-C ) :   1.0378 B( 23-C , 24-C ) :   1.2038
B( 23-C , 27-C ) :   1.5691 B( 24-C , 25-C ) :   1.5747 B( 24-C , 28-O ) :   1.0629
B( 25-C , 26-S ) :   1.1331 B( 25-C , 69-H ) :   0.9708 B( 26-S , 27-C ) :   1.1386
B( 27-C , 70-H ) :   0.9652 B( 29-C , 30-C ) :   1.5040 B( 29-C , 71-H ) :   0.9354
B( 30-C , 31-C ) :   1.2757 B( 30-C , 72-H ) :   0.9470 B( 31-C , 32-S ) :   1.0725
B( 31-C , 33-C ) :   1.3610 B( 32-S , 41-C ) :   1.1045 B( 33-C , 34-C ) :   1.0841
B( 33-C , 37-C ) :   1.3933 B( 34-C , 35-C ) :   1.0364 B( 34-C , 73-H ) :   0.8937
B( 34-C , 74-H ) :   0.8971 B( 35-C , 36-N ) :   1.1149 B( 35-C , 75-H ) :   0.9490
B( 35-C , 76-H ) :   0.9476 B( 36-N , 77-H ) :   0.9815 B( 36-N , 78-H ) :   0.9817
B( 37-C , 38-C ) :   1.0821 B( 37-C , 41-C ) :   1.3797 B( 38-C , 39-C ) :   1.0831
B( 38-C , 79-H ) :   0.9020 B( 38-C , 80-H ) :   0.9052 B( 39-C , 40-N ) :   1.0776
B( 39-C , 81-H ) :   0.9404 B( 39-C , 82-H ) :   0.9451 B( 40-N , 83-H ) :   0.9720
B( 40-N , 84-H ) :   0.9688 B( 41-C , 42-C ) :   1.2313 B( 42-C , 43-C ) :   1.5190
B( 42-C , 85-H ) :   0.9616 B( 43-C , 44-C ) :   1.1604 B( 43-C , 47-S ) :   1.0540
B( 44-C , 45-C ) :   1.5755 B( 44-C , 86-H ) :   0.9996 B( 45-C , 46-C ) :   1.1944
B( 45-C , 87-H ) :   0.9935 B( 46-C , 47-S ) :   1.0384 B( 46-C , 48-C ) :   1.5006
B( 48-C , 49-C ) :   1.1888 B( 48-C , 52-S ) :   1.0504 B( 49-C , 50-C ) :   1.5890
B( 49-C , 88-H ) :   0.9939 B( 50-C , 51-C ) :   1.1424 B( 50-C , 89-H ) :   1.0003
B( 51-C , 52-S ) :   1.0322 B( 51-C , 53-C ) :   1.5660 B( 53-C , 54-C ) :   1.1785
B( 53-C , 90-H ) :   0.9735 B( 54-C , 55-S ) :   1.1039 B( 54-C , 56-C ) :   0.1072
B( 54-C , 58-C ) :   1.4372 B( 55-S , 56-C ) :   1.1859 B( 56-C , 57-C ) :   1.4161
B( 56-C , 91-H ) :   0.9691 B( 57-C , 58-C ) :   1.2317 B( 57-C , 64-C ) :   1.0620
B( 58-C , 59-O ) :   1.1281 B( 59-O , 60-C ) :   1.1190 B( 60-C , 61-N ) :   0.9156
B( 60-C , 64-C ) :   1.5787 B( 61-N , 62-O ) :   1.5348 B( 61-N , 63-O ) :   1.5149
B( 62-O , 63-O ) :   0.2812 B( 64-C , 92-H ) :   1.0265

-----------------------------------------------------------------------------
         ABSORPTION SPECTRUM VIA TRANSITION ELECTRIC DIPOLE MOMENTS
-----------------------------------------------------------------------------
State   Energy  Wavelength   fosc         T2         TX        TY        TZ
        (cm-1)    (nm)                  (au**2)     (au)      (au)      (au)
-----------------------------------------------------------------------------
   0    9333.6   1071.4   0.777396529  27.42016   2.29596   4.12310  -2.26909
   1   15699.8    637.0   0.540959426  11.34351   1.56557  -2.46348  -1.68040
   2   16149.3    619.2   0.027251555   0.55554  -0.49287  -0.51381   0.22049
   3   19743.8    506.5   0.046912743   0.78223   0.33111   0.65874  -0.48853
   4   21396.6    467.4   0.030800700   0.47391   0.20313  -0.60222   0.26453
   5   22258.3    449.3   0.083078518   1.22877  -0.98082   0.16187   0.49047
   6   22475.8    444.9   0.744422643  10.90385   2.08348  -2.14975  -1.39338
   7   23018.5    434.4   0.068608058   0.98123  -0.60079  -0.78128   0.09939
   8   24834.1    402.7   0.051934837   0.68847   0.66594   0.23057  -0.43799
   9   25818.4    387.3   0.385320622   4.91325  -0.86121   1.81480   0.93705
  10   26600.4    375.9   0.292039593   3.61434  -1.71503   0.47291   0.67035
  11   27523.9    363.3   0.093098576   1.11355  -0.82363  -0.11668   0.64928
  12   27818.5    359.5   0.110903961   1.31247   0.44011   1.04602  -0.15688
  13   28125.0    355.6   0.018516913   0.21675   0.24378   0.22079   0.32950
  14   28360.0    352.6   0.089849887   1.04301   0.69748  -0.69462  -0.27209
  15   28683.7    348.6   0.021802371   0.25023  -0.31357   0.11793   0.37148
  16   28971.2    345.2   0.003678810   0.04180  -0.15445   0.13170  -0.02459
  17   29413.7    340.0   0.174565291   1.95382  -0.25027  -1.35532   0.23300
  18   30054.6    332.7   0.005180095   0.05674  -0.08644  -0.12833   0.18111
  19   30100.8    332.2   0.000686916   0.00751  -0.01779   0.01373  -0.08371
  20   30295.2    330.1   0.034811096   0.37829   0.22033  -0.48758  -0.30331
  21   30459.8    328.3   0.004013362   0.04338  -0.12669   0.16225   0.03162
  22   31139.0    321.1   0.034327203   0.36292   0.47307   0.33604  -0.16187
  23   31574.3    316.7   0.143687855   1.49817   0.85502  -0.16694  -0.85979
  24   32331.5    309.3   0.348350106   3.54704  -0.18258   1.66166   0.86753
  25   32432.3    308.3   0.127163006   1.29080   0.69910   0.89558  -0.00230
  26   32929.3    303.7   0.043673426   0.43663  -0.55357  -0.17897   0.31329
  27   33492.3    298.6   0.029483581   0.28981  -0.26136  -0.46055   0.09694
  28   33996.0    294.2   0.116080837   1.12411   0.66161   0.81241  -0.16242
  29   34220.1    292.2   0.076266217   0.73371  -0.43932  -0.73438  -0.03745
  30   34572.6    289.2   0.081337114   0.77452   0.28942   0.80288  -0.21480
  31   34922.5    286.3   0.011202326   0.10560  -0.09159   0.27818   0.14082
  32   34947.7    286.1   0.020626530   0.19430   0.31055  -0.28378  -0.13163
  33   35551.8    281.3   0.052407769   0.48530   0.34544  -0.34325  -0.49815
  34   35999.5    277.8   0.025119279   0.22971  -0.38615  -0.22734   0.17005
  35   36163.2    276.5   0.007154133   0.06513  -0.12000   0.06998   0.21408
  36   36362.0    275.0   0.180974542   1.63850   0.90256  -0.38454  -0.82219
  37   36665.1    272.7   0.050683728   0.45508   0.11301  -0.47069  -0.46986
  38   36833.3    271.5   0.145607981   1.30143   0.83351  -0.28256  -0.72585
  39   36943.9    270.7   0.024266373   0.21624   0.40288   0.02235  -0.23115
  40   37021.1    270.1   0.041967428   0.37320  -0.41957   0.16792   0.41105
  41   37449.3    267.0   0.104324179   0.91710   0.71975   0.14710  -0.61435
  42   37697.3    265.3   0.232051014   2.02651  -1.03099  -0.29183   0.93724
  43   37849.4    264.2   0.005812323   0.05056  -0.10047  -0.12365   0.15866
  44   38338.6    260.8   0.070874196   0.60859   0.48325   0.02192  -0.61203
  45   38469.1    259.9   0.025034368   0.21424  -0.25360   0.24888   0.29662
  46   39124.8    255.6   0.157980249   1.32931  -0.87447  -0.42972   0.61640
  47   39570.6    252.7   0.067262273   0.55960   0.57655   0.20189  -0.43177
  48   39713.1    251.8   0.091685684   0.76005   0.26960   0.81510  -0.15158
  49   39811.7    251.2   0.016183541   0.13383  -0.06431  -0.35924  -0.02520
  50   39984.6    250.1   0.018536449   0.15262   0.27341   0.13460  -0.24444

FINAL SINGLE POINT ENERGY     -7491.919271260896

DIPOLE MOMENT
-------------
                                X             Y             Z
Electronic contribution:     13.35180    -172.32674     -26.43119
Nuclear contribution   :    -13.73624     174.62126      26.31080
                        -----------------------------------------
Total Dipole Moment    :     -0.38444       2.29452      -0.12039
                        -----------------------------------------
Magnitude (a.u.)       :      2.32961
Magnitude (Debye)      :      5.92141

Rotational constants in cm-1:     0.000968     0.000400     0.000293
Rotational constants in MHz :    29.013607    11.985192     8.771298

                             ****ORCA TERMINATED NORMALLY****
TOTAL RUN TIME: 0 days 0 hours 9 minutes 36 seconds 483 msec
