                         Program Version 4.2.0 -  RELEASE  -
|  1> # ORCA input file
|  2> # SCF done       -197.387146768769          0.000576465411
|  3> ! CAM-B3LYP def2-SVP def2/J RIJCOSX Grid4 TightSCF
|  4> %maxcore 5000
|  5> %tddft
|  6>     Mode sTDDFT
|  7>     Ethresh 5.0
|  8>     maxcore 5000
|  9> end
| 10>
| 11> %pal
| 12>   nprocs 6
| 13>   end
| 14> * xyz 0 1
| 15>    C       -9.00674         1.68958        -4.43021
| 16>    C      -10.27621         1.83344        -4.92512
| 17>    C      -10.94873         0.84222        -5.67042
| 18>    N      -11.54043         0.08252        -6.29528
| 19>    C      -11.08366         2.98434        -4.80836
| 20>    N      -11.81126         3.87231        -4.76880
| 21>    C       -8.17457         0.50321        -4.56816
| 22>    C       -6.92415         0.75035        -3.95061
| 23>    C       -5.92070        -0.18791        -3.90336
| 24>    C       -6.14922        -1.41715        -4.52710
| 25>    C       -7.39516        -1.64943        -5.15891
| 26>    C       -8.41961        -0.71252        -5.17957
| 27>    S       -7.45587        -3.22200        -5.89275
| 28>    C       -5.82985        -3.54399        -5.35025
| 29>    C       -5.26971        -2.52628        -4.65289
| 30>   Br       -5.02463        -5.18723        -5.76021
| 31>    C       -6.87918         2.13726        -3.46102
| 32>    O       -5.93811         2.65835        -2.89101
| 33>    C       -8.21992         2.70669        -3.75065
| 34>    C       -8.66949         3.92093        -3.33437
| 35>    C       -7.86662         4.99753        -2.85398
| 36>    C       -6.61992         5.31099        -3.24387
| 37>    C       -6.13370         6.54043        -2.56198
| 38>    C       -7.42249         7.20051        -2.02561
| 39>    C       -8.39636         6.01720        -1.87963
| 40>    C       -7.01479         7.93751        -0.74350
| 41>    C       -5.81786         7.13439        -0.19230
| 42>    C       -6.41821         6.36358         0.95504
| 43>    C       -7.63364         6.79095         1.25193
| 44>    C       -8.06913         7.92600         0.37362
| 45>    C       -5.30912         6.27716        -1.32101
| 46>    C       -4.27705         5.45273        -1.15991
| 47>    N       -3.75173         4.56277        -2.09066
| 48>    C       -2.48158         4.13898        -2.00628
| 49>    S       -1.43243         4.87067        -0.82448
| 50>    C       -0.15309         3.78071        -1.27439
| 51>    N        1.05756         3.88687        -0.59101
| 52>    O        1.95765         3.12765        -0.90487
| 53>    O        1.12176         4.74131         0.27949
| 54>    C       -0.51329         2.92235        -2.27196
| 55>    C       -1.83188         3.11855        -2.74012
| 56>    C       -2.32811         2.31979        -3.80951
| 57>    C       -3.41654         2.51279        -4.60352
| 58>    C       -3.80880         1.57061        -5.57041
| 59>    C       -4.95886         1.65288        -6.31148
| 60>    C       -5.50481         0.67060        -7.17236
| 61>    C       -6.74578         0.96730        -7.64844
| 62>    C       -7.24022         2.21715        -7.21136
| 63>    S       -6.06599         3.01622        -6.19916
| 64>    C       -8.46243         2.80150        -7.47843
| 65>    C       -9.53478         2.30991        -8.25071
| 66>    C      -10.59651         3.16167        -8.31044
| 67>    C      -10.41398         4.38521        -7.61928
| 68>    S       -8.85695         4.38327        -6.83072
| 69>    C      -11.37021         5.37768        -7.51162
| 70>    C      -11.31721         6.62357        -6.89140
| 71>    C      -10.27394         7.42574        -6.46793
| 72>    C       -8.87423         7.47239        -6.75729
| 73>    C       -8.24148         6.96522        -7.87457
| 74>    C       -6.84929         6.98534        -8.06884
| 75>    N       -5.71595         6.93166        -8.25104
| 76>    C       -8.93670         6.45047        -8.98393
| 77>    N       -9.47440         6.04922        -9.91606
| 78>    C       -8.24023         8.34943        -5.77253
| 79>    C       -9.25697         9.00376        -5.03566
| 80>    C      -10.57323         8.48569        -5.47397
| 81>    O      -11.66383         8.83463        -5.07949
| 82>    C       -8.98478         9.94948        -4.07897
| 83>    C       -7.64014        10.23644        -3.80951
| 84>    C       -6.63262         9.55437        -4.52869
| 85>    C       -6.91043         8.61890        -5.52073
| 86>    S       -5.04292        10.01216        -3.99000
| 87>    C       -5.74692        11.10146        -2.82301
| 88>    C       -7.10035        11.12557        -2.83890
| 89>   Br       -4.62643        12.07878        -1.67442
| 90>    H       -4.98479         0.02727        -3.41231
| 91>    H       -9.35492        -0.94236        -5.66127
| 92>    H       -4.27681        -2.55653        -4.24296
| 93>    H       -9.73484         4.11510        -3.35580
| 94>    H       -6.05691         4.80365        -4.00483
| 95>    H       -5.56161         7.18989        -3.23166
| 96>    H       -7.83772         7.89512        -2.75611
| 97>    H       -9.42638         6.29420        -2.10423
| 98>    H       -8.36273         5.59599        -0.87229
| 99>    H       -6.72499         8.95689        -1.00280
|100>    H       -5.01438         7.77641         0.18511
|101>    H       -5.87270         5.57864         1.44739
|102>    H       -8.26237         6.41819         2.04213
|103>    H       -8.04455         8.85972         0.94109
|104>    H       -9.08235         7.80097        -0.00753
|105>    H       -3.74641         5.46624        -0.21320
|106>    H       -4.40962         4.04946        -2.66971
|107>    H        0.16277         2.18613        -2.66858
|108>    H       -1.71707         1.45004        -4.02074
|109>    H       -4.02747         3.39830        -4.51275
|110>    H       -3.19699         0.68765        -5.70424
|111>    H       -4.96925        -0.23578        -7.39422
|112>    H       -7.31906         0.32875        -8.29576
|113>    H       -9.49693         1.35297        -8.73844
|114>    H      -11.50297         2.96129        -8.85210
|115>    H      -12.33654         5.09998        -7.91416
|116>    H      -12.28752         7.04240        -6.63773
|117>    H       -9.77970        10.44548        -3.54465
|118>    H       -6.10934         8.13044        -6.05003
|119>    H       -7.69702        11.73940        -2.18921
|120> *
|121>
|122>                          ****END OF INPUT****

CARTESIAN COORDINATES (ANGSTROEM)
---------------------------------
  C     -9.006740    1.689580   -4.430210
  C    -10.276210    1.833440   -4.925120
  C    -10.948730    0.842220   -5.670420
  N    -11.540430    0.082520   -6.295280
  C    -11.083660    2.984340   -4.808360
  N    -11.811260    3.872310   -4.768800
  C     -8.174570    0.503210   -4.568160
  C     -6.924150    0.750350   -3.950610
  C     -5.920700   -0.187910   -3.903360
  C     -6.149220   -1.417150   -4.527100
  C     -7.395160   -1.649430   -5.158910
  C     -8.419610   -0.712520   -5.179570
  S     -7.455870   -3.222000   -5.892750
  C     -5.829850   -3.543990   -5.350250
  C     -5.269710   -2.526280   -4.652890
  Br    -5.024630   -5.187230   -5.760210
  C     -6.879180    2.137260   -3.461020
  O     -5.938110    2.658350   -2.891010
  C     -8.219920    2.706690   -3.750650
  C     -8.669490    3.920930   -3.334370
  C     -7.866620    4.997530   -2.853980
  C     -6.619920    5.310990   -3.243870
  C     -6.133700    6.540430   -2.561980
  C     -7.422490    7.200510   -2.025610
  C     -8.396360    6.017200   -1.879630
  C     -7.014790    7.937510   -0.743500
  C     -5.817860    7.134390   -0.192300
  C     -6.418210    6.363580    0.955040
  C     -7.633640    6.790950    1.251930
  C     -8.069130    7.926000    0.373620
  C     -5.309120    6.277160   -1.321010
  C     -4.277050    5.452730   -1.159910
  N     -3.751730    4.562770   -2.090660
  C     -2.481580    4.138980   -2.006280
  S     -1.432430    4.870670   -0.824480
  C     -0.153090    3.780710   -1.274390
  N      1.057560    3.886870   -0.591010
  O      1.957650    3.127650   -0.904870
  O      1.121760    4.741310    0.279490
  C     -0.513290    2.922350   -2.271960
  C     -1.831880    3.118550   -2.740120
  C     -2.328110    2.319790   -3.809510
  C     -3.416540    2.512790   -4.603520
  C     -3.808800    1.570610   -5.570410
  C     -4.958860    1.652880   -6.311480
  C     -5.504810    0.670600   -7.172360
  C     -6.745780    0.967300   -7.648440
  C     -7.240220    2.217150   -7.211360
  S     -6.065990    3.016220   -6.199160
  C     -8.462430    2.801500   -7.478430
  C     -9.534780    2.309910   -8.250710
  C    -10.596510    3.161670   -8.310440
  C    -10.413980    4.385210   -7.619280
  S     -8.856950    4.383270   -6.830720
  C    -11.370210    5.377680   -7.511620
  C    -11.317210    6.623570   -6.891400
  C    -10.273940    7.425740   -6.467930
  C     -8.874230    7.472390   -6.757290
  C     -8.241480    6.965220   -7.874570
  C     -6.849290    6.985340   -8.068840
  N     -5.715950    6.931660   -8.251040
  C     -8.936700    6.450470   -8.983930
  N     -9.474400    6.049220   -9.916060
  C     -8.240230    8.349430   -5.772530
  C     -9.256970    9.003760   -5.035660
  C    -10.573230    8.485690   -5.473970
  O    -11.663830    8.834630   -5.079490
  C     -8.984780    9.949480   -4.078970
  C     -7.640140   10.236440   -3.809510
  C     -6.632620    9.554370   -4.528690
  C     -6.910430    8.618900   -5.520730
  S     -5.042920   10.012160   -3.990000
  C     -5.746920   11.101460   -2.823010
  C     -7.100350   11.125570   -2.838900
  Br    -4.626430   12.078780   -1.674420
  H     -4.984790    0.027270   -3.412310
  H     -9.354920   -0.942360   -5.661270
  H     -4.276810   -2.556530   -4.242960
  H     -9.734840    4.115100   -3.355800
  H     -6.056910    4.803650   -4.004830
  H     -5.561610    7.189890   -3.231660
  H     -7.837720    7.895120   -2.756110
  H     -9.426380    6.294200   -2.104230
  H     -8.362730    5.595990   -0.872290
  H     -6.724990    8.956890   -1.002800
  H     -5.014380    7.776410    0.185110
  H     -5.872700    5.578640    1.447390
  H     -8.262370    6.418190    2.042130
  H     -8.044550    8.859720    0.941090
  H     -9.082350    7.800970   -0.007530
  H     -3.746410    5.466240   -0.213200
  H     -4.409620    4.049460   -2.669710
  H      0.162770    2.186130   -2.668580
  H     -1.717070    1.450040   -4.020740
  H     -4.027470    3.398300   -4.512750
  H     -3.196990    0.687650   -5.704240
  H     -4.969250   -0.235780   -7.394220
  H     -7.319060    0.328750   -8.295760
  H     -9.496930    1.352970   -8.738440
  H    -11.502970    2.961290   -8.852100
  H    -12.336540    5.099980   -7.914160
  H    -12.287520    7.042400   -6.637730
  H     -9.779700   10.445480   -3.544650
  H     -6.109340    8.130440   -6.050030
  H     -7.697020   11.739400   -2.189210

 Total Charge           Charge          ....    0
 Multiplicity           Mult            ....    1
 Number of Electrons    NEL             ....  602
 Basis Dimension        Dim             .... 1256

ORBITAL ENERGIES
----------------

  NO   OCC          E(Eh)            E(eV)
   0   2.0000    -482.897268    -13140.3027
   1   2.0000    -482.886524    -13140.0103
   2   2.0000     -88.988475     -2421.4995
   3   2.0000     -88.981665     -2421.3142
   4   2.0000     -88.976913     -2421.1849
   5   2.0000     -88.974429     -2421.1173
   6   2.0000     -88.969720     -2420.9892
   7   2.0000     -62.574964     -1702.7513
   8   2.0000     -62.564145     -1702.4569
   9   2.0000     -56.408927     -1534.9650
  10   2.0000     -56.406189     -1534.8904
  11   2.0000     -56.406162     -1534.8897
  12   2.0000     -56.398107     -1534.6705
  13   2.0000     -56.395384     -1534.5964
  14   2.0000     -56.395347     -1534.5954
  15   2.0000     -19.232714      -523.3488
  16   2.0000     -19.231041      -523.3032
  17   2.0000     -19.229891      -523.2719
  18   2.0000     -19.204156      -522.5716
  19   2.0000     -14.642701      -398.4482
  20   2.0000     -14.476857      -393.9353
  21   2.0000     -14.424583      -392.5129
  22   2.0000     -14.422387      -392.4531
  23   2.0000     -14.405532      -391.9945
  24   2.0000     -14.400090      -391.8464
  25   2.0000     -10.386969      -282.6438
  26   2.0000     -10.376183      -282.3503
  27   2.0000     -10.371790      -282.2307
  28   2.0000     -10.358025      -281.8562
  29   2.0000     -10.353613      -281.7361
  30   2.0000     -10.350722      -281.6575
  31   2.0000     -10.349154      -281.6148
  32   2.0000     -10.342902      -281.4447
  33   2.0000     -10.337813      -281.3062
  34   2.0000     -10.335090      -281.2321
  35   2.0000     -10.328543      -281.0539
  36   2.0000     -10.328017      -281.0396
  37   2.0000     -10.326695      -281.0036
  38   2.0000     -10.325825      -280.9800
  39   2.0000     -10.325433      -280.9693
  40   2.0000     -10.323616      -280.9199
  41   2.0000     -10.323525      -280.9174
  42   2.0000     -10.322889      -280.9001
  43   2.0000     -10.322651      -280.8936
  44   2.0000     -10.319774      -280.8153
  45   2.0000     -10.319535      -280.8088
  46   2.0000     -10.316364      -280.7225
  47   2.0000     -10.315801      -280.7072
  48   2.0000     -10.313883      -280.6550
  49   2.0000     -10.312911      -280.6286
  50   2.0000     -10.312704      -280.6229
  51   2.0000     -10.310087      -280.5517
  52   2.0000     -10.309882      -280.5462
  53   2.0000     -10.309737      -280.5422
  54   2.0000     -10.309388      -280.5327
  55   2.0000     -10.307505      -280.4815
  56   2.0000     -10.306587      -280.4565
  57   2.0000     -10.304143      -280.3900
  58   2.0000     -10.303783      -280.3802
  59   2.0000     -10.302705      -280.3509
  60   2.0000     -10.302610      -280.3483
  61   2.0000     -10.299917      -280.2750
  62   2.0000     -10.299675      -280.2684
  63   2.0000     -10.299308      -280.2584
  64   2.0000     -10.297527      -280.2100
  65   2.0000     -10.297481      -280.2087
  66   2.0000     -10.296439      -280.1803
  67   2.0000     -10.295897      -280.1656
  68   2.0000     -10.295463      -280.1538
  69   2.0000     -10.290282      -280.0128
  70   2.0000     -10.289909      -280.0026
  71   2.0000     -10.288841      -279.9736
  72   2.0000     -10.288694      -279.9696
  73   2.0000     -10.285790      -279.8906
  74   2.0000     -10.282893      -279.8118
  75   2.0000     -10.280498      -279.7466
  76   2.0000     -10.280288      -279.7409
  77   2.0000     -10.276113      -279.6273
  78   2.0000     -10.274199      -279.5752
  79   2.0000     -10.273250      -279.5494
  80   2.0000     -10.270453      -279.4732
  81   2.0000     -10.269856      -279.4570
  82   2.0000     -10.268996      -279.4336
  83   2.0000      -8.804382      -239.5794
  84   2.0000      -8.793518      -239.2838
  85   2.0000      -8.084436      -219.9887
  86   2.0000      -8.077181      -219.7913
  87   2.0000      -8.072267      -219.6576
  88   2.0000      -8.068889      -219.5656
  89   2.0000      -8.063672      -219.4237
  90   2.0000      -6.640723      -180.7033
  91   2.0000      -6.629760      -180.4049
  92   2.0000      -6.626112      -180.3057
  93   2.0000      -6.625873      -180.2992
  94   2.0000      -6.615268      -180.0106
  95   2.0000      -6.615088      -180.0057
  96   2.0000      -6.054121      -164.7410
  97   2.0000      -6.049823      -164.6241
  98   2.0000      -6.046928      -164.5453
  99   2.0000      -6.045694      -164.5117
 100   2.0000      -6.042425      -164.4228
 101   2.0000      -6.041950      -164.4098
 102   2.0000      -6.038573      -164.3179
 103   2.0000      -6.038483      -164.3155
 104   2.0000      -6.037693      -164.2940
 105   2.0000      -6.034581      -164.2093
 106   2.0000      -6.033635      -164.1835
 107   2.0000      -6.033170      -164.1709
 108   2.0000      -6.030179      -164.0895
 109   2.0000      -6.029019      -164.0580
 110   2.0000      -6.025483      -163.9617
 111   2.0000      -2.756589       -75.0106
 112   2.0000      -2.752465       -74.8984
 113   2.0000      -2.752339       -74.8949
 114   2.0000      -2.745670       -74.7135
 115   2.0000      -2.741551       -74.6014
 116   2.0000      -2.741419       -74.5978
 117   2.0000      -2.740697       -74.5781
 118   2.0000      -2.740686       -74.5779
 119   2.0000      -2.729896       -74.2843
 120   2.0000      -2.729885       -74.2839
 121   2.0000      -1.310971       -35.6733
 122   2.0000      -1.147661       -31.2294
 123   2.0000      -1.130031       -30.7497
 124   2.0000      -1.118513       -30.4363
 125   2.0000      -1.085420       -29.5358
 126   2.0000      -1.035120       -28.1671
 127   2.0000      -1.024163       -27.8689
 128   2.0000      -1.018673       -27.7195
 129   2.0000      -1.016944       -27.6725
 130   2.0000      -1.004869       -27.3439
 131   2.0000      -1.002658       -27.2837
 132   2.0000      -1.001024       -27.2393
 133   2.0000      -1.000312       -27.2199
 134   2.0000      -0.991351       -26.9760
 135   2.0000      -0.989402       -26.9230
 136   2.0000      -0.981726       -26.7141
 137   2.0000      -0.979539       -26.6546
 138   2.0000      -0.955904       -26.0115
 139   2.0000      -0.943906       -25.6850
 140   2.0000      -0.937947       -25.5228
 141   2.0000      -0.935600       -25.4590
 142   2.0000      -0.919744       -25.0275
 143   2.0000      -0.910906       -24.7870
 144   2.0000      -0.908262       -24.7151
 145   2.0000      -0.902863       -24.5681
 146   2.0000      -0.899305       -24.4713
 147   2.0000      -0.897059       -24.4102
 148   2.0000      -0.889496       -24.2044
 149   2.0000      -0.882260       -24.0075
 150   2.0000      -0.878788       -23.9130
 151   2.0000      -0.872291       -23.7362
 152   2.0000      -0.867244       -23.5989
 153   2.0000      -0.864435       -23.5225
 154   2.0000      -0.850363       -23.1395
 155   2.0000      -0.841971       -22.9112
 156   2.0000      -0.841122       -22.8881
 157   2.0000      -0.835912       -22.7463
 158   2.0000      -0.828151       -22.5351
 159   2.0000      -0.824606       -22.4387
 160   2.0000      -0.813740       -22.1430
 161   2.0000      -0.804174       -21.8827
 162   2.0000      -0.797834       -21.7102
 163   2.0000      -0.788109       -21.4455
 164   2.0000      -0.773416       -21.0457
 165   2.0000      -0.771904       -21.0046
 166   2.0000      -0.759741       -20.6736
 167   2.0000      -0.755914       -20.5695
 168   2.0000      -0.747722       -20.3465
 169   2.0000      -0.735791       -20.0219
 170   2.0000      -0.720983       -19.6189
 171   2.0000      -0.716112       -19.4864
 172   2.0000      -0.710552       -19.3351
 173   2.0000      -0.701016       -19.0756
 174   2.0000      -0.700263       -19.0551
 175   2.0000      -0.694849       -18.9078
 176   2.0000      -0.692167       -18.8348
 177   2.0000      -0.686926       -18.6922
 178   2.0000      -0.679865       -18.5001
 179   2.0000      -0.669387       -18.2149
 180   2.0000      -0.668015       -18.1776
 181   2.0000      -0.654928       -17.8215
 182   2.0000      -0.653036       -17.7700
 183   2.0000      -0.648319       -17.6417
 184   2.0000      -0.646609       -17.5951
 185   2.0000      -0.644355       -17.5338
 186   2.0000      -0.637541       -17.3484
 187   2.0000      -0.631455       -17.1828
 188   2.0000      -0.629357       -17.1257
 189   2.0000      -0.627354       -17.0712
 190   2.0000      -0.624318       -16.9886
 191   2.0000      -0.624013       -16.9803
 192   2.0000      -0.622337       -16.9347
 193   2.0000      -0.615929       -16.7603
 194   2.0000      -0.612883       -16.6774
 195   2.0000      -0.610926       -16.6241
 196   2.0000      -0.610144       -16.6029
 197   2.0000      -0.597386       -16.2557
 198   2.0000      -0.594616       -16.1803
 199   2.0000      -0.590644       -16.0722
 200   2.0000      -0.587350       -15.9826
 201   2.0000      -0.584349       -15.9009
 202   2.0000      -0.581896       -15.8342
 203   2.0000      -0.574122       -15.6227
 204   2.0000      -0.573422       -15.6036
 205   2.0000      -0.569288       -15.4911
 206   2.0000      -0.567030       -15.4297
 207   2.0000      -0.563692       -15.3388
 208   2.0000      -0.562681       -15.3113
 209   2.0000      -0.554811       -15.0972
 210   2.0000      -0.546173       -14.8621
 211   2.0000      -0.542307       -14.7569
 212   2.0000      -0.541137       -14.7251
 213   2.0000      -0.539685       -14.6856
 214   2.0000      -0.536957       -14.6113
 215   2.0000      -0.533775       -14.5248
 216   2.0000      -0.531695       -14.4682
 217   2.0000      -0.528990       -14.3945
 218   2.0000      -0.527407       -14.3515
 219   2.0000      -0.524213       -14.2646
 220   2.0000      -0.521520       -14.1913
 221   2.0000      -0.519461       -14.1353
 222   2.0000      -0.516041       -14.0422
 223   2.0000      -0.512168       -13.9368
 224   2.0000      -0.510620       -13.8947
 225   2.0000      -0.509670       -13.8688
 226   2.0000      -0.507368       -13.8062
 227   2.0000      -0.504892       -13.7388
 228   2.0000      -0.502044       -13.6613
 229   2.0000      -0.500617       -13.6225
 230   2.0000      -0.499020       -13.5790
 231   2.0000      -0.493760       -13.4359
 232   2.0000      -0.492659       -13.4059
 233   2.0000      -0.491326       -13.3697
 234   2.0000      -0.489625       -13.3234
 235   2.0000      -0.486919       -13.2497
 236   2.0000      -0.480053       -13.0629
 237   2.0000      -0.478737       -13.0271
 238   2.0000      -0.476842       -12.9755
 239   2.0000      -0.475172       -12.9301
 240   2.0000      -0.470699       -12.8084
 241   2.0000      -0.468720       -12.7545
 242   2.0000      -0.466106       -12.6834
 243   2.0000      -0.463773       -12.6199
 244   2.0000      -0.460492       -12.5306
 245   2.0000      -0.459548       -12.5049
 246   2.0000      -0.457462       -12.4482
 247   2.0000      -0.454265       -12.3612
 248   2.0000      -0.453728       -12.3466
 249   2.0000      -0.452235       -12.3059
 250   2.0000      -0.450795       -12.2668
 251   2.0000      -0.449941       -12.2435
 252   2.0000      -0.446680       -12.1548
 253   2.0000      -0.445480       -12.1221
 254   2.0000      -0.443993       -12.0817
 255   2.0000      -0.441836       -12.0230
 256   2.0000      -0.439712       -11.9652
 257   2.0000      -0.438738       -11.9387
 258   2.0000      -0.436880       -11.8881
 259   2.0000      -0.435996       -11.8641
 260   2.0000      -0.433197       -11.7879
 261   2.0000      -0.432214       -11.7611
 262   2.0000      -0.430708       -11.7201
 263   2.0000      -0.426921       -11.6171
 264   2.0000      -0.421743       -11.4762
 265   2.0000      -0.419653       -11.4193
 266   2.0000      -0.416751       -11.3404
 267   2.0000      -0.415460       -11.3052
 268   2.0000      -0.413676       -11.2567
 269   2.0000      -0.412218       -11.2170
 270   2.0000      -0.407889       -11.0992
 271   2.0000      -0.405738       -11.0407
 272   2.0000      -0.401213       -10.9176
 273   2.0000      -0.399897       -10.8817
 274   2.0000      -0.399036       -10.8583
 275   2.0000      -0.389540       -10.5999
 276   2.0000      -0.386483       -10.5167
 277   2.0000      -0.386062       -10.5053
 278   2.0000      -0.382159       -10.3991
 279   2.0000      -0.379127       -10.3166
 280   2.0000      -0.375791       -10.2258
 281   2.0000      -0.373412       -10.1611
 282   2.0000      -0.368988       -10.0407
 283   2.0000      -0.364125        -9.9084
 284   2.0000      -0.359749        -9.7893
 285   2.0000      -0.357509        -9.7283
 286   2.0000      -0.354427        -9.6445
 287   2.0000      -0.346631        -9.4323
 288   2.0000      -0.342700        -9.3253
 289   2.0000      -0.339763        -9.2454
 290   2.0000      -0.331620        -9.0238
 291   2.0000      -0.325375        -8.8539
 292   2.0000      -0.322557        -8.7772
 293   2.0000      -0.321967        -8.7612
 294   2.0000      -0.313035        -8.5181
 295   2.0000      -0.308366        -8.3911
 296   2.0000      -0.304735        -8.2923
 297   2.0000      -0.291343        -7.9278
 298   2.0000      -0.285804        -7.7771
 299   2.0000      -0.269668        -7.3380
 300   2.0000      -0.231380        -6.2962
 301   0.0000      -0.108199        -2.9443
 302   0.0000      -0.097687        -2.6582
 303   0.0000      -0.072027        -1.9599
 304   0.0000      -0.059916        -1.6304
 305   0.0000      -0.048315        -1.3147

MULLIKEN ATOMIC CHARGES
-----------------------
   0 C :    0.327203
   1 C :   -0.349688
   2 C :   -0.188691
   3 N :    0.155845
   4 C :   -0.211410
   5 N :    0.171833
   6 C :    0.035275
   7 C :   -0.032876
   8 C :   -0.051692
   9 C :    0.115503
  10 C :   -0.088712
  11 C :   -0.029871
  12 S :    0.186036
  13 C :   -0.122935
  14 C :    0.026273
  15 Br:    0.030599
  16 C :    0.169070
  17 O :   -0.180223
  18 C :   -0.089790
  19 C :    0.007800
  20 C :   -0.077399
  21 C :    0.002535
  22 C :    0.047982
  23 C :   -0.088717
  24 C :    0.198724
  25 C :   -0.051432
  26 C :    0.041875
  27 C :    0.003106
  28 C :   -0.075741
  29 C :    0.157732
  30 C :   -0.035932
  31 C :    0.005330
  32 N :   -0.061315
  33 C :   -0.090324
  34 S :    0.144771
  35 C :   -0.004709
  36 N :    0.278910
  37 O :   -0.261081
  38 O :   -0.272164
  39 C :   -0.000167
  40 C :    0.124356
  41 C :   -0.024119
  42 C :    0.023026
  43 C :    0.003681
  44 C :   -0.029042
  45 C :    0.070406
  46 C :    0.024666
  47 C :   -0.018414
  48 S :    0.051998
  49 C :   -0.074424
  50 C :    0.058953
  51 C :    0.051180
  52 C :   -0.042457
  53 S :    0.109556
  54 C :    0.025623
  55 C :    0.036229
  56 C :   -0.143745
  57 C :    0.279156
  58 C :   -0.370416
  59 C :   -0.172452
  60 N :    0.134814
  61 C :   -0.208010
  62 N :    0.164140
  63 C :    0.016052
  64 C :   -0.002693
  65 C :    0.127318
  66 O :   -0.145533
  67 C :   -0.074869
  68 C :    0.103665
  69 C :   -0.105798
  70 C :   -0.035178
  71 S :    0.175166
  72 C :   -0.130802
  73 C :    0.034642
  74 Br:    0.019151
  75 H :   -0.015796
  76 H :   -0.010615
  77 H :   -0.006169
  78 H :    0.026474
  79 H :   -0.022393
  80 H :    0.018083
  81 H :    0.016684
  82 H :    0.019527
  83 H :    0.020813
  84 H :   -0.003543
  85 H :    0.022827
  86 H :   -0.010003
  87 H :   -0.006682
  88 H :    0.017309
  89 H :    0.009933
  90 H :    0.012500
  91 H :    0.162238
  92 H :    0.007229
  93 H :   -0.009587
  94 H :   -0.020635
  95 H :   -0.008245
  96 H :   -0.003561
  97 H :   -0.004838
  98 H :   -0.007301
  99 H :   -0.000156
 100 H :    0.001838
 101 H :    0.026067
 102 H :   -0.012836
 103 H :   -0.012292
 104 H :   -0.004235
Sum of atomic charges:   -0.0000000

LOEWDIN ATOMIC CHARGES
----------------------
   0 C :    0.071995
   1 C :   -0.136998
   2 C :   -0.015308
   3 N :   -0.058921
   4 C :   -0.028868
   5 N :   -0.047380
   6 C :   -0.015486
   7 C :   -0.055931
   8 C :    0.027463
   9 C :   -0.037866
  10 C :   -0.143758
  11 C :   -0.013853
  12 S :    0.433068
  13 C :   -0.272773
  14 C :   -0.074655
  15 Br:    0.141500
  16 C :    0.087238
  17 O :   -0.166464
  18 C :   -0.099795
  19 C :    0.081512
  20 C :   -0.041284
  21 C :    0.042116
  22 C :   -0.023415
  23 C :   -0.005550
  24 C :   -0.017434
  25 C :   -0.012126
  26 C :   -0.016926
  27 C :   -0.023760
  28 C :   -0.026775
  29 C :   -0.026080
  30 C :   -0.015982
  31 C :   -0.020685
  32 N :    0.041807
  33 C :   -0.065664
  34 S :    0.457499
  35 C :   -0.223995
  36 N :    0.273938
  37 O :   -0.225910
  38 O :   -0.238483
  39 C :    0.007771
  40 C :   -0.125283
  41 C :    0.013298
  42 C :   -0.060051
  43 C :   -0.011048
  44 C :   -0.165869
  45 C :   -0.002175
  46 C :   -0.040944
  47 C :   -0.143244
  48 S :    0.425435
  49 C :   -0.200044
  50 C :   -0.017742
  51 C :   -0.024336
  52 C :   -0.110148
  53 S :    0.466440
  54 C :   -0.056527
  55 C :    0.047061
  56 C :   -0.112032
  57 C :    0.034575
  58 C :   -0.168215
  59 C :   -0.021772
  60 N :   -0.071496
  61 C :   -0.029539
  62 N :   -0.058661
  63 C :   -0.009056
  64 C :   -0.054466
  65 C :    0.081245
  66 O :   -0.146322
  67 C :    0.016019
  68 C :   -0.046287
  69 C :   -0.147490
  70 C :   -0.027059
  71 S :    0.426449
  72 C :   -0.280114
  73 C :   -0.069939
  74 Br:    0.130894
  75 H :    0.039005
  76 H :    0.039564
  77 H :    0.037768
  78 H :    0.045104
  79 H :    0.009527
  80 H :    0.029259
  81 H :    0.030331
  82 H :    0.030277
  83 H :    0.034129
  84 H :    0.024385
  85 H :    0.037088
  86 H :    0.019868
  87 H :    0.022366
  88 H :    0.032123
  89 H :    0.025202
  90 H :    0.015944
  91 H :    0.084602
  92 H :    0.044455
  93 H :    0.034427
  94 H :    0.013835
  95 H :    0.036174
  96 H :    0.038275
  97 H :    0.036118
  98 H :    0.036102
  99 H :    0.040783
 100 H :    0.043749
 101 H :    0.048656
 102 H :    0.039761
 103 H :    0.037716
 104 H :    0.038065

  Mayer bond orders larger than 0.100000
B(  0-C ,  1-C ) :   1.6327 B(  0-C ,  6-C ) :   0.9974 B(  0-C , 18-C ) :   1.0569
B(  1-C ,  2-C ) :   1.1456 B(  1-C ,  4-C ) :   1.1529 B(  2-C ,  3-N ) :   2.9577
B(  4-C ,  5-N ) :   2.9489 B(  6-C ,  7-C ) :   1.2742 B(  6-C , 11-C ) :   1.4072
B(  7-C ,  8-C ) :   1.4099 B(  7-C , 16-C ) :   0.9544 B(  8-C ,  9-C ) :   1.2517
B(  8-C , 75-H ) :   1.0066 B(  9-C , 10-C ) :   1.3046 B(  9-C , 14-C ) :   1.1582
B( 10-C , 11-C ) :   1.3248 B( 10-C , 12-S ) :   1.0866 B( 11-C , 76-H ) :   0.9820
B( 12-S , 13-C ) :   1.0847 B( 13-C , 14-C ) :   1.6142 B( 13-C , 15-Br) :   1.0224
B( 14-C , 77-H ) :   1.0028 B( 16-C , 17-O ) :   2.0969 B( 16-C , 18-C ) :   0.9498
B( 18-C , 19-C ) :   1.6237 B( 19-C , 20-C ) :   1.0960 B( 19-C , 78-H ) :   0.9406
B( 20-C , 21-C ) :   1.7626 B( 20-C , 24-C ) :   1.0104 B( 21-C , 22-C ) :   1.0008
B( 21-C , 79-H ) :   0.9852 B( 22-C , 23-C ) :   1.0559 B( 22-C , 30-C ) :   0.9687
B( 22-C , 80-H ) :   0.8841 B( 23-C , 24-C ) :   1.0475 B( 23-C , 25-C ) :   1.0301
B( 23-C , 81-H ) :   0.9071 B( 24-C , 82-H ) :   0.9264 B( 24-C , 83-H ) :   0.8893
B( 25-C , 26-C ) :   1.0463 B( 25-C , 29-C ) :   1.0872 B( 25-C , 84-H ) :   0.8962
B( 26-C , 27-C ) :   0.9877 B( 26-C , 30-C ) :   1.0198 B( 26-C , 85-H ) :   0.8837
B( 27-C , 28-C ) :   1.8781 B( 27-C , 86-H ) :   0.9913 B( 28-C , 29-C ) :   1.0214
B( 28-C , 87-H ) :   0.9886 B( 29-C , 88-H ) :   0.9162 B( 29-C , 89-H ) :   0.9284
B( 30-C , 31-C ) :   1.8721 B( 31-C , 32-N ) :   1.0523 B( 31-C , 90-H ) :   0.9195
B( 32-N , 33-C ) :   1.3256 B( 32-N , 91-H ) :   0.8701 B( 33-C , 34-S ) :   1.1466
B( 33-C , 40-C ) :   1.2763 B( 34-S , 35-C ) :   1.0426 B( 35-C , 36-N ) :   0.9853
B( 35-C , 39-C ) :   1.4890 B( 36-N , 37-O ) :   1.5256 B( 36-N , 38-O ) :   1.5029
B( 37-O , 38-O ) :   0.2516 B( 39-C , 40-C ) :   1.2070 B( 39-C , 92-H ) :   1.0078
B( 40-C , 41-C ) :   1.1234 B( 41-C , 42-C ) :   1.6086 B( 41-C , 93-H ) :   0.9717
B( 42-C , 43-C ) :   1.1900 B( 42-C , 94-H ) :   0.9559 B( 43-C , 44-C ) :   1.5273
B( 43-C , 95-H ) :   0.9886 B( 44-C , 45-C ) :   1.1518 B( 44-C , 48-S ) :   1.0165
B( 45-C , 46-C ) :   1.5727 B( 45-C , 96-H ) :   0.9964 B( 46-C , 47-C ) :   1.2000
B( 46-C , 97-H ) :   0.9950 B( 47-C , 48-S ) :   1.0829 B( 47-C , 49-C ) :   1.4667
B( 49-C , 50-C ) :   1.2055 B( 49-C , 53-S ) :   1.0361 B( 50-C , 51-C ) :   1.5468
B( 50-C , 98-H ) :   0.9942 B( 51-C , 52-C ) :   1.1684 B( 51-C , 99-H ) :   1.0012
B( 52-C , 53-S ) :   1.1035 B( 52-C , 54-C ) :   1.4504 B( 54-C , 55-C ) :   1.3272
B( 54-C ,100-H ) :   0.9482 B( 55-C , 56-C ) :   1.4679 B( 55-C ,101-H ) :   0.9289
B( 56-C , 57-C ) :   1.1383 B( 56-C , 65-C ) :   0.9654 B( 57-C , 58-C ) :   1.5382
B( 57-C , 63-C ) :   1.0014 B( 58-C , 59-C ) :   1.1448 B( 58-C , 61-C ) :   1.1727
B( 59-C , 60-N ) :   2.9710 B( 61-C , 62-N ) :   3.0037 B( 63-C , 64-C ) :   1.2825
B( 63-C , 70-C ) :   1.4320 B( 64-C , 65-C ) :   0.9126 B( 64-C , 67-C ) :   1.4281
B( 65-C , 66-O ) :   2.2577 B( 67-C , 68-C ) :   1.2327 B( 67-C ,102-H ) :   1.0212
B( 68-C , 69-C ) :   1.3238 B( 68-C , 73-C ) :   1.1602 B( 69-C , 70-C ) :   1.3033
B( 69-C , 71-S ) :   1.0809 B( 70-C ,103-H ) :   0.9832 B( 71-S , 72-C ) :   1.0801
B( 72-C , 73-C ) :   1.6137 B( 72-C , 74-Br) :   1.0141 B( 73-C ,104-H ) :   1.0033

-----------------------------------------------------------------------------
         ABSORPTION SPECTRUM VIA TRANSITION ELECTRIC DIPOLE MOMENTS
-----------------------------------------------------------------------------
State   Energy  Wavelength   fosc         T2         TX        TY        TZ
        (cm-1)    (nm)                  (au**2)     (au)      (au)      (au)
-----------------------------------------------------------------------------
   0   11221.7    891.1   0.268792600   7.88556   2.15870  -1.34536   1.18978
   1   12067.8    828.7   0.310456465   8.46933  -1.78531   1.89412  -1.30165
   2   16929.5    590.7   0.055636897   1.08192  -1.02968  -0.02586  -0.14493
   3   20092.7    497.7   0.189944372   3.11218   0.20473   1.50789   0.89249
   4   21214.9    471.4   0.144531503   2.24284  -1.21255  -0.72906  -0.49095
   5   21447.0    466.3   0.086944827   1.33461   0.05188   1.14110   0.17265
   6   22693.4    440.7   0.038954887   0.56512  -0.67991  -0.30308   0.10479
   7   23400.3    427.3   0.015601160   0.21949  -0.35095   0.14188   0.27604
   8   24068.4    415.5   0.055103390   0.75372   0.43513  -0.66389  -0.35161
   9   24746.5    404.1   0.531325236   7.06841  -1.55765  -1.54592  -1.50076
  10   25737.5    388.5   0.030611299   0.39155  -0.16829  -0.54057   0.26649
  11   25983.2    384.9   0.081248146   1.02943  -0.83416   0.53527  -0.21699
  12   26245.9    381.0   0.046127766   0.57860  -0.72070   0.23009  -0.07901
  13   26687.1    374.7   0.130431386   1.60900  -1.13886   0.55149  -0.08862
  14   27377.4    365.3   0.122771826   1.47633   0.22126   1.16434   0.26773
  15   27646.7    361.7   0.081267138   0.96772   0.04682   0.97576   0.11582
  16   28158.9    355.1   0.310785703   3.63346   1.30874   0.86251   1.08477
  17   28954.9    345.4   0.015993364   0.18184  -0.33167   0.22420  -0.14688
  18   29292.3    341.4   0.224739868   2.52582  -1.54618   0.26275  -0.25712
  19   29464.7    339.4   0.012003312   0.13411  -0.12724  -0.29589  -0.17429
  20   29750.9    336.1   0.003382734   0.03743  -0.10867  -0.03348  -0.15653
  21   29906.9    334.4   0.098333705   1.08245  -0.86444   0.56731  -0.11556
  22   30231.2    330.8   0.007117610   0.07751   0.18292  -0.01766  -0.20913
  23   30593.9    326.9   0.032975045   0.35483  -0.36262   0.23389   0.41065
  24   31101.9    321.5   0.100300766   1.06168  -0.47267  -0.70820  -0.58027
  25   31458.1    317.9   0.271053973   2.83660  -0.03482  -1.08700  -1.28601
  26   31709.6    315.4   0.203452981   2.11227  -0.71642   1.21017   0.36674
  27   32021.1    312.3   0.016288741   0.16747   0.19674   0.01572   0.35849
  28   32245.4    310.1   0.195820629   1.99924   0.13739   0.85470   1.11797
  29   32475.9    307.9   0.593829939   6.01973   2.23354  -0.03803   1.01469
  30   32770.2    305.2   0.022694528   0.22799  -0.41356   0.16190  -0.17535
  31   33077.4    302.3   0.137772769   1.37122   0.49149   0.87374   0.60518
  32   33224.5    301.0   0.069807494   0.69170  -0.70741   0.30696  -0.31154
  33   33407.7    299.3   0.038736761   0.38173   0.49829   0.35682   0.07818
  34   33521.5    298.3   0.030159803   0.29620   0.21579  -0.40208  -0.29659
  35   33614.0    297.5   0.052456119   0.51375  -0.02149   0.44699   0.55990
  36   33731.1    296.5   0.002659808   0.02596  -0.15326   0.04965  -0.00226
  37   33858.9    295.3   0.053787866   0.52298  -0.52977  -0.26036  -0.41779
  38   33949.7    294.6   0.000714905   0.00693   0.00625   0.07172  -0.04184
  39   34293.3    291.6   0.083118535   0.79793  -0.05625  -0.83845  -0.30293
  40   34383.6    290.8   0.039388059   0.37713   0.51469  -0.33421   0.02296
  41   34507.2    289.8   0.082074646   0.78302  -0.14925   0.81765   0.30364
  42   34658.6    288.5   0.043540092   0.41357   0.37282  -0.51935   0.06973
  43   34883.4    286.7   0.105330383   0.99405  -0.74205  -0.00552  -0.66588
  44   34968.0    286.0   0.126933930   1.19504   0.33785  -1.02203  -0.19065
  45   35265.1    283.6   0.028454721   0.26563  -0.20383   0.47103   0.04714
  46   35619.8    280.7   0.061018613   0.56396  -0.74287   0.06139  -0.09132
  47   35853.1    278.9   0.056434605   0.51820  -0.11894  -0.66791   0.24071
  48   35936.7    278.3   0.075363850   0.69040   0.02313   0.81686   0.15036
  49   36145.7    276.7   0.026258860   0.23916   0.35290  -0.33842   0.01011
  50   36553.3    273.6   0.021867939   0.19695   0.37352  -0.15825  -0.17997
  51   36702.7    272.5   0.195377178   1.75248  -0.04259   0.99026   0.87752
  52   36794.8    271.8   0.266260469   2.38229  -0.60562   1.21342   0.73698
  53   37153.6    269.2   0.000319561   0.00283  -0.00096   0.03260   0.04205
  54   37397.9    267.4   0.049799866   0.43839  -0.46279   0.43283   0.19202
  55   37633.1    265.7   0.332169966   2.90580  -1.41585   0.71439   0.62516
  56   37972.4    263.3   0.007909781   0.06858  -0.05002   0.15345   0.20622
  57   38315.6    261.0   0.005550255   0.04769   0.08959   0.17612   0.09296
  58   38626.5    258.9   0.041191980   0.35108   0.42637  -0.36112  -0.19718
  59   38769.5    257.9   0.040399990   0.34306   0.43885  -0.28098  -0.26742
  60   38957.9    256.7   0.002707239   0.02288   0.01721   0.06471   0.13562
  61   39459.2    253.4   0.028235397   0.23557  -0.31965   0.02439  -0.36442
  62   39480.6    253.3   0.003406948   0.02841  -0.01394  -0.09086  -0.14128
  63   39603.9    252.5   0.007859253   0.06533   0.21350   0.09000  -0.10794
  64   40005.7    250.0   0.014798899   0.12178   0.04242   0.20253   0.28101
  65   40187.3    248.8   0.003132975   0.02567  -0.09463   0.08868  -0.09405
  66   40269.1    248.3   0.005687907   0.04650   0.04360   0.17233   0.12208

FINAL SINGLE POINT ENERGY     -9992.025825405288

DIPOLE MOMENT
-------------
                                X             Y             Z
Electronic contribution:     42.84086     -30.88127     -10.02866
Nuclear contribution   :    -42.86592      28.67999      11.27694
                        -----------------------------------------
Total Dipole Moment    :     -0.02506      -2.20128       1.24828
                        -----------------------------------------
Magnitude (a.u.)       :      2.53070
Magnitude (Debye)      :      6.43254

Rotational constants in cm-1:     0.000969     0.000580     0.000420
Rotational constants in MHz :    29.054014    17.378003    12.605925

                             ****ORCA TERMINATED NORMALLY****
TOTAL RUN TIME: 0 days 0 hours 17 minutes 42 seconds 456 msec
