                         Program Version 4.2.0 -  RELEASE  -
|  1> # ORCA input file
|  2> # SCF done       -183.011713708302          0.000790703311
|  3> ! CAM-B3LYP def2-SVP def2/J RIJCOSX Grid4 TightSCF
|  4> %maxcore 5000
|  5> %tddft
|  6>     Mode sTDDFT
|  7>     Ethresh 5.0
|  8>     maxcore 5000
|  9> end
| 10>
| 11> %pal
| 12>   nprocs 6
| 13>   end
| 14> * xyz 0 1
| 15>    C       -9.22900         3.63994         2.91469
| 16>    C       -9.19332         4.00513         1.58999
| 17>    C      -10.32971         4.08082         0.76180
| 18>    N      -11.21931         4.16887         0.04042
| 19>    C       -8.02074         4.30870         0.86967
| 20>    N       -7.10774         4.53404         0.20937
| 21>    C      -10.41368         3.19784         3.64035
| 22>    C      -10.01909         2.77980         4.93419
| 23>    C      -10.90932         2.29631         5.86004
| 24>    C      -12.25764         2.22130         5.49179
| 25>    C      -12.64356         2.64757         4.20004
| 26>    C      -11.74192         3.13626         3.26226
| 27>    S      -14.35727         2.48001         3.95734
| 28>    C      -14.52682         1.84522         5.57215
| 29>    C      -13.36341         1.76271         6.25938
| 30>   Br      -16.22446         1.34909         6.19979
| 31>    C       -8.56235         2.97637         5.09090
| 32>    O       -7.92283         2.80049         6.10971
| 33>    C       -8.09456         3.52753         3.80457
| 34>    C       -6.84772         4.05828         3.57273
| 35>    C       -5.66889         3.83915         4.30521
| 36>    S       -4.45093         5.09249         4.28852
| 37>    C       -3.45625         4.17252         5.33316
| 38>    C       -3.98064         2.96048         5.67127
| 39>    C       -3.24174         1.98479         6.52510
| 40>    C       -5.25499         2.73992         5.07133
| 41>    C       -5.98609         1.50916         5.06597
| 42>    C       -6.02265         0.57607         6.04316
| 43>    C       -6.74605        -0.64264         5.91758
| 44>    C       -6.87926        -1.54064         6.91966
| 45>    C       -7.56594        -2.78487         6.76950
| 46>    C       -7.79813        -3.68542         7.74159
| 47>    C       -7.37500        -3.51022         9.16791
| 48>    C       -8.47320        -4.99433         7.42002
| 49>    N       -7.53532        -6.08649         7.58272
| 50>    C       -7.47105        -6.83709         8.70866
| 51>    C       -6.36100        -7.49673         9.13056
| 52>    C       -6.34301        -8.36119        10.24134
| 53>    C       -5.21614        -8.95426        10.74328
| 54>    C       -5.12781        -9.85092        11.83638
| 55>    C       -3.86452       -10.26403        12.12652
| 56>    C       -2.86906        -9.70772        11.28937
| 57>    S       -3.60311        -8.65915        10.09394
| 58>    C       -1.50507        -9.88889        11.35856
| 59>    C       -0.77475       -10.70069        12.25633
| 60>    C        0.57129       -10.63840        12.08811
| 61>    C        1.00843        -9.76457        11.05055
| 62>    S       -0.40440        -9.05049        10.27968
| 63>    C        2.31886        -9.52086        10.75832
| 64>    C        2.91286        -8.64823         9.79345
| 65>    C        4.30713        -8.49115         9.81139
| 66>    C        4.97732        -7.64423         8.94617
| 67>    C        4.23114        -6.92716         7.99017
| 68>    C        2.84416        -7.08303         7.95587
| 69>    C        2.19517        -7.91686         8.83461
| 70>    N        4.85827        -6.08127         7.06872
| 71>    C        6.00902        -6.50726         6.39712
| 72>    C        6.18599        -7.85529         6.08705
| 73>    C        7.33234        -8.27522         5.44158
| 74>    C        8.31279        -7.36382         5.08697
| 75>    C        8.13853        -6.02226         5.38640
| 76>    C        7.00005        -5.59294         6.03863
| 77>    C        4.25491        -4.86213         6.74405
| 78>    C        3.61031        -4.11981         7.73434
| 79>    C        3.00790        -2.91726         7.42202
| 80>    C        3.04391        -2.43002         6.12559
| 81>    C        3.68435        -3.16193         5.13910
| 82>    C        4.28194        -4.37054         5.43903
| 83>    C        6.42349        -7.45134         9.06748
| 84>    C        7.28749        -8.40145         9.39244
| 85>    H      -10.57696         1.98450         6.83777
| 86>    H      -12.08554         3.45393         2.29212
| 87>    H      -13.28601         1.39636         7.26674
| 88>    H       -6.75300         4.77352         2.76367
| 89>    H       -2.51205         4.57596         5.64524
| 90>    H       -2.19044         2.25789         6.57924
| 91>    H       -3.32858         0.97986         6.11643
| 92>    H       -3.64417         1.98193         7.53747
| 93>    H       -6.58801         1.34111         4.17865
| 94>    H       -5.53715         0.75796         6.98903
| 95>    H       -7.20631        -0.84660         4.95827
| 96>    H       -6.44366        -1.31531         7.88268
| 97>    H       -7.92930        -2.99957         5.77139
| 98>    H       -6.37850        -3.08071         9.23938
| 99>    H       -7.37299        -4.46512         9.68967
|100>    H       -8.06501        -2.84272         9.68468
|101>    H       -8.83571        -4.99279         6.38724
|102>    H       -9.32042        -5.17046         8.08834
|103>    H       -6.65932        -5.95971         7.09248
|104>    H       -8.40371        -6.93150         9.25028
|105>    H       -5.42988        -7.35717         8.59666
|106>    H       -7.27994        -8.56939        10.74170
|107>    H       -6.00759       -10.16294        12.37203
|108>    H       -3.61743       -10.94331        12.92277
|109>    H       -1.26423       -11.30425        12.99993
|110>    H        1.28190       -11.18551        12.68292
|111>    H        3.02617       -10.05730        11.38092
|112>    H        4.88045        -9.01840        10.56018
|113>    H        2.27769        -6.53860         7.21406
|114>    H        1.12473        -8.01555         8.76557
|115>    H        5.41800        -8.56693         6.35224
|116>    H        7.45647        -9.32199         5.20640
|117>    H        9.20633        -7.69546         4.58041
|118>    H        8.89991        -5.30468         5.11777
|119>    H        6.87344        -4.54815         6.28337
|120>    H        3.58773        -4.49450         8.74730
|121>    H        2.51334        -2.35282         8.19889
|122>    H        2.57538        -1.48769         5.88536
|123>    H        3.71093        -2.79370         4.12400
|124>    H        4.76703        -4.94498         4.66356
|125>    H        6.77791        -6.44580         8.87919
|126>    H        6.97994        -9.42108         9.55454
|127>    H        8.34000        -8.19884         9.48902
|128> *
|129>
|130>                          ****END OF INPUT****

CARTESIAN COORDINATES (ANGSTROEM)
---------------------------------
  C     -9.229000    3.639940    2.914690
  C     -9.193320    4.005130    1.589990
  C    -10.329710    4.080820    0.761800
  N    -11.219310    4.168870    0.040420
  C     -8.020740    4.308700    0.869670
  N     -7.107740    4.534040    0.209370
  C    -10.413680    3.197840    3.640350
  C    -10.019090    2.779800    4.934190
  C    -10.909320    2.296310    5.860040
  C    -12.257640    2.221300    5.491790
  C    -12.643560    2.647570    4.200040
  C    -11.741920    3.136260    3.262260
  S    -14.357270    2.480010    3.957340
  C    -14.526820    1.845220    5.572150
  C    -13.363410    1.762710    6.259380
  Br   -16.224460    1.349090    6.199790
  C     -8.562350    2.976370    5.090900
  O     -7.922830    2.800490    6.109710
  C     -8.094560    3.527530    3.804570
  C     -6.847720    4.058280    3.572730
  C     -5.668890    3.839150    4.305210
  S     -4.450930    5.092490    4.288520
  C     -3.456250    4.172520    5.333160
  C     -3.980640    2.960480    5.671270
  C     -3.241740    1.984790    6.525100
  C     -5.254990    2.739920    5.071330
  C     -5.986090    1.509160    5.065970
  C     -6.022650    0.576070    6.043160
  C     -6.746050   -0.642640    5.917580
  C     -6.879260   -1.540640    6.919660
  C     -7.565940   -2.784870    6.769500
  C     -7.798130   -3.685420    7.741590
  C     -7.375000   -3.510220    9.167910
  C     -8.473200   -4.994330    7.420020
  N     -7.535320   -6.086490    7.582720
  C     -7.471050   -6.837090    8.708660
  C     -6.361000   -7.496730    9.130560
  C     -6.343010   -8.361190   10.241340
  C     -5.216140   -8.954260   10.743280
  C     -5.127810   -9.850920   11.836380
  C     -3.864520  -10.264030   12.126520
  C     -2.869060   -9.707720   11.289370
  S     -3.603110   -8.659150   10.093940
  C     -1.505070   -9.888890   11.358560
  C     -0.774750  -10.700690   12.256330
  C      0.571290  -10.638400   12.088110
  C      1.008430   -9.764570   11.050550
  S     -0.404400   -9.050490   10.279680
  C      2.318860   -9.520860   10.758320
  C      2.912860   -8.648230    9.793450
  C      4.307130   -8.491150    9.811390
  C      4.977320   -7.644230    8.946170
  C      4.231140   -6.927160    7.990170
  C      2.844160   -7.083030    7.955870
  C      2.195170   -7.916860    8.834610
  N      4.858270   -6.081270    7.068720
  C      6.009020   -6.507260    6.397120
  C      6.185990   -7.855290    6.087050
  C      7.332340   -8.275220    5.441580
  C      8.312790   -7.363820    5.086970
  C      8.138530   -6.022260    5.386400
  C      7.000050   -5.592940    6.038630
  C      4.254910   -4.862130    6.744050
  C      3.610310   -4.119810    7.734340
  C      3.007900   -2.917260    7.422020
  C      3.043910   -2.430020    6.125590
  C      3.684350   -3.161930    5.139100
  C      4.281940   -4.370540    5.439030
  C      6.423490   -7.451340    9.067480
  C      7.287490   -8.401450    9.392440
  H    -10.576960    1.984500    6.837770
  H    -12.085540    3.453930    2.292120
  H    -13.286010    1.396360    7.266740
  H     -6.753000    4.773520    2.763670
  H     -2.512050    4.575960    5.645240
  H     -2.190440    2.257890    6.579240
  H     -3.328580    0.979860    6.116430
  H     -3.644170    1.981930    7.537470
  H     -6.588010    1.341110    4.178650
  H     -5.537150    0.757960    6.989030
  H     -7.206310   -0.846600    4.958270
  H     -6.443660   -1.315310    7.882680
  H     -7.929300   -2.999570    5.771390
  H     -6.378500   -3.080710    9.239380
  H     -7.372990   -4.465120    9.689670
  H     -8.065010   -2.842720    9.684680
  H     -8.835710   -4.992790    6.387240
  H     -9.320420   -5.170460    8.088340
  H     -6.659320   -5.959710    7.092480
  H     -8.403710   -6.931500    9.250280
  H     -5.429880   -7.357170    8.596660
  H     -7.279940   -8.569390   10.741700
  H     -6.007590  -10.162940   12.372030
  H     -3.617430  -10.943310   12.922770
  H     -1.264230  -11.304250   12.999930
  H      1.281900  -11.185510   12.682920
  H      3.026170  -10.057300   11.380920
  H      4.880450   -9.018400   10.560180
  H      2.277690   -6.538600    7.214060
  H      1.124730   -8.015550    8.765570
  H      5.418000   -8.566930    6.352240
  H      7.456470   -9.321990    5.206400
  H      9.206330   -7.695460    4.580410
  H      8.899910   -5.304680    5.117770
  H      6.873440   -4.548150    6.283370
  H      3.587730   -4.494500    8.747300
  H      2.513340   -2.352820    8.198890
  H      2.575380   -1.487690    5.885360
  H      3.710930   -2.793700    4.124000
  H      4.767030   -4.944980    4.663560
  H      6.777910   -6.445800    8.879190
  H      6.979940   -9.421080    9.554540
  H      8.340000   -8.198840    9.489020

 Total Charge           Charge          ....    0
 Multiplicity           Mult            ....    1
 Number of Electrons    NEL             ....  538
 Basis Dimension        Dim             .... 1229

ORBITAL ENERGIES
----------------

  NO   OCC          E(Eh)            E(eV)
   0   2.0000    -482.886239    -13140.0026
   1   2.0000     -88.975032     -2421.1337
   2   2.0000     -88.965021     -2420.8613
   3   2.0000     -88.925440     -2419.7842
   4   2.0000     -88.924939     -2419.7706
   5   2.0000     -62.563933     -1702.4512
   6   2.0000     -56.397881     -1534.6644
   7   2.0000     -56.395170     -1534.5906
   8   2.0000     -56.395138     -1534.5897
   9   2.0000     -19.212436      -522.7970
  10   2.0000     -14.435710      -392.8156
  11   2.0000     -14.428409      -392.6170
  12   2.0000     -14.413154      -392.2019
  13   2.0000     -14.412678      -392.1889
  14   2.0000     -10.361699      -281.9562
  15   2.0000     -10.358965      -281.8818
  16   2.0000     -10.339544      -281.3533
  17   2.0000     -10.338910      -281.3360
  18   2.0000     -10.324324      -280.9391
  19   2.0000     -10.321087      -280.8510
  20   2.0000     -10.316165      -280.7171
  21   2.0000     -10.315647      -280.7030
  22   2.0000     -10.315553      -280.7005
  23   2.0000     -10.314825      -280.6807
  24   2.0000     -10.311084      -280.5788
  25   2.0000     -10.307798      -280.4894
  26   2.0000     -10.306832      -280.4632
  27   2.0000     -10.305967      -280.4396
  28   2.0000     -10.304632      -280.4033
  29   2.0000     -10.300132      -280.2808
  30   2.0000     -10.299620      -280.2669
  31   2.0000     -10.299337      -280.2592
  32   2.0000     -10.297523      -280.2099
  33   2.0000     -10.296777      -280.1895
  34   2.0000     -10.296228      -280.1746
  35   2.0000     -10.296142      -280.1723
  36   2.0000     -10.293213      -280.0926
  37   2.0000     -10.291076      -280.0344
  38   2.0000     -10.290575      -280.0208
  39   2.0000     -10.287584      -279.9394
  40   2.0000     -10.285554      -279.8841
  41   2.0000     -10.285436      -279.8809
  42   2.0000     -10.282744      -279.8077
  43   2.0000     -10.281457      -279.7727
  44   2.0000     -10.279450      -279.7180
  45   2.0000     -10.278589      -279.6946
  46   2.0000     -10.277527      -279.6657
  47   2.0000     -10.275061      -279.5986
  48   2.0000     -10.273056      -279.5441
  49   2.0000     -10.271152      -279.4923
  50   2.0000     -10.270902      -279.4855
  51   2.0000     -10.270065      -279.4627
  52   2.0000     -10.268041      -279.4076
  53   2.0000     -10.267438      -279.3912
  54   2.0000     -10.263473      -279.2833
  55   2.0000     -10.262555      -279.2583
  56   2.0000     -10.261819      -279.2383
  57   2.0000     -10.260418      -279.2002
  58   2.0000     -10.260374      -279.1990
  59   2.0000     -10.258369      -279.1444
  60   2.0000     -10.257806      -279.1291
  61   2.0000     -10.256657      -279.0978
  62   2.0000     -10.256562      -279.0952
  63   2.0000     -10.256169      -279.0846
  64   2.0000     -10.255921      -279.0778
  65   2.0000     -10.255632      -279.0699
  66   2.0000     -10.255091      -279.0552
  67   2.0000     -10.254895      -279.0499
  68   2.0000     -10.254757      -279.0461
  69   2.0000     -10.254412      -279.0367
  70   2.0000     -10.253917      -279.0233
  71   2.0000     -10.252630      -278.9882
  72   2.0000     -10.251464      -278.9565
  73   2.0000     -10.248673      -278.8806
  74   2.0000      -8.793352      -239.2793
  75   2.0000      -8.071034      -219.6240
  76   2.0000      -8.061042      -219.3521
  77   2.0000      -8.021193      -218.2678
  78   2.0000      -8.021113      -218.2656
  79   2.0000      -6.629613      -180.4009
  80   2.0000      -6.615102      -180.0061
  81   2.0000      -6.614909      -180.0008
  82   2.0000      -6.040749      -164.3771
  83   2.0000      -6.036446      -164.2600
  84   2.0000      -6.032228      -164.1453
  85   2.0000      -6.030263      -164.0918
  86   2.0000      -6.026094      -163.9783
  87   2.0000      -6.023293      -163.9021
  88   2.0000      -5.990983      -163.0229
  89   2.0000      -5.990926      -163.0214
  90   2.0000      -5.987016      -162.9150
  91   2.0000      -5.986924      -162.9125
  92   2.0000      -5.981984      -162.7781
  93   2.0000      -5.981971      -162.7777
  94   2.0000      -2.745518       -74.7093
  95   2.0000      -2.741393       -74.5971
  96   2.0000      -2.741267       -74.5937
  97   2.0000      -2.729720       -74.2795
  98   2.0000      -2.729709       -74.2791
  99   2.0000      -1.126562       -30.6553
 100   2.0000      -1.055446       -28.7201
 101   2.0000      -1.038277       -28.2529
 102   2.0000      -1.021653       -27.8006
 103   2.0000      -1.011715       -27.5302
 104   2.0000      -0.998343       -27.1663
 105   2.0000      -0.991267       -26.9738
 106   2.0000      -0.987281       -26.8653
 107   2.0000      -0.974478       -26.5169
 108   2.0000      -0.953619       -25.9493
 109   2.0000      -0.941943       -25.6316
 110   2.0000      -0.941819       -25.6282
 111   2.0000      -0.937349       -25.5066
 112   2.0000      -0.926447       -25.2099
 113   2.0000      -0.919238       -25.0137
 114   2.0000      -0.907519       -24.6948
 115   2.0000      -0.906703       -24.6727
 116   2.0000      -0.904406       -24.6102
 117   2.0000      -0.887538       -24.1511
 118   2.0000      -0.884776       -24.0760
 119   2.0000      -0.876800       -23.8589
 120   2.0000      -0.874138       -23.7865
 121   2.0000      -0.868242       -23.6261
 122   2.0000      -0.857632       -23.3373
 123   2.0000      -0.843524       -22.9534
 124   2.0000      -0.838690       -22.8219
 125   2.0000      -0.832384       -22.6503
 126   2.0000      -0.828326       -22.5399
 127   2.0000      -0.825433       -22.4612
 128   2.0000      -0.823501       -22.4086
 129   2.0000      -0.818236       -22.2653
 130   2.0000      -0.815283       -22.1850
 131   2.0000      -0.810637       -22.0585
 132   2.0000      -0.804099       -21.8807
 133   2.0000      -0.798649       -21.7323
 134   2.0000      -0.789597       -21.4860
 135   2.0000      -0.787777       -21.4365
 136   2.0000      -0.776066       -21.1178
 137   2.0000      -0.764766       -20.8103
 138   2.0000      -0.759086       -20.6558
 139   2.0000      -0.750299       -20.4167
 140   2.0000      -0.745327       -20.2814
 141   2.0000      -0.717592       -19.5267
 142   2.0000      -0.710067       -19.3219
 143   2.0000      -0.708711       -19.2850
 144   2.0000      -0.700273       -19.0554
 145   2.0000      -0.697567       -18.9818
 146   2.0000      -0.690496       -18.7893
 147   2.0000      -0.688278       -18.7290
 148   2.0000      -0.680252       -18.5106
 149   2.0000      -0.677115       -18.4252
 150   2.0000      -0.672312       -18.2945
 151   2.0000      -0.667084       -18.1523
 152   2.0000      -0.661008       -17.9870
 153   2.0000      -0.657532       -17.8923
 154   2.0000      -0.654378       -17.8065
 155   2.0000      -0.643348       -17.5064
 156   2.0000      -0.642328       -17.4786
 157   2.0000      -0.636335       -17.3156
 158   2.0000      -0.630941       -17.1688
 159   2.0000      -0.621953       -16.9242
 160   2.0000      -0.615687       -16.7537
 161   2.0000      -0.612282       -16.6610
 162   2.0000      -0.611684       -16.6448
 163   2.0000      -0.608342       -16.5538
 164   2.0000      -0.604436       -16.4475
 165   2.0000      -0.601403       -16.3650
 166   2.0000      -0.598646       -16.2900
 167   2.0000      -0.595252       -16.1976
 168   2.0000      -0.580474       -15.7955
 169   2.0000      -0.579316       -15.7640
 170   2.0000      -0.573729       -15.6120
 171   2.0000      -0.569954       -15.5092
 172   2.0000      -0.568606       -15.4725
 173   2.0000      -0.563431       -15.3317
 174   2.0000      -0.557592       -15.1728
 175   2.0000      -0.553553       -15.0630
 176   2.0000      -0.548183       -14.9168
 177   2.0000      -0.546728       -14.8772
 178   2.0000      -0.541942       -14.7470
 179   2.0000      -0.541373       -14.7315
 180   2.0000      -0.539621       -14.6838
 181   2.0000      -0.532961       -14.5026
 182   2.0000      -0.526635       -14.3305
 183   2.0000      -0.525418       -14.2974
 184   2.0000      -0.523408       -14.2427
 185   2.0000      -0.521428       -14.1888
 186   2.0000      -0.517116       -14.0714
 187   2.0000      -0.516617       -14.0579
 188   2.0000      -0.513976       -13.9860
 189   2.0000      -0.512380       -13.9426
 190   2.0000      -0.509295       -13.8586
 191   2.0000      -0.508635       -13.8407
 192   2.0000      -0.505405       -13.7528
 193   2.0000      -0.504381       -13.7249
 194   2.0000      -0.502607       -13.6766
 195   2.0000      -0.501359       -13.6427
 196   2.0000      -0.495080       -13.4718
 197   2.0000      -0.493274       -13.4227
 198   2.0000      -0.492743       -13.4082
 199   2.0000      -0.492403       -13.3990
 200   2.0000      -0.491884       -13.3848
 201   2.0000      -0.490184       -13.3386
 202   2.0000      -0.486733       -13.2447
 203   2.0000      -0.485239       -13.2040
 204   2.0000      -0.479995       -13.0613
 205   2.0000      -0.477984       -13.0066
 206   2.0000      -0.474012       -12.8985
 207   2.0000      -0.472122       -12.8471
 208   2.0000      -0.469467       -12.7748
 209   2.0000      -0.466200       -12.6860
 210   2.0000      -0.464631       -12.6432
 211   2.0000      -0.463361       -12.6087
 212   2.0000      -0.458902       -12.4874
 213   2.0000      -0.457969       -12.4620
 214   2.0000      -0.456090       -12.4108
 215   2.0000      -0.455257       -12.3882
 216   2.0000      -0.451742       -12.2925
 217   2.0000      -0.450759       -12.2658
 218   2.0000      -0.448882       -12.2147
 219   2.0000      -0.447986       -12.1903
 220   2.0000      -0.446100       -12.1390
 221   2.0000      -0.444262       -12.0890
 222   2.0000      -0.441998       -12.0274
 223   2.0000      -0.441570       -12.0157
 224   2.0000      -0.440145       -11.9770
 225   2.0000      -0.437895       -11.9157
 226   2.0000      -0.436514       -11.8782
 227   2.0000      -0.429732       -11.6936
 228   2.0000      -0.427722       -11.6389
 229   2.0000      -0.427102       -11.6220
 230   2.0000      -0.425343       -11.5742
 231   2.0000      -0.423661       -11.5284
 232   2.0000      -0.421407       -11.4671
 233   2.0000      -0.419734       -11.4215
 234   2.0000      -0.419536       -11.4162
 235   2.0000      -0.415106       -11.2956
 236   2.0000      -0.412953       -11.2370
 237   2.0000      -0.411128       -11.1874
 238   2.0000      -0.410607       -11.1732
 239   2.0000      -0.406005       -11.0480
 240   2.0000      -0.405171       -11.0253
 241   2.0000      -0.401710       -10.9311
 242   2.0000      -0.398273       -10.8376
 243   2.0000      -0.388383       -10.5684
 244   2.0000      -0.386263       -10.5108
 245   2.0000      -0.379046       -10.3144
 246   2.0000      -0.375778       -10.2254
 247   2.0000      -0.375553       -10.2193
 248   2.0000      -0.371976       -10.1220
 249   2.0000      -0.370055       -10.0697
 250   2.0000      -0.358327        -9.7506
 251   2.0000      -0.347106        -9.4452
 252   2.0000      -0.340099        -9.2546
 253   2.0000      -0.336941        -9.1686
 254   2.0000      -0.322366        -8.7720
 255   2.0000      -0.321055        -8.7364
 256   2.0000      -0.316807        -8.6208
 257   2.0000      -0.314576        -8.5600
 258   2.0000      -0.312048        -8.4913
 259   2.0000      -0.308096        -8.3837
 260   2.0000      -0.305666        -8.3176
 261   2.0000      -0.302282        -8.2255
 262   2.0000      -0.295346        -8.0368
 263   2.0000      -0.286580        -7.7982
 264   2.0000      -0.285201        -7.7607
 265   2.0000      -0.266057        -7.2398
 266   2.0000      -0.255557        -6.9540
 267   2.0000      -0.232941        -6.3386
 268   2.0000      -0.187422        -5.1000
 269   0.0000      -0.092692        -2.5223
 270   0.0000      -0.060432        -1.6444
 271   0.0000      -0.050365        -1.3705
 272   0.0000      -0.026005        -0.7076
 273   0.0000      -0.007720        -0.2101

MULLIKEN ATOMIC CHARGES
-----------------------
   0 C :    0.303238
   1 C :   -0.340974
   2 C :   -0.183956
   3 N :    0.145527
   4 C :   -0.209980
   5 N :    0.160028
   6 C :    0.012607
   7 C :   -0.008951
   8 C :   -0.076523
   9 C :    0.117688
  10 C :   -0.092288
  11 C :   -0.022870
  12 S :    0.184471
  13 C :   -0.124816
  14 C :    0.041522
  15 Br:    0.020767
  16 C :    0.131095
  17 O :   -0.144661
  18 C :   -0.124507
  19 C :    0.026715
  20 C :   -0.164196
  21 S :    0.144543
  22 C :   -0.097167
  23 C :   -0.101448
  24 C :    0.109035
  25 C :    0.181887
  26 C :   -0.034476
  27 C :    0.031632
  28 C :    0.012983
  29 C :    0.010886
  30 C :    0.006261
  31 C :   -0.214529
  32 C :    0.088350
  33 C :    0.218570
  34 N :   -0.145791
  35 C :    0.041638
  36 C :   -0.023567
  37 C :   -0.012931
  38 C :   -0.035550
  39 C :    0.041172
  40 C :    0.010911
  41 C :   -0.040669
  42 S :    0.049963
  43 C :   -0.046656
  44 C :    0.029312
  45 C :    0.025099
  46 C :   -0.003575
  47 S :    0.035155
  48 C :   -0.049080
  49 C :    0.145105
  50 C :   -0.125936
  51 C :    0.039220
  52 C :    0.083046
  53 C :   -0.011415
  54 C :   -0.036266
  55 N :   -0.163583
  56 C :    0.089620
  57 C :    0.021414
  58 C :    0.012647
  59 C :    0.027073
  60 C :    0.010531
  61 C :   -0.022586
  62 C :    0.129271
  63 C :   -0.021148
  64 C :    0.017306
  65 C :    0.026144
  66 C :    0.013743
  67 C :   -0.033012
  68 C :    0.019729
  69 C :   -0.013635
  70 H :   -0.014544
  71 H :   -0.006124
  72 H :   -0.006505
  73 H :    0.030643
  74 H :    0.025792
  75 H :    0.009932
  76 H :    0.035511
  77 H :    0.041855
  78 H :    0.004019
  79 H :   -0.014250
  80 H :   -0.016460
  81 H :   -0.016561
  82 H :   -0.029010
  83 H :    0.032069
  84 H :    0.020342
  85 H :    0.032922
  86 H :    0.006382
  87 H :    0.016407
  88 H :    0.118422
  89 H :   -0.000274
  90 H :   -0.013401
  91 H :   -0.026175
  92 H :   -0.022659
  93 H :   -0.021860
  94 H :   -0.021872
  95 H :   -0.021756
  96 H :   -0.032641
  97 H :   -0.038759
  98 H :   -0.016037
  99 H :   -0.016203
 100 H :   -0.009574
 101 H :   -0.020269
 102 H :   -0.024416
 103 H :   -0.020214
 104 H :   -0.010982
 105 H :   -0.007594
 106 H :   -0.019517
 107 H :   -0.025832
 108 H :   -0.018824
 109 H :   -0.006203
 110 H :    0.004793
 111 H :    0.010821
 112 H :    0.019442
Sum of atomic charges:   -0.0000000

LOEWDIN ATOMIC CHARGES
----------------------
   0 C :    0.075601
   1 C :   -0.143949
   2 C :   -0.018417
   3 N :   -0.056261
   4 C :   -0.026398
   5 N :   -0.052553
   6 C :   -0.023027
   7 C :   -0.047193
   8 C :    0.017696
   9 C :   -0.033359
  10 C :   -0.145835
  11 C :   -0.009905
  12 S :    0.430576
  13 C :   -0.272173
  14 C :   -0.071379
  15 Br:    0.134337
  16 C :    0.073544
  17 O :   -0.134469
  18 C :   -0.107195
  19 C :    0.050228
  20 C :   -0.180287
  21 S :    0.452525
  22 C :   -0.162372
  23 C :   -0.055034
  24 C :   -0.044225
  25 C :   -0.009016
  26 C :   -0.013381
  27 C :   -0.004852
  28 C :   -0.020590
  29 C :   -0.021933
  30 C :   -0.052381
  31 C :   -0.040794
  32 C :   -0.053362
  33 C :    0.047055
  34 N :   -0.004156
  35 C :    0.036711
  36 C :   -0.122009
  37 C :   -0.040512
  38 C :   -0.173880
  39 C :   -0.030430
  40 C :   -0.050784
  41 C :   -0.171444
  42 S :    0.347730
  43 C :   -0.196716
  44 C :   -0.037368
  45 C :   -0.042813
  46 C :   -0.143650
  47 S :    0.363027
  48 C :   -0.066709
  49 C :   -0.036139
  50 C :   -0.006391
  51 C :   -0.044111
  52 C :    0.018201
  53 C :   -0.032308
  54 C :   -0.025771
  55 N :   -0.004569
  56 C :    0.023575
  57 C :   -0.035270
  58 C :   -0.016646
  59 C :   -0.043377
  60 C :   -0.021131
  61 C :   -0.045141
  62 C :    0.025819
  63 C :   -0.040408
  64 C :   -0.019954
  65 C :   -0.044636
  66 C :   -0.019716
  67 C :   -0.043445
  68 C :   -0.011962
  69 C :   -0.045039
  70 H :    0.039397
  71 H :    0.040831
  72 H :    0.037775
  73 H :    0.044774
  74 H :    0.026667
  75 H :    0.033370
  76 H :    0.037930
  77 H :    0.037364
  78 H :    0.031000
  79 H :    0.028814
  80 H :    0.026922
  81 H :    0.025424
  82 H :    0.024500
  83 H :    0.035562
  84 H :    0.032305
  85 H :    0.040663
  86 H :    0.024775
  87 H :    0.029967
  88 H :    0.079049
  89 H :    0.024763
  90 H :    0.018268
  91 H :    0.028621
  92 H :    0.029553
  93 H :    0.028061
  94 H :    0.028755
  95 H :    0.029021
  96 H :    0.029268
  97 H :    0.024722
  98 H :    0.032797
  99 H :    0.012181
 100 H :    0.032292
 101 H :    0.027185
 102 H :    0.023918
 103 H :    0.026875
 104 H :    0.030129
 105 H :    0.032306
 106 H :    0.027046
 107 H :    0.023269
 108 H :    0.027338
 109 H :    0.032143
 110 H :    0.032129
 111 H :    0.018697
 112 H :    0.023774

  Mayer bond orders larger than 0.100000
B(  0-C ,  1-C ) :   1.6277 B(  0-C ,  6-C ) :   1.0034 B(  0-C , 18-C ) :   1.0770
B(  1-C ,  2-C ) :   1.1430 B(  1-C ,  4-C ) :   1.1436 B(  2-C ,  3-N ) :   2.9687
B(  4-C ,  5-N ) :   2.9945 B(  6-C ,  7-C ) :   1.2723 B(  6-C , 11-C ) :   1.4128
B(  7-C ,  8-C ) :   1.4317 B(  7-C , 16-C ) :   0.9295 B(  8-C ,  9-C ) :   1.2408
B(  8-C , 70-H ) :   1.0160 B(  9-C , 10-C ) :   1.3111 B(  9-C , 14-C ) :   1.1629
B( 10-C , 11-C ) :   1.3279 B( 10-C , 12-S ) :   1.0821 B( 11-C , 71-H ) :   0.9793
B( 12-S , 13-C ) :   1.0878 B( 13-C , 14-C ) :   1.6186 B( 13-C , 15-Br) :   1.0177
B( 14-C , 72-H ) :   0.9992 B( 16-C , 17-O ) :   2.2004 B( 16-C , 18-C ) :   0.9746
B( 18-C , 19-C ) :   1.5449 B( 19-C , 20-C ) :   1.2378 B( 19-C , 73-H ) :   0.9309
B( 20-C , 21-S ) :   1.1083 B( 20-C , 25-C ) :   1.3679 B( 21-S , 22-C ) :   1.1749
B( 22-C , 23-C ) :   1.5564 B( 22-C , 74-H ) :   0.9662 B( 23-C , 24-C ) :   1.0927
B( 23-C , 25-C ) :   1.2702 B( 24-C , 75-H ) :   0.9457 B( 24-C , 76-H ) :   0.9426
B( 24-C , 77-H ) :   0.9435 B( 25-C , 26-C ) :   1.1022 B( 26-C , 27-C ) :   1.6690
B( 26-C , 78-H ) :   0.9540 B( 27-C , 28-C ) :   1.1118 B( 27-C , 79-H ) :   0.9814
B( 28-C , 29-C ) :   1.6757 B( 28-C , 80-H ) :   0.9920 B( 29-C , 30-C ) :   1.1002
B( 29-C , 81-H ) :   0.9731 B( 30-C , 31-C ) :   1.7583 B( 30-C , 82-H ) :   0.9745
B( 31-C , 32-C ) :   1.0651 B( 31-C , 33-C ) :   1.0511 B( 32-C , 83-H ) :   0.9474
B( 32-C , 84-H ) :   0.9488 B( 32-C , 85-H ) :   0.9454 B( 33-C , 34-N ) :   1.0051
B( 33-C , 86-H ) :   0.9399 B( 33-C , 87-H ) :   0.9297 B( 34-N , 35-C ) :   1.2185
B( 34-N , 88-H ) :   0.9369 B( 35-C , 36-C ) :   1.6035 B( 35-C , 89-H ) :   0.9656
B( 36-C , 37-C ) :   1.1641 B( 36-C , 90-H ) :   0.9610 B( 37-C , 38-C ) :   1.5942
B( 37-C , 91-H ) :   0.9790 B( 38-C , 39-C ) :   1.1420 B( 38-C , 42-S ) :   1.0073
B( 39-C , 40-C ) :   1.5955 B( 39-C , 92-H ) :   0.9974 B( 40-C , 41-C ) :   1.1811
B( 40-C , 93-H ) :   0.9935 B( 41-C , 42-S ) :   1.0455 B( 41-C , 43-C ) :   1.5274
B( 43-C , 44-C ) :   1.1793 B( 43-C , 47-S ) :   1.0183 B( 44-C , 45-C ) :   1.6063
B( 44-C , 94-H ) :   0.9914 B( 45-C , 46-C ) :   1.1266 B( 45-C , 95-H ) :   0.9985
B( 46-C , 47-S ) :   1.0271 B( 46-C , 48-C ) :   1.6030 B( 48-C , 49-C ) :   1.1077
B( 48-C , 96-H ) :   0.9699 B( 49-C , 50-C ) :   1.2837 B( 49-C , 54-C ) :   1.2942
B( 50-C , 51-C ) :   1.3734 B( 50-C , 97-H ) :   1.0005 B( 51-C , 52-C ) :   1.3509
B( 51-C , 68-C ) :   1.0306 B( 52-C , 53-C ) :   1.3678 B( 52-C , 55-N ) :   1.0026
B( 53-C , 54-C ) :   1.4021 B( 53-C , 98-H ) :   0.9873 B( 54-C , 99-H ) :   0.9714
B( 55-N , 56-C ) :   0.9920 B( 55-N , 62-C ) :   0.9939 B( 56-C , 57-C ) :   1.3934
B( 56-C , 61-C ) :   1.3770 B( 57-C , 58-C ) :   1.3769 B( 57-C ,100-H ) :   0.9861
B( 58-C , 59-C ) :   1.3848 B( 58-C ,101-H ) :   0.9855 B( 59-C , 60-C ) :   1.3732
B( 59-C ,102-H ) :   0.9940 B( 60-C , 61-C ) :   1.3864 B( 60-C ,103-H ) :   0.9858
B( 61-C ,104-H ) :   0.9915 B( 62-C , 63-C ) :   1.3830 B( 62-C , 67-C ) :   1.3807
B( 63-C , 64-C ) :   1.3810 B( 63-C ,105-H ) :   0.9895 B( 64-C , 65-C ) :   1.3793
B( 64-C ,106-H ) :   0.9859 B( 65-C , 66-C ) :   1.3818 B( 65-C ,107-H ) :   0.9939
B( 66-C , 67-C ) :   1.3779 B( 66-C ,108-H ) :   0.9860 B( 67-C ,109-H ) :   0.9921
B( 68-C , 69-C ) :   1.9820 B( 68-C ,110-H ) :   0.9416 B( 69-C ,111-H ) :   0.9536
B( 69-C ,112-H ) :   0.9506

-----------------------------------------------------------------------------
         ABSORPTION SPECTRUM VIA TRANSITION ELECTRIC DIPOLE MOMENTS
-----------------------------------------------------------------------------
State   Energy  Wavelength   fosc         T2         TX        TY        TZ
        (cm-1)    (nm)                  (au**2)     (au)      (au)      (au)
-----------------------------------------------------------------------------
   0   12819.6    780.1   0.106485020   2.73457  -1.14338   1.06423  -0.54282
   1   16345.6    611.8   1.354274553  27.27604   5.15684  -0.78741   0.25100
   2   19357.3    516.6   0.345638410   5.87831   0.67977  -1.83974   1.42534
   3   19826.6    504.4   0.031928398   0.53016  -0.58659  -0.40687   0.14328
   4   23378.5    427.7   0.039709927   0.55919   0.67115   0.32951  -0.01268
   5   24291.1    411.7   0.222803193   3.01961   1.44470   0.37571   0.88954
   6   24819.6    402.9   0.094469337   1.25306   1.02921   0.34758   0.27013
   7   25358.7    394.3   0.181397627   2.35494  -0.59079   1.12350  -0.86236
   8   25723.5    388.7   0.263135367   3.36763  -0.39676  -1.34273   1.18629
   9   27504.5    363.6   0.292581186   3.50202   1.82276   0.06181  -0.41923
  10   27865.7    358.9   0.541166023   6.39346   0.34854  -1.70795   1.83163
  11   28350.8    352.7   0.072690766   0.84409   0.46367  -0.02552   0.79275
  12   28981.5    345.0   0.040891403   0.46450  -0.36888  -0.42439   0.38513
  13   29259.7    341.8   0.054704005   0.61550   0.31899   0.49215  -0.52108
  14   29881.1    334.7   0.015954175   0.17577  -0.29704   0.07228  -0.28691
  15   30600.4    326.8   0.188597453   2.02901  -1.33714  -0.36350   0.33006
  16   30782.7    324.9   0.114681129   1.22648  -0.94757  -0.36382   0.44298
  17   31419.9    318.3   0.001189198   0.01246  -0.09274  -0.05616   0.02656
  18   31878.5    313.7   0.495759954   5.11975   0.77821   1.63708  -1.35429
  19   32552.9    307.2   0.023454429   0.23720   0.06030   0.42496  -0.23015
  20   32984.2    303.2   0.391578561   3.90830  -1.15266  -0.47366   1.53471
  21   33955.9    294.5   0.098886471   0.95873  -0.85124  -0.33854   0.34569
  22   34041.6    293.8   0.136138647   1.31658   0.98364  -0.30208  -0.50771
  23   34411.0    290.6   0.267322449   2.55749   0.33252   1.36907  -0.75669
  24   34754.1    287.7   0.006861151   0.06499   0.15160   0.10495   0.17605
  25   35038.5    285.4   0.034989341   0.32875   0.09245  -0.52418   0.21315
  26   35276.4    283.5   0.062201926   0.58049   0.62289   0.43339   0.06838
  27   35428.3    282.3   0.127412292   1.18396   0.47427   0.64262  -0.73896
  28   35485.7    281.8   0.043994788   0.40815  -0.32280  -0.54915  -0.04886
  29   35861.7    278.8   0.059543142   0.54661   0.41063   0.60368  -0.11642
  30   36530.5    273.7   0.141404567   1.27433  -0.41633  -0.80900   0.66822
  31   36707.1    272.4   0.440873628   3.95403   1.03536   1.32006  -1.06748
  32   37122.5    269.4   0.005524577   0.04899  -0.16432  -0.14818   0.00571
  33   37569.7    266.2   0.078508386   0.68795  -0.70617   0.41793  -0.12084
  34   37866.1    264.1   0.120872823   1.05088   0.87500  -0.01800   0.53379
  35   37957.7    263.5   0.014371864   0.12465   0.26155   0.08751   0.22042
  36   38042.6    262.9   0.052701432   0.45607  -0.60746  -0.21422   0.20290
  37   38308.2    261.0   0.004245644   0.03649  -0.05922  -0.04843  -0.17502
  38   38815.6    257.6   0.034758233   0.29480   0.24440   0.36994  -0.31339
  39   38933.1    256.9   0.138197846   1.16858   0.09059   0.91132  -0.57434
  40   39374.5    254.0   0.115880114   0.96888  -0.83633  -0.39595   0.33562
  41   39575.0    252.7   0.033136546   0.27565   0.45304   0.22108  -0.14673
  42   40118.7    249.3   0.002621225   0.02151   0.10351   0.09334   0.04563
  43   40250.9    248.4   0.055758500   0.45605   0.28032   0.52085   0.32586

FINAL SINGLE POINT ENERGY     -6769.239830536896

DIPOLE MOMENT
-------------
                                X             Y             Z
Electronic contribution:   -215.41347     104.29814     -39.35804
Nuclear contribution   :    214.41195    -104.59337      41.80398
                        -----------------------------------------
Total Dipole Moment    :     -1.00152      -0.29522       2.44594
                        -----------------------------------------
Magnitude (a.u.)       :      2.65948
Magnitude (Debye)      :      6.75986

Rotational constants in cm-1:     0.000926     0.000235     0.000193
Rotational constants in MHz :    27.758101     7.030308     5.784788

                             ****ORCA TERMINATED NORMALLY****
TOTAL RUN TIME: 0 days 0 hours 10 minutes 5 seconds 530 msec
