                         Program Version 4.2.0 -  RELEASE  -
|  1> # ORCA input file
|  2> # SCF done       -194.184833451509          0.000352620041
|  3> ! CAM-B3LYP def2-SVP def2/J RIJCOSX Grid4 TightSCF
|  4> %maxcore 5000
|  5> %tddft
|  6>     Mode sTDDFT
|  7>     Ethresh 5.0
|  8>     maxcore 5000
|  9> end
| 10>
| 11> %pal
| 12>   nprocs 6
| 13>   end
| 14> * xyz 0 1
| 15>    C       -7.96878         8.66906         3.41939
| 16>    C       -9.09658         9.33760         2.99083
| 17>    C       -9.61394        10.50736         3.57807
| 18>    N      -10.11076        11.45341         4.00032
| 19>    C       -9.88651         8.95800         1.89542
| 20>    N      -10.57319         8.71139         1.00494
| 21>    C       -7.08205         9.12157         4.48272
| 22>    C       -5.99377         8.22124         4.57392
| 23>    C       -4.98092         8.37815         5.48607
| 24>    C       -5.04106         9.48223         6.34554
| 25>    C       -6.13140        10.37789         6.24394
| 26>    C       -7.15934        10.21614         5.32275
| 27>    S       -6.00971        11.66784         7.40187
| 28>    C       -4.51573        10.99614         7.99818
| 29>    C       -4.12635         9.86422         7.36413
| 30>   Br       -3.61167        11.85124         9.40125
| 31>    C       -6.16715         7.13304         3.58250
| 32>    O       -5.47007         6.14794         3.48627
| 33>    C       -7.41937         7.46002         2.85828
| 34>    C       -8.06849         6.69574         1.91180
| 35>    C       -7.55400         5.66071         1.11291
| 36>    C       -8.37942         4.84289         0.32762
| 37>    O       -7.86428         3.87154        -0.48422
| 38>    C       -6.51155         3.68618        -0.42815
| 39>    C       -5.67988         4.51686         0.37351
| 40>    C       -4.37009         4.17203         0.30668
| 41>    S       -4.13673         2.82613        -0.74444
| 42>    C       -5.81990         2.72641        -1.09299
| 43>    O       -6.19161         5.54638         1.09538
| 44>    C       -9.79467         4.90491         0.32481
| 45>    C      -10.56063         3.99617        -0.35192
| 46>    C      -11.97061         3.90518        -0.37021
| 47>    C      -12.87363         4.89941        -0.02229
| 48>    O      -14.21464         4.64654         0.14853
| 49>    C      -14.61475         3.35989        -0.08056
| 50>    C      -13.71272         2.37740        -0.57782
| 51>    C      -14.30823         1.17639        -0.78511
| 52>    S      -15.97892         1.22916        -0.36306
| 53>    C      -15.87381         2.88487         0.09281
| 54>    O      -12.39138         2.64900        -0.77204
| 55>    C      -12.55130         6.28118         0.05133
| 56>    C      -13.38415         7.21437         0.58349
| 57>    C      -13.20363         8.63051         0.45477
| 58>    C      -12.76362         9.27561        -0.68982
| 59>    O      -12.40831        10.60229        -0.68573
| 60>    C      -12.55845        11.25312         0.50249
| 61>    C      -13.13870        10.61726         1.63623
| 62>    C      -13.24046        11.44048         2.71007
| 63>    S      -12.62897        13.00669         2.35148
| 64>    C      -12.22924        12.54743         0.74019
| 65>    O      -13.50330         9.29999         1.60775
| 66>    C      -12.66159         8.69612        -1.98419
| 67>    C      -13.35625         7.60542        -2.41717
| 68>    C      -13.14538         6.95005        -3.63651
| 69>    C      -13.78077         5.79484        -4.02441
| 70>    C      -14.93359         5.12842        -3.47414
| 71>    C      -15.99285         5.71012        -2.81749
| 72>    C      -17.07265         4.99008        -2.27440
| 73>    N      -17.95417         4.44996        -1.77284
| 74>    C      -16.18114         7.10104        -2.67833
| 75>    N      -16.42375         8.21868        -2.57640
| 76>    C      -14.87216         3.73117        -3.89691
| 77>    C      -13.81097         3.58318        -4.82500
| 78>    C      -13.13575         4.88788        -5.00224
| 79>    O      -12.21321         5.14652        -5.74316
| 80>    C      -13.51088         2.38083        -5.41556
| 81>    C      -14.28891         1.26976        -5.06911
| 82>    C      -15.34913         1.42974        -4.14717
| 83>    C      -15.66038         2.64941        -3.55800
| 84>    S      -16.18261        -0.06699        -3.86055
| 85>    C      -15.10860        -0.87861        -4.96977
| 86>    C      -14.17504        -0.07160        -5.52733
| 87>   Br      -15.31958        -2.71602        -5.28211
| 88>    H       -4.16507         7.67430         5.53634
| 89>    H       -7.97288        10.92156         5.28630
| 90>    H       -3.23173         9.31960         7.60494
| 91>    H       -9.09946         6.94501         1.72827
| 92>    H       -3.54616         4.62772         0.81369
| 93>    H       -6.19898         1.98050        -1.75971
| 94>    H      -10.27214         5.65912         0.92391
| 95>    H      -10.06324         3.17243        -0.84600
| 96>    H      -13.86166         0.27511        -1.14932
| 97>    H      -16.73974         3.41174         0.43566
| 98>    H      -11.64968         6.59998        -0.44828
| 99>    H      -14.18493         6.90422         1.24185
|100>    H      -13.63102        11.21480         3.68007
|101>    H      -11.78522        13.24788         0.06433
|102>    H      -12.05316         9.25606        -2.68227
|103>    H      -14.06343         7.15822        -1.73637
|104>    H      -12.32370         7.27246        -4.26514
|105>    H      -12.70249         2.29789        -6.12496
|106>    H      -16.48355         2.72301        -2.86733
|107>    H      -13.43635        -0.40594        -6.23272
|108> *
|109>
|110>                          ****END OF INPUT****

CARTESIAN COORDINATES (ANGSTROEM)
---------------------------------
  C     -7.968780    8.669060    3.419390
  C     -9.096580    9.337600    2.990830
  C     -9.613940   10.507360    3.578070
  N    -10.110760   11.453410    4.000320
  C     -9.886510    8.958000    1.895420
  N    -10.573190    8.711390    1.004940
  C     -7.082050    9.121570    4.482720
  C     -5.993770    8.221240    4.573920
  C     -4.980920    8.378150    5.486070
  C     -5.041060    9.482230    6.345540
  C     -6.131400   10.377890    6.243940
  C     -7.159340   10.216140    5.322750
  S     -6.009710   11.667840    7.401870
  C     -4.515730   10.996140    7.998180
  C     -4.126350    9.864220    7.364130
  Br    -3.611670   11.851240    9.401250
  C     -6.167150    7.133040    3.582500
  O     -5.470070    6.147940    3.486270
  C     -7.419370    7.460020    2.858280
  C     -8.068490    6.695740    1.911800
  C     -7.554000    5.660710    1.112910
  C     -8.379420    4.842890    0.327620
  O     -7.864280    3.871540   -0.484220
  C     -6.511550    3.686180   -0.428150
  C     -5.679880    4.516860    0.373510
  C     -4.370090    4.172030    0.306680
  S     -4.136730    2.826130   -0.744440
  C     -5.819900    2.726410   -1.092990
  O     -6.191610    5.546380    1.095380
  C     -9.794670    4.904910    0.324810
  C    -10.560630    3.996170   -0.351920
  C    -11.970610    3.905180   -0.370210
  C    -12.873630    4.899410   -0.022290
  O    -14.214640    4.646540    0.148530
  C    -14.614750    3.359890   -0.080560
  C    -13.712720    2.377400   -0.577820
  C    -14.308230    1.176390   -0.785110
  S    -15.978920    1.229160   -0.363060
  C    -15.873810    2.884870    0.092810
  O    -12.391380    2.649000   -0.772040
  C    -12.551300    6.281180    0.051330
  C    -13.384150    7.214370    0.583490
  C    -13.203630    8.630510    0.454770
  C    -12.763620    9.275610   -0.689820
  O    -12.408310   10.602290   -0.685730
  C    -12.558450   11.253120    0.502490
  C    -13.138700   10.617260    1.636230
  C    -13.240460   11.440480    2.710070
  S    -12.628970   13.006690    2.351480
  C    -12.229240   12.547430    0.740190
  O    -13.503300    9.299990    1.607750
  C    -12.661590    8.696120   -1.984190
  C    -13.356250    7.605420   -2.417170
  C    -13.145380    6.950050   -3.636510
  C    -13.780770    5.794840   -4.024410
  C    -14.933590    5.128420   -3.474140
  C    -15.992850    5.710120   -2.817490
  C    -17.072650    4.990080   -2.274400
  N    -17.954170    4.449960   -1.772840
  C    -16.181140    7.101040   -2.678330
  N    -16.423750    8.218680   -2.576400
  C    -14.872160    3.731170   -3.896910
  C    -13.810970    3.583180   -4.825000
  C    -13.135750    4.887880   -5.002240
  O    -12.213210    5.146520   -5.743160
  C    -13.510880    2.380830   -5.415560
  C    -14.288910    1.269760   -5.069110
  C    -15.349130    1.429740   -4.147170
  C    -15.660380    2.649410   -3.558000
  S    -16.182610   -0.066990   -3.860550
  C    -15.108600   -0.878610   -4.969770
  C    -14.175040   -0.071600   -5.527330
  Br   -15.319580   -2.716020   -5.282110
  H     -4.165070    7.674300    5.536340
  H     -7.972880   10.921560    5.286300
  H     -3.231730    9.319600    7.604940
  H     -9.099460    6.945010    1.728270
  H     -3.546160    4.627720    0.813690
  H     -6.198980    1.980500   -1.759710
  H    -10.272140    5.659120    0.923910
  H    -10.063240    3.172430   -0.846000
  H    -13.861660    0.275110   -1.149320
  H    -16.739740    3.411740    0.435660
  H    -11.649680    6.599980   -0.448280
  H    -14.184930    6.904220    1.241850
  H    -13.631020   11.214800    3.680070
  H    -11.785220   13.247880    0.064330
  H    -12.053160    9.256060   -2.682270
  H    -14.063430    7.158220   -1.736370
  H    -12.323700    7.272460   -4.265140
  H    -12.702490    2.297890   -6.124960
  H    -16.483550    2.723010   -2.867330
  H    -13.436350   -0.405940   -6.232720

 Total Charge           Charge          ....    0
 Multiplicity           Mult            ....    1
 Number of Electrons    NEL             ....  586
 Basis Dimension        Dim             .... 1178

ORBITAL ENERGIES
----------------

  NO   OCC          E(Eh)            E(eV)
   0   2.0000    -482.886164    -13140.0005
   1   2.0000    -482.883305    -13139.9228
   2   2.0000     -88.975893     -2421.1571
   3   2.0000     -88.971989     -2421.0509
   4   2.0000     -88.967152     -2420.9193
   5   2.0000     -88.964801     -2420.8553
   6   2.0000     -88.948702     -2420.4172
   7   2.0000     -62.563894     -1702.4501
   8   2.0000     -62.561014     -1702.3717
   9   2.0000     -56.397843     -1534.6633
  10   2.0000     -56.395130     -1534.5895
  11   2.0000     -56.395093     -1534.5885
  12   2.0000     -56.394956     -1534.5848
  13   2.0000     -56.392260     -1534.5114
  14   2.0000     -56.392218     -1534.5103
  15   2.0000     -19.303129      -525.2649
  16   2.0000     -19.289725      -524.9001
  17   2.0000     -19.283151      -524.7212
  18   2.0000     -19.280183      -524.6405
  19   2.0000     -19.277202      -524.5593
  20   2.0000     -19.268998      -524.3361
  21   2.0000     -19.209031      -522.7043
  22   2.0000     -19.204932      -522.5928
  23   2.0000     -14.424546      -392.5119
  24   2.0000     -14.415379      -392.2624
  25   2.0000     -14.410118      -392.1192
  26   2.0000     -14.402779      -391.9195
  27   2.0000     -10.386944      -282.6431
  28   2.0000     -10.367154      -282.1046
  29   2.0000     -10.366394      -282.0839
  30   2.0000     -10.363419      -282.0030
  31   2.0000     -10.361434      -281.9489
  32   2.0000     -10.359307      -281.8911
  33   2.0000     -10.356257      -281.8081
  34   2.0000     -10.355890      -281.7981
  35   2.0000     -10.354790      -281.7682
  36   2.0000     -10.352660      -281.7102
  37   2.0000     -10.348666      -281.6015
  38   2.0000     -10.347665      -281.5743
  39   2.0000     -10.346513      -281.5429
  40   2.0000     -10.344977      -281.5011
  41   2.0000     -10.342877      -281.4440
  42   2.0000     -10.340233      -281.3720
  43   2.0000     -10.333527      -281.1896
  44   2.0000     -10.333088      -281.1776
  45   2.0000     -10.332912      -281.1728
  46   2.0000     -10.332263      -281.1552
  47   2.0000     -10.332152      -281.1521
  48   2.0000     -10.325162      -280.9619
  49   2.0000     -10.322033      -280.8768
  50   2.0000     -10.319219      -280.8002
  51   2.0000     -10.318908      -280.7918
  52   2.0000     -10.314170      -280.6628
  53   2.0000     -10.311584      -280.5925
  54   2.0000     -10.307513      -280.4817
  55   2.0000     -10.307049      -280.4691
  56   2.0000     -10.306941      -280.4661
  57   2.0000     -10.306726      -280.4603
  58   2.0000     -10.305981      -280.4400
  59   2.0000     -10.305881      -280.4373
  60   2.0000     -10.305455      -280.4257
  61   2.0000     -10.304319      -280.3948
  62   2.0000     -10.301636      -280.3218
  63   2.0000     -10.300972      -280.3037
  64   2.0000     -10.300952      -280.3032
  65   2.0000     -10.299935      -280.2755
  66   2.0000     -10.299630      -280.2672
  67   2.0000     -10.299596      -280.2663
  68   2.0000     -10.299553      -280.2651
  69   2.0000     -10.298420      -280.2342
  70   2.0000     -10.297494      -280.2090
  71   2.0000     -10.297479      -280.2086
  72   2.0000     -10.296941      -280.1940
  73   2.0000     -10.294778      -280.1351
  74   2.0000     -10.293304      -280.0950
  75   2.0000     -10.290721      -280.0247
  76   2.0000     -10.287773      -279.9445
  77   2.0000     -10.286155      -279.9005
  78   2.0000     -10.285357      -279.8788
  79   2.0000     -10.284502      -279.8555
  80   2.0000     -10.280934      -279.7584
  81   2.0000      -8.793332      -239.2787
  82   2.0000      -8.790437      -239.2000
  83   2.0000      -8.071836      -219.6458
  84   2.0000      -8.067752      -219.5347
  85   2.0000      -8.062885      -219.4023
  86   2.0000      -8.059983      -219.3233
  87   2.0000      -8.044291      -218.8963
  88   2.0000      -6.629637      -180.4016
  89   2.0000      -6.626687      -180.3213
  90   2.0000      -6.615047      -180.0046
  91   2.0000      -6.614878      -180.0000
  92   2.0000      -6.612177      -179.9265
  93   2.0000      -6.612024      -179.9223
  94   2.0000      -6.041524      -164.3982
  95   2.0000      -6.037457      -164.2876
  96   2.0000      -6.037252      -164.2820
  97   2.0000      -6.033145      -164.1702
  98   2.0000      -6.033090      -164.1687
  99   2.0000      -6.032393      -164.1498
 100   2.0000      -6.029471      -164.0702
 101   2.0000      -6.029028      -164.0582
 102   2.0000      -6.028156      -164.0345
 103   2.0000      -6.025316      -163.9572
 104   2.0000      -6.024621      -163.9383
 105   2.0000      -6.021739      -163.8598
 106   2.0000      -6.013822      -163.6444
 107   2.0000      -6.009596      -163.5294
 108   2.0000      -6.005989      -163.4313
 109   2.0000      -2.745523       -74.7095
 110   2.0000      -2.742576       -74.6293
 111   2.0000      -2.741444       -74.5985
 112   2.0000      -2.741229       -74.5926
 113   2.0000      -2.738508       -74.5186
 114   2.0000      -2.738347       -74.5142
 115   2.0000      -2.729690       -74.2786
 116   2.0000      -2.729679       -74.2783
 117   2.0000      -2.726836       -74.2010
 118   2.0000      -2.726831       -74.2009
 119   2.0000      -1.223666       -33.2976
 120   2.0000      -1.212518       -32.9943
 121   2.0000      -1.201184       -32.6859
 122   2.0000      -1.183440       -32.2030
 123   2.0000      -1.175105       -31.9762
 124   2.0000      -1.163557       -31.6620
 125   2.0000      -1.124150       -30.5897
 126   2.0000      -1.119640       -30.4670
 127   2.0000      -1.025598       -27.9080
 128   2.0000      -1.017461       -27.6865
 129   2.0000      -1.016595       -27.6630
 130   2.0000      -1.006403       -27.3856
 131   2.0000      -0.999669       -27.2024
 132   2.0000      -0.999212       -27.1899
 133   2.0000      -0.994518       -27.0622
 134   2.0000      -0.989981       -26.9388
 135   2.0000      -0.986057       -26.8320
 136   2.0000      -0.981311       -26.7028
 137   2.0000      -0.980678       -26.6856
 138   2.0000      -0.951692       -25.8969
 139   2.0000      -0.945032       -25.7156
 140   2.0000      -0.940318       -25.5874
 141   2.0000      -0.934036       -25.4164
 142   2.0000      -0.922761       -25.1096
 143   2.0000      -0.909323       -24.7439
 144   2.0000      -0.908036       -24.7089
 145   2.0000      -0.902237       -24.5511
 146   2.0000      -0.893423       -24.3113
 147   2.0000      -0.886058       -24.1109
 148   2.0000      -0.882467       -24.0132
 149   2.0000      -0.879791       -23.9403
 150   2.0000      -0.871883       -23.7251
 151   2.0000      -0.862959       -23.4823
 152   2.0000      -0.849075       -23.1045
 153   2.0000      -0.837162       -22.7803
 154   2.0000      -0.834348       -22.7038
 155   2.0000      -0.829374       -22.5684
 156   2.0000      -0.826821       -22.4989
 157   2.0000      -0.824299       -22.4303
 158   2.0000      -0.823050       -22.3963
 159   2.0000      -0.817458       -22.2442
 160   2.0000      -0.811450       -22.0807
 161   2.0000      -0.795406       -21.6441
 162   2.0000      -0.781558       -21.2673
 163   2.0000      -0.771126       -20.9834
 164   2.0000      -0.760806       -20.7026
 165   2.0000      -0.758169       -20.6308
 166   2.0000      -0.752013       -20.4633
 167   2.0000      -0.740288       -20.1443
 168   2.0000      -0.731276       -19.8990
 169   2.0000      -0.715333       -19.4652
 170   2.0000      -0.709591       -19.3089
 171   2.0000      -0.706985       -19.2381
 172   2.0000      -0.700562       -19.0633
 173   2.0000      -0.697518       -18.9804
 174   2.0000      -0.692410       -18.8414
 175   2.0000      -0.689311       -18.7571
 176   2.0000      -0.686542       -18.6818
 177   2.0000      -0.682405       -18.5692
 178   2.0000      -0.673365       -18.3232
 179   2.0000      -0.672344       -18.2954
 180   2.0000      -0.666736       -18.1428
 181   2.0000      -0.663436       -18.0530
 182   2.0000      -0.656795       -17.8723
 183   2.0000      -0.656408       -17.8618
 184   2.0000      -0.654424       -17.8078
 185   2.0000      -0.635125       -17.2826
 186   2.0000      -0.625189       -17.0123
 187   2.0000      -0.617410       -16.8006
 188   2.0000      -0.614040       -16.7089
 189   2.0000      -0.608902       -16.5691
 190   2.0000      -0.604074       -16.4377
 191   2.0000      -0.598732       -16.2923
 192   2.0000      -0.598459       -16.2849
 193   2.0000      -0.591242       -16.0885
 194   2.0000      -0.590778       -16.0759
 195   2.0000      -0.588434       -16.0121
 196   2.0000      -0.583834       -15.8869
 197   2.0000      -0.582435       -15.8489
 198   2.0000      -0.574789       -15.6408
 199   2.0000      -0.573706       -15.6113
 200   2.0000      -0.571347       -15.5471
 201   2.0000      -0.564731       -15.3671
 202   2.0000      -0.562372       -15.3029
 203   2.0000      -0.557269       -15.1641
 204   2.0000      -0.549207       -14.9447
 205   2.0000      -0.546951       -14.8833
 206   2.0000      -0.544541       -14.8177
 207   2.0000      -0.542169       -14.7532
 208   2.0000      -0.538422       -14.6512
 209   2.0000      -0.536250       -14.5921
 210   2.0000      -0.534667       -14.5490
 211   2.0000      -0.531796       -14.4709
 212   2.0000      -0.529456       -14.4072
 213   2.0000      -0.527065       -14.3422
 214   2.0000      -0.524611       -14.2754
 215   2.0000      -0.522757       -14.2249
 216   2.0000      -0.521391       -14.1878
 217   2.0000      -0.520026       -14.1506
 218   2.0000      -0.517144       -14.0722
 219   2.0000      -0.515194       -14.0192
 220   2.0000      -0.510477       -13.8908
 221   2.0000      -0.509630       -13.8677
 222   2.0000      -0.505366       -13.7517
 223   2.0000      -0.504164       -13.7190
 224   2.0000      -0.503282       -13.6950
 225   2.0000      -0.500741       -13.6259
 226   2.0000      -0.497946       -13.5498
 227   2.0000      -0.496352       -13.5064
 228   2.0000      -0.493939       -13.4408
 229   2.0000      -0.492282       -13.3957
 230   2.0000      -0.490970       -13.3600
 231   2.0000      -0.489553       -13.3214
 232   2.0000      -0.486978       -13.2513
 233   2.0000      -0.484283       -13.1780
 234   2.0000      -0.482115       -13.1190
 235   2.0000      -0.480131       -13.0650
 236   2.0000      -0.478494       -13.0205
 237   2.0000      -0.473962       -12.8972
 238   2.0000      -0.471961       -12.8427
 239   2.0000      -0.470455       -12.8017
 240   2.0000      -0.468655       -12.7527
 241   2.0000      -0.466872       -12.7042
 242   2.0000      -0.458542       -12.4776
 243   2.0000      -0.454738       -12.3740
 244   2.0000      -0.454346       -12.3634
 245   2.0000      -0.451326       -12.2812
 246   2.0000      -0.447469       -12.1763
 247   2.0000      -0.442671       -12.0457
 248   2.0000      -0.441983       -12.0270
 249   2.0000      -0.441817       -12.0225
 250   2.0000      -0.440741       -11.9932
 251   2.0000      -0.439895       -11.9701
 252   2.0000      -0.438834       -11.9413
 253   2.0000      -0.435048       -11.8383
 254   2.0000      -0.433440       -11.7945
 255   2.0000      -0.432432       -11.7671
 256   2.0000      -0.431575       -11.7438
 257   2.0000      -0.430061       -11.7026
 258   2.0000      -0.427038       -11.6203
 259   2.0000      -0.426232       -11.5984
 260   2.0000      -0.423035       -11.5114
 261   2.0000      -0.417711       -11.3665
 262   2.0000      -0.416912       -11.3448
 263   2.0000      -0.414798       -11.2872
 264   2.0000      -0.414027       -11.2662
 265   2.0000      -0.410131       -11.1602
 266   2.0000      -0.409389       -11.1400
 267   2.0000      -0.401703       -10.9309
 268   2.0000      -0.393822       -10.7165
 269   2.0000      -0.390375       -10.6227
 270   2.0000      -0.386421       -10.5151
 271   2.0000      -0.380745       -10.3606
 272   2.0000      -0.380353       -10.3499
 273   2.0000      -0.375518       -10.2184
 274   2.0000      -0.372800       -10.1444
 275   2.0000      -0.361404        -9.8343
 276   2.0000      -0.358746        -9.7620
 277   2.0000      -0.340263        -9.2590
 278   2.0000      -0.333247        -9.0681
 279   2.0000      -0.330837        -9.0025
 280   2.0000      -0.324633        -8.8337
 281   2.0000      -0.315225        -8.5777
 282   2.0000      -0.314945        -8.5701
 283   2.0000      -0.311531        -8.4772
 284   2.0000      -0.309531        -8.4228
 285   2.0000      -0.307078        -8.3560
 286   2.0000      -0.298589        -8.1250
 287   2.0000      -0.294472        -8.0130
 288   2.0000      -0.289249        -7.8709
 289   2.0000      -0.287516        -7.8237
 290   2.0000      -0.277467        -7.5503
 291   2.0000      -0.257102        -6.9961
 292   2.0000      -0.231345        -6.2952
 293   0.0000      -0.110366        -3.0032
 294   0.0000      -0.090167        -2.4536
 295   0.0000      -0.067809        -1.8452
 296   0.0000      -0.055188        -1.5018
 297   0.0000      -0.037998        -1.0340

MULLIKEN ATOMIC CHARGES
-----------------------
   0 C :    0.312165
   1 C :   -0.372567
   2 C :   -0.174655
   3 N :    0.145548
   4 C :   -0.152825
   5 N :    0.108371
   6 C :    0.012967
   7 C :   -0.019182
   8 C :   -0.074353
   9 C :    0.117281
  10 C :   -0.093162
  11 C :   -0.022481
  12 S :    0.184072
  13 C :   -0.123198
  14 C :    0.039362
  15 Br:    0.023259
  16 C :    0.133085
  17 O :   -0.128974
  18 C :   -0.065486
  19 C :   -0.088067
  20 C :    0.173210
  21 C :    0.184986
  22 O :   -0.239856
  23 C :    0.207334
  24 C :    0.224237
  25 C :   -0.159884
  26 S :    0.120044
  27 C :   -0.165401
  28 O :   -0.218000
  29 C :   -0.080735
  30 C :    0.029770
  31 C :    0.178518
  32 C :    0.145760
  33 O :   -0.251731
  34 C :    0.198885
  35 C :    0.232262
  36 C :   -0.175106
  37 S :    0.111350
  38 C :   -0.159276
  39 O :   -0.249991
  40 C :   -0.057219
  41 C :   -0.044555
  42 C :    0.186479
  43 C :    0.182768
  44 O :   -0.249450
  45 C :    0.218504
  46 C :    0.208267
  47 C :   -0.159825
  48 S :    0.132811
  49 C :   -0.174088
  50 O :   -0.240670
  51 C :   -0.010537
  52 C :    0.014541
  53 C :    0.031068
  54 C :   -0.131393
  55 C :    0.284208
  56 C :   -0.342405
  57 C :   -0.162196
  58 N :    0.126909
  59 C :   -0.227923
  60 N :    0.171520
  61 C :    0.021617
  62 C :   -0.002936
  63 C :    0.138925
  64 O :   -0.149226
  65 C :   -0.083888
  66 C :    0.117289
  67 C :   -0.081319
  68 C :   -0.035606
  69 S :    0.172356
  70 C :   -0.126703
  71 C :    0.036745
  72 Br:    0.016345
  73 H :   -0.011280
  74 H :   -0.005054
  75 H :   -0.004282
  76 H :    0.010635
  77 H :    0.034356
  78 H :    0.029635
  79 H :    0.026742
  80 H :    0.026688
  81 H :    0.025498
  82 H :    0.043752
  83 H :    0.044362
  84 H :    0.030603
  85 H :    0.025128
  86 H :    0.023288
  87 H :    0.015720
  88 H :    0.054067
  89 H :    0.011002
  90 H :   -0.012705
  91 H :   -0.010729
  92 H :   -0.005374
Sum of atomic charges:    0.0000000

LOEWDIN ATOMIC CHARGES
----------------------
   0 C :    0.080633
   1 C :   -0.159354
   2 C :   -0.020371
   3 N :   -0.061170
   4 C :    0.004195
   5 N :   -0.072557
   6 C :   -0.023949
   7 C :   -0.046995
   8 C :    0.018976
   9 C :   -0.031948
  10 C :   -0.146189
  11 C :   -0.010688
  12 S :    0.430937
  13 C :   -0.271923
  14 C :   -0.070407
  15 Br:    0.136410
  16 C :    0.073645
  17 O :   -0.135774
  18 C :   -0.095222
  19 C :    0.042467
  20 C :    0.009941
  21 C :    0.080942
  22 O :   -0.031499
  23 C :   -0.013574
  24 C :   -0.005735
  25 C :   -0.199161
  26 S :    0.448339
  27 C :   -0.202609
  28 O :   -0.028380
  29 C :   -0.047282
  30 C :    0.011485
  31 C :    0.017836
  32 C :    0.040701
  33 O :   -0.044506
  34 C :   -0.019099
  35 C :   -0.008170
  36 C :   -0.208212
  37 S :    0.450073
  38 C :   -0.191657
  39 O :   -0.056014
  40 C :   -0.022569
  41 C :   -0.006523
  42 C :    0.053568
  43 C :    0.019392
  44 O :   -0.048586
  45 C :   -0.007191
  46 C :   -0.013047
  47 C :   -0.198361
  48 S :    0.457658
  49 C :   -0.209570
  50 O :   -0.037135
  51 C :    0.035622
  52 C :   -0.030337
  53 C :    0.064506
  54 C :   -0.102617
  55 C :    0.067260
  56 C :   -0.149092
  57 C :   -0.009451
  58 N :   -0.069010
  59 C :   -0.028002
  60 N :   -0.051545
  61 C :   -0.018369
  62 C :   -0.050557
  63 C :    0.079200
  64 O :   -0.151686
  65 C :    0.018111
  66 C :   -0.035850
  67 C :   -0.144107
  68 C :   -0.013842
  69 S :    0.425371
  70 C :   -0.276761
  71 C :   -0.070658
  72 Br:    0.131032
  73 H :    0.040117
  74 H :    0.040772
  75 H :    0.038577
  76 H :    0.043047
  77 H :    0.034538
  78 H :    0.031460
  79 H :    0.038051
  80 H :    0.045536
  81 H :    0.029174
  82 H :    0.034227
  83 H :    0.039968
  84 H :    0.042369
  85 H :    0.030150
  86 H :    0.028951
  87 H :    0.044093
  88 H :    0.034270
  89 H :    0.042662
  90 H :    0.039735
  91 H :    0.033342
  92 H :    0.037966

  Mayer bond orders larger than 0.100000
B(  0-C ,  1-C ) :   1.5673 B(  0-C ,  6-C ) :   1.0043 B(  0-C , 18-C ) :   1.1196
B(  1-C ,  2-C ) :   1.1536 B(  1-C ,  4-C ) :   1.1758 B(  2-C ,  3-N ) :   2.9301
B(  4-C ,  5-N ) :   2.8779 B(  6-C ,  7-C ) :   1.2716 B(  6-C , 11-C ) :   1.4107
B(  7-C ,  8-C ) :   1.4370 B(  7-C , 16-C ) :   0.9276 B(  8-C ,  9-C ) :   1.2395
B(  8-C , 73-H ) :   1.0160 B(  9-C , 10-C ) :   1.3095 B(  9-C , 14-C ) :   1.1674
B( 10-C , 11-C ) :   1.3309 B( 10-C , 12-S ) :   1.0838 B( 11-C , 74-H ) :   0.9793
B( 12-S , 13-C ) :   1.0876 B( 13-C , 14-C ) :   1.6152 B( 13-C , 15-Br) :   1.0184
B( 14-C , 75-H ) :   1.0001 B( 16-C , 17-O ) :   2.2777 B( 16-C , 18-C ) :   0.9310
B( 18-C , 19-C ) :   1.4871 B( 19-C , 20-C ) :   1.2872 B( 19-C , 76-H ) :   0.9219
B( 20-C , 21-C ) :   1.3101 B( 20-C , 28-O ) :   1.1065 B( 21-C , 22-O ) :   1.1192
B( 21-C , 29-C ) :   1.2440 B( 22-O , 23-C ) :   1.0162 B( 23-C , 24-C ) :   1.2084
B( 23-C , 27-C ) :   1.5672 B( 24-C , 25-C ) :   1.5750 B( 24-C , 28-O ) :   1.0523
B( 25-C , 26-S ) :   1.1417 B( 25-C , 77-H ) :   0.9706 B( 26-S , 27-C ) :   1.1537
B( 27-C , 78-H ) :   0.9741 B( 29-C , 30-C ) :   1.5715 B( 29-C , 79-H ) :   0.9387
B( 30-C , 31-C ) :   1.1801 B( 30-C , 80-H ) :   0.9588 B( 31-C , 32-C ) :   1.4152
B( 31-C , 39-O ) :   1.0495 B( 32-C , 33-O ) :   1.0999 B( 32-C , 40-C ) :   1.1941
B( 33-O , 34-C ) :   1.0256 B( 34-C , 35-C ) :   1.1994 B( 34-C , 38-C ) :   1.5717
B( 35-C , 36-C ) :   1.5688 B( 35-C , 39-O ) :   1.0527 B( 36-C , 37-S ) :   1.1378
B( 36-C , 81-H ) :   0.9714 B( 37-S , 38-C ) :   1.1454 B( 38-C , 82-H ) :   0.9663
B( 40-C , 41-C ) :   1.6896 B( 40-C , 83-H ) :   0.9411 B( 41-C , 42-C ) :   1.0999
B( 41-C , 84-H ) :   0.9525 B( 42-C , 43-C ) :   1.4665 B( 42-C , 50-O ) :   1.0751
B( 43-C , 44-O ) :   1.0554 B( 43-C , 51-C ) :   1.1599 B( 44-O , 45-C ) :   1.0509
B( 45-C , 46-C ) :   1.2023 B( 45-C , 49-C ) :   1.5779 B( 46-C , 47-C ) :   1.5738
B( 46-C , 50-O ) :   1.0339 B( 47-C , 48-S ) :   1.1555 B( 47-C , 85-H ) :   0.9728
B( 48-S , 49-C ) :   1.1490 B( 49-C , 86-H ) :   0.9707 B( 51-C , 52-C ) :   1.6049
B( 51-C , 87-H ) :   0.9635 B( 52-C , 53-C ) :   1.2099 B( 52-C , 88-H ) :   0.9282
B( 53-C , 54-C ) :   1.5284 B( 53-C , 89-H ) :   0.9671 B( 54-C , 55-C ) :   1.0745
B( 54-C , 63-C ) :   0.9551 B( 55-C , 56-C ) :   1.6064 B( 55-C , 61-C ) :   1.0156
B( 56-C , 57-C ) :   1.1546 B( 56-C , 59-C ) :   1.1548 B( 57-C , 58-N ) :   2.9242
B( 59-C , 60-N ) :   3.0158 B( 61-C , 62-C ) :   1.2766 B( 61-C , 68-C ) :   1.4121
B( 62-C , 63-C ) :   0.9167 B( 62-C , 65-C ) :   1.4284 B( 63-C , 64-O ) :   2.2636
B( 65-C , 66-C ) :   1.2415 B( 65-C , 90-H ) :   1.0164 B( 66-C , 67-C ) :   1.3184
B( 66-C , 71-C ) :   1.1583 B( 67-C , 68-C ) :   1.3153 B( 67-C , 69-S ) :   1.0784
B( 68-C , 91-H ) :   0.9822 B( 69-S , 70-C ) :   1.0794 B( 70-C , 71-C ) :   1.6210
B( 70-C , 72-Br) :   1.0147 B( 71-C , 92-H ) :   1.0008

-----------------------------------------------------------------------------
         ABSORPTION SPECTRUM VIA TRANSITION ELECTRIC DIPOLE MOMENTS
-----------------------------------------------------------------------------
State   Energy  Wavelength   fosc         T2         TX        TY        TZ
        (cm-1)    (nm)                  (au**2)     (au)      (au)      (au)
-----------------------------------------------------------------------------
   0    9476.1   1055.3   0.292183956  10.15089   2.29084   0.53566   2.14849
   1   13478.3    741.9   0.067829628   1.65677  -0.62456  -0.33631  -1.07405
   2   15300.3    653.6   0.179785405   3.86839   1.37885   1.12336   0.83978
   3   19223.5    520.2   0.101498356   1.73821  -0.14337  -0.82208  -1.02071
   4   19874.1    503.2   0.109171434   1.80841   0.51120  -1.18903  -0.36510
   5   20363.2    491.1   0.259994091   4.20333  -0.25232  -1.92245  -0.66624
   6   22187.4    450.7   0.052125640   0.77343  -0.77621   0.13073   0.39222
   7   23208.6    430.9   0.062639619   0.88854  -0.06927  -0.60779  -0.71717
   8   24253.2    412.3   0.123937667   1.68232  -0.95503  -0.78348  -0.39546
   9   24552.2    407.3   0.023186067   0.31089   0.50805  -0.05807   0.22227
  10   24659.6    405.5   0.025621267   0.34205   0.19821   0.52015  -0.17947
  11   25353.3    394.4   0.053959043   0.70066  -0.47623   0.67291   0.14509
  12   25677.7    389.4   0.153900310   1.97315  -1.35311   0.35139  -0.13700
  13   26055.2    383.8   0.252806512   3.19426  -0.40583  -1.22214  -1.23933
  14   26268.1    380.7   0.119638383   1.49940   0.18427   1.04332   0.61394
  15   27037.2    369.9   0.109444132   1.33262   0.78522   0.82152   0.20287
  16   27450.3    364.3   0.038265322   0.45892   0.54210  -0.34590  -0.21307
  17   27632.7    361.9   0.016684145   0.19877  -0.35417   0.16198   0.21701
  18   27943.5    357.9   0.307180060   3.61899  -0.60678  -1.39636  -1.14061
  19   28343.8    352.8   0.028174262   0.32724   0.37603  -0.03815   0.42940
  20   28506.2    350.8   0.003528618   0.04075  -0.12241   0.00738  -0.16035
  21   28643.0    349.1   0.011116288   0.12777   0.14729   0.02381   0.32481
  22   28936.1    345.6   0.292451273   3.32728  -0.52781   1.60138   0.69591
  23   29433.5    339.7   0.117391802   1.31302   0.22813   0.96448   0.57511
  24   29955.0    333.8   0.013556220   0.14899   0.09139   0.06267   0.36974
  25   30453.7    328.4   0.154783239   1.67325  -1.09735  -0.26849  -0.63007
  26   30741.2    325.3   0.111932002   1.19870  -1.08418   0.12174   0.09176
  27   30979.6    322.8   0.031833298   0.33828  -0.14581   0.56253   0.02411
  28   31540.1    317.1   0.113630428   1.18606  -1.02040  -0.13262  -0.35673
  29   31651.2    315.9   0.290776417   3.02444   0.69126   0.79257   1.38508
  30   31732.3    315.1   0.145296020   1.50740   0.63889   0.52279   0.90880
  31   32080.3    311.7   0.095447998   0.97950  -0.08083   0.82150   0.54599
  32   32549.9    307.2   0.012234715   0.12374  -0.17581  -0.24455   0.18174
  33   32602.5    306.7   0.293364140   2.96232   0.17924  -1.70539  -0.14780
  34   33228.2    300.9   0.053537898   0.53043  -0.44173   0.29092  -0.50067
  35   33528.6    298.3   0.035627346   0.34982  -0.45451  -0.26273  -0.27242
  36   33685.1    296.9   0.279311303   2.72977   0.58261   1.42581   0.59784
  37   34097.7    293.3   0.293561782   2.83433  -0.49055   1.55726   0.41063
  38   34359.1    291.0   0.032258249   0.30908   0.27124  -0.19185  -0.44576
  39   34943.1    286.2   0.127442758   1.20069  -0.54529   0.59624   0.74016
  40   35204.9    284.1   0.015578895   0.14568  -0.30149   0.06994   0.22338
  41   35246.8    283.7   0.006969087   0.06509  -0.03087  -0.01049   0.25304
  42   35387.3    282.6   0.084257985   0.78386   0.45766  -0.47513  -0.59047
  43   35562.6    281.2   0.002016298   0.01867  -0.05275   0.08107   0.09649
  44   35690.1    280.2   0.005745928   0.05300   0.14747  -0.17392  -0.03169
  45   36433.6    274.5   0.019055130   0.17218  -0.11803   0.39236  -0.06558
  46   36708.1    272.4   0.018482308   0.16576  -0.40156   0.02554   0.06205
  47   37054.6    269.9   0.020548053   0.18256   0.15545  -0.36910  -0.14887
  48   37085.0    269.7   0.283556592   2.51719   0.90589  -1.30222   0.02775
  49   37241.0    268.5   0.058197472   0.51447  -0.61502  -0.33486  -0.15521
  50   37323.8    267.9   0.062084327   0.54761  -0.43695  -0.53075  -0.27385
  51   37432.4    267.1   0.019103775   0.16801  -0.07791  -0.40239  -0.00509
  52   37726.6    265.1   0.076915260   0.67118   0.15396  -0.59372  -0.54311
  53   37983.2    263.3   0.084575883   0.73304   0.85166  -0.04752   0.07388
  54   38074.9    262.6   0.011556866   0.09993  -0.25435   0.12153   0.14306
  55   38661.2    258.7   0.258244813   2.19903   1.22249   0.83484   0.08712
  56   38830.3    257.5   0.097985474   0.83074   0.59443   0.45556  -0.51949
  57   39265.6    254.7   0.057540544   0.48243   0.23074  -0.14947  -0.63785
  58   39546.5    252.9   0.068965714   0.57412   0.67737  -0.26732  -0.20934
  59   39742.4    251.6   0.013823173   0.11451   0.06207  -0.32958   0.04505
  60   39910.3    250.6   0.030141275   0.24863  -0.46464   0.18094   0.00109
  61   39966.6    250.2   0.010421991   0.08585  -0.01557   0.21415   0.19936
  62   40168.2    249.0   0.033265583   0.27264  -0.35233  -0.28980  -0.25401
  63   40276.5    248.3   0.042855012   0.35029   0.56588   0.04146   0.16838

FINAL SINGLE POINT ENERGY    -10025.019121379659

DIPOLE MOMENT
-------------
                                X             Y             Z
Electronic contribution:     29.10117     -28.60484      40.29844
Nuclear contribution   :    -26.14435      26.92476     -39.23809
                        -----------------------------------------
Total Dipole Moment    :      2.95682      -1.68008       1.06035
                        -----------------------------------------
Magnitude (a.u.)       :      3.56227
Magnitude (Debye)      :      9.05457

Rotational constants in cm-1:     0.001234     0.000313     0.000272
Rotational constants in MHz :    36.997091     9.387126     8.159894

                             ****ORCA TERMINATED NORMALLY****
TOTAL RUN TIME: 0 days 0 hours 12 minutes 21 seconds 42 msec
