                         Program Version 4.2.0 -  RELEASE  -
|  1> # ORCA input file
|  2> # SCF done       -178.501722159452          0.000490245268
|  3> ! CAM-B3LYP def2-SVP def2/J RIJCOSX Grid4 TightSCF
|  4> %maxcore 5000
|  5> %tddft
|  6>     Mode sTDDFT
|  7>     Ethresh 5.0
|  8>     maxcore 5000
|  9> end
| 10>
| 11> %pal
| 12>   nprocs 6
| 13>   end
| 14> * xyz 0 1
| 15>    C       -6.64127         4.06493        -4.09431
| 16>    C       -7.85763         4.24211        -4.69843
| 17>    C       -8.02051         4.66833        -6.03391
| 18>    N       -8.21151         5.01855        -7.10988
| 19>    C       -9.10703         3.99311        -4.09012
| 20>    N      -10.15643         3.79459        -3.66960
| 21>    C       -5.34095         4.22892        -4.72724
| 22>    C       -4.33515         3.81765        -3.81769
| 23>    C       -2.99644         3.84695        -4.12730
| 24>    C       -2.63167         4.30250        -5.39781
| 25>    C       -3.64274         4.71627        -6.29998
| 26>    C       -4.99550         4.68809        -5.98567
| 27>    S       -2.97153         5.24690        -7.81101
| 28>    C       -1.36526         4.90818        -7.22187
| 29>    C       -1.33085         4.42366        -5.95736
| 30>   Br        0.11207         5.22796        -8.33002
| 31>    C       -4.95220         3.37709        -2.55481
| 32>    O       -4.37143         2.99791        -1.56411
| 33>    C       -6.41918         3.59520        -2.73416
| 34>    C       -7.34704         3.57670        -1.74402
| 35>    C       -7.20071         3.02523        -0.42406
| 36>    C       -6.46851         1.92467        -0.10681
| 37>    C       -6.45435         1.42799         1.23337
| 38>    C       -5.69192         0.31610         1.57620
| 39>    C       -5.62164        -0.17418         2.88317
| 40>    N       -5.55981        -0.60770         3.94819
| 41>    C       -4.96189        -0.40927         0.62414
| 42>    N       -4.37588        -1.03080        -0.14545
| 43>    C       -7.25096         2.13643         2.16676
| 44>    C       -8.00387         3.21451         1.77378
| 45>    O       -7.97958         3.66463         0.49068
| 46>    C       -8.84248         3.93746         2.66529
| 47>    S       -9.08226         3.32387         4.26776
| 48>    C      -10.11069         4.64518         4.72779
| 49>    C      -10.25999         5.54581         3.64731
| 50>    C       -9.55096         5.13946         2.47652
| 51>    C       -9.60452         5.94054         1.32167
| 52>    C      -10.33981         7.09318         1.34713
| 53>    F      -10.39204         7.87049         0.25345
| 54>    C      -11.04334         7.48919         2.50186
| 55>    F      -11.75223         8.63043         2.47997
| 56>    C      -11.00945         6.73092         3.64052
| 57>    C      -10.65753         4.71468         6.01377
| 58>    C      -10.46812         3.69770         6.92041
| 59>    C      -10.90282         3.62064         8.23730
| 60>    C      -10.64461         2.48810         8.99562
| 61>    C      -10.94550         2.22042        10.34646
| 62>    C      -10.53605         0.98580        10.77798
| 63>    C       -9.90554         0.22282         9.77876
| 64>    S       -9.82989         1.11443         8.28234
| 65>    C       -9.38098        -1.06309         9.79795
| 66>    C       -9.27131        -2.00212        10.84255
| 67>    C       -8.69175        -3.17620        10.45765
| 68>    C       -8.32633        -3.22516         9.08692
| 69>    S       -8.73500        -1.71053         8.31344
| 70>    C       -7.74037        -4.28793         8.44405
| 71>    C       -7.40627        -4.38740         7.07970
| 72>    S       -6.60645        -5.84845         6.50578
| 73>    C       -6.54210        -5.33712         4.87244
| 74>    C       -7.10632        -4.08956         4.73969
| 75>    C       -7.58306        -3.55887         5.98003
| 76>    O       -8.13414        -2.34443         5.78523
| 77>    C       -8.01537        -2.09141         4.45728
| 78>    N       -8.49940        -0.85575         3.98020
| 79>    O       -8.46021        -0.68164         2.77346
| 80>    O       -8.91806        -0.04681         4.78118
| 81>    C       -7.40864        -3.10351         3.76238
| 82>    H       -2.25662         3.52391        -3.41189
| 83>    H       -5.72651         5.01896        -6.70429
| 84>    H       -0.42663         4.16175        -5.43898
| 85>    H       -8.30558         4.05300        -1.91234
| 86>    H       -5.90221         1.40878        -0.86286
| 87>    H       -7.28305         1.81649         3.19550
| 88>    H       -9.07893         5.66388         0.42469
| 89>    H      -11.55475         7.05456         4.51155
| 90>    H      -11.24091         5.58402         6.28006
| 91>    H       -9.90792         2.84105         6.56010
| 92>    H      -11.43990         4.44193         8.69062
| 93>    H      -11.44968         2.94055        10.96688
| 94>    H      -10.67948         0.61475        11.77731
| 95>    H       -9.61396        -1.79187        11.84004
| 96>    H       -8.51974        -4.01259        11.11194
| 97>    H       -7.50762        -5.15723         9.04451
| 98>    H       -6.10182        -5.96413         4.12549
| 99>    H       -7.20401        -3.11907         2.71228
|100> *
|101>
|102>                          ****END OF INPUT****

CARTESIAN COORDINATES (ANGSTROEM)
---------------------------------
  C     -6.641270    4.064930   -4.094310
  C     -7.857630    4.242110   -4.698430
  C     -8.020510    4.668330   -6.033910
  N     -8.211510    5.018550   -7.109880
  C     -9.107030    3.993110   -4.090120
  N    -10.156430    3.794590   -3.669600
  C     -5.340950    4.228920   -4.727240
  C     -4.335150    3.817650   -3.817690
  C     -2.996440    3.846950   -4.127300
  C     -2.631670    4.302500   -5.397810
  C     -3.642740    4.716270   -6.299980
  C     -4.995500    4.688090   -5.985670
  S     -2.971530    5.246900   -7.811010
  C     -1.365260    4.908180   -7.221870
  C     -1.330850    4.423660   -5.957360
  Br     0.112070    5.227960   -8.330020
  C     -4.952200    3.377090   -2.554810
  O     -4.371430    2.997910   -1.564110
  C     -6.419180    3.595200   -2.734160
  C     -7.347040    3.576700   -1.744020
  C     -7.200710    3.025230   -0.424060
  C     -6.468510    1.924670   -0.106810
  C     -6.454350    1.427990    1.233370
  C     -5.691920    0.316100    1.576200
  C     -5.621640   -0.174180    2.883170
  N     -5.559810   -0.607700    3.948190
  C     -4.961890   -0.409270    0.624140
  N     -4.375880   -1.030800   -0.145450
  C     -7.250960    2.136430    2.166760
  C     -8.003870    3.214510    1.773780
  O     -7.979580    3.664630    0.490680
  C     -8.842480    3.937460    2.665290
  S     -9.082260    3.323870    4.267760
  C    -10.110690    4.645180    4.727790
  C    -10.259990    5.545810    3.647310
  C     -9.550960    5.139460    2.476520
  C     -9.604520    5.940540    1.321670
  C    -10.339810    7.093180    1.347130
  F    -10.392040    7.870490    0.253450
  C    -11.043340    7.489190    2.501860
  F    -11.752230    8.630430    2.479970
  C    -11.009450    6.730920    3.640520
  C    -10.657530    4.714680    6.013770
  C    -10.468120    3.697700    6.920410
  C    -10.902820    3.620640    8.237300
  C    -10.644610    2.488100    8.995620
  C    -10.945500    2.220420   10.346460
  C    -10.536050    0.985800   10.777980
  C     -9.905540    0.222820    9.778760
  S     -9.829890    1.114430    8.282340
  C     -9.380980   -1.063090    9.797950
  C     -9.271310   -2.002120   10.842550
  C     -8.691750   -3.176200   10.457650
  C     -8.326330   -3.225160    9.086920
  S     -8.735000   -1.710530    8.313440
  C     -7.740370   -4.287930    8.444050
  C     -7.406270   -4.387400    7.079700
  S     -6.606450   -5.848450    6.505780
  C     -6.542100   -5.337120    4.872440
  C     -7.106320   -4.089560    4.739690
  C     -7.583060   -3.558870    5.980030
  O     -8.134140   -2.344430    5.785230
  C     -8.015370   -2.091410    4.457280
  N     -8.499400   -0.855750    3.980200
  O     -8.460210   -0.681640    2.773460
  O     -8.918060   -0.046810    4.781180
  C     -7.408640   -3.103510    3.762380
  H     -2.256620    3.523910   -3.411890
  H     -5.726510    5.018960   -6.704290
  H     -0.426630    4.161750   -5.438980
  H     -8.305580    4.053000   -1.912340
  H     -5.902210    1.408780   -0.862860
  H     -7.283050    1.816490    3.195500
  H     -9.078930    5.663880    0.424690
  H    -11.554750    7.054560    4.511550
  H    -11.240910    5.584020    6.280060
  H     -9.907920    2.841050    6.560100
  H    -11.439900    4.441930    8.690620
  H    -11.449680    2.940550   10.966880
  H    -10.679480    0.614750   11.777310
  H     -9.613960   -1.791870   11.840040
  H     -8.519740   -4.012590   11.111940
  H     -7.507620   -5.157230    9.044510
  H     -6.101820   -5.964130    4.125490
  H     -7.204010   -3.119070    2.712280

 Total Charge           Charge          ....    0
 Multiplicity           Mult            ....    1
 Number of Electrons    NEL             ....  520
 Basis Dimension        Dim             .... 1066

ORBITAL ENERGIES
----------------

  NO   OCC          E(Eh)            E(eV)
   0   2.0000    -482.889297    -13140.0858
   1   2.0000     -88.980979     -2421.2955
   2   2.0000     -88.979177     -2421.2465
   3   2.0000     -88.966660     -2420.9059
   4   2.0000     -88.947076     -2420.3730
   5   2.0000     -88.946108     -2420.3467
   6   2.0000     -62.567005     -1702.5348
   7   2.0000     -56.400967     -1534.7483
   8   2.0000     -56.398231     -1534.6739
   9   2.0000     -56.398203     -1534.6731
  10   2.0000     -24.784858      -674.4303
  11   2.0000     -24.783152      -674.3838
  12   2.0000     -19.310428      -525.4634
  13   2.0000     -19.308867      -525.4210
  14   2.0000     -19.247291      -523.7454
  15   2.0000     -19.243686      -523.6473
  16   2.0000     -19.227157      -523.1975
  17   2.0000     -14.655630      -398.8000
  18   2.0000     -14.423806      -392.4917
  19   2.0000     -14.423216      -392.4757
  20   2.0000     -14.389046      -391.5458
  21   2.0000     -14.382606      -391.3706
  22   2.0000     -10.384522      -282.5772
  23   2.0000     -10.379542      -282.4417
  24   2.0000     -10.374174      -282.2956
  25   2.0000     -10.372755      -282.2570
  26   2.0000     -10.367441      -282.1124
  27   2.0000     -10.364142      -282.0227
  28   2.0000     -10.364120      -282.0221
  29   2.0000     -10.354173      -281.7514
  30   2.0000     -10.352993      -281.7193
  31   2.0000     -10.351132      -281.6686
  32   2.0000     -10.332497      -281.1615
  33   2.0000     -10.331257      -281.1278
  34   2.0000     -10.325757      -280.9781
  35   2.0000     -10.325040      -280.9586
  36   2.0000     -10.323675      -280.9215
  37   2.0000     -10.321097      -280.8513
  38   2.0000     -10.319216      -280.8001
  39   2.0000     -10.318719      -280.7866
  40   2.0000     -10.318143      -280.7710
  41   2.0000     -10.317954      -280.7658
  42   2.0000     -10.316560      -280.7279
  43   2.0000     -10.315801      -280.7072
  44   2.0000     -10.314589      -280.6742
  45   2.0000     -10.314189      -280.6633
  46   2.0000     -10.312736      -280.6238
  47   2.0000     -10.311457      -280.5890
  48   2.0000     -10.308163      -280.4994
  49   2.0000     -10.307606      -280.4842
  50   2.0000     -10.305036      -280.4143
  51   2.0000     -10.304156      -280.3903
  52   2.0000     -10.303570      -280.3744
  53   2.0000     -10.301326      -280.3133
  54   2.0000     -10.300533      -280.2918
  55   2.0000     -10.300434      -280.2891
  56   2.0000     -10.300051      -280.2786
  57   2.0000     -10.299862      -280.2735
  58   2.0000     -10.296078      -280.1705
  59   2.0000     -10.295803      -280.1630
  60   2.0000     -10.295539      -280.1559
  61   2.0000     -10.293880      -280.1107
  62   2.0000     -10.292806      -280.0815
  63   2.0000     -10.290738      -280.0252
  64   2.0000     -10.288065      -279.9525
  65   2.0000     -10.287335      -279.9326
  66   2.0000     -10.286878      -279.9202
  67   2.0000     -10.284680      -279.8604
  68   2.0000     -10.284114      -279.8450
  69   2.0000     -10.283655      -279.8325
  70   2.0000     -10.280050      -279.7344
  71   2.0000      -8.796436      -239.3632
  72   2.0000      -8.076920      -219.7842
  73   2.0000      -8.074274      -219.7122
  74   2.0000      -8.061381      -219.3613
  75   2.0000      -8.043436      -218.8730
  76   2.0000      -8.042602      -218.8503
  77   2.0000      -6.632790      -180.4874
  78   2.0000      -6.618154      -180.0891
  79   2.0000      -6.617925      -180.0829
  80   2.0000      -6.046595      -164.5362
  81   2.0000      -6.043605      -164.4549
  82   2.0000      -6.042333      -164.4202
  83   2.0000      -6.039278      -164.3371
  84   2.0000      -6.038176      -164.3071
  85   2.0000      -6.036569      -164.2634
  86   2.0000      -6.030569      -164.1001
  87   2.0000      -6.026385      -163.9863
  88   2.0000      -6.023758      -163.9148
  89   2.0000      -6.013146      -163.6260
  90   2.0000      -6.012267      -163.6021
  91   2.0000      -6.008941      -163.5116
  92   2.0000      -6.008132      -163.4896
  93   2.0000      -6.004281      -163.3848
  94   2.0000      -6.003620      -163.3668
  95   2.0000      -2.748640       -74.7943
  96   2.0000      -2.744580       -74.6838
  97   2.0000      -2.744359       -74.6778
  98   2.0000      -2.732755       -74.3620
  99   2.0000      -2.732731       -74.3614
 100   2.0000      -1.327236       -36.1159
 101   2.0000      -1.305944       -35.5365
 102   2.0000      -1.290999       -35.1299
 103   2.0000      -1.231282       -33.5049
 104   2.0000      -1.219985       -33.1975
 105   2.0000      -1.143683       -31.1212
 106   2.0000      -1.142313       -31.0839
 107   2.0000      -1.030805       -28.0496
 108   2.0000      -1.020447       -27.7678
 109   2.0000      -1.006371       -27.3848
 110   2.0000      -1.004263       -27.3274
 111   2.0000      -1.001807       -27.2605
 112   2.0000      -0.998417       -27.1683
 113   2.0000      -0.998284       -27.1647
 114   2.0000      -0.986994       -26.8575
 115   2.0000      -0.979366       -26.6499
 116   2.0000      -0.966194       -26.2915
 117   2.0000      -0.955848       -26.0099
 118   2.0000      -0.949146       -25.8276
 119   2.0000      -0.944227       -25.6937
 120   2.0000      -0.936640       -25.4873
 121   2.0000      -0.935040       -25.4437
 122   2.0000      -0.916027       -24.9264
 123   2.0000      -0.914272       -24.8786
 124   2.0000      -0.903861       -24.5953
 125   2.0000      -0.895199       -24.3596
 126   2.0000      -0.892555       -24.2876
 127   2.0000      -0.883967       -24.0540
 128   2.0000      -0.876789       -23.8587
 129   2.0000      -0.864025       -23.5113
 130   2.0000      -0.859909       -23.3993
 131   2.0000      -0.848804       -23.0971
 132   2.0000      -0.848262       -23.0824
 133   2.0000      -0.835800       -22.7433
 134   2.0000      -0.833820       -22.6894
 135   2.0000      -0.830307       -22.5938
 136   2.0000      -0.821505       -22.3543
 137   2.0000      -0.805460       -21.9177
 138   2.0000      -0.793491       -21.5920
 139   2.0000      -0.792006       -21.5516
 140   2.0000      -0.780031       -21.2257
 141   2.0000      -0.769065       -20.9273
 142   2.0000      -0.759381       -20.6638
 143   2.0000      -0.746229       -20.3059
 144   2.0000      -0.735605       -20.0168
 145   2.0000      -0.734218       -19.9791
 146   2.0000      -0.712367       -19.3845
 147   2.0000      -0.710586       -19.3360
 148   2.0000      -0.706482       -19.2244
 149   2.0000      -0.699940       -19.0463
 150   2.0000      -0.694863       -18.9082
 151   2.0000      -0.681509       -18.5448
 152   2.0000      -0.678609       -18.4659
 153   2.0000      -0.672532       -18.3005
 154   2.0000      -0.664590       -18.0844
 155   2.0000      -0.662935       -18.0394
 156   2.0000      -0.659058       -17.9339
 157   2.0000      -0.649827       -17.6827
 158   2.0000      -0.644049       -17.5255
 159   2.0000      -0.640753       -17.4358
 160   2.0000      -0.635416       -17.2905
 161   2.0000      -0.632187       -17.2027
 162   2.0000      -0.627789       -17.0830
 163   2.0000      -0.625253       -17.0140
 164   2.0000      -0.621206       -16.9039
 165   2.0000      -0.620443       -16.8831
 166   2.0000      -0.612009       -16.6536
 167   2.0000      -0.610910       -16.6237
 168   2.0000      -0.608488       -16.5578
 169   2.0000      -0.601431       -16.3658
 170   2.0000      -0.596785       -16.2394
 171   2.0000      -0.591105       -16.0848
 172   2.0000      -0.588592       -16.0164
 173   2.0000      -0.584636       -15.9087
 174   2.0000      -0.577297       -15.7091
 175   2.0000      -0.574808       -15.6413
 176   2.0000      -0.573023       -15.5928
 177   2.0000      -0.570343       -15.5198
 178   2.0000      -0.567123       -15.4322
 179   2.0000      -0.562087       -15.2952
 180   2.0000      -0.555830       -15.1249
 181   2.0000      -0.554643       -15.0926
 182   2.0000      -0.548994       -14.9389
 183   2.0000      -0.545070       -14.8321
 184   2.0000      -0.542731       -14.7685
 185   2.0000      -0.541321       -14.7301
 186   2.0000      -0.533732       -14.5236
 187   2.0000      -0.533113       -14.5067
 188   2.0000      -0.531995       -14.4763
 189   2.0000      -0.529288       -14.4027
 190   2.0000      -0.528482       -14.3807
 191   2.0000      -0.525013       -14.2863
 192   2.0000      -0.518133       -14.0991
 193   2.0000      -0.516081       -14.0433
 194   2.0000      -0.514076       -13.9887
 195   2.0000      -0.503813       -13.7095
 196   2.0000      -0.503614       -13.7040
 197   2.0000      -0.502670       -13.6783
 198   2.0000      -0.501029       -13.6337
 199   2.0000      -0.499953       -13.6044
 200   2.0000      -0.498002       -13.5513
 201   2.0000      -0.491851       -13.3839
 202   2.0000      -0.486623       -13.2417
 203   2.0000      -0.483612       -13.1598
 204   2.0000      -0.480964       -13.0877
 205   2.0000      -0.479877       -13.0581
 206   2.0000      -0.478784       -13.0284
 207   2.0000      -0.474020       -12.8987
 208   2.0000      -0.471643       -12.8340
 209   2.0000      -0.468354       -12.7446
 210   2.0000      -0.465045       -12.6545
 211   2.0000      -0.464955       -12.6521
 212   2.0000      -0.462079       -12.5738
 213   2.0000      -0.460010       -12.5175
 214   2.0000      -0.455458       -12.3936
 215   2.0000      -0.453962       -12.3529
 216   2.0000      -0.453327       -12.3357
 217   2.0000      -0.450646       -12.2627
 218   2.0000      -0.445220       -12.1151
 219   2.0000      -0.439778       -11.9670
 220   2.0000      -0.437580       -11.9072
 221   2.0000      -0.436299       -11.8723
 222   2.0000      -0.433673       -11.8008
 223   2.0000      -0.432089       -11.7578
 224   2.0000      -0.431870       -11.7518
 225   2.0000      -0.429963       -11.6999
 226   2.0000      -0.426635       -11.6093
 227   2.0000      -0.425252       -11.5717
 228   2.0000      -0.418359       -11.3841
 229   2.0000      -0.417745       -11.3674
 230   2.0000      -0.415304       -11.3010
 231   2.0000      -0.413824       -11.2607
 232   2.0000      -0.411868       -11.2075
 233   2.0000      -0.406145       -11.0518
 234   2.0000      -0.405323       -11.0294
 235   2.0000      -0.402392       -10.9496
 236   2.0000      -0.394203       -10.7268
 237   2.0000      -0.392253       -10.6738
 238   2.0000      -0.391220       -10.6456
 239   2.0000      -0.389618       -10.6020
 240   2.0000      -0.387868       -10.5544
 241   2.0000      -0.380763       -10.3611
 242   2.0000      -0.378723       -10.3056
 243   2.0000      -0.378467       -10.2986
 244   2.0000      -0.372146       -10.1266
 245   2.0000      -0.363376        -9.8880
 246   2.0000      -0.357768        -9.7354
 247   2.0000      -0.350061        -9.5256
 248   2.0000      -0.342948        -9.3321
 249   2.0000      -0.332501        -9.0478
 250   2.0000      -0.326028        -8.8717
 251   2.0000      -0.325199        -8.8491
 252   2.0000      -0.321592        -8.7510
 253   2.0000      -0.318321        -8.6620
 254   2.0000      -0.313150        -8.5212
 255   2.0000      -0.299522        -8.1504
 256   2.0000      -0.290490        -7.9046
 257   2.0000      -0.273634        -7.4460
 258   2.0000      -0.246605        -6.7105
 259   2.0000      -0.205505        -5.5921
 260   0.0000      -0.107009        -2.9119
 261   0.0000      -0.098785        -2.6881
 262   0.0000      -0.070291        -1.9127
 263   0.0000      -0.066838        -1.8187
 264   0.0000      -0.053431        -1.4539

MULLIKEN ATOMIC CHARGES
-----------------------
   0 C :    0.286413
   1 C :   -0.327584
   2 C :   -0.184020
   3 N :    0.162327
   4 C :   -0.205559
   5 N :    0.171549
   6 C :    0.019192
   7 C :   -0.025264
   8 C :   -0.058053
   9 C :    0.114649
  10 C :   -0.091365
  11 C :   -0.014739
  12 S :    0.192476
  13 C :   -0.122490
  14 C :    0.043012
  15 Br:    0.030902
  16 C :    0.147765
  17 O :   -0.127262
  18 C :   -0.061617
  19 C :   -0.030219
  20 C :    0.208316
  21 C :   -0.063377
  22 C :    0.290004
  23 C :   -0.361551
  24 C :   -0.161891
  25 N :    0.090801
  26 C :   -0.190696
  27 N :    0.119551
  28 C :   -0.172095
  29 C :    0.233512
  30 O :   -0.242486
  31 C :   -0.142062
  32 S :    0.153211
  33 C :   -0.059400
  34 C :    0.108007
  35 C :    0.143097
  36 C :   -0.120985
  37 C :    0.244958
  38 F :   -0.177693
  39 C :    0.222248
  40 F :   -0.180905
  41 C :   -0.111356
  42 C :   -0.014262
  43 C :   -0.007235
  44 C :   -0.002432
  45 C :   -0.014936
  46 C :    0.023073
  47 C :    0.039330
  48 C :   -0.050008
  49 S :    0.075585
  50 C :   -0.021486
  51 C :    0.029492
  52 C :    0.040898
  53 C :   -0.041020
  54 S :    0.104200
  55 C :    0.069349
  56 C :   -0.243947
  57 S :    0.152388
  58 C :   -0.120143
  59 C :    0.114959
  60 C :    0.215402
  61 O :   -0.192668
  62 C :    0.262789
  63 N :    0.283325
  64 O :   -0.249786
  65 O :   -0.234071
  66 C :   -0.047266
  67 H :   -0.002332
  68 H :   -0.004111
  69 H :    0.000662
  70 H :    0.049298
  71 H :    0.033790
  72 H :    0.023498
  73 H :   -0.014880
  74 H :   -0.012278
  75 H :   -0.015942
  76 H :    0.041331
  77 H :   -0.017077
  78 H :   -0.011173
  79 H :   -0.011347
  80 H :   -0.011766
  81 H :   -0.008881
  82 H :   -0.016353
  83 H :    0.038957
  84 H :    0.017756
Sum of atomic charges:   -0.0000000

LOEWDIN ATOMIC CHARGES
----------------------
   0 C :    0.071429
   1 C :   -0.126803
   2 C :   -0.017625
   3 N :   -0.042495
   4 C :   -0.025888
   5 N :   -0.037688
   6 C :   -0.021297
   7 C :   -0.051518
   8 C :    0.028729
   9 C :   -0.029536
  10 C :   -0.141321
  11 C :   -0.007967
  12 S :    0.437162
  13 C :   -0.268904
  14 C :   -0.068442
  15 Br:    0.142753
  16 C :    0.083137
  17 O :   -0.120539
  18 C :   -0.064815
  19 C :    0.054520
  20 C :    0.060883
  21 C :    0.016691
  22 C :    0.054191
  23 C :   -0.189867
  24 C :   -0.019316
  25 N :   -0.106014
  26 C :   -0.032099
  27 N :   -0.087481
  28 C :   -0.066820
  29 C :    0.080794
  30 O :   -0.004430
  31 C :   -0.224767
  32 S :    0.511399
  33 C :   -0.134375
  34 C :   -0.055368
  35 C :   -0.020983
  36 C :   -0.046377
  37 C :    0.070115
  38 F :   -0.054800
  39 C :    0.054100
  40 F :   -0.059233
  41 C :   -0.031977
  42 C :   -0.066524
  43 C :   -0.011668
  44 C :   -0.072772
  45 C :   -0.124958
  46 C :   -0.046979
  47 C :   -0.019205
  48 C :   -0.190603
  49 S :    0.404272
  50 C :   -0.164261
  51 C :   -0.037884
  52 C :   -0.021873
  53 C :   -0.153726
  54 S :    0.419543
  55 C :   -0.061452
  56 C :   -0.205737
  57 S :    0.479172
  58 C :   -0.173517
  59 C :   -0.075544
  60 C :    0.023306
  61 O :    0.003976
  62 C :    0.033144
  63 N :    0.283128
  64 O :   -0.204710
  65 O :   -0.196590
  66 C :    0.007712
  67 H :    0.044614
  68 H :    0.041852
  69 H :    0.040716
  70 H :    0.052092
  71 H :    0.049337
  72 H :    0.032437
  73 H :    0.035850
  74 H :    0.040204
  75 H :    0.031448
  76 H :    0.013996
  77 H :    0.032018
  78 H :    0.033446
  79 H :    0.033239
  80 H :    0.032867
  81 H :    0.034156
  82 H :    0.036122
  83 H :    0.032584
  84 H :    0.049614

  Mayer bond orders larger than 0.100000
B(  0-C ,  1-C ) :   1.6610 B(  0-C ,  6-C ) :   1.0170 B(  0-C , 18-C ) :   1.0441
B(  1-C ,  2-C ) :   1.1380 B(  1-C ,  4-C ) :   1.1381 B(  2-C ,  3-N ) :   2.9746
B(  4-C ,  5-N ) :   2.9942 B(  6-C ,  7-C ) :   1.2663 B(  6-C , 11-C ) :   1.4010
B(  7-C ,  8-C ) :   1.4239 B(  7-C , 16-C ) :   0.9462 B(  8-C ,  9-C ) :   1.2481
B(  8-C , 67-H ) :   1.0161 B(  9-C , 10-C ) :   1.2982 B(  9-C , 14-C ) :   1.1659
B( 10-C , 11-C ) :   1.3377 B( 10-C , 12-S ) :   1.0895 B( 11-C , 68-H ) :   0.9796
B( 12-S , 13-C ) :   1.0865 B( 13-C , 14-C ) :   1.6155 B( 13-C , 15-Br) :   1.0227
B( 14-C , 69-H ) :   1.0003 B( 16-C , 17-O ) :   2.2388 B( 16-C , 18-C ) :   0.9164
B( 18-C , 19-C ) :   1.6835 B( 19-C , 20-C ) :   1.0527 B( 19-C , 70-H ) :   0.9376
B( 20-C , 21-C ) :   1.6012 B( 20-C , 30-O ) :   1.0789 B( 21-C , 22-C ) :   1.1331
B( 21-C , 71-H ) :   0.9500 B( 22-C , 23-C ) :   1.4819 B( 22-C , 28-C ) :   1.2037
B( 23-C , 24-C ) :   1.1675 B( 23-C , 26-C ) :   1.1435 B( 24-C , 25-N ) :   2.9235
B( 26-C , 27-N ) :   3.0025 B( 28-C , 29-C ) :   1.4536 B( 28-C , 72-H ) :   0.9510
B( 29-C , 30-O ) :   1.1173 B( 29-C , 31-C ) :   1.1857 B( 31-C , 32-S ) :   1.1226
B( 31-C , 35-C ) :   1.3015 B( 32-S , 33-C ) :   1.1643 B( 33-C , 34-C ) :   1.2544
B( 33-C , 42-C ) :   1.2514 B( 34-C , 35-C ) :   1.2249 B( 34-C , 41-C ) :   1.1903
B( 35-C , 36-C ) :   1.1893 B( 36-C , 37-C ) :   1.4614 B( 36-C , 41-C ) :   0.1137
B( 36-C , 73-H ) :   1.0048 B( 37-C , 38-F ) :   1.1266 B( 37-C , 39-C ) :   1.1735
B( 39-C , 40-F ) :   1.1245 B( 39-C , 41-C ) :   1.4798 B( 41-C , 74-H ) :   0.9998
B( 42-C , 43-C ) :   1.5076 B( 42-C , 75-H ) :   0.9782 B( 43-C , 44-C ) :   1.2425
B( 43-C , 76-H ) :   0.9567 B( 44-C , 45-C ) :   1.4610 B( 44-C , 77-H ) :   0.9909
B( 45-C , 46-C ) :   1.1858 B( 45-C , 49-S ) :   1.0703 B( 46-C , 47-C ) :   1.5362
B( 46-C , 78-H ) :   0.9990 B( 47-C , 48-C ) :   1.2277 B( 47-C , 79-H ) :   0.9960
B( 48-C , 49-S ) :   1.0545 B( 48-C , 50-C ) :   1.4479 B( 50-C , 51-C ) :   1.2005
B( 50-C , 54-S ) :   1.0682 B( 51-C , 52-C ) :   1.5782 B( 51-C , 80-H ) :   0.9950
B( 52-C , 53-C ) :   1.1492 B( 52-C , 81-H ) :   0.9993 B( 53-C , 54-S ) :   1.0448
B( 53-C , 55-C ) :   1.5902 B( 55-C , 56-C ) :   1.1650 B( 55-C , 82-H ) :   0.9447
B( 56-C , 57-S ) :   1.1246 B( 56-C , 58-C ) :   0.1050 B( 56-C , 60-C ) :   1.4072
B( 57-S , 58-C ) :   1.1952 B( 58-C , 59-C ) :   1.4247 B( 58-C , 83-H ) :   0.9742
B( 59-C , 60-C ) :   1.2375 B( 59-C , 66-C ) :   1.0736 B( 60-C , 61-O ) :   1.1038
B( 61-O , 62-C ) :   1.1096 B( 62-C , 63-N ) :   0.9190 B( 62-C , 66-C ) :   1.5785
B( 63-N , 64-O ) :   1.5113 B( 63-N , 65-O ) :   1.5021 B( 64-O , 65-O ) :   0.2650
B( 66-C , 84-H ) :   1.0228

-----------------------------------------------------------------------------
         ABSORPTION SPECTRUM VIA TRANSITION ELECTRIC DIPOLE MOMENTS
-----------------------------------------------------------------------------
State   Energy  Wavelength   fosc         T2         TX        TY        TZ
        (cm-1)    (nm)                  (au**2)     (au)      (au)      (au)
-----------------------------------------------------------------------------
   0    8397.3   1190.9   0.387014652  15.17279   0.36382   2.68986  -2.79375
   1   11018.7    907.6   0.169856347   5.07491  -0.73231   2.12482  -0.15411
   2   13580.1    736.4   0.046643541   1.13075   0.35034   0.04143  -1.00314
   3   16621.1    601.6   0.034572423   0.68477   0.47712  -0.61674  -0.27706
   4   17850.0    560.2   0.159656334   2.94458  -0.37536   1.28597  -1.07236
   5   18938.7    528.0   0.324677463   5.64388   1.22358  -1.26076  -1.59913
   6   19841.6    504.0   1.002789211  16.63828   1.97089  -2.27922  -2.74937
   7   21169.8    472.4   0.094035362   1.46235   0.12440   0.45682  -1.11274
   8   21709.2    460.6   0.122355877   1.85548   0.71208  -1.14688   0.18188
   9   23668.1    422.5   0.141437403   1.96733   0.52130  -0.35864  -1.25178
  10   25387.5    393.9   0.030424519   0.39453   0.40721   0.00411  -0.47821
  11   25455.4    392.8   0.019297653   0.24957   0.15233  -0.07281   0.47018
  12   26162.1    382.2   0.193710483   2.43756   1.41892   0.30120  -0.57751
  13   26696.8    374.6   0.318374317   3.92603  -0.50492   1.48477  -1.21101
  14   26970.6    370.8   0.016098128   0.19650  -0.32045  -0.00630   0.30622
  15   27385.1    365.2   0.200713408   2.41289   0.46597  -1.00021   1.09332
  16   27704.0    361.0   0.166080430   1.97356  -0.44477   0.88129  -0.99954
  17   28367.0    352.5   0.036764323   0.42667   0.01151   0.09246  -0.64652
  18   28801.5    347.2   0.016795536   0.19198  -0.41356   0.13296  -0.05720
  19   29228.7    342.1   0.011262409   0.12685   0.31600  -0.00692   0.16415
  20   29729.2    336.4   0.017518776   0.19400  -0.26407  -0.35071   0.03557
  21   30222.2    330.9   0.080469002   0.87655  -0.19875  -0.30666   0.86198
  22   30624.3    326.5   0.160760547   1.72818   0.21435   0.62894  -1.13432
  23   31254.0    320.0   0.160996067   1.69584   0.51394  -1.17426   0.22985
  24   31917.4    313.3   0.158557821   1.63544  -0.56125   1.01365  -0.54125
  25   32111.2    311.4   0.040862725   0.41893  -0.08319   0.25048   0.59099
  26   32169.5    310.9   0.700063057   7.16421  -2.36048  -0.46424   1.17338
  27   32349.1    309.1   0.039158100   0.39851  -0.39576   0.47627  -0.12267
  28   32702.0    305.8   0.133231239   1.34124  -1.03323   0.31739  -0.41586
  29   33086.8    302.2   0.002798436   0.02784  -0.02049  -0.02853   0.16313
  30   33164.7    301.5   0.059367618   0.58932   0.17123   0.18774  -0.72440
  31   33522.3    298.3   0.017126173   0.16819   0.11179  -0.33473   0.20892
  32   34023.8    293.9   0.213185328   2.06277   0.10570  -0.65632   1.27312
  33   34145.4    292.9   0.135834034   1.30964  -0.23317   0.88217  -0.69070
  34   34838.9    287.0   0.022509672   0.21271  -0.05618   0.25691  -0.37888
  35   35137.9    284.6   0.219407445   2.05566  -0.83039   1.16767  -0.05147
  36   35708.8    280.0   0.021142636   0.19492   0.27449  -0.10663  -0.32895
  37   36132.7    276.8   0.087435814   0.79665  -0.05752  -0.35690   0.81606
  38   36348.7    275.1   0.084803295   0.76807   0.33095  -0.38562  -0.71403
  39   36533.9    273.7   0.332810814   2.99900  -0.48834   1.31175  -1.01973
  40   36750.6    272.1   0.164044033   1.46951   0.50260  -1.08976   0.17120
  41   36932.8    270.8   0.035721348   0.31841  -0.41319   0.38422   0.00806
  42   37277.3    268.3   0.103005116   0.90968   0.38468  -0.49252   0.72051
  43   37550.2    266.3   0.031707078   0.27798   0.22275  -0.28507   0.38354
  44   37684.5    265.4   0.086649419   0.75697  -0.29325   0.77243  -0.27263
  45   37783.4    264.7   0.037280898   0.32483  -0.56296   0.06493  -0.06078
  46   37894.9    263.9   0.016647816   0.14463  -0.30434  -0.18612   0.13178
  47   38652.2    258.7   0.025598572   0.21803   0.16349  -0.42859   0.08724
  48   38722.8    258.2   0.069893130   0.59421   0.36667  -0.41314   0.53766
  49   38749.7    258.1   0.038834495   0.32993   0.12273  -0.26512   0.49455
  50   38902.1    257.1   0.015925159   0.13477  -0.10736  -0.00979  -0.35092
  51   39218.5    255.0   0.016840251   0.14136   0.16367  -0.32422  -0.09725
  52   39424.3    253.7   0.035205374   0.29398  -0.24075  -0.15876   0.45915
  53   39436.5    253.6   0.021065740   0.17585  -0.35412  -0.16157   0.15603
  54   39801.4    251.2   0.021935367   0.18144  -0.32655  -0.13545   0.23760
  55   40173.1    248.9   0.104663861   0.85770  -0.71557   0.52872  -0.25712

FINAL SINGLE POINT ENERGY     -7288.277863112170

DIPOLE MOMENT
-------------
                                X             Y             Z
Electronic contribution:     75.63056      47.68174    -131.63827
Nuclear contribution   :    -75.09573     -48.65496     134.65229
                        -----------------------------------------
Total Dipole Moment    :      0.53483      -0.97323       3.01402
                        -----------------------------------------
Magnitude (a.u.)       :      3.21209
Magnitude (Debye)      :      8.16448

Rotational constants in cm-1:     0.001333     0.000354     0.000297
Rotational constants in MHz :    39.970751    10.621919     8.890358

                             ****ORCA TERMINATED NORMALLY****
TOTAL RUN TIME: 0 days 0 hours 9 minutes 29 seconds 589 msec
