                         Program Version 4.2.0 -  RELEASE  -
|  1> # ORCA input file
|  2> # SCF done       -184.776793638635          0.000850037502
|  3> ! CAM-B3LYP def2-SVP def2/J RIJCOSX Grid4 TightSCF
|  4> %maxcore 5000
|  5> %tddft
|  6>     Mode sTDDFT
|  7>     Ethresh 5.0
|  8>     maxcore 5000
|  9> end
| 10>
| 11> %pal
| 12>   nprocs 6
| 13>   end
| 14> * xyz 0 1
| 15>    C      -15.73227       -12.01504         0.55718
| 16>    C      -14.37099       -11.89522         0.75618
| 17>    C      -13.55519       -12.90558         1.29489
| 18>    N      -12.82110       -13.66903         1.74285
| 19>    C      -13.57490       -10.78626         0.42365
| 20>    N      -12.81247        -9.97216         0.13780
| 21>    C      -16.49999       -13.23994         0.77472
| 22>    C      -17.85835       -12.98024         0.47152
| 23>    C      -18.83003       -13.94608         0.53406
| 24>    C      -18.43902       -15.24064         0.89818
| 25>    C      -17.08077       -15.49128         1.19556
| 26>    C      -16.09900       -14.50722         1.14675
| 27>    S      -16.81127       -17.16369         1.58619
| 28>    C      -18.50722       -17.49661         1.34573
| 29>    C      -19.23782       -16.41272         0.99472
| 30>   Br      -19.14804       -19.24411         1.57951
| 31>    C      -17.99976       -11.56338         0.06239
| 32>    O      -19.03458       -11.00809        -0.25189
| 33>    C      -16.63991       -11.00269         0.10942
| 34>    C      -16.31956        -9.68675        -0.18894
| 35>    C      -17.22357        -8.68632        -0.49927
| 36>    C      -16.82047        -7.37089        -0.69647
| 37>    C      -17.63324        -6.23275        -0.85843
| 38>    C      -16.93577        -5.05368        -0.92486
| 39>    C      -15.54504        -5.22326        -0.84519
| 40>    S      -15.13712        -6.91440        -0.68956
| 41>    C      -14.51986        -4.28142        -0.84004
| 42>    C      -14.57080        -2.87667        -0.80814
| 43>    C      -13.33589        -2.28996        -0.71873
| 44>    C      -12.25724        -3.19915        -0.71426
| 45>    S      -12.87211        -4.83918        -0.81540
| 46>    C      -10.92268        -2.92047        -0.48156
| 47>    C       -9.87640        -3.85778        -0.51509
| 48>    C       -8.79333        -3.74778         0.38846
| 49>    C       -7.91449        -4.87104         0.67470
| 50>    N       -7.06155        -4.57745         1.66127
| 51>    S       -7.30863        -3.07803         2.14775
| 52>    N       -8.53351        -2.70283         1.17273
| 53>    C       -8.05077        -6.10061         0.01439
| 54>    C       -8.95400        -6.12606        -1.07356
| 55>    C       -9.06925        -7.11937        -2.02744
| 56>    S      -10.16995        -6.71590        -3.25170
| 57>    C      -10.53235        -5.21435        -2.52669
| 58>    C       -9.84051        -5.01554        -1.35533
| 59>    C       -7.32468        -7.29017         0.42579
| 60>    N       -6.16775        -7.12680         1.06945
| 61>    C       -5.52856        -8.21678         1.44338
| 62>    C       -6.01002        -9.49075         1.18278
| 63>    C       -7.23553        -9.57110         0.50552
| 64>    N       -7.87871        -8.46578         0.13751
| 65>    C       -7.82772       -10.85754         0.19784
| 66>    C       -9.06401       -11.02646        -0.31388
| 67>    C       -9.58496       -12.32553        -0.58319
| 68>    C      -10.72168       -12.65974        -1.24393
| 69>    C      -11.69028       -11.85398        -1.96019
| 70>    C      -11.41941       -10.70713        -2.65633
| 71>    C      -12.39916        -9.90750        -3.27766
| 72>    N      -13.16572        -9.20412        -3.76252
| 73>    C      -10.10203       -10.28489        -2.92356
| 74>    N       -9.04966        -9.96968        -3.25705
| 75>    C      -12.93816       -12.60673        -1.99494
| 76>    C      -12.68608       -13.92539        -1.53664
| 77>    C      -11.26877       -14.04382        -1.13290
| 78>    O      -10.67556       -15.03161        -0.77778
| 79>    C      -13.66318       -14.88977        -1.49559
| 80>    C      -14.94763       -14.53566        -1.92016
| 81>    C      -15.19137       -13.21558        -2.37090
| 82>    C      -14.20200       -12.24123        -2.42118
| 83>    S      -16.85166       -12.99556        -2.83721
| 84>    C      -17.18815       -14.65715        -2.43053
| 85>    C      -16.11654       -15.34351        -1.96918
| 86>   Br      -18.91849       -15.33250        -2.65017
| 87>    H      -19.85645       -13.71991         0.29125
| 88>    H      -15.07570       -14.74843         1.38143
| 89>    H      -20.29424       -16.43639         0.80011
| 90>    H      -15.27455        -9.40244        -0.13934
| 91>    H      -18.27816        -8.91509        -0.54276
| 92>    H      -18.70520        -6.30825        -0.90085
| 93>    H      -17.39086        -4.08513        -1.03152
| 94>    H      -15.49945        -2.33531        -0.82762
| 95>    H      -13.17396        -1.22776        -0.66312
| 96>    H      -10.67862        -1.93561        -0.10418
| 97>    H       -8.52025        -8.03705        -2.08139
| 98>    H      -11.20644        -4.54091        -3.01575
| 99>    H       -4.59121        -8.05764         1.96140
|100>    H       -5.47571       -10.37551         1.48810
|101>    H       -7.20298       -11.71961         0.39438
|102>    H       -9.67985       -10.15607        -0.49001
|103>    H       -9.04139       -13.16420        -0.15869
|104>    H      -13.44367       -15.88531        -1.14366
|105>    H      -14.43010       -11.24404        -2.76140
|106>    H      -16.14381       -16.37808        -1.67942
|107> *
|108>
|109>                          ****END OF INPUT****

CARTESIAN COORDINATES (ANGSTROEM)
---------------------------------
  C    -15.732270  -12.015040    0.557180
  C    -14.370990  -11.895220    0.756180
  C    -13.555190  -12.905580    1.294890
  N    -12.821100  -13.669030    1.742850
  C    -13.574900  -10.786260    0.423650
  N    -12.812470   -9.972160    0.137800
  C    -16.499990  -13.239940    0.774720
  C    -17.858350  -12.980240    0.471520
  C    -18.830030  -13.946080    0.534060
  C    -18.439020  -15.240640    0.898180
  C    -17.080770  -15.491280    1.195560
  C    -16.099000  -14.507220    1.146750
  S    -16.811270  -17.163690    1.586190
  C    -18.507220  -17.496610    1.345730
  C    -19.237820  -16.412720    0.994720
  Br   -19.148040  -19.244110    1.579510
  C    -17.999760  -11.563380    0.062390
  O    -19.034580  -11.008090   -0.251890
  C    -16.639910  -11.002690    0.109420
  C    -16.319560   -9.686750   -0.188940
  C    -17.223570   -8.686320   -0.499270
  C    -16.820470   -7.370890   -0.696470
  C    -17.633240   -6.232750   -0.858430
  C    -16.935770   -5.053680   -0.924860
  C    -15.545040   -5.223260   -0.845190
  S    -15.137120   -6.914400   -0.689560
  C    -14.519860   -4.281420   -0.840040
  C    -14.570800   -2.876670   -0.808140
  C    -13.335890   -2.289960   -0.718730
  C    -12.257240   -3.199150   -0.714260
  S    -12.872110   -4.839180   -0.815400
  C    -10.922680   -2.920470   -0.481560
  C     -9.876400   -3.857780   -0.515090
  C     -8.793330   -3.747780    0.388460
  C     -7.914490   -4.871040    0.674700
  N     -7.061550   -4.577450    1.661270
  S     -7.308630   -3.078030    2.147750
  N     -8.533510   -2.702830    1.172730
  C     -8.050770   -6.100610    0.014390
  C     -8.954000   -6.126060   -1.073560
  C     -9.069250   -7.119370   -2.027440
  S    -10.169950   -6.715900   -3.251700
  C    -10.532350   -5.214350   -2.526690
  C     -9.840510   -5.015540   -1.355330
  C     -7.324680   -7.290170    0.425790
  N     -6.167750   -7.126800    1.069450
  C     -5.528560   -8.216780    1.443380
  C     -6.010020   -9.490750    1.182780
  C     -7.235530   -9.571100    0.505520
  N     -7.878710   -8.465780    0.137510
  C     -7.827720  -10.857540    0.197840
  C     -9.064010  -11.026460   -0.313880
  C     -9.584960  -12.325530   -0.583190
  C    -10.721680  -12.659740   -1.243930
  C    -11.690280  -11.853980   -1.960190
  C    -11.419410  -10.707130   -2.656330
  C    -12.399160   -9.907500   -3.277660
  N    -13.165720   -9.204120   -3.762520
  C    -10.102030  -10.284890   -2.923560
  N     -9.049660   -9.969680   -3.257050
  C    -12.938160  -12.606730   -1.994940
  C    -12.686080  -13.925390   -1.536640
  C    -11.268770  -14.043820   -1.132900
  O    -10.675560  -15.031610   -0.777780
  C    -13.663180  -14.889770   -1.495590
  C    -14.947630  -14.535660   -1.920160
  C    -15.191370  -13.215580   -2.370900
  C    -14.202000  -12.241230   -2.421180
  S    -16.851660  -12.995560   -2.837210
  C    -17.188150  -14.657150   -2.430530
  C    -16.116540  -15.343510   -1.969180
  Br   -18.918490  -15.332500   -2.650170
  H    -19.856450  -13.719910    0.291250
  H    -15.075700  -14.748430    1.381430
  H    -20.294240  -16.436390    0.800110
  H    -15.274550   -9.402440   -0.139340
  H    -18.278160   -8.915090   -0.542760
  H    -18.705200   -6.308250   -0.900850
  H    -17.390860   -4.085130   -1.031520
  H    -15.499450   -2.335310   -0.827620
  H    -13.173960   -1.227760   -0.663120
  H    -10.678620   -1.935610   -0.104180
  H     -8.520250   -8.037050   -2.081390
  H    -11.206440   -4.540910   -3.015750
  H     -4.591210   -8.057640    1.961400
  H     -5.475710  -10.375510    1.488100
  H     -7.202980  -11.719610    0.394380
  H     -9.679850  -10.156070   -0.490010
  H     -9.041390  -13.164200   -0.158690
  H    -13.443670  -15.885310   -1.143660
  H    -14.430100  -11.244040   -2.761400
  H    -16.143810  -16.378080   -1.679420

 Total Charge           Charge          ....    0
 Multiplicity           Mult            ....    1
 Number of Electrons    NEL             ....  582
 Basis Dimension        Dim             .... 1168

ORBITAL ENERGIES
----------------

  NO   OCC          E(Eh)            E(eV)
   0   2.0000    -482.881470    -13139.8728
   1   2.0000    -482.877714    -13139.7706
   2   2.0000     -89.028026     -2422.5758
   3   2.0000     -88.975938     -2421.1584
   4   2.0000     -88.970387     -2421.0073
   5   2.0000     -88.966251     -2420.8948
   6   2.0000     -88.958678     -2420.6887
   7   2.0000     -88.954330     -2420.5704
   8   2.0000     -62.558832     -1702.3124
   9   2.0000     -62.555435     -1702.2199
  10   2.0000     -56.392783     -1534.5256
  11   2.0000     -56.390092     -1534.4524
  12   2.0000     -56.390071     -1534.4518
  13   2.0000     -56.389363     -1534.4326
  14   2.0000     -56.386682     -1534.3596
  15   2.0000     -56.386650     -1534.3588
  16   2.0000     -19.208265      -522.6835
  17   2.0000     -19.195722      -522.3421
  18   2.0000     -14.433377      -392.7522
  19   2.0000     -14.433036      -392.7429
  20   2.0000     -14.415010      -392.2524
  21   2.0000     -14.412527      -392.1848
  22   2.0000     -14.411538      -392.1579
  23   2.0000     -14.409864      -392.1123
  24   2.0000     -14.404720      -391.9724
  25   2.0000     -14.397068      -391.7641
  26   2.0000     -10.358294      -281.8635
  27   2.0000     -10.353052      -281.7209
  28   2.0000     -10.350744      -281.6581
  29   2.0000     -10.348477      -281.5964
  30   2.0000     -10.345697      -281.5207
  31   2.0000     -10.336934      -281.2823
  32   2.0000     -10.336160      -281.2612
  33   2.0000     -10.334196      -281.2078
  34   2.0000     -10.332901      -281.1725
  35   2.0000     -10.326398      -280.9956
  36   2.0000     -10.324004      -280.9304
  37   2.0000     -10.323776      -280.9242
  38   2.0000     -10.321607      -280.8652
  39   2.0000     -10.320698      -280.8405
  40   2.0000     -10.319889      -280.8185
  41   2.0000     -10.317962      -280.7660
  42   2.0000     -10.317249      -280.7466
  43   2.0000     -10.315574      -280.7010
  44   2.0000     -10.315151      -280.6895
  45   2.0000     -10.313857      -280.6543
  46   2.0000     -10.312144      -280.6077
  47   2.0000     -10.309935      -280.5476
  48   2.0000     -10.307242      -280.4743
  49   2.0000     -10.305347      -280.4228
  50   2.0000     -10.304896      -280.4105
  51   2.0000     -10.303702      -280.3780
  52   2.0000     -10.303404      -280.3699
  53   2.0000     -10.302439      -280.3436
  54   2.0000     -10.301926      -280.3297
  55   2.0000     -10.301535      -280.3190
  56   2.0000     -10.299332      -280.2591
  57   2.0000     -10.297926      -280.2208
  58   2.0000     -10.297760      -280.2163
  59   2.0000     -10.294576      -280.1297
  60   2.0000     -10.293759      -280.1074
  61   2.0000     -10.293323      -280.0956
  62   2.0000     -10.293151      -280.0909
  63   2.0000     -10.292534      -280.0741
  64   2.0000     -10.292212      -280.0653
  65   2.0000     -10.292099      -280.0623
  66   2.0000     -10.292027      -280.0603
  67   2.0000     -10.291501      -280.0460
  68   2.0000     -10.291276      -280.0399
  69   2.0000     -10.291090      -280.0348
  70   2.0000     -10.290803      -280.0270
  71   2.0000     -10.290590      -280.0212
  72   2.0000     -10.290435      -280.0170
  73   2.0000     -10.287057      -279.9250
  74   2.0000     -10.286968      -279.9226
  75   2.0000     -10.286037      -279.8973
  76   2.0000     -10.285180      -279.8740
  77   2.0000     -10.275352      -279.6066
  78   2.0000     -10.268616      -279.4233
  79   2.0000     -10.267602      -279.3956
  80   2.0000      -8.788142      -239.1375
  81   2.0000      -8.784860      -239.0482
  82   2.0000      -8.119450      -220.9415
  83   2.0000      -8.070743      -219.6161
  84   2.0000      -8.065459      -219.4723
  85   2.0000      -8.061995      -219.3780
  86   2.0000      -8.054546      -219.1753
  87   2.0000      -8.050449      -219.0638
  88   2.0000      -6.624359      -180.2580
  89   2.0000      -6.621092      -180.1691
  90   2.0000      -6.609940      -179.8656
  91   2.0000      -6.609714      -179.8595
  92   2.0000      -6.606606      -179.7749
  93   2.0000      -6.606467      -179.7711
  94   2.0000      -6.090409      -165.7285
  95   2.0000      -6.082662      -165.5176
  96   2.0000      -6.082468      -165.5124
  97   2.0000      -6.039262      -164.3367
  98   2.0000      -6.035225      -164.2268
  99   2.0000      -6.034927      -164.2187
 100   2.0000      -6.034767      -164.2144
 101   2.0000      -6.031679      -164.1303
 102   2.0000      -6.030926      -164.1099
 103   2.0000      -6.027458      -164.0155
 104   2.0000      -6.026707      -163.9950
 105   2.0000      -6.024188      -163.9265
 106   2.0000      -6.023255      -163.9011
 107   2.0000      -6.019954      -163.8113
 108   2.0000      -6.019927      -163.8105
 109   2.0000      -6.015885      -163.7005
 110   2.0000      -6.015743      -163.6967
 111   2.0000      -6.011801      -163.5894
 112   2.0000      -2.740266       -74.5664
 113   2.0000      -2.736975       -74.4769
 114   2.0000      -2.736214       -74.4562
 115   2.0000      -2.736048       -74.4517
 116   2.0000      -2.732900       -74.3660
 117   2.0000      -2.732795       -74.3631
 118   2.0000      -2.724591       -74.1399
 119   2.0000      -2.724568       -74.1393
 120   2.0000      -2.721284       -74.0499
 121   2.0000      -2.721272       -74.0496
 122   2.0000      -1.123753       -30.5789
 123   2.0000      -1.123286       -30.5662
 124   2.0000      -1.109099       -30.1801
 125   2.0000      -1.088298       -29.6141
 126   2.0000      -1.018838       -27.7240
 127   2.0000      -1.010562       -27.4988
 128   2.0000      -1.010383       -27.4939
 129   2.0000      -1.007039       -27.4029
 130   2.0000      -1.001322       -27.2473
 131   2.0000      -1.000156       -27.2156
 132   2.0000      -0.991473       -26.9794
 133   2.0000      -0.987421       -26.8691
 134   2.0000      -0.985161       -26.8076
 135   2.0000      -0.984031       -26.7769
 136   2.0000      -0.980950       -26.6930
 137   2.0000      -0.976794       -26.5799
 138   2.0000      -0.972909       -26.4742
 139   2.0000      -0.942296       -25.6412
 140   2.0000      -0.939377       -25.5618
 141   2.0000      -0.929226       -25.2855
 142   2.0000      -0.922014       -25.0893
 143   2.0000      -0.909953       -24.7611
 144   2.0000      -0.903519       -24.5860
 145   2.0000      -0.901423       -24.5290
 146   2.0000      -0.894329       -24.3359
 147   2.0000      -0.887793       -24.1581
 148   2.0000      -0.880530       -23.9604
 149   2.0000      -0.874170       -23.7874
 150   2.0000      -0.872146       -23.7323
 151   2.0000      -0.867770       -23.6132
 152   2.0000      -0.860938       -23.4273
 153   2.0000      -0.849903       -23.1270
 154   2.0000      -0.845551       -23.0086
 155   2.0000      -0.832245       -22.6465
 156   2.0000      -0.831414       -22.6239
 157   2.0000      -0.826357       -22.4863
 158   2.0000      -0.822421       -22.3792
 159   2.0000      -0.816253       -22.2114
 160   2.0000      -0.801334       -21.8054
 161   2.0000      -0.789801       -21.4916
 162   2.0000      -0.776780       -21.1373
 163   2.0000      -0.771489       -20.9933
 164   2.0000      -0.755410       -20.5557
 165   2.0000      -0.747706       -20.3461
 166   2.0000      -0.742489       -20.2042
 167   2.0000      -0.740053       -20.1379
 168   2.0000      -0.736586       -20.0435
 169   2.0000      -0.721179       -19.6243
 170   2.0000      -0.702394       -19.1131
 171   2.0000      -0.699252       -19.0276
 172   2.0000      -0.693385       -18.8680
 173   2.0000      -0.683255       -18.5923
 174   2.0000      -0.679858       -18.4999
 175   2.0000      -0.675830       -18.3903
 176   2.0000      -0.673264       -18.3204
 177   2.0000      -0.669078       -18.2065
 178   2.0000      -0.659699       -17.9513
 179   2.0000      -0.655142       -17.8273
 180   2.0000      -0.646697       -17.5975
 181   2.0000      -0.644598       -17.5404
 182   2.0000      -0.642497       -17.4832
 183   2.0000      -0.639656       -17.4059
 184   2.0000      -0.628910       -17.1135
 185   2.0000      -0.623356       -16.9624
 186   2.0000      -0.619031       -16.8447
 187   2.0000      -0.617793       -16.8110
 188   2.0000      -0.614092       -16.7103
 189   2.0000      -0.608238       -16.5510
 190   2.0000      -0.607875       -16.5411
 191   2.0000      -0.596288       -16.2258
 192   2.0000      -0.588969       -16.0267
 193   2.0000      -0.587221       -15.9791
 194   2.0000      -0.583592       -15.8803
 195   2.0000      -0.581500       -15.8234
 196   2.0000      -0.579234       -15.7618
 197   2.0000      -0.571981       -15.5644
 198   2.0000      -0.567801       -15.4507
 199   2.0000      -0.561060       -15.2672
 200   2.0000      -0.553129       -15.0514
 201   2.0000      -0.548881       -14.9358
 202   2.0000      -0.547253       -14.8915
 203   2.0000      -0.542512       -14.7625
 204   2.0000      -0.539707       -14.6862
 205   2.0000      -0.534189       -14.5360
 206   2.0000      -0.530631       -14.4392
 207   2.0000      -0.530333       -14.4311
 208   2.0000      -0.527774       -14.3615
 209   2.0000      -0.524397       -14.2696
 210   2.0000      -0.523245       -14.2382
 211   2.0000      -0.518820       -14.1178
 212   2.0000      -0.515674       -14.0322
 213   2.0000      -0.512458       -13.9447
 214   2.0000      -0.509867       -13.8742
 215   2.0000      -0.506800       -13.7907
 216   2.0000      -0.505556       -13.7569
 217   2.0000      -0.501605       -13.6494
 218   2.0000      -0.499296       -13.5865
 219   2.0000      -0.497303       -13.5323
 220   2.0000      -0.495284       -13.4774
 221   2.0000      -0.492446       -13.4001
 222   2.0000      -0.492195       -13.3933
 223   2.0000      -0.489553       -13.3214
 224   2.0000      -0.487695       -13.2708
 225   2.0000      -0.486905       -13.2494
 226   2.0000      -0.486380       -13.2351
 227   2.0000      -0.480521       -13.0756
 228   2.0000      -0.479558       -13.0494
 229   2.0000      -0.478412       -13.0183
 230   2.0000      -0.476281       -12.9603
 231   2.0000      -0.473965       -12.8973
 232   2.0000      -0.471784       -12.8379
 233   2.0000      -0.470090       -12.7918
 234   2.0000      -0.467892       -12.7320
 235   2.0000      -0.461988       -12.5713
 236   2.0000      -0.457047       -12.4369
 237   2.0000      -0.454349       -12.3635
 238   2.0000      -0.449933       -12.2433
 239   2.0000      -0.446456       -12.1487
 240   2.0000      -0.445903       -12.1336
 241   2.0000      -0.444912       -12.1067
 242   2.0000      -0.442843       -12.0504
 243   2.0000      -0.440420       -11.9844
 244   2.0000      -0.440261       -11.9801
 245   2.0000      -0.438581       -11.9344
 246   2.0000      -0.436072       -11.8661
 247   2.0000      -0.432876       -11.7791
 248   2.0000      -0.430629       -11.7180
 249   2.0000      -0.428754       -11.6670
 250   2.0000      -0.428417       -11.6578
 251   2.0000      -0.427601       -11.6356
 252   2.0000      -0.425262       -11.5720
 253   2.0000      -0.421955       -11.4820
 254   2.0000      -0.420371       -11.4389
 255   2.0000      -0.416451       -11.3322
 256   2.0000      -0.414214       -11.2713
 257   2.0000      -0.411519       -11.1980
 258   2.0000      -0.410374       -11.1669
 259   2.0000      -0.408891       -11.1265
 260   2.0000      -0.407331       -11.0840
 261   2.0000      -0.404259       -11.0005
 262   2.0000      -0.399591       -10.8734
 263   2.0000      -0.394477       -10.7343
 264   2.0000      -0.393990       -10.7210
 265   2.0000      -0.385551       -10.4914
 266   2.0000      -0.380986       -10.3671
 267   2.0000      -0.376712       -10.2509
 268   2.0000      -0.373820       -10.1722
 269   2.0000      -0.371602       -10.1118
 270   2.0000      -0.369185       -10.0460
 271   2.0000      -0.367348        -9.9960
 272   2.0000      -0.360770        -9.8171
 273   2.0000      -0.358583        -9.7575
 274   2.0000      -0.354067        -9.6347
 275   2.0000      -0.347953        -9.4683
 276   2.0000      -0.338213        -9.2032
 277   2.0000      -0.336661        -9.1610
 278   2.0000      -0.328307        -8.9337
 279   2.0000      -0.325397        -8.8545
 280   2.0000      -0.322666        -8.7802
 281   2.0000      -0.318949        -8.6791
 282   2.0000      -0.316336        -8.6079
 283   2.0000      -0.313576        -8.5328
 284   2.0000      -0.298768        -8.1299
 285   2.0000      -0.295592        -8.0435
 286   2.0000      -0.295090        -8.0298
 287   2.0000      -0.290034        -7.8922
 288   2.0000      -0.277578        -7.5533
 289   2.0000      -0.251252        -6.8369
 290   2.0000      -0.216614        -5.8944
 291   0.0000      -0.120572        -3.2809
 292   0.0000      -0.089052        -2.4232
 293   0.0000      -0.082590        -2.2474
 294   0.0000      -0.058828        -1.6008
 295   0.0000      -0.049160        -1.3377

MULLIKEN ATOMIC CHARGES
-----------------------
   0 C :    0.365286
   1 C :   -0.378552
   2 C :   -0.216283
   3 N :    0.141044
   4 C :   -0.191088
   5 N :    0.114370
   6 C :    0.002284
   7 C :   -0.001852
   8 C :   -0.096375
   9 C :    0.128844
  10 C :   -0.101539
  11 C :   -0.027987
  12 S :    0.164943
  13 C :   -0.124011
  14 C :    0.037627
  15 Br:    0.012944
  16 C :    0.143324
  17 O :   -0.162136
  18 C :   -0.116880
  19 C :   -0.053389
  20 C :   -0.019747
  21 C :    0.010210
  22 C :    0.013442
  23 C :    0.047682
  24 C :   -0.051936
  25 S :    0.108793
  26 C :   -0.021278
  27 C :    0.017839
  28 C :    0.055810
  29 C :   -0.065737
  30 S :    0.125073
  31 C :   -0.026781
  32 C :    0.047525
  33 C :    0.025388
  34 C :   -0.041389
  35 N :   -0.237481
  36 S :    0.524093
  37 N :   -0.298274
  38 C :    0.183760
  39 C :    0.069850
  40 C :   -0.124946
  41 S :    0.222236
  42 C :   -0.166390
  43 C :    0.036227
  44 C :   -0.185707
  45 N :   -0.025183
  46 C :    0.082703
  47 C :   -0.036254
  48 C :    0.064152
  49 N :   -0.061159
  50 C :    0.000034
  51 C :    0.056656
  52 C :    0.022604
  53 C :   -0.092592
  54 C :    0.274093
  55 C :   -0.295852
  56 C :   -0.185639
  57 N :    0.152341
  58 C :   -0.191341
  59 N :    0.129315
  60 C :   -0.005485
  61 C :    0.003150
  62 C :    0.152996
  63 O :   -0.128350
  64 C :   -0.081087
  65 C :    0.106875
  66 C :   -0.086457
  67 C :   -0.011180
  68 S :    0.189998
  69 C :   -0.143292
  70 C :    0.084135
  71 Br:    0.025243
  72 H :   -0.019248
  73 H :   -0.012891
  74 H :   -0.009564
  75 H :    0.015337
  76 H :    0.012965
  77 H :   -0.002614
  78 H :   -0.007384
  79 H :   -0.009161
  80 H :    0.001358
  81 H :    0.017042
  82 H :    0.044118
  83 H :    0.030996
  84 H :    0.009122
  85 H :   -0.000537
  86 H :   -0.005399
  87 H :    0.051223
  88 H :    0.019077
  89 H :   -0.010019
  90 H :   -0.005705
  91 H :   -0.007978
Sum of atomic charges:   -0.0000000

LOEWDIN ATOMIC CHARGES
----------------------
   0 C :    0.073114
   1 C :   -0.178893
   2 C :   -0.022090
   3 N :   -0.083942
   4 C :   -0.016685
   5 N :   -0.087675
   6 C :   -0.019833
   7 C :   -0.051126
   8 C :    0.011512
   9 C :   -0.039500
  10 C :   -0.150658
  11 C :   -0.015529
  12 S :    0.417335
  13 C :   -0.277590
  14 C :   -0.069577
  15 Br:    0.128076
  16 C :    0.075113
  17 O :   -0.159982
  18 C :   -0.127129
  19 C :    0.039855
  20 C :   -0.078369
  21 C :   -0.100792
  22 C :   -0.052374
  23 C :   -0.005874
  24 C :   -0.201701
  25 S :    0.427214
  26 C :   -0.139124
  27 C :   -0.052018
  28 C :   -0.002738
  29 C :   -0.169382
  30 S :    0.443822
  31 C :    0.005963
  32 C :   -0.050864
  33 C :   -0.035771
  34 C :   -0.051829
  35 N :   -0.267036
  36 S :    0.666648
  37 N :   -0.307339
  38 C :   -0.002440
  39 C :   -0.038456
  40 C :   -0.172704
  41 S :    0.566815
  42 C :   -0.227203
  43 C :   -0.056481
  44 C :    0.033649
  45 N :   -0.061676
  46 C :    0.052788
  47 C :   -0.051358
  48 C :    0.029859
  49 N :   -0.068176
  50 C :    0.001187
  51 C :    0.015291
  52 C :    0.067589
  53 C :   -0.071833
  54 C :    0.082249
  55 C :   -0.130860
  56 C :   -0.017011
  57 N :   -0.055006
  58 C :   -0.008840
  59 N :   -0.066536
  60 C :   -0.019028
  61 C :   -0.044714
  62 C :    0.087786
  63 O :   -0.126914
  64 C :    0.022762
  65 C :   -0.032368
  66 C :   -0.143468
  67 C :   -0.009061
  68 S :    0.446704
  69 C :   -0.270971
  70 C :   -0.065047
  71 Br:    0.148984
  72 H :    0.036217
  73 H :    0.037320
  74 H :    0.036551
  75 H :    0.027835
  76 H :    0.037711
  77 H :    0.037041
  78 H :    0.035032
  79 H :    0.033485
  80 H :    0.038528
  81 H :    0.044751
  82 H :    0.022345
  83 H :    0.019789
  84 H :    0.028256
  85 H :    0.035377
  86 H :    0.033434
  87 H :    0.043462
  88 H :    0.046251
  89 H :    0.041645
  90 H :    0.040393
  91 H :    0.035835

  Mayer bond orders larger than 0.100000
B(  0-C ,  1-C ) :   1.5288 B(  0-C ,  6-C ) :   0.9792 B(  0-C , 18-C ) :   1.1626
B(  1-C ,  2-C ) :   1.1736 B(  1-C ,  4-C ) :   1.1528 B(  2-C ,  3-N ) :   2.9249
B(  4-C ,  5-N ) :   2.8983 B(  6-C ,  7-C ) :   1.2818 B(  6-C , 11-C ) :   1.4287
B(  7-C ,  8-C ) :   1.4239 B(  7-C , 16-C ) :   0.9263 B(  8-C ,  9-C ) :   1.2183
B(  8-C , 72-H ) :   1.0216 B(  9-C , 10-C ) :   1.3289 B(  9-C , 14-C ) :   1.1594
B( 10-C , 11-C ) :   1.3038 B( 10-C , 12-S ) :   1.0750 B( 11-C , 73-H ) :   0.9828
B( 12-S , 13-C ) :   1.0781 B( 13-C , 14-C ) :   1.6205 B( 13-C , 15-Br) :   1.0114
B( 14-C , 74-H ) :   1.0012 B( 16-C , 17-O ) :   2.1977 B( 16-C , 18-C ) :   0.9673
B( 18-C , 19-C ) :   1.4017 B( 19-C , 20-C ) :   1.3353 B( 19-C , 75-H ) :   0.9416
B( 20-C , 21-C ) :   1.3360 B( 20-C , 76-H ) :   0.9835 B( 21-C , 22-C ) :   1.2248
B( 21-C , 25-S ) :   1.1128 B( 22-C , 23-C ) :   1.4848 B( 22-C , 77-H ) :   1.0018
B( 23-C , 24-C ) :   1.2662 B( 23-C , 78-H ) :   0.9968 B( 24-C , 25-S ) :   1.0582
B( 24-C , 26-C ) :   1.3905 B( 26-C , 27-C ) :   1.2303 B( 26-C , 30-S ) :   1.1073
B( 27-C , 28-C ) :   1.5277 B( 27-C , 79-H ) :   0.9973 B( 28-C , 29-C ) :   1.1912
B( 28-C , 80-H ) :   0.9984 B( 29-C , 30-S ) :   1.0462 B( 29-C , 31-C ) :   1.4733
B( 31-C , 32-C ) :   1.2518 B( 31-C , 81-H ) :   0.9620 B( 32-C , 33-C ) :   1.2366
B( 32-C , 38-C ) :   0.1107 B( 32-C , 43-C ) :   1.1429 B( 33-C , 34-C ) :   1.1094
B( 33-C , 37-N ) :   1.5297 B( 34-C , 35-N ) :   1.4991 B( 34-C , 38-C ) :   1.2915
B( 35-N , 36-S ) :   1.3120 B( 35-N , 37-N ) :   0.1633 B( 36-S , 37-N ) :   1.2613
B( 38-C , 39-C ) :   1.2796 B( 38-C , 44-C ) :   0.9323 B( 39-C , 40-C ) :   1.3806
B( 39-C , 43-C ) :   1.1363 B( 40-C , 41-S ) :   1.2817 B( 40-C , 82-H ) :   0.9369
B( 41-S , 42-C ) :   1.2215 B( 42-C , 43-C ) :   1.4269 B( 42-C , 83-H ) :   0.9610
B( 44-C , 45-N ) :   1.5817 B( 44-C , 49-N ) :   1.5625 B( 45-N , 46-C ) :   1.5497
B( 46-C , 47-C ) :   1.3575 B( 46-C , 84-H ) :   0.9803 B( 47-C , 48-C ) :   1.3303
B( 47-C , 85-H ) :   0.9763 B( 48-C , 49-N ) :   1.5115 B( 48-C , 50-C ) :   1.0436
B( 50-C , 51-C ) :   1.7193 B( 50-C , 86-H ) :   0.9805 B( 51-C , 52-C ) :   1.0797
B( 51-C , 87-H ) :   0.9476 B( 52-C , 53-C ) :   1.6728 B( 52-C , 88-H ) :   0.9531
B( 53-C , 54-C ) :   1.0214 B( 53-C , 62-C ) :   0.9265 B( 54-C , 55-C ) :   1.6512
B( 54-C , 60-C ) :   1.0271 B( 55-C , 56-C ) :   1.1344 B( 55-C , 58-C ) :   1.1777
B( 56-C , 57-N ) :   2.9775 B( 58-C , 59-N ) :   2.9042 B( 60-C , 61-C ) :   1.2843
B( 60-C , 67-C ) :   1.3905 B( 61-C , 62-C ) :   0.9221 B( 61-C , 64-C ) :   1.4148
B( 62-C , 63-O ) :   2.2795 B( 64-C , 65-C ) :   1.2490 B( 64-C , 89-H ) :   1.0185
B( 65-C , 66-C ) :   1.3091 B( 65-C , 70-C ) :   1.1589 B( 66-C , 67-C ) :   1.3247
B( 66-C , 68-S ) :   1.0856 B( 67-C , 90-H ) :   0.9896 B( 68-S , 69-C ) :   1.0837
B( 69-C , 70-C ) :   1.6153 B( 69-C , 71-Br) :   1.0237 B( 70-C , 91-H ) :   0.9927

-----------------------------------------------------------------------------
         ABSORPTION SPECTRUM VIA TRANSITION ELECTRIC DIPOLE MOMENTS
-----------------------------------------------------------------------------
State   Energy  Wavelength   fosc         T2         TX        TY        TZ
        (cm-1)    (nm)                  (au**2)     (au)      (au)      (au)
-----------------------------------------------------------------------------
   0    6743.5   1482.9   0.313162793  15.28833  -3.42399  -1.86785   0.27521
   1   12330.2    811.0   0.041743380   1.11453  -0.00388  -1.05484  -0.04282
   2   13213.3    756.8   0.002662725   0.06634   0.20669   0.05339  -0.14412
   3   14748.6    678.0   0.707448562  15.79132  -0.04526   3.93005  -0.58648
   4   19494.0    513.0   0.022515916   0.38025   0.61414  -0.03745   0.04093
   5   20239.7    494.1   0.078885486   1.28312   1.12357   0.04306   0.13735
   6   21142.8    473.0   0.099254575   1.54548   0.67526  -1.02808   0.18046
   7   21283.8    469.8   0.072301051   1.11833   1.04479   0.15751  -0.04405
   8   22276.7    448.9   0.030905496   0.45673  -0.64721  -0.19443   0.00700
   9   22743.1    439.7   0.092727464   1.34225   0.75928  -0.76528   0.42437
  10   23171.7    431.6   0.018617741   0.26451   0.48673   0.15248   0.06603
  11   24110.1    414.8   0.032434798   0.44288  -0.41838  -0.50631   0.10721
  12   25037.1    399.4   0.013586291   0.17865   0.21378   0.32921   0.15673
  13   25475.8    392.5   0.057647852   0.74496   0.82437  -0.04081  -0.25239
  14   25897.1    386.1   0.296329264   3.76703   0.39057  -1.88776   0.22550
  15   26224.6    381.3   0.002147332   0.02696   0.11006  -0.10559   0.06079
  16   26895.5    371.8   0.002008144   0.02458  -0.02886  -0.15075  -0.03195
  17   27006.9    370.3   0.098603217   1.20197   0.96463  -0.37276   0.36403
  18   27439.0    364.4   0.342025802   4.10361  -1.70998  -1.06220  -0.22652
  19   27740.7    360.5   0.018442735   0.21887  -0.02035   0.41711   0.21088
  20   27801.5    359.7   0.572642874   6.78096  -1.72342  -1.03420  -1.65566
  21   28173.5    354.9   0.071290503   0.83304  -0.19948   0.75317  -0.47538
  22   28569.7    350.0   0.076837297   0.88541   0.80291   0.39558   0.29027
  23   28932.2    345.6   0.004804524   0.05467   0.19920   0.01027  -0.12199
  24   29058.0    344.1   0.003065427   0.03473   0.15680   0.04455  -0.09033
  25   29309.3    341.2   0.014902492   0.16739  -0.17320  -0.34226  -0.14230
  26   29377.4    340.4   0.040133170   0.44974   0.56035  -0.22270   0.29352
  27   29612.5    337.7   0.022641006   0.25171   0.17919   0.00624   0.46857
  28   29833.8    335.2   0.042403594   0.46792  -0.62912   0.16336  -0.21317
  29   30202.5    331.1   0.026421812   0.28800   0.01615   0.50540  -0.17977
  30   30606.1    326.7   0.024849436   0.26729   0.38604  -0.24233   0.24402
  31   30842.3    324.2   0.058344262   0.62277  -0.78400   0.07956  -0.04218
  32   31092.0    321.6   0.261023426   2.76380   1.07156   1.26719   0.09891
  33   31114.7    321.4   0.036805425   0.38942  -0.47171  -0.40726  -0.03238
  34   31160.1    320.9   0.079021292   0.83487  -0.52851   0.51863  -0.53533
  35   31452.6    317.9   0.095383842   0.99837  -0.72839  -0.67883   0.08378
  36   31628.1    316.2   0.003958209   0.04120   0.17154  -0.01828   0.10696
  37   31804.1    314.4   0.000781252   0.00809  -0.02514  -0.08266  -0.02496
  38   32050.9    312.0   0.191079340   1.96268   0.75786   1.16767  -0.15766
  39   32502.2    307.7   0.015748015   0.15951   0.12278   0.36132   0.11783
  40   32815.6    304.7   0.076743034   0.76990   0.50108   0.71216  -0.10790
  41   33018.8    302.9   0.420290948   4.19048   1.20606   1.64752  -0.14693
  42   33069.5    302.4   0.017392192   0.17314  -0.41112   0.06313  -0.01156
  43   33466.7    298.8   0.023762687   0.23375   0.32348   0.35131  -0.07544
  44   33689.5    296.8   0.046279506   0.45224   0.27942   0.59938  -0.12211
  45   34104.6    293.2   0.133437070   1.28807   0.70402   0.86273   0.21936
  46   34280.6    291.7   0.037606098   0.36115   0.49826   0.32378  -0.08970
  47   34463.7    290.2   0.670566358   6.40554  -2.02765  -1.50773  -0.14460
  48   34528.0    289.6   0.076269344   0.72720  -0.65959  -0.37452  -0.38972
  49   34695.5    288.2   0.018551138   0.17602  -0.28573  -0.28063   0.12502
  50   35095.5    284.9   0.006894472   0.06467   0.04426  -0.08485   0.23562
  51   35392.3    282.5   0.033285933   0.30962   0.54384  -0.06030   0.10111
  52   35468.3    281.9   0.010038830   0.09318   0.15215  -0.26354   0.02404
  53   35545.8    281.3   0.005793597   0.05366  -0.21637   0.02889  -0.07751
  54   35574.1    281.1   0.019535766   0.18079  -0.39087   0.13424  -0.09993
  55   35636.8    280.6   0.000820804   0.00758  -0.07657   0.04144  -0.00139
  56   36108.6    276.9   0.167665113   1.52865   0.33897   0.77203   0.90427
  57   36127.8    276.8   0.112419310   1.02441   0.62578   0.09747   0.78950
  58   36424.1    274.5   0.182982898   1.65386   1.06264   0.27412   0.67046
  59   36498.6    274.0   0.082754708   0.74644  -0.84328   0.11594  -0.14792
  60   36726.7    272.3   0.106786089   0.95721   0.90181   0.33310  -0.18166
  61   37003.7    270.2   0.001871994   0.01665   0.09731  -0.08463  -0.00485
  62   37086.1    269.6   0.046303104   0.41103  -0.00323   0.54971  -0.32992
  63   37125.2    269.4   0.007148569   0.06339  -0.12111  -0.18831   0.11516
  64   37295.9    268.1   0.075988477   0.67075  -0.20271  -0.73644  -0.29550
  65   37352.7    267.7   0.012614963   0.11118  -0.13786   0.11415  -0.28133
  66   37461.9    266.9   0.004197510   0.03689   0.08613  -0.09638   0.14205
  67   37916.2    263.7   0.016997316   0.14758   0.27696   0.05691   0.26007
  68   38142.0    262.2   0.016596796   0.14325   0.09464  -0.36405   0.04195
  69   38496.2    259.8   0.039127305   0.33461   0.46089  -0.21092   0.27874
  70   38553.9    259.4   0.076147409   0.65022  -0.57884  -0.55274   0.09819
  71   38723.7    258.2   0.005816024   0.04945   0.07982  -0.17253  -0.11536
  72   39272.9    254.6   0.074838587   0.62735   0.31234  -0.65518   0.31707
  73   39361.9    254.1   0.028183938   0.23572   0.23843  -0.41308   0.09077
  74   39476.8    253.3   0.045459958   0.37911  -0.57524   0.04584  -0.21472
  75   39991.7    250.1   0.002887797   0.02377  -0.10142  -0.10706  -0.04499
  76   40209.9    248.7   0.004201517   0.03440   0.07581   0.07829   0.15008
  77   40304.2    248.1   0.207412195   1.69418   0.09638   1.25947  -0.31406

FINAL SINGLE POINT ENERGY    -10191.067911014281

DIPOLE MOMENT
-------------
                                X             Y             Z
Electronic contribution:   -108.78221    -143.55830      -1.11859
Nuclear contribution   :    108.50852     145.78216       1.42762
                        -----------------------------------------
Total Dipole Moment    :     -0.27369       2.22386       0.30903
                        -----------------------------------------
Magnitude (a.u.)       :      2.26185
Magnitude (Debye)      :      5.74917

Rotational constants in cm-1:     0.001494     0.000408     0.000361
Rotational constants in MHz :    44.787077    12.245769    10.818693

                             ****ORCA TERMINATED NORMALLY****
TOTAL RUN TIME: 0 days 0 hours 13 minutes 15 seconds 895 msec
