                         Program Version 4.2.0 -  RELEASE  -
|  1> # ORCA input file
|  2> # SCF done       -166.266183598898          0.002487710656
|  3> ! CAM-B3LYP def2-SVP def2/J RIJCOSX Grid4 TightSCF
|  4> %maxcore 5000
|  5> %tddft
|  6>     Mode sTDDFT
|  7>     Ethresh 5.0
|  8>     maxcore 5000
|  9> end
| 10>
| 11> %pal
| 12>   nprocs 6
| 13>   end
| 14> * xyz 0 1
| 15>    C      -13.55323         2.76498         8.07370
| 16>    C      -13.62241         1.77173         9.02325
| 17>    C      -13.55735         2.00158        10.41136
| 18>    N      -13.51604         2.12016        11.55337
| 19>    C      -13.76789         0.39392         8.76801
| 20>    N      -13.88060        -0.74460         8.65443
| 21>    C      -13.37518         4.18820         8.36520
| 22>    C      -13.33656         4.89679         7.14028
| 23>    C      -13.16917         6.25706         7.07189
| 24>    C      -13.02778         6.95599         8.27558
| 25>    C      -13.06789         6.24215         9.49424
| 26>    C      -13.24235         4.86383         9.56237
| 27>    S      -12.86647         7.29879        10.85936
| 28>    C      -12.73138         8.66277         9.78167
| 29>    C      -12.83373         8.35194         8.46960
| 30>   Br      -12.46548        10.37315        10.49841
| 31>    C      -13.49262         3.93823         6.03006
| 32>    O      -13.52736         4.22345         4.84207
| 33>    C      -13.61652         2.61998         6.64098
| 34>    C      -13.78753         1.43316         5.95085
| 35>    C      -13.78773         1.19068         4.58420
| 36>    S      -13.53054         2.33879         3.27317
| 37>    C      -13.60864         1.10178         2.03717
| 38>    C      -13.85787        -0.14989         2.62478
| 39>    C      -13.95303        -0.08550         4.02716
| 40>    S      -14.24784        -1.65622         4.67248
| 41>    C      -14.21989        -2.25295         3.01520
| 42>    N      -14.01480        -1.39043         2.09639
| 43>    C      -13.44050         1.36986         0.67960
| 44>    C      -13.18675         2.63473         0.19758
| 45>    C      -13.00645         2.96312        -1.13868
| 46>    C      -12.75703         4.25442        -1.57323
| 47>    C      -12.57225         4.69964        -2.89722
| 48>    C      -12.35440         6.04570        -3.01153
| 49>    C      -12.35294         6.72471        -1.77985
| 50>    S      -12.63637         5.60426        -0.46719
| 51>    C      -12.17939         8.07764        -1.53094
| 52>    C      -11.95273         9.12327        -2.44939
| 53>    C      -11.85717        10.34821        -1.86067
| 54>    C      -11.98876        10.33632        -0.44709
| 55>    S      -12.21740         8.69345         0.10003
| 56>    C      -12.03791        11.47424         0.32249
| 57>    C      -12.21415        11.66196         1.70395
| 58>    S      -12.76207        13.25557         2.19653
| 59>    C      -12.80683        12.81837         3.88224
| 60>    C      -12.37941        11.50873         4.03466
| 61>    C      -12.04984        10.85941         2.83096
| 62>    S      -11.21819         9.30457         2.79457
| 63>    C      -12.52119         8.14024         3.37220
| 64>    C      -11.95916         6.73568         3.32563
| 65>    S      -12.15569        10.71725         5.60284
| 66>    C      -10.47696        11.36124         5.97698
| 67>    C      -10.00950        10.84623         7.32216
| 68>    C      -13.20483        13.82536         4.80278
| 69>    C      -13.32719        13.71830         6.14584
| 70>    C      -13.71227        14.82569         6.95951
| 71>    C      -13.75862        14.81234         8.30443
| 72>    C      -13.40508        13.61050         9.12460
| 73>    C      -14.16621        16.02517         9.10460
| 74>    N      -14.63839        17.16805         8.37050
| 75>    C      -13.78388        18.01703         7.69698
| 76>    C      -12.45621        18.03852         7.74913
| 77>    H      -13.14364         6.77055         6.12453
| 78>    H      -13.26722         4.36832        10.51829
| 79>    H      -12.77501         9.06783         7.66944
| 80>    H      -13.93109         0.53677         6.54316
| 81>    H      -14.37231        -3.29708         2.82712
| 82>    H      -13.51272         0.52953         0.00248
| 83>    H      -13.12340         3.43978         0.92129
| 84>    H      -13.06373         2.18519        -1.88834
| 85>    H      -12.60680         4.01828        -3.72904
| 86>    H      -12.19650         6.55594        -3.94484
| 87>    H      -11.87068         8.95037        -3.50742
| 88>    H      -11.69790        11.26793        -2.39579
| 89>    H      -12.01484        12.39891        -0.24417
| 90>    H      -13.36929         8.25342         2.69756
| 91>    H      -12.80315         8.44193         4.37977
| 92>    H      -11.68059         6.47616         2.30665
| 93>    H      -12.69932         6.01773         3.67293
| 94>    H      -11.07551         6.65839         3.95607
| 95>    H      -10.54403        12.44983         5.96500
| 96>    H       -9.82787        11.01987         5.17041
| 97>    H       -9.01092        11.22428         7.53104
| 98>    H       -9.97678         9.75883         7.32296
| 99>    H      -10.67786        11.17558         8.11483
|100>    H      -13.41735        14.78313         4.34376
|101>    H      -13.13267        12.77928         6.63472
|102>    H      -13.95441        15.73818         6.43116
|103>    H      -14.03242        12.76113         8.85944
|104>    H      -13.53085        13.81021        10.18514
|105>    H      -12.36913        13.31875         8.95660
|106>    H      -13.31205        16.34454         9.71357
|107>    H      -14.95936        15.72411         9.80073
|108>    H      -15.54752        17.04973         7.94959
|109>    H      -14.31464        18.76713         7.12260
|110>    H      -11.87554        17.31363         8.29080
|111>    H      -11.90590        18.80637         7.23820
|112> *
|113>
|114>                          ****END OF INPUT****

CARTESIAN COORDINATES (ANGSTROEM)
---------------------------------
  C    -13.553230    2.764980    8.073700
  C    -13.622410    1.771730    9.023250
  C    -13.557350    2.001580   10.411360
  N    -13.516040    2.120160   11.553370
  C    -13.767890    0.393920    8.768010
  N    -13.880600   -0.744600    8.654430
  C    -13.375180    4.188200    8.365200
  C    -13.336560    4.896790    7.140280
  C    -13.169170    6.257060    7.071890
  C    -13.027780    6.955990    8.275580
  C    -13.067890    6.242150    9.494240
  C    -13.242350    4.863830    9.562370
  S    -12.866470    7.298790   10.859360
  C    -12.731380    8.662770    9.781670
  C    -12.833730    8.351940    8.469600
  Br   -12.465480   10.373150   10.498410
  C    -13.492620    3.938230    6.030060
  O    -13.527360    4.223450    4.842070
  C    -13.616520    2.619980    6.640980
  C    -13.787530    1.433160    5.950850
  C    -13.787730    1.190680    4.584200
  S    -13.530540    2.338790    3.273170
  C    -13.608640    1.101780    2.037170
  C    -13.857870   -0.149890    2.624780
  C    -13.953030   -0.085500    4.027160
  S    -14.247840   -1.656220    4.672480
  C    -14.219890   -2.252950    3.015200
  N    -14.014800   -1.390430    2.096390
  C    -13.440500    1.369860    0.679600
  C    -13.186750    2.634730    0.197580
  C    -13.006450    2.963120   -1.138680
  C    -12.757030    4.254420   -1.573230
  C    -12.572250    4.699640   -2.897220
  C    -12.354400    6.045700   -3.011530
  C    -12.352940    6.724710   -1.779850
  S    -12.636370    5.604260   -0.467190
  C    -12.179390    8.077640   -1.530940
  C    -11.952730    9.123270   -2.449390
  C    -11.857170   10.348210   -1.860670
  C    -11.988760   10.336320   -0.447090
  S    -12.217400    8.693450    0.100030
  C    -12.037910   11.474240    0.322490
  C    -12.214150   11.661960    1.703950
  S    -12.762070   13.255570    2.196530
  C    -12.806830   12.818370    3.882240
  C    -12.379410   11.508730    4.034660
  C    -12.049840   10.859410    2.830960
  S    -11.218190    9.304570    2.794570
  C    -12.521190    8.140240    3.372200
  C    -11.959160    6.735680    3.325630
  S    -12.155690   10.717250    5.602840
  C    -10.476960   11.361240    5.976980
  C    -10.009500   10.846230    7.322160
  C    -13.204830   13.825360    4.802780
  C    -13.327190   13.718300    6.145840
  C    -13.712270   14.825690    6.959510
  C    -13.758620   14.812340    8.304430
  C    -13.405080   13.610500    9.124600
  C    -14.166210   16.025170    9.104600
  N    -14.638390   17.168050    8.370500
  C    -13.783880   18.017030    7.696980
  C    -12.456210   18.038520    7.749130
  H    -13.143640    6.770550    6.124530
  H    -13.267220    4.368320   10.518290
  H    -12.775010    9.067830    7.669440
  H    -13.931090    0.536770    6.543160
  H    -14.372310   -3.297080    2.827120
  H    -13.512720    0.529530    0.002480
  H    -13.123400    3.439780    0.921290
  H    -13.063730    2.185190   -1.888340
  H    -12.606800    4.018280   -3.729040
  H    -12.196500    6.555940   -3.944840
  H    -11.870680    8.950370   -3.507420
  H    -11.697900   11.267930   -2.395790
  H    -12.014840   12.398910   -0.244170
  H    -13.369290    8.253420    2.697560
  H    -12.803150    8.441930    4.379770
  H    -11.680590    6.476160    2.306650
  H    -12.699320    6.017730    3.672930
  H    -11.075510    6.658390    3.956070
  H    -10.544030   12.449830    5.965000
  H     -9.827870   11.019870    5.170410
  H     -9.010920   11.224280    7.531040
  H     -9.976780    9.758830    7.322960
  H    -10.677860   11.175580    8.114830
  H    -13.417350   14.783130    4.343760
  H    -13.132670   12.779280    6.634720
  H    -13.954410   15.738180    6.431160
  H    -14.032420   12.761130    8.859440
  H    -13.530850   13.810210   10.185140
  H    -12.369130   13.318750    8.956600
  H    -13.312050   16.344540    9.713570
  H    -14.959360   15.724110    9.800730
  H    -15.547520   17.049730    7.949590
  H    -14.314640   18.767130    7.122600
  H    -11.875540   17.313630    8.290800
  H    -11.905900   18.806370    7.238200

 Total Charge           Charge          ....    0
 Multiplicity           Mult            ....    1
 Number of Electrons    NEL             ....  522
 Basis Dimension        Dim             .... 1093

ORBITAL ENERGIES
----------------

  NO   OCC          E(Eh)            E(eV)
   0   2.0000    -482.884162    -13139.9461
   1   2.0000     -88.967402     -2420.9261
   2   2.0000     -88.963936     -2420.8318
   3   2.0000     -88.960395     -2420.7354
   4   2.0000     -88.954560     -2420.5766
   5   2.0000     -88.952817     -2420.5292
   6   2.0000     -88.952494     -2420.5204
   7   2.0000     -88.925942     -2419.7979
   8   2.0000     -88.920139     -2419.6400
   9   2.0000     -62.561386     -1702.3819
  10   2.0000     -56.395316     -1534.5946
  11   2.0000     -56.392672     -1534.5226
  12   2.0000     -56.392638     -1534.5217
  13   2.0000     -19.207803      -522.6709
  14   2.0000     -14.415226      -392.2582
  15   2.0000     -14.413370      -392.2077
  16   2.0000     -14.401217      -391.8770
  17   2.0000     -14.398201      -391.7950
  18   2.0000     -10.355211      -281.7796
  19   2.0000     -10.350605      -281.6543
  20   2.0000     -10.334643      -281.2199
  21   2.0000     -10.325307      -280.9659
  22   2.0000     -10.322074      -280.8779
  23   2.0000     -10.319264      -280.8014
  24   2.0000     -10.317989      -280.7667
  25   2.0000     -10.315441      -280.6974
  26   2.0000     -10.315246      -280.6921
  27   2.0000     -10.314995      -280.6853
  28   2.0000     -10.313823      -280.6534
  29   2.0000     -10.313346      -280.6404
  30   2.0000     -10.311586      -280.5925
  31   2.0000     -10.311340      -280.5858
  32   2.0000     -10.308426      -280.5065
  33   2.0000     -10.306773      -280.4616
  34   2.0000     -10.306372      -280.4506
  35   2.0000     -10.305168      -280.4179
  36   2.0000     -10.303648      -280.3765
  37   2.0000     -10.303323      -280.3677
  38   2.0000     -10.302714      -280.3511
  39   2.0000     -10.301578      -280.3202
  40   2.0000     -10.301172      -280.3091
  41   2.0000     -10.297503      -280.2093
  42   2.0000     -10.296337      -280.1776
  43   2.0000     -10.295861      -280.1646
  44   2.0000     -10.295551      -280.1562
  45   2.0000     -10.293323      -280.0956
  46   2.0000     -10.293281      -280.0944
  47   2.0000     -10.292123      -280.0629
  48   2.0000     -10.291984      -280.0591
  49   2.0000     -10.289953      -280.0039
  50   2.0000     -10.288315      -279.9593
  51   2.0000     -10.287908      -279.9482
  52   2.0000     -10.287382      -279.9339
  53   2.0000     -10.284488      -279.8552
  54   2.0000     -10.280014      -279.7334
  55   2.0000     -10.279920      -279.7308
  56   2.0000     -10.279619      -279.7227
  57   2.0000     -10.279498      -279.7194
  58   2.0000     -10.277430      -279.6631
  59   2.0000     -10.276907      -279.6489
  60   2.0000     -10.274090      -279.5722
  61   2.0000     -10.267175      -279.3840
  62   2.0000     -10.265174      -279.3296
  63   2.0000     -10.258711      -279.1537
  64   2.0000     -10.247508      -278.8489
  65   2.0000     -10.230431      -278.3842
  66   2.0000      -8.790646      -239.2056
  67   2.0000      -8.063310      -219.4138
  68   2.0000      -8.059917      -219.3215
  69   2.0000      -8.056403      -219.2259
  70   2.0000      -8.048792      -219.0188
  71   2.0000      -8.047601      -218.9864
  72   2.0000      -8.047525      -218.9843
  73   2.0000      -8.019307      -218.2164
  74   2.0000      -8.014645      -218.0896
  75   2.0000      -6.626709      -180.3219
  76   2.0000      -6.612475      -179.9346
  77   2.0000      -6.612352      -179.9312
  78   2.0000      -6.032993      -164.1661
  79   2.0000      -6.029257      -164.0644
  80   2.0000      -6.028743      -164.0504
  81   2.0000      -6.025550      -163.9636
  82   2.0000      -6.025142      -163.9525
  83   2.0000      -6.024554      -163.9365
  84   2.0000      -6.021776      -163.8609
  85   2.0000      -6.021699      -163.8588
  86   2.0000      -6.018434      -163.7699
  87   2.0000      -6.018333      -163.7672
  88   2.0000      -6.017427      -163.7425
  89   2.0000      -6.017126      -163.7343
  90   2.0000      -6.014383      -163.6597
  91   2.0000      -6.013093      -163.6246
  92   2.0000      -6.012789      -163.6163
  93   2.0000      -6.009948      -163.5390
  94   2.0000      -6.009231      -163.5195
  95   2.0000      -6.008642      -163.5034
  96   2.0000      -5.989828      -162.9915
  97   2.0000      -5.986050      -162.8887
  98   2.0000      -5.985066      -162.8619
  99   2.0000      -5.981084      -162.7536
 100   2.0000      -5.978948      -162.6955
 101   2.0000      -5.974348      -162.5703
 102   2.0000      -2.742652       -74.6314
 103   2.0000      -2.738628       -74.5219
 104   2.0000      -2.738529       -74.5192
 105   2.0000      -2.727223       -74.2115
 106   2.0000      -2.727206       -74.2111
 107   2.0000      -1.122254       -30.5381
 108   2.0000      -1.069201       -29.0944
 109   2.0000      -1.014063       -27.5941
 110   2.0000      -1.011727       -27.5305
 111   2.0000      -1.004756       -27.3408
 112   2.0000      -1.000120       -27.2146
 113   2.0000      -0.997759       -27.1504
 114   2.0000      -0.980684       -26.6858
 115   2.0000      -0.979264       -26.6471
 116   2.0000      -0.978022       -26.6133
 117   2.0000      -0.973694       -26.4956
 118   2.0000      -0.933237       -25.3947
 119   2.0000      -0.922212       -25.0947
 120   2.0000      -0.918892       -25.0043
 121   2.0000      -0.910394       -24.7731
 122   2.0000      -0.903062       -24.5736
 123   2.0000      -0.899003       -24.4631
 124   2.0000      -0.897534       -24.4232
 125   2.0000      -0.885567       -24.0975
 126   2.0000      -0.884438       -24.0668
 127   2.0000      -0.874859       -23.8061
 128   2.0000      -0.872691       -23.7471
 129   2.0000      -0.860927       -23.4270
 130   2.0000      -0.855621       -23.2826
 131   2.0000      -0.846049       -23.0222
 132   2.0000      -0.842662       -22.9300
 133   2.0000      -0.832557       -22.6550
 134   2.0000      -0.826051       -22.4780
 135   2.0000      -0.819402       -22.2971
 136   2.0000      -0.818558       -22.2741
 137   2.0000      -0.817749       -22.2521
 138   2.0000      -0.806376       -21.9426
 139   2.0000      -0.791166       -21.5287
 140   2.0000      -0.783655       -21.3243
 141   2.0000      -0.768948       -20.9241
 142   2.0000      -0.767186       -20.8762
 143   2.0000      -0.760730       -20.7005
 144   2.0000      -0.748446       -20.3663
 145   2.0000      -0.742934       -20.2163
 146   2.0000      -0.727672       -19.8010
 147   2.0000      -0.709852       -19.3161
 148   2.0000      -0.698595       -19.0097
 149   2.0000      -0.695640       -18.9293
 150   2.0000      -0.690920       -18.8009
 151   2.0000      -0.679297       -18.4846
 152   2.0000      -0.675746       -18.3880
 153   2.0000      -0.674062       -18.3422
 154   2.0000      -0.669867       -18.2280
 155   2.0000      -0.658196       -17.9104
 156   2.0000      -0.653329       -17.7780
 157   2.0000      -0.646520       -17.5927
 158   2.0000      -0.643005       -17.4971
 159   2.0000      -0.640254       -17.4222
 160   2.0000      -0.634330       -17.2610
 161   2.0000      -0.627399       -17.0724
 162   2.0000      -0.624628       -16.9970
 163   2.0000      -0.618646       -16.8342
 164   2.0000      -0.615963       -16.7612
 165   2.0000      -0.613346       -16.6900
 166   2.0000      -0.606608       -16.5066
 167   2.0000      -0.598010       -16.2727
 168   2.0000      -0.587889       -15.9973
 169   2.0000      -0.585403       -15.9296
 170   2.0000      -0.578335       -15.7373
 171   2.0000      -0.575956       -15.6726
 172   2.0000      -0.568161       -15.4604
 173   2.0000      -0.553901       -15.0724
 174   2.0000      -0.551709       -15.0128
 175   2.0000      -0.549114       -14.9422
 176   2.0000      -0.545304       -14.8385
 177   2.0000      -0.542319       -14.7573
 178   2.0000      -0.538673       -14.6580
 179   2.0000      -0.536282       -14.5930
 180   2.0000      -0.533700       -14.5227
 181   2.0000      -0.530992       -14.4490
 182   2.0000      -0.530717       -14.4415
 183   2.0000      -0.530120       -14.4253
 184   2.0000      -0.523953       -14.2575
 185   2.0000      -0.521655       -14.1949
 186   2.0000      -0.516393       -14.0518
 187   2.0000      -0.515389       -14.0244
 188   2.0000      -0.513505       -13.9732
 189   2.0000      -0.512184       -13.9372
 190   2.0000      -0.508176       -13.8282
 191   2.0000      -0.506616       -13.7857
 192   2.0000      -0.503044       -13.6885
 193   2.0000      -0.501992       -13.6599
 194   2.0000      -0.499303       -13.5867
 195   2.0000      -0.497421       -13.5355
 196   2.0000      -0.496498       -13.5104
 197   2.0000      -0.487934       -13.2774
 198   2.0000      -0.485865       -13.2211
 199   2.0000      -0.484340       -13.1796
 200   2.0000      -0.481880       -13.1126
 201   2.0000      -0.480878       -13.0854
 202   2.0000      -0.475248       -12.9322
 203   2.0000      -0.473808       -12.8930
 204   2.0000      -0.468556       -12.7501
 205   2.0000      -0.464960       -12.6522
 206   2.0000      -0.464307       -12.6344
 207   2.0000      -0.462010       -12.5719
 208   2.0000      -0.461222       -12.5505
 209   2.0000      -0.459546       -12.5049
 210   2.0000      -0.457385       -12.4461
 211   2.0000      -0.453187       -12.3318
 212   2.0000      -0.452241       -12.3061
 213   2.0000      -0.449408       -12.2290
 214   2.0000      -0.447793       -12.1851
 215   2.0000      -0.443331       -12.0636
 216   2.0000      -0.438796       -11.9402
 217   2.0000      -0.437718       -11.9109
 218   2.0000      -0.436320       -11.8729
 219   2.0000      -0.432937       -11.7808
 220   2.0000      -0.431741       -11.7483
 221   2.0000      -0.430366       -11.7109
 222   2.0000      -0.429343       -11.6830
 223   2.0000      -0.428668       -11.6646
 224   2.0000      -0.427957       -11.6453
 225   2.0000      -0.427667       -11.6374
 226   2.0000      -0.421498       -11.4695
 227   2.0000      -0.419967       -11.4279
 228   2.0000      -0.416363       -11.3298
 229   2.0000      -0.414192       -11.2707
 230   2.0000      -0.412267       -11.2184
 231   2.0000      -0.408324       -11.1111
 232   2.0000      -0.402989       -10.9659
 233   2.0000      -0.402251       -10.9458
 234   2.0000      -0.395751       -10.7689
 235   2.0000      -0.395269       -10.7558
 236   2.0000      -0.391362       -10.6495
 237   2.0000      -0.391250       -10.6465
 238   2.0000      -0.389343       -10.5946
 239   2.0000      -0.385447       -10.4885
 240   2.0000      -0.378494       -10.2993
 241   2.0000      -0.370939       -10.0938
 242   2.0000      -0.368293       -10.0218
 243   2.0000      -0.362833        -9.8732
 244   2.0000      -0.352000        -9.5784
 245   2.0000      -0.346739        -9.4353
 246   2.0000      -0.343663        -9.3515
 247   2.0000      -0.335370        -9.1259
 248   2.0000      -0.327685        -8.9168
 249   2.0000      -0.324286        -8.8243
 250   2.0000      -0.321906        -8.7595
 251   2.0000      -0.310865        -8.4591
 252   2.0000      -0.305055        -8.3010
 253   2.0000      -0.304518        -8.2864
 254   2.0000      -0.298947        -8.1348
 255   2.0000      -0.284656        -7.7459
 256   2.0000      -0.281460        -7.6589
 257   2.0000      -0.272550        -7.4165
 258   2.0000      -0.263036        -7.1576
 259   2.0000      -0.247541        -6.7359
 260   2.0000      -0.206947        -5.6313
 261   0.0000      -0.105710        -2.8765
 262   0.0000      -0.069501        -1.8912
 263   0.0000      -0.050982        -1.3873
 264   0.0000      -0.035130        -0.9559
 265   0.0000      -0.017546        -0.4774

MULLIKEN ATOMIC CHARGES
-----------------------
   0 C :    0.328433
   1 C :   -0.365861
   2 C :   -0.187898
   3 N :    0.135284
   4 C :   -0.187636
   5 N :    0.133179
   6 C :    0.008428
   7 C :    0.000055
   8 C :   -0.064585
   9 C :    0.122854
  10 C :   -0.098864
  11 C :   -0.022162
  12 S :    0.179372
  13 C :   -0.125140
  14 C :    0.050905
  15 Br:    0.015637
  16 C :    0.168534
  17 O :   -0.194816
  18 C :   -0.110512
  19 C :   -0.030603
  20 C :   -0.128695
  21 S :    0.164867
  22 C :   -0.092362
  23 C :    0.087743
  24 C :   -0.021629
  25 S :    0.132300
  26 C :    0.007527
  27 N :   -0.042552
  28 C :   -0.039032
  29 C :    0.024937
  30 C :   -0.009878
  31 C :   -0.008149
  32 C :    0.023594
  33 C :    0.035794
  34 C :   -0.054944
  35 S :    0.081368
  36 C :   -0.028410
  37 C :    0.022475
  38 C :    0.035424
  39 C :   -0.010846
  40 S :    0.108064
  41 C :    0.011440
  42 C :   -0.117313
  43 S :    0.121863
  44 C :   -0.053152
  45 C :   -0.062882
  46 C :   -0.028759
  47 S :   -0.037455
  48 C :   -0.102964
  49 C :    0.004885
  50 S :   -0.074040
  51 C :   -0.082316
  52 C :    0.009923
  53 C :    0.030629
  54 C :    0.015803
  55 C :    0.010855
  56 C :   -0.213321
  57 C :    0.078003
  58 C :    0.184127
  59 N :   -0.183889
  60 C :    0.044189
  61 C :   -0.088414
  62 H :   -0.049348
  63 H :   -0.009779
  64 H :   -0.023591
  65 H :   -0.002307
  66 H :    0.045517
  67 H :   -0.001081
  68 H :    0.022432
  69 H :   -0.012397
  70 H :   -0.009625
  71 H :   -0.010333
  72 H :   -0.012278
  73 H :   -0.008104
  74 H :   -0.007733
  75 H :    0.043415
  76 H :    0.059503
  77 H :    0.013135
  78 H :    0.055506
  79 H :    0.016995
  80 H :    0.048107
  81 H :    0.053287
  82 H :    0.029852
  83 H :    0.031792
  84 H :    0.022676
  85 H :   -0.024881
  86 H :   -0.001851
  87 H :   -0.032942
  88 H :    0.044691
  89 H :    0.005375
  90 H :    0.032110
  91 H :    0.029844
  92 H :    0.019750
  93 H :    0.117102
  94 H :   -0.000339
  95 H :   -0.001220
  96 H :    0.007309
Sum of atomic charges:    0.0000000

LOEWDIN ATOMIC CHARGES
----------------------
   0 C :    0.075794
   1 C :   -0.158827
   2 C :   -0.018599
   3 N :   -0.069261
   4 C :   -0.021699
   5 N :   -0.066716
   6 C :   -0.016187
   7 C :   -0.047957
   8 C :    0.016783
   9 C :   -0.036065
  10 C :   -0.145844
  11 C :   -0.013102
  12 S :    0.426848
  13 C :   -0.278875
  14 C :   -0.070917
  15 Br:    0.144193
  16 C :    0.086626
  17 O :   -0.175741
  18 C :   -0.128373
  19 C :    0.040576
  20 C :   -0.207005
  21 S :    0.490461
  22 C :   -0.133989
  23 C :   -0.086330
  24 C :   -0.173686
  25 S :    0.413461
  26 C :   -0.103304
  27 N :   -0.082139
  28 C :   -0.058458
  29 C :    0.002818
  30 C :   -0.072954
  31 C :   -0.123844
  32 C :   -0.047688
  33 C :   -0.016653
  34 C :   -0.192523
  35 S :    0.395896
  36 C :   -0.162460
  37 C :   -0.045188
  38 C :   -0.015953
  39 C :   -0.156876
  40 S :    0.418347
  41 C :   -0.060007
  42 C :   -0.190785
  43 S :    0.435249
  44 C :   -0.157083
  45 C :   -0.218353
  46 C :   -0.207783
  47 S :    0.281612
  48 C :   -0.122994
  49 C :   -0.080281
  50 S :    0.289461
  51 C :   -0.114342
  52 C :   -0.072792
  53 C :   -0.065741
  54 C :   -0.000541
  55 C :   -0.060115
  56 C :   -0.024177
  57 C :   -0.057169
  58 C :    0.031582
  59 N :   -0.038210
  60 C :    0.017813
  61 C :   -0.158075
  62 H :    0.038752
  63 H :    0.040295
  64 H :    0.023504
  65 H :    0.044398
  66 H :    0.020684
  67 H :    0.038328
  68 H :    0.019335
  69 H :    0.034307
  70 H :    0.034320
  71 H :    0.033585
  72 H :    0.031640
  73 H :    0.034465
  74 H :    0.035403
  75 H :    0.011192
  76 H :    0.000846
  77 H :    0.014384
  78 H :    0.031013
  79 H :    0.023417
  80 H :    0.020336
  81 H :    0.020818
  82 H :    0.034384
  83 H :    0.027802
  84 H :    0.016443
  85 H :    0.025446
  86 H :    0.010372
  87 H :    0.023206
  88 H :    0.038688
  89 H :    0.026833
  90 H :    0.035464
  91 H :    0.036013
  92 H :    0.031949
  93 H :    0.071489
  94 H :    0.023473
  95 H :    0.013613
  96 H :    0.021942

  Mayer bond orders larger than 0.100000
B(  0-C ,  1-C ) :   1.5817 B(  0-C ,  6-C ) :   0.9857 B(  0-C , 18-C ) :   1.1263
B(  1-C ,  2-C ) :   1.1519 B(  1-C ,  4-C ) :   1.1519 B(  2-C ,  3-N ) :   2.9602
B(  4-C ,  5-N ) :   2.9510 B(  6-C ,  7-C ) :   1.2732 B(  6-C , 11-C ) :   1.4248
B(  7-C ,  8-C ) :   1.4281 B(  7-C , 16-C ) :   0.9495 B(  8-C ,  9-C ) :   1.2444
B(  8-C , 62-H ) :   1.0199 B(  9-C , 10-C ) :   1.3145 B(  9-C , 14-C ) :   1.1636
B( 10-C , 11-C ) :   1.3125 B( 10-C , 12-S ) :   1.0834 B( 11-C , 63-H ) :   0.9812
B( 12-S , 13-C ) :   1.0813 B( 13-C , 14-C ) :   1.6145 B( 13-C , 15-Br) :   1.0141
B( 14-C , 64-H ) :   0.9940 B( 16-C , 17-O ) :   2.0409 B( 16-C , 18-C ) :   1.0216
B( 18-C , 19-C ) :   1.4011 B( 19-C , 20-C ) :   1.3896 B( 19-C , 65-H ) :   0.9367
B( 20-C , 21-S ) :   1.0529 B( 20-C , 24-C ) :   1.3272 B( 21-S , 22-C ) :   1.1060
B( 22-C , 23-C ) :   1.2659 B( 22-C , 28-C ) :   1.2812 B( 23-C , 24-C ) :   1.3351
B( 23-C , 27-N ) :   1.3299 B( 24-C , 25-S ) :   1.1117 B( 25-S , 26-C ) :   1.0894
B( 26-C , 27-N ) :   1.7775 B( 26-C , 66-H ) :   0.9637 B( 28-C , 29-C ) :   1.4611
B( 28-C , 67-H ) :   0.9958 B( 29-C , 30-C ) :   1.2516 B( 29-C , 68-H ) :   0.9684
B( 30-C , 31-C ) :   1.4530 B( 30-C , 69-H ) :   0.9870 B( 31-C , 32-C ) :   1.1897
B( 31-C , 35-S ) :   1.0703 B( 32-C , 33-C ) :   1.5322 B( 32-C , 70-H ) :   1.0005
B( 33-C , 34-C ) :   1.2312 B( 33-C , 71-H ) :   0.9948 B( 34-C , 35-S ) :   1.0430
B( 34-C , 36-C ) :   1.4536 B( 36-C , 37-C ) :   1.1940 B( 36-C , 40-S ) :   1.0716
B( 37-C , 38-C ) :   1.5790 B( 37-C , 72-H ) :   0.9942 B( 38-C , 39-C ) :   1.1475
B( 38-C , 73-H ) :   0.9987 B( 39-C , 40-S ) :   1.0448 B( 39-C , 41-C ) :   1.5973
B( 41-C , 42-C ) :   1.1650 B( 41-C , 74-H ) :   0.9408 B( 42-C , 43-S ) :   1.1014
B( 42-C , 46-C ) :   1.4798 B( 43-S , 44-C ) :   1.1373 B( 44-C , 45-C ) :   1.4986
B( 44-C , 53-C ) :   1.1132 B( 45-C , 46-C ) :   1.2802 B( 45-C , 50-S ) :   1.0513
B( 46-C , 47-S ) :   1.0556 B( 47-S , 48-C ) :   0.9617 B( 48-C , 49-C ) :   1.0883
B( 48-C , 75-H ) :   0.9410 B( 48-C , 76-H ) :   0.9421 B( 49-C , 77-H ) :   0.9611
B( 49-C , 78-H ) :   0.9462 B( 49-C , 79-H ) :   0.9654 B( 50-S , 51-C ) :   0.9830
B( 51-C , 52-C ) :   1.0872 B( 51-C , 80-H ) :   0.9535 B( 51-C , 81-H ) :   0.9519
B( 52-C , 82-H ) :   0.9623 B( 52-C , 83-H ) :   0.9675 B( 52-C , 84-H ) :   0.9678
B( 53-C , 54-C ) :   1.6785 B( 53-C , 85-H ) :   0.9567 B( 54-C , 55-C ) :   1.1253
B( 54-C , 86-H ) :   0.9530 B( 55-C , 56-C ) :   1.7693 B( 55-C , 87-H ) :   0.9659
B( 56-C , 57-C ) :   1.0772 B( 56-C , 58-C ) :   0.9954 B( 57-C , 88-H ) :   0.9426
B( 57-C , 89-H ) :   0.9524 B( 57-C , 90-H ) :   0.9469 B( 58-C , 59-N ) :   1.0772
B( 58-C , 91-H ) :   0.9192 B( 58-C , 92-H ) :   0.9344 B( 59-N , 60-C ) :   1.1450
B( 59-N , 93-H ) :   0.9434 B( 60-C , 61-C ) :   1.9087 B( 60-C , 94-H ) :   0.9622
B( 61-C , 95-H ) :   0.9540 B( 61-C , 96-H ) :   0.9526

-----------------------------------------------------------------------------
         ABSORPTION SPECTRUM VIA TRANSITION ELECTRIC DIPOLE MOMENTS
-----------------------------------------------------------------------------
State   Energy  Wavelength   fosc         T2         TX        TY        TZ
        (cm-1)    (nm)                  (au**2)     (au)      (au)      (au)
-----------------------------------------------------------------------------
   0    8598.8   1163.0   0.641862247  24.57435   0.56504   4.46533  -2.07748
   1   16985.9    588.7   0.131575149   2.55012   0.07715   1.33345   0.87526
   2   18317.9    545.9   1.511020627  27.15626   0.13525  -2.26857  -4.68952
   3   19960.7    501.0   0.455883239   7.51889   0.19230  -1.41318  -2.34197
   4   20872.9    479.1   0.232256181   3.66320   0.06931  -1.40089  -1.30227
   5   23217.7    430.7   0.056119399   0.79574  -0.18524  -0.66669  -0.56298
   6   24089.0    415.1   0.159656815   2.18195  -0.59154  -1.04018   0.86606
   7   25459.3    392.8   0.031553306   0.40801  -0.18023  -0.34089   0.50924
   8   26034.2    384.1   0.179413950   2.26875  -0.57226  -0.99923   0.97098
   9   26295.0    380.3   0.144824164   1.81319  -0.06199   1.07929   0.80280
  10   27400.1    365.0   0.003195477   0.03839  -0.01687   0.18010   0.07532
  11   27614.8    362.1   0.002446682   0.02917  -0.16749   0.02782  -0.01846
  12   27764.4    360.2   0.003623282   0.04296  -0.16521  -0.12506   0.00534
  13   28814.9    347.0   0.022570618   0.25787  -0.13782  -0.44249   0.20755
  14   28906.5    345.9   0.120818575   1.37599  -0.34293  -1.02736   0.45047
  15   29496.2    339.0   0.054718915   0.61073  -0.00016   0.64035  -0.44797
  16   30006.3    333.3   0.029953573   0.32863   0.17202   0.09145  -0.53915
  17   30636.5    326.4   0.057706073   0.62010  -0.06689   0.35368   0.70038
  18   31304.7    319.4   0.012707588   0.13364   0.20737  -0.29923  -0.03315
  19   31437.2    318.1   0.138288710   1.44817   0.04609   1.13581   0.39492
  20   32075.7    311.8   0.567463167   5.82422  -0.38889  -2.34717   0.40469
  21   32318.8    309.4   0.012055514   0.12280   0.04413   0.24526  -0.24637
  22   32642.8    306.3   0.008594109   0.08667   0.10585  -0.26210   0.08231
  23   32948.1    303.5   0.064816009   0.64763   0.17305  -0.66535  -0.41831
  24   33075.9    302.3   0.003281698   0.03266  -0.00078  -0.07142  -0.16602
  25   33226.3    301.0   0.007394063   0.07326  -0.01401   0.07454   0.25983
  26   33803.9    295.8   0.267372240   2.60391   0.08999  -1.57410  -0.34352
  27   34100.6    293.2   0.003074503   0.02968  -0.04348  -0.16666   0.00395
  28   34168.6    292.7   0.066630205   0.64198  -0.01814   0.77657   0.19643
  29   34749.8    287.8   0.009829406   0.09312   0.05361   0.15266   0.25874
  30   34834.3    287.1   0.010894896   0.10297  -0.09539  -0.30068  -0.05879
  31   35130.5    284.7   0.002328995   0.02183  -0.07513  -0.10470  -0.07224
  32   35603.0    280.9   0.030489676   0.28193   0.03792   0.27046  -0.45535
  33   35680.7    280.3   0.043406999   0.40050   0.05193  -0.60416  -0.18109
  34   35945.7    278.2   0.067515806   0.61835   0.20824   0.59901  -0.46495
  35   36347.3    275.1   0.021984007   0.19912  -0.05348  -0.21579   0.38690
  36   36767.5    272.0   0.049255307   0.44103  -0.14718   0.64665   0.03469
  37   36807.0    271.7   0.011228312   0.10043  -0.15299   0.25092   0.11859
  38   37036.8    270.0   0.075712478   0.67299   0.09992   0.26326  -0.77052
  39   37314.9    268.0   0.154135103   1.35986  -0.09468  -0.44947   1.07186
  40   37569.4    266.2   0.020400227   0.17876   0.23619  -0.22792  -0.26651
  41   38068.4    262.7   0.014095009   0.12189   0.00545  -0.01255   0.34886
  42   38482.0    259.9   0.024092802   0.20611   0.05288   0.14945  -0.42542
  43   38548.1    259.4   0.001574547   0.01345  -0.11225   0.02909   0.00057
  44   38790.3    257.8   0.023830046   0.20224  -0.07045  -0.26215   0.35855
  45   38992.0    256.5   0.092851356   0.78395  -0.07240  -0.75293  -0.46022
  46   39012.3    256.3   0.037470562   0.31620   0.08826   0.45533   0.31794
  47   39408.5    253.8   0.073795967   0.61648  -0.01075   0.46236   0.63450
  48   39649.9    252.2   0.049049093   0.40725  -0.09609  -0.34769   0.52643
  49   40223.4    248.6   0.010063964   0.08237  -0.05131  -0.18988  -0.20901

FINAL SINGLE POINT ENERGY     -7900.048036827226

DIPOLE MOMENT
-------------
                                X             Y             Z
Electronic contribution:     -5.21823     -51.99534      54.68655
Nuclear contribution   :      5.30488      55.32752     -58.16228
                        -----------------------------------------
Total Dipole Moment    :      0.08665       3.33218      -3.47573
                        -----------------------------------------
Magnitude (a.u.)       :      4.81577
Magnitude (Debye)      :     12.24073

Rotational constants in cm-1:     0.001009     0.000601     0.000387
Rotational constants in MHz :    30.248788    18.004423    11.596157

                             ****ORCA TERMINATED NORMALLY****
TOTAL RUN TIME: 0 days 0 hours 11 minutes 25 seconds 950 msec
