                         Program Version 4.2.0 -  RELEASE  -
|  1> # ORCA input file
|  2> # SCF done       -167.102627999324          0.000729361812
|  3> ! CAM-B3LYP def2-SVP def2/J RIJCOSX Grid4 TightSCF
|  4> %maxcore 5000
|  5> %tddft
|  6>     Mode sTDDFT
|  7>     Ethresh 5.0
|  8>     maxcore 5000
|  9> end
| 10>
| 11> %pal
| 12>   nprocs 6
| 13>   end
| 14> * xyz 0 1
| 15>    C       -4.76588        -0.08924         5.92662
| 16>    C       -4.69357        -1.37498         5.41369
| 17>    C       -3.70333        -2.30224         5.73920
| 18>    N       -2.93614        -3.14991         5.89441
| 19>    C       -5.56330        -1.98085         4.49167
| 20>    N       -6.19285        -2.62057         3.76866
| 21>    C       -3.87383         0.43129         6.96016
| 22>    C       -4.22592         1.77732         7.22045
| 23>    C       -3.58183         2.54014         8.16002
| 24>    C       -2.53690         1.94519         8.88052
| 25>    C       -2.19447         0.60078         8.61433
| 26>    C       -2.85016        -0.17210         7.66195
| 27>    S       -0.88179         0.06281         9.61869
| 28>    C       -0.81308         1.63205        10.37501
| 29>    C       -1.72467         2.51351         9.89964
| 30>   Br        0.45423         1.95685        11.72075
| 31>    C       -5.35976         2.15409         6.34167
| 32>    O       -5.90180         3.24113         6.29784
| 33>    C       -5.67069         0.94596         5.55815
| 34>    C       -6.67147         0.85797         4.59615
| 35>    C       -7.48989         1.89627         4.19938
| 36>    C       -8.46801         1.75201         3.22142
| 37>    C       -9.30896         2.75019         2.69851
| 38>    C      -10.16535         2.30965         1.72228
| 39>    C      -10.03918         0.93976         1.44450
| 40>    S       -8.79983         0.22213         2.45093
| 41>    C      -10.73343         0.15918         0.52933
| 42>    C      -11.72189         0.52998        -0.40234
| 43>    C      -12.18400        -0.50170        -1.17067
| 44>    C      -11.58521        -1.74720        -0.87842
| 45>    S      -10.40465        -1.54862         0.42076
| 46>    C      -11.80293        -2.97125        -1.45295
| 47>    N      -11.14060        -4.06682        -1.02143
| 48>    C      -11.16962        -5.32882        -1.50853
| 49>    S      -12.07078        -5.75799        -2.92556
| 50>    C      -11.44683        -7.37465        -2.79974
| 51>    N      -11.86980        -8.29258        -3.75993
| 52>    O      -11.43743        -9.43000        -3.69294
| 53>    O      -12.64999        -7.87684        -4.60447
| 54>    C      -10.60237        -7.55888        -1.73461
| 55>    C      -10.43368        -6.39531        -0.96672
| 56>    C       -9.65424        -6.27352         0.23914
| 57>    C       -8.65632        -7.09280         0.61740
| 58>    C       -7.95605        -6.90726         1.85578
| 59>    C       -6.85263        -7.54815         2.27177
| 60>    C       -6.09002        -8.56877         1.49665
| 61>    C       -6.26330        -7.19943         3.62003
| 62>    N       -5.55552        -5.93970         3.53920
| 63>    C       -4.47106        -5.60985         4.28506
| 64>    C       -3.70927        -6.42260         5.04749
| 65>    N       -2.62381        -5.92978         5.73856
| 66>    C       -1.73602        -6.66639         6.41316
| 67>    S       -1.82265        -8.40742         6.39450
| 68>    C       -0.41184        -8.47901         7.41019
| 69>    N        0.04940        -9.73242         7.77221
| 70>    O        1.04290        -9.79942         8.48311
| 71>    O       -0.57858       -10.69763         7.34834
| 72>    C        0.08121        -7.23831         7.73472
| 73>    C       -0.65393        -6.18475         7.18120
| 74>    C       -0.36768        -4.77710         7.36124
| 75>    C        0.63111        -4.28415         8.08963
| 76>    H       -3.87246         3.56312         8.34053
| 77>    H       -2.55480        -1.19580         7.50268
| 78>    H       -1.82193         3.52373        10.25316
| 79>    H       -6.81361        -0.09992         4.10651
| 80>    H       -7.36572         2.87002         4.65001
| 81>    H       -9.25810         3.76582         3.04818
| 82>    H      -10.87349         2.93625         1.21036
| 83>    H      -12.06222         1.54588        -0.48856
| 84>    H      -12.93311        -0.40317        -1.93535
| 85>    H      -12.50312        -3.09802        -2.26438
| 86>    H      -10.50514        -3.91592        -0.24257
| 87>    H      -10.15372        -8.51104        -1.51962
| 88>    H       -9.90539        -5.44581         0.89237
| 89>    H       -8.36261        -7.90976        -0.02296
| 90>    H       -8.38491        -6.16006         2.51407
| 91>    H       -6.47100        -8.69815         0.48963
| 92>    H       -6.12757        -9.52983         2.01027
| 93>    H       -5.04375        -8.27017         1.43806
| 94>    H       -5.56074        -7.97380         3.92528
| 95>    H       -7.06233        -7.13915         4.37393
| 96>    H       -6.09063        -5.16323         3.17836
| 97>    H       -4.19404        -4.56834         4.20544
| 98>    H       -3.88680        -7.47983         5.16160
| 99>    H       -2.54300        -4.90814         5.77907
|100>    H        0.95013        -7.12490         8.35586
|101>    H       -1.03154        -4.08899         6.85940
|102>    H        1.33081        -4.90756         8.61781
|103>    H        0.78015        -3.22223         8.17962
|104> *
|105>
|106>                          ****END OF INPUT****

CARTESIAN COORDINATES (ANGSTROEM)
---------------------------------
  C     -4.765880   -0.089240    5.926620
  C     -4.693570   -1.374980    5.413690
  C     -3.703330   -2.302240    5.739200
  N     -2.936140   -3.149910    5.894410
  C     -5.563300   -1.980850    4.491670
  N     -6.192850   -2.620570    3.768660
  C     -3.873830    0.431290    6.960160
  C     -4.225920    1.777320    7.220450
  C     -3.581830    2.540140    8.160020
  C     -2.536900    1.945190    8.880520
  C     -2.194470    0.600780    8.614330
  C     -2.850160   -0.172100    7.661950
  S     -0.881790    0.062810    9.618690
  C     -0.813080    1.632050   10.375010
  C     -1.724670    2.513510    9.899640
  Br     0.454230    1.956850   11.720750
  C     -5.359760    2.154090    6.341670
  O     -5.901800    3.241130    6.297840
  C     -5.670690    0.945960    5.558150
  C     -6.671470    0.857970    4.596150
  C     -7.489890    1.896270    4.199380
  C     -8.468010    1.752010    3.221420
  C     -9.308960    2.750190    2.698510
  C    -10.165350    2.309650    1.722280
  C    -10.039180    0.939760    1.444500
  S     -8.799830    0.222130    2.450930
  C    -10.733430    0.159180    0.529330
  C    -11.721890    0.529980   -0.402340
  C    -12.184000   -0.501700   -1.170670
  C    -11.585210   -1.747200   -0.878420
  S    -10.404650   -1.548620    0.420760
  C    -11.802930   -2.971250   -1.452950
  N    -11.140600   -4.066820   -1.021430
  C    -11.169620   -5.328820   -1.508530
  S    -12.070780   -5.757990   -2.925560
  C    -11.446830   -7.374650   -2.799740
  N    -11.869800   -8.292580   -3.759930
  O    -11.437430   -9.430000   -3.692940
  O    -12.649990   -7.876840   -4.604470
  C    -10.602370   -7.558880   -1.734610
  C    -10.433680   -6.395310   -0.966720
  C     -9.654240   -6.273520    0.239140
  C     -8.656320   -7.092800    0.617400
  C     -7.956050   -6.907260    1.855780
  C     -6.852630   -7.548150    2.271770
  C     -6.090020   -8.568770    1.496650
  C     -6.263300   -7.199430    3.620030
  N     -5.555520   -5.939700    3.539200
  C     -4.471060   -5.609850    4.285060
  C     -3.709270   -6.422600    5.047490
  N     -2.623810   -5.929780    5.738560
  C     -1.736020   -6.666390    6.413160
  S     -1.822650   -8.407420    6.394500
  C     -0.411840   -8.479010    7.410190
  N      0.049400   -9.732420    7.772210
  O      1.042900   -9.799420    8.483110
  O     -0.578580  -10.697630    7.348340
  C      0.081210   -7.238310    7.734720
  C     -0.653930   -6.184750    7.181200
  C     -0.367680   -4.777100    7.361240
  C      0.631110   -4.284150    8.089630
  H     -3.872460    3.563120    8.340530
  H     -2.554800   -1.195800    7.502680
  H     -1.821930    3.523730   10.253160
  H     -6.813610   -0.099920    4.106510
  H     -7.365720    2.870020    4.650010
  H     -9.258100    3.765820    3.048180
  H    -10.873490    2.936250    1.210360
  H    -12.062220    1.545880   -0.488560
  H    -12.933110   -0.403170   -1.935350
  H    -12.503120   -3.098020   -2.264380
  H    -10.505140   -3.915920   -0.242570
  H    -10.153720   -8.511040   -1.519620
  H     -9.905390   -5.445810    0.892370
  H     -8.362610   -7.909760   -0.022960
  H     -8.384910   -6.160060    2.514070
  H     -6.471000   -8.698150    0.489630
  H     -6.127570   -9.529830    2.010270
  H     -5.043750   -8.270170    1.438060
  H     -5.560740   -7.973800    3.925280
  H     -7.062330   -7.139150    4.373930
  H     -6.090630   -5.163230    3.178360
  H     -4.194040   -4.568340    4.205440
  H     -3.886800   -7.479830    5.161600
  H     -2.543000   -4.908140    5.779070
  H      0.950130   -7.124900    8.355860
  H     -1.031540   -4.088990    6.859400
  H      1.330810   -4.907560    8.617810
  H      0.780150   -3.222230    8.179620

 Total Charge           Charge          ....    0
 Multiplicity           Mult            ....    1
 Number of Electrons    NEL             ....  490
 Basis Dimension        Dim             .... 1032

ORBITAL ENERGIES
----------------

  NO   OCC          E(Eh)            E(eV)
   0   2.0000    -482.882722    -13139.9069
   1   2.0000     -89.004025     -2421.9226
   2   2.0000     -88.992731     -2421.6153
   3   2.0000     -88.976274     -2421.1675
   4   2.0000     -88.972589     -2421.0672
   5   2.0000     -88.936386     -2420.0821
   6   2.0000     -62.560376     -1702.3544
   7   2.0000     -56.394323     -1534.5675
   8   2.0000     -56.391608     -1534.4937
   9   2.0000     -56.391584     -1534.4930
  10   2.0000     -19.247855      -523.7608
  11   2.0000     -19.247751      -523.7579
  12   2.0000     -19.210416      -522.7420
  13   2.0000     -19.186906      -522.1023
  14   2.0000     -19.186070      -522.0795
  15   2.0000     -14.659641      -398.9091
  16   2.0000     -14.598911      -397.2566
  17   2.0000     -14.523785      -395.2123
  18   2.0000     -14.426942      -392.5771
  19   2.0000     -14.425754      -392.5447
  20   2.0000     -14.422334      -392.4517
  21   2.0000     -14.410702      -392.1351
  22   2.0000     -10.386275      -282.6249
  23   2.0000     -10.385949      -282.6160
  24   2.0000     -10.363295      -281.9996
  25   2.0000     -10.360619      -281.9268
  26   2.0000     -10.358595      -281.8717
  27   2.0000     -10.355708      -281.7931
  28   2.0000     -10.346908      -281.5537
  29   2.0000     -10.342694      -281.4390
  30   2.0000     -10.339547      -281.3534
  31   2.0000     -10.338811      -281.3333
  32   2.0000     -10.336089      -281.2593
  33   2.0000     -10.335208      -281.2353
  34   2.0000     -10.332574      -281.1636
  35   2.0000     -10.328858      -281.0625
  36   2.0000     -10.326432      -280.9965
  37   2.0000     -10.323971      -280.9295
  38   2.0000     -10.322050      -280.8773
  39   2.0000     -10.321931      -280.8740
  40   2.0000     -10.321737      -280.8687
  41   2.0000     -10.318576      -280.7827
  42   2.0000     -10.311627      -280.5936
  43   2.0000     -10.304636      -280.4034
  44   2.0000     -10.304125      -280.3895
  45   2.0000     -10.303923      -280.3840
  46   2.0000     -10.303686      -280.3775
  47   2.0000     -10.303603      -280.3753
  48   2.0000     -10.300765      -280.2981
  49   2.0000     -10.298285      -280.2306
  50   2.0000     -10.297129      -280.1991
  51   2.0000     -10.293722      -280.1064
  52   2.0000     -10.292163      -280.0640
  53   2.0000     -10.288864      -279.9742
  54   2.0000     -10.287924      -279.9486
  55   2.0000     -10.287422      -279.9350
  56   2.0000     -10.285314      -279.8776
  57   2.0000     -10.284954      -279.8678
  58   2.0000     -10.277102      -279.6542
  59   2.0000     -10.274048      -279.5710
  60   2.0000     -10.273147      -279.5465
  61   2.0000     -10.264971      -279.3240
  62   2.0000     -10.249812      -278.9116
  63   2.0000     -10.247529      -278.8494
  64   2.0000     -10.234616      -278.4981
  65   2.0000      -8.789772      -239.1819
  66   2.0000      -8.099346      -220.3944
  67   2.0000      -8.089067      -220.1147
  68   2.0000      -8.072368      -219.6603
  69   2.0000      -8.068566      -219.5569
  70   2.0000      -8.031960      -218.5608
  71   2.0000      -6.626081      -180.3048
  72   2.0000      -6.611512      -179.9084
  73   2.0000      -6.611296      -179.9025
  74   2.0000      -6.069059      -165.1475
  75   2.0000      -6.064686      -165.0285
  76   2.0000      -6.060712      -164.9204
  77   2.0000      -6.058762      -164.8673
  78   2.0000      -6.054754      -164.7582
  79   2.0000      -6.050042      -164.6300
  80   2.0000      -6.041882      -164.4080
  81   2.0000      -6.038256      -164.3093
  82   2.0000      -6.037899      -164.2996
  83   2.0000      -6.033973      -164.1928
  84   2.0000      -6.033675      -164.1846
  85   2.0000      -6.029785      -164.0788
  86   2.0000      -6.001753      -163.3160
  87   2.0000      -5.997422      -163.1982
  88   2.0000      -5.993134      -163.0815
  89   2.0000      -2.741964       -74.6126
  90   2.0000      -2.737832       -74.5002
  91   2.0000      -2.737717       -74.4971
  92   2.0000      -2.726126       -74.1817
  93   2.0000      -2.726112       -74.1813
  94   2.0000      -1.327619       -36.1264
  95   2.0000      -1.264949       -34.4210
  96   2.0000      -1.146897       -31.2087
  97   2.0000      -1.129305       -30.7300
  98   2.0000      -1.123690       -30.5772
  99   2.0000      -1.083522       -29.4841
 100   2.0000      -1.041744       -28.3473
 101   2.0000      -1.035814       -28.1859
 102   2.0000      -1.026793       -27.9405
 103   2.0000      -1.022492       -27.8234
 104   2.0000      -1.015459       -27.6321
 105   2.0000      -1.012377       -27.5482
 106   2.0000      -1.006197       -27.3800
 107   2.0000      -1.003239       -27.2995
 108   2.0000      -0.988399       -26.8957
 109   2.0000      -0.953739       -25.9526
 110   2.0000      -0.942623       -25.6501
 111   2.0000      -0.940415       -25.5900
 112   2.0000      -0.929672       -25.2977
 113   2.0000      -0.917629       -24.9700
 114   2.0000      -0.907070       -24.6826
 115   2.0000      -0.904581       -24.6149
 116   2.0000      -0.894446       -24.3391
 117   2.0000      -0.883199       -24.0331
 118   2.0000      -0.882064       -24.0022
 119   2.0000      -0.878455       -23.9040
 120   2.0000      -0.870162       -23.6783
 121   2.0000      -0.861313       -23.4375
 122   2.0000      -0.855280       -23.2734
 123   2.0000      -0.851282       -23.1646
 124   2.0000      -0.839571       -22.8459
 125   2.0000      -0.827105       -22.5067
 126   2.0000      -0.821428       -22.3522
 127   2.0000      -0.812980       -22.1223
 128   2.0000      -0.798211       -21.7204
 129   2.0000      -0.791859       -21.5476
 130   2.0000      -0.786560       -21.4034
 131   2.0000      -0.777661       -21.1612
 132   2.0000      -0.766679       -20.8624
 133   2.0000      -0.758408       -20.6373
 134   2.0000      -0.747816       -20.3491
 135   2.0000      -0.738878       -20.1059
 136   2.0000      -0.720466       -19.6049
 137   2.0000      -0.718435       -19.5496
 138   2.0000      -0.700769       -19.0689
 139   2.0000      -0.693465       -18.8701
 140   2.0000      -0.691600       -18.8194
 141   2.0000      -0.680308       -18.5121
 142   2.0000      -0.675932       -18.3930
 143   2.0000      -0.670249       -18.2384
 144   2.0000      -0.662892       -18.0382
 145   2.0000      -0.661954       -18.0127
 146   2.0000      -0.656747       -17.8710
 147   2.0000      -0.651976       -17.7412
 148   2.0000      -0.645985       -17.5781
 149   2.0000      -0.643052       -17.4983
 150   2.0000      -0.640636       -17.4326
 151   2.0000      -0.635274       -17.2867
 152   2.0000      -0.623679       -16.9712
 153   2.0000      -0.622037       -16.9265
 154   2.0000      -0.621181       -16.9032
 155   2.0000      -0.619617       -16.8606
 156   2.0000      -0.602394       -16.3920
 157   2.0000      -0.601390       -16.3646
 158   2.0000      -0.598429       -16.2841
 159   2.0000      -0.593470       -16.1491
 160   2.0000      -0.592076       -16.1112
 161   2.0000      -0.582518       -15.8511
 162   2.0000      -0.582144       -15.8409
 163   2.0000      -0.580579       -15.7984
 164   2.0000      -0.578782       -15.7494
 165   2.0000      -0.571633       -15.5549
 166   2.0000      -0.567778       -15.4500
 167   2.0000      -0.563481       -15.3331
 168   2.0000      -0.561645       -15.2831
 169   2.0000      -0.552329       -15.0296
 170   2.0000      -0.549092       -14.9416
 171   2.0000      -0.544073       -14.8050
 172   2.0000      -0.540464       -14.7068
 173   2.0000      -0.537482       -14.6256
 174   2.0000      -0.536811       -14.6074
 175   2.0000      -0.535085       -14.5604
 176   2.0000      -0.531516       -14.4633
 177   2.0000      -0.530470       -14.4348
 178   2.0000      -0.528815       -14.3898
 179   2.0000      -0.525819       -14.3083
 180   2.0000      -0.524852       -14.2820
 181   2.0000      -0.518724       -14.1152
 182   2.0000      -0.508697       -13.8424
 183   2.0000      -0.507667       -13.8143
 184   2.0000      -0.506055       -13.7704
 185   2.0000      -0.502964       -13.6864
 186   2.0000      -0.501339       -13.6421
 187   2.0000      -0.498020       -13.5518
 188   2.0000      -0.496073       -13.4988
 189   2.0000      -0.494652       -13.4602
 190   2.0000      -0.491763       -13.3815
 191   2.0000      -0.489656       -13.3242
 192   2.0000      -0.489422       -13.3179
 193   2.0000      -0.485834       -13.2202
 194   2.0000      -0.483073       -13.1451
 195   2.0000      -0.479494       -13.0477
 196   2.0000      -0.475605       -12.9419
 197   2.0000      -0.475181       -12.9303
 198   2.0000      -0.471682       -12.8351
 199   2.0000      -0.468450       -12.7472
 200   2.0000      -0.467238       -12.7142
 201   2.0000      -0.462188       -12.5768
 202   2.0000      -0.460442       -12.5293
 203   2.0000      -0.458067       -12.4646
 204   2.0000      -0.454094       -12.3565
 205   2.0000      -0.446871       -12.1600
 206   2.0000      -0.445095       -12.1117
 207   2.0000      -0.438734       -11.9385
 208   2.0000      -0.436832       -11.8868
 209   2.0000      -0.435418       -11.8483
 210   2.0000      -0.434441       -11.8217
 211   2.0000      -0.431508       -11.7419
 212   2.0000      -0.429524       -11.6879
 213   2.0000      -0.426268       -11.5993
 214   2.0000      -0.425084       -11.5671
 215   2.0000      -0.417415       -11.3584
 216   2.0000      -0.416728       -11.3398
 217   2.0000      -0.410219       -11.1626
 218   2.0000      -0.408465       -11.1149
 219   2.0000      -0.395706       -10.7677
 220   2.0000      -0.393416       -10.7054
 221   2.0000      -0.388080       -10.5602
 222   2.0000      -0.387341       -10.5401
 223   2.0000      -0.380757       -10.3609
 224   2.0000      -0.376317       -10.2401
 225   2.0000      -0.376015       -10.2319
 226   2.0000      -0.373745       -10.1701
 227   2.0000      -0.372070       -10.1245
 228   2.0000      -0.368095       -10.0164
 229   2.0000      -0.360711        -9.8154
 230   2.0000      -0.355699        -9.6791
 231   2.0000      -0.352125        -9.5818
 232   2.0000      -0.337958        -9.1963
 233   2.0000      -0.335964        -9.1420
 234   2.0000      -0.330908        -9.0045
 235   2.0000      -0.329841        -8.9754
 236   2.0000      -0.316900        -8.6233
 237   2.0000      -0.312973        -8.5164
 238   2.0000      -0.310212        -8.4413
 239   2.0000      -0.292912        -7.9705
 240   2.0000      -0.289667        -7.8822
 241   2.0000      -0.279970        -7.6184
 242   2.0000      -0.267532        -7.2799
 243   2.0000      -0.240997        -6.5578
 244   2.0000      -0.200822        -5.4647
 245   0.0000      -0.125665        -3.4195
 246   0.0000      -0.076831        -2.0907
 247   0.0000      -0.062598        -1.7034
 248   0.0000      -0.045353        -1.2341
 249   0.0000      -0.028718        -0.7815

MULLIKEN ATOMIC CHARGES
-----------------------
   0 C :    0.344482
   1 C :   -0.373905
   2 C :   -0.131144
   3 N :    0.091987
   4 C :   -0.187461
   5 N :    0.107183
   6 C :    0.012424
   7 C :   -0.010095
   8 C :   -0.073269
   9 C :    0.115906
  10 C :   -0.094656
  11 C :   -0.026987
  12 S :    0.187406
  13 C :   -0.122003
  14 C :    0.036327
  15 Br:    0.022850
  16 C :    0.141131
  17 O :   -0.161439
  18 C :   -0.106413
  19 C :   -0.033833
  20 C :   -0.018779
  21 C :    0.007581
  22 C :    0.019461
  23 C :    0.046200
  24 C :   -0.055711
  25 S :    0.097594
  26 C :   -0.013426
  27 C :    0.018519
  28 C :    0.065872
  29 C :   -0.070798
  30 S :    0.065804
  31 C :    0.076536
  32 N :   -0.025136
  33 C :   -0.125061
  34 S :    0.163427
  35 C :   -0.005441
  36 N :    0.279152
  37 O :   -0.245313
  38 O :   -0.267293
  39 C :    0.012088
  40 C :    0.142765
  41 C :   -0.080091
  42 C :    0.033641
  43 C :   -0.007254
  44 C :   -0.190336
  45 C :    0.096138
  46 C :    0.232358
  47 N :   -0.192622
  48 C :    0.049228
  49 C :   -0.022882
  50 N :   -0.033431
  51 C :   -0.101938
  52 S :    0.096881
  53 C :   -0.028659
  54 N :    0.283352
  55 O :   -0.287773
  56 O :   -0.303030
  57 C :    0.000346
  58 C :    0.096311
  59 C :   -0.021357
  60 C :   -0.034366
  61 H :   -0.013675
  62 H :   -0.009294
  63 H :   -0.005366
  64 H :    0.011145
  65 H :    0.016909
  66 H :    0.001931
  67 H :   -0.001594
  68 H :   -0.000587
  69 H :    0.007815
  70 H :    0.041619
  71 H :    0.159520
  72 H :    0.016228
  73 H :   -0.018244
  74 H :   -0.005593
  75 H :   -0.019111
  76 H :    0.004604
  77 H :    0.036753
  78 H :    0.042365
  79 H :    0.007627
  80 H :    0.013113
  81 H :    0.121078
  82 H :   -0.002836
  83 H :    0.005305
  84 H :    0.136291
  85 H :   -0.006252
  86 H :   -0.034132
  87 H :    0.002577
  88 H :    0.000758
Sum of atomic charges:   -0.0000000

LOEWDIN ATOMIC CHARGES
----------------------
   0 C :    0.085225
   1 C :   -0.186279
   2 C :    0.036212
   3 N :   -0.080401
   4 C :   -0.009027
   5 N :   -0.093578
   6 C :   -0.022068
   7 C :   -0.046942
   8 C :    0.018953
   9 C :   -0.033706
  10 C :   -0.146607
  11 C :   -0.014769
  12 S :    0.433090
  13 C :   -0.272109
  14 C :   -0.070650
  15 Br:    0.135755
  16 C :    0.083655
  17 O :   -0.155279
  18 C :   -0.119862
  19 C :    0.049046
  20 C :   -0.078583
  21 C :   -0.096631
  22 C :   -0.049990
  23 C :   -0.000533
  24 C :   -0.207422
  25 S :    0.411534
  26 C :   -0.128311
  27 C :   -0.051416
  28 C :    0.003521
  29 C :   -0.200593
  30 S :    0.382837
  31 C :    0.042596
  32 N :    0.065704
  33 C :   -0.119921
  34 S :    0.455117
  35 C :   -0.202249
  36 N :    0.274653
  37 O :   -0.212175
  38 O :   -0.233394
  39 C :    0.007201
  40 C :   -0.085589
  41 C :   -0.057841
  42 C :    0.006161
  43 C :   -0.064013
  44 C :   -0.004198
  45 C :   -0.046245
  46 C :    0.050632
  47 N :   -0.028081
  48 C :   -0.006790
  49 C :   -0.088785
  50 N :    0.039266
  51 C :   -0.082795
  52 S :    0.413044
  53 C :   -0.238427
  54 N :    0.272742
  55 O :   -0.253154
  56 O :   -0.268461
  57 C :    0.008137
  58 C :   -0.132187
  59 C :   -0.024739
  60 C :   -0.073481
  61 H :    0.039698
  62 H :    0.039207
  63 H :    0.038155
  64 H :    0.029084
  65 H :    0.039876
  66 H :    0.039809
  67 H :    0.037036
  68 H :    0.037885
  69 H :    0.041917
  70 H :    0.040818
  71 H :    0.086731
  72 H :    0.047905
  73 H :    0.021360
  74 H :    0.028029
  75 H :    0.026070
  76 H :    0.025282
  77 H :    0.041369
  78 H :    0.045078
  79 H :    0.028657
  80 H :    0.020324
  81 H :    0.068681
  82 H :    0.024334
  83 H :    0.007798
  84 H :    0.064897
  85 H :    0.039100
  86 H :    0.021240
  87 H :    0.015663
  88 H :    0.016195

  Mayer bond orders larger than 0.100000
B(  0-C ,  1-C ) :   1.4660 B(  0-C ,  6-C ) :   0.9893 B(  0-C , 18-C ) :   1.1863
B(  1-C ,  2-C ) :   1.2067 B(  1-C ,  4-C ) :   1.1746 B(  2-C ,  3-N ) :   2.8166
B(  3-N , 84-H ) :   0.1146 B(  4-C ,  5-N ) :   2.9074 B(  6-C ,  7-C ) :   1.2708
B(  6-C , 11-C ) :   1.4183 B(  7-C ,  8-C ) :   1.4447 B(  7-C , 16-C ) :   0.9292
B(  8-C ,  9-C ) :   1.2332 B(  8-C , 61-H ) :   1.0152 B(  9-C , 10-C ) :   1.3160
B(  9-C , 14-C ) :   1.1645 B( 10-C , 11-C ) :   1.3240 B( 10-C , 12-S ) :   1.0868
B( 11-C , 62-H ) :   0.9801 B( 12-S , 13-C ) :   1.0874 B( 13-C , 14-C ) :   1.6176
B( 13-C , 15-Br) :   1.0176 B( 14-C , 63-H ) :   1.0001 B( 16-C , 17-O ) :   2.1937
B( 16-C , 18-C ) :   0.9630 B( 18-C , 19-C ) :   1.3999 B( 19-C , 20-C ) :   1.3406
B( 19-C , 64-H ) :   0.9423 B( 20-C , 21-C ) :   1.3440 B( 20-C , 65-H ) :   0.9797
B( 21-C , 22-C ) :   1.2242 B( 21-C , 25-S ) :   1.1064 B( 22-C , 23-C ) :   1.4948
B( 22-C , 66-H ) :   1.0018 B( 23-C , 24-C ) :   1.2564 B( 23-C , 67-H ) :   0.9959
B( 24-C , 25-S ) :   1.0429 B( 24-C , 26-C ) :   1.4206 B( 26-C , 27-C ) :   1.2279
B( 26-C , 30-S ) :   1.1025 B( 27-C , 28-C ) :   1.5585 B( 27-C , 68-H ) :   0.9941
B( 28-C , 29-C ) :   1.1919 B( 28-C , 69-H ) :   0.9957 B( 29-C , 30-S ) :   1.0116
B( 29-C , 31-C ) :   1.5295 B( 31-C , 32-N ) :   1.2191 B( 31-C , 70-H ) :   0.9641
B( 32-N , 33-C ) :   1.1960 B( 32-N , 71-H ) :   0.8936 B( 33-C , 34-S ) :   1.1232
B( 33-C , 40-C ) :   1.3730 B( 34-S , 35-C ) :   1.0795 B( 35-C , 36-N ) :   0.9757
B( 35-C , 39-C ) :   1.4857 B( 36-N , 37-O ) :   1.5330 B( 36-N , 38-O ) :   1.5036
B( 37-O , 38-O ) :   0.2595 B( 39-C , 40-C ) :   1.2452 B( 39-C , 72-H ) :   1.0020
B( 40-C , 41-C ) :   1.0252 B( 41-C , 42-C ) :   1.7558 B( 41-C , 73-H ) :   0.9657
B( 42-C , 43-C ) :   1.0948 B( 42-C , 74-H ) :   0.9743 B( 43-C , 44-C ) :   1.7803
B( 43-C , 75-H ) :   0.9707 B( 44-C , 45-C ) :   1.1039 B( 44-C , 46-C ) :   1.0131
B( 45-C , 76-H ) :   0.9546 B( 45-C , 77-H ) :   0.9414 B( 45-C , 78-H ) :   0.9429
B( 46-C , 47-N ) :   1.0000 B( 46-C , 79-H ) :   0.9304 B( 46-C , 80-H ) :   0.9302
B( 47-N , 48-C ) :   1.1877 B( 47-N , 81-H ) :   0.9269 B( 48-C , 49-C ) :   1.7075
B( 48-C , 82-H ) :   0.9618 B( 49-C , 50-N ) :   1.0446 B( 49-C , 83-H ) :   0.9637
B( 50-N , 51-C ) :   1.3468 B( 50-N , 84-H ) :   0.8727 B( 51-C , 52-S ) :   1.1168
B( 51-C , 58-C ) :   1.2794 B( 52-S , 53-C ) :   1.0317 B( 53-C , 54-N ) :   1.0244
B( 53-C , 57-C ) :   1.4422 B( 54-N , 55-O ) :   1.4999 B( 54-N , 56-O ) :   1.4788
B( 55-O , 56-O ) :   0.2297 B( 57-C , 58-C ) :   1.2800 B( 57-C , 85-H ) :   1.0007
B( 58-C , 59-C ) :   1.0800 B( 59-C , 60-C ) :   1.9606 B( 59-C , 86-H ) :   0.9565
B( 60-C , 87-H ) :   0.9496 B( 60-C , 88-H ) :   0.9465

-----------------------------------------------------------------------------
         ABSORPTION SPECTRUM VIA TRANSITION ELECTRIC DIPOLE MOMENTS
-----------------------------------------------------------------------------
State   Energy  Wavelength   fosc         T2         TX        TY        TZ
        (cm-1)    (nm)                  (au**2)     (au)      (au)      (au)
-----------------------------------------------------------------------------
   0    5218.7   1916.2   0.005713417   0.36042   0.36660  -0.43622   0.18903
   1   10871.3    919.9   1.042663090  31.57465  -3.31812  -2.42719  -3.83059
   2   14540.2    687.7   0.014612226   0.33084  -0.34128  -0.25461  -0.38670
   3   19625.9    509.5   0.099824470   1.67449  -0.82775   0.86401  -0.49274
   4   19807.2    504.9   0.225225905   3.74344   1.20906  -1.32395   0.72717
   5   20399.7    490.2   0.144179968   2.32679  -0.80839   1.24081  -0.36563
   6   21342.6    468.5   0.375499273   5.79213  -0.89936   2.23233   0.00226
   7   21520.3    464.7   0.062178376   0.95119   0.74489   0.01447   0.62938
   8   23888.3    418.6   0.198871810   2.74071   0.14945  -1.58566  -0.45172
   9   24357.4    410.6   0.181344150   2.45103  -0.34595  -1.34213  -0.72803
  10   24852.6    402.4   0.413904015   5.48281  -1.50292   1.19028  -1.34435
  11   25318.0    395.0   0.143766436   1.86940  -0.67740   1.01967  -0.60894
  12   26092.8    383.2   0.286172632   3.61064  -0.58100   1.80479   0.12570
  13   26426.8    378.4   0.007892471   0.09832  -0.00704  -0.27482  -0.15082
  14   26842.8    372.5   0.000108222   0.00133  -0.00643   0.03243   0.01531
  15   27598.1    362.3   0.013400659   0.15985  -0.25269  -0.05555  -0.30482
  16   27747.9    360.4   0.000712828   0.00846   0.07329   0.03174   0.04559
  17   28061.8    356.4   0.241415238   2.83220   1.13255  -0.86504   0.89512
  18   29286.0    341.5   0.002930875   0.03295  -0.12152   0.09093  -0.09955
  19   30115.7    332.1   0.039355044   0.43021  -0.35516   0.53689  -0.12577
  20   30293.5    330.1   0.002705353   0.02940   0.08002   0.13622   0.06664
  21   30583.8    327.0   0.006008025   0.06467  -0.08454   0.23365   0.05416
  22   30754.5    325.2   0.095933060   1.02692  -0.67555  -0.16360  -0.73742
  23   30982.8    322.8   0.006216158   0.06605  -0.15490  -0.09558  -0.18144
  24   31269.0    319.8   0.484595237   5.10200   1.35338   0.60859   1.70293
  25   31781.9    314.6   0.029125031   0.30169   0.08767   0.46021   0.28673
  26   32290.4    309.7   0.000368906   0.00376   0.02935   0.05196   0.01413
  27   32720.2    305.6   0.025957099   0.26117   0.08796   0.40749   0.29560
  28   33282.7    300.5   0.120226162   1.18920  -0.75686   0.00622  -0.78506
  29   33588.5    297.7   0.001201841   0.01178   0.01641   0.07293   0.07868
  30   33698.7    296.7   0.000124462   0.00122  -0.02646   0.02252   0.00290
  31   34307.0    291.5   0.000041367   0.00040   0.00811  -0.01791  -0.00319
  32   34341.7    291.2   0.036968374   0.35439   0.44390   0.08037   0.38844
  33   34795.4    287.4   0.164203306   1.55359  -1.02766  -0.07193  -0.70166
  34   34895.5    286.6   0.346911203   3.27284  -1.43228  -0.29910  -1.06393
  35   35532.2    281.4   0.213710208   1.98006   0.46091   1.05384   0.81058
  36   35648.7    280.5   0.080923329   0.74732   0.59869  -0.54619   0.30095
  37   35716.1    280.0   0.010609652   0.09779   0.24282  -0.14810   0.12999
  38   36154.6    276.6   0.047947055   0.43659  -0.45513  -0.17901  -0.44430
  39   36806.3    271.7   0.118923852   1.06371  -0.76621   0.11738  -0.68034
  40   36997.6    270.3   0.075754552   0.67408  -0.44081  -0.12425  -0.68142
  41   37089.1    269.6   0.002312141   0.02052   0.02882   0.09358   0.10457
  42   37288.3    268.2   0.166435428   1.46943   0.35574  -1.15866   0.01956
  43   37537.3    266.4   0.041391823   0.36302   0.38701   0.35361   0.29699
  44   37839.9    264.3   0.000950463   0.00827   0.01966   0.08356   0.03000
  45   38289.7    261.2   0.055852113   0.48021   0.07200   0.58258   0.36827
  46   38431.7    260.2   0.022817921   0.19546   0.32094   0.02677   0.30289
  47   38745.2    258.1   0.000619666   0.00527   0.04797   0.00903   0.05369
  48   38910.1    257.0   0.004645928   0.03931   0.12445  -0.13406   0.07647
  49   39216.9    255.0   0.010402395   0.08732  -0.19584  -0.02451  -0.21994
  50   39631.7    252.3   0.286016775   2.37588  -0.97288  -0.18295  -1.18148
  51   40089.3    249.4   0.025863897   0.21239   0.17933   0.20498   0.37178

FINAL SINGLE POINT ENERGY     -6975.786383585797

DIPOLE MOMENT
-------------
                                X             Y             Z
Electronic contribution:     64.79321      70.30844      86.36144
Nuclear contribution   :    -70.42742     -64.22180     -89.43404
                        -----------------------------------------
Total Dipole Moment    :     -5.63421       6.08663      -3.07260
                        -----------------------------------------
Magnitude (a.u.)       :      8.84490
Magnitude (Debye)      :     22.48196

Rotational constants in cm-1:     0.001042     0.000435     0.000308
Rotational constants in MHz :    31.240791    13.052216     9.240891

                             ****ORCA TERMINATED NORMALLY****
TOTAL RUN TIME: 0 days 0 hours 8 minutes 10 seconds 231 msec
