                         Program Version 4.2.0 -  RELEASE  -
|  1> # ORCA input file
|  2> # SCF done       -157.510300418310          0.000628577527
|  3> ! CAM-B3LYP def2-SVP def2/J RIJCOSX Grid4 TightSCF
|  4> %maxcore 5000
|  5> %tddft
|  6>     Mode sTDDFT
|  7>     Ethresh 5.0
|  8>     maxcore 5000
|  9> end
| 10>
| 11> %pal
| 12>   nprocs 6
| 13>   end
| 14> * xyz 0 1
| 15>    C       -4.79789        -1.78866        -2.80195
| 16>    C       -4.53847        -1.75186        -4.16462
| 17>    C       -4.39464        -2.89452        -4.95886
| 18>    N       -4.24952        -3.80377        -5.65218
| 19>    C       -4.38147        -0.57430        -4.91331
| 20>    N       -4.25211         0.34267        -5.59630
| 21>    C       -5.05533        -3.01417        -2.03684
| 22>    C       -5.30113        -2.64907        -0.69364
| 23>    C       -5.63599        -3.55900         0.27472
| 24>    C       -5.71134        -4.90785        -0.09774
| 25>    C       -5.42937        -5.26801        -1.43167
| 26>    C       -5.11219        -4.33813        -2.41754
| 27>    S       -5.51939        -6.98965        -1.66233
| 28>    C       -5.94216        -7.19327         0.01640
| 29>    C       -6.01581        -6.03649         0.71346
| 30>   Br       -6.20593        -8.91817         0.71100
| 31>    C       -5.15805        -1.17976        -0.56450
| 32>    O       -5.14098        -0.55731         0.48333
| 33>    C       -4.94581        -0.68013        -1.92876
| 34>    C       -4.75589         0.68585        -2.23893
| 35>    C       -5.35257         1.74190        -1.59775
| 36>    C       -6.49713         1.65696        -0.78090
| 37>    C       -6.97825         2.57885         0.14716
| 38>    C       -8.09094         2.14838         0.85202
| 39>    C       -8.52424         0.88476         0.46788
| 40>    S       -7.56971         0.29501        -0.86440
| 41>    C       -9.42402        -0.02503         1.05225
| 42>    C      -10.35670         0.07617         2.07831
| 43>    C      -10.95530        -1.13001         2.40150
| 44>    C      -10.51458        -2.21707         1.64248
| 45>    S       -9.31542        -1.67072         0.50085
| 46>    C      -10.88556        -3.55759         1.79564
| 47>    C      -10.48248        -4.66959         1.09389
| 48>    S      -11.00842        -6.25432         1.70371
| 49>    C      -10.17340        -7.18213         0.46969
| 50>    C       -9.54744        -6.27213        -0.42120
| 51>    C       -9.70757        -4.91116        -0.07110
| 52>    N       -9.08114        -4.20625        -1.03822
| 53>    N       -8.54326        -5.00277        -1.96291
| 54>    C       -8.80906        -6.24363        -1.62323
| 55>    C      -10.16476        -8.55963         0.47565
| 56>    C       -9.42392        -9.29285        -0.44671
| 57>    C       -9.28993       -10.65847        -0.50598
| 58>    C       -8.43866       -11.26818        -1.43248
| 59>    C       -8.18412       -12.63266        -1.61130
| 60>    C       -7.26770       -12.90792        -2.59927
| 61>    C       -6.76346       -11.76538        -3.23299
| 62>    S       -7.48440       -10.32978        -2.55502
| 63>    C       -5.82131       -11.67870        -4.25725
| 64>    C       -5.18005       -12.74120        -4.92272
| 65>    C       -4.30693       -12.33362        -5.89010
| 66>    C       -4.21753       -10.92996        -6.02897
| 67>    S       -5.28623       -10.14171        -4.88122
| 68>    C       -3.42648       -10.24446        -6.91757
| 69>    C       -3.34974        -8.84949        -7.03396
| 70>    O       -4.07315        -8.00852        -6.24445
| 71>    C       -3.77571        -6.75761        -6.60157
| 72>    C       -2.86283        -6.73356        -7.61981
| 73>    C       -2.57576        -8.07959        -7.91299
| 74>    O       -1.74024        -8.58848        -8.83654
| 75>    H       -5.83196        -3.24694         1.28877
| 76>    H       -4.92129        -4.66530        -3.42486
| 77>    H       -6.26149        -5.97870         1.75853
| 78>    H       -4.04672         0.92002        -3.02370
| 79>    H       -4.94954         2.73470        -1.75064
| 80>    H       -6.47428         3.51006         0.33755
| 81>    H       -8.55208         2.70443         1.64906
| 82>    H      -10.58014         1.00820         2.56546
| 83>    H      -11.69425        -1.24046         3.17575
| 84>    H      -11.56275        -3.74880         2.61963
| 85>    H       -8.98817        -3.21010        -1.14446
| 86>    H       -8.47808        -7.04014        -2.25807
| 87>    H      -10.72077        -9.07579         1.24518
| 88>    H       -8.86680        -8.72913        -1.17929
| 89>    H       -9.82516       -11.29631         0.18308
| 90>    H       -8.67128       -13.38349        -1.01479
| 91>    H       -6.95327       -13.90065        -2.86657
| 92>    H       -5.37668       -13.76975        -4.67975
| 93>    H       -3.72598       -12.99610        -6.50684
| 94>    H       -2.79937       -10.80422        -7.59601
| 95>    H       -4.24987        -5.94550        -6.08308
| 96>    H       -2.45650        -5.86153        -8.08990
| 97>    H       -1.31810        -7.86958        -9.32246
| 98> *
| 99>
|100>                          ****END OF INPUT****

CARTESIAN COORDINATES (ANGSTROEM)
---------------------------------
  C     -4.797890   -1.788660   -2.801950
  C     -4.538470   -1.751860   -4.164620
  C     -4.394640   -2.894520   -4.958860
  N     -4.249520   -3.803770   -5.652180
  C     -4.381470   -0.574300   -4.913310
  N     -4.252110    0.342670   -5.596300
  C     -5.055330   -3.014170   -2.036840
  C     -5.301130   -2.649070   -0.693640
  C     -5.635990   -3.559000    0.274720
  C     -5.711340   -4.907850   -0.097740
  C     -5.429370   -5.268010   -1.431670
  C     -5.112190   -4.338130   -2.417540
  S     -5.519390   -6.989650   -1.662330
  C     -5.942160   -7.193270    0.016400
  C     -6.015810   -6.036490    0.713460
  Br    -6.205930   -8.918170    0.711000
  C     -5.158050   -1.179760   -0.564500
  O     -5.140980   -0.557310    0.483330
  C     -4.945810   -0.680130   -1.928760
  C     -4.755890    0.685850   -2.238930
  C     -5.352570    1.741900   -1.597750
  C     -6.497130    1.656960   -0.780900
  C     -6.978250    2.578850    0.147160
  C     -8.090940    2.148380    0.852020
  C     -8.524240    0.884760    0.467880
  S     -7.569710    0.295010   -0.864400
  C     -9.424020   -0.025030    1.052250
  C    -10.356700    0.076170    2.078310
  C    -10.955300   -1.130010    2.401500
  C    -10.514580   -2.217070    1.642480
  S     -9.315420   -1.670720    0.500850
  C    -10.885560   -3.557590    1.795640
  C    -10.482480   -4.669590    1.093890
  S    -11.008420   -6.254320    1.703710
  C    -10.173400   -7.182130    0.469690
  C     -9.547440   -6.272130   -0.421200
  C     -9.707570   -4.911160   -0.071100
  N     -9.081140   -4.206250   -1.038220
  N     -8.543260   -5.002770   -1.962910
  C     -8.809060   -6.243630   -1.623230
  C    -10.164760   -8.559630    0.475650
  C     -9.423920   -9.292850   -0.446710
  C     -9.289930  -10.658470   -0.505980
  C     -8.438660  -11.268180   -1.432480
  C     -8.184120  -12.632660   -1.611300
  C     -7.267700  -12.907920   -2.599270
  C     -6.763460  -11.765380   -3.232990
  S     -7.484400  -10.329780   -2.555020
  C     -5.821310  -11.678700   -4.257250
  C     -5.180050  -12.741200   -4.922720
  C     -4.306930  -12.333620   -5.890100
  C     -4.217530  -10.929960   -6.028970
  S     -5.286230  -10.141710   -4.881220
  C     -3.426480  -10.244460   -6.917570
  C     -3.349740   -8.849490   -7.033960
  O     -4.073150   -8.008520   -6.244450
  C     -3.775710   -6.757610   -6.601570
  C     -2.862830   -6.733560   -7.619810
  C     -2.575760   -8.079590   -7.912990
  O     -1.740240   -8.588480   -8.836540
  H     -5.831960   -3.246940    1.288770
  H     -4.921290   -4.665300   -3.424860
  H     -6.261490   -5.978700    1.758530
  H     -4.046720    0.920020   -3.023700
  H     -4.949540    2.734700   -1.750640
  H     -6.474280    3.510060    0.337550
  H     -8.552080    2.704430    1.649060
  H    -10.580140    1.008200    2.565460
  H    -11.694250   -1.240460    3.175750
  H    -11.562750   -3.748800    2.619630
  H     -8.988170   -3.210100   -1.144460
  H     -8.478080   -7.040140   -2.258070
  H    -10.720770   -9.075790    1.245180
  H     -8.866800   -8.729130   -1.179290
  H     -9.825160  -11.296310    0.183080
  H     -8.671280  -13.383490   -1.014790
  H     -6.953270  -13.900650   -2.866570
  H     -5.376680  -13.769750   -4.679750
  H     -3.725980  -12.996100   -6.506840
  H     -2.799370  -10.804220   -7.596010
  H     -4.249870   -5.945500   -6.083080
  H     -2.456500   -5.861530   -8.089900
  H     -1.318100   -7.869580   -9.322460

 Total Charge           Charge          ....    0
 Multiplicity           Mult            ....    1
 Number of Electrons    NEL             ....  482
 Basis Dimension        Dim             ....  997

ORBITAL ENERGIES
----------------

  NO   OCC          E(Eh)            E(eV)
   0   2.0000    -482.868515    -13139.5203
   1   2.0000     -88.975439     -2421.1448
   2   2.0000     -88.968952     -2420.9683
   3   2.0000     -88.958283     -2420.6779
   4   2.0000     -88.954357     -2420.5711
   5   2.0000     -88.949584     -2420.4412
   6   2.0000     -88.926089     -2419.8019
   7   2.0000     -62.545724     -1701.9557
   8   2.0000     -56.379638     -1534.1680
   9   2.0000     -56.377016     -1534.0966
  10   2.0000     -56.376966     -1534.0952
  11   2.0000     -19.315288      -525.5957
  12   2.0000     -19.291787      -524.9562
  13   2.0000     -19.154174      -521.2116
  14   2.0000     -14.489332      -394.2748
  15   2.0000     -14.430350      -392.6698
  16   2.0000     -14.371376      -391.0650
  17   2.0000     -14.354694      -390.6111
  18   2.0000     -10.374599      -282.3072
  19   2.0000     -10.352116      -281.6954
  20   2.0000     -10.349465      -281.6233
  21   2.0000     -10.347577      -281.5719
  22   2.0000     -10.333469      -281.1880
  23   2.0000     -10.332951      -281.1739
  24   2.0000     -10.331526      -281.1351
  25   2.0000     -10.331353      -281.1304
  26   2.0000     -10.328528      -281.0535
  27   2.0000     -10.327986      -281.0388
  28   2.0000     -10.322501      -280.8895
  29   2.0000     -10.318475      -280.7800
  30   2.0000     -10.318330      -280.7760
  31   2.0000     -10.314093      -280.6607
  32   2.0000     -10.309357      -280.5319
  33   2.0000     -10.308794      -280.5165
  34   2.0000     -10.306912      -280.4653
  35   2.0000     -10.305484      -280.4265
  36   2.0000     -10.301281      -280.3121
  37   2.0000     -10.299122      -280.2534
  38   2.0000     -10.295720      -280.1608
  39   2.0000     -10.292773      -280.0806
  40   2.0000     -10.291412      -280.0436
  41   2.0000     -10.289330      -279.9869
  42   2.0000     -10.286127      -279.8997
  43   2.0000     -10.283740      -279.8348
  44   2.0000     -10.283363      -279.8245
  45   2.0000     -10.282515      -279.8015
  46   2.0000     -10.281564      -279.7756
  47   2.0000     -10.280520      -279.7472
  48   2.0000     -10.280334      -279.7421
  49   2.0000     -10.279796      -279.7275
  50   2.0000     -10.272453      -279.5277
  51   2.0000     -10.272006      -279.5155
  52   2.0000     -10.269846      -279.4567
  53   2.0000     -10.269443      -279.4457
  54   2.0000     -10.264219      -279.3036
  55   2.0000     -10.263947      -279.2962
  56   2.0000     -10.263385      -279.2809
  57   2.0000     -10.262690      -279.2620
  58   2.0000     -10.260301      -279.1970
  59   2.0000     -10.247379      -278.8454
  60   2.0000     -10.246835      -278.8305
  61   2.0000     -10.246580      -278.8236
  62   2.0000     -10.236004      -278.5358
  63   2.0000     -10.223034      -278.1829
  64   2.0000      -8.774989      -238.7796
  65   2.0000      -8.071033      -219.6240
  66   2.0000      -8.064497      -219.4461
  67   2.0000      -8.053931      -219.1586
  68   2.0000      -8.050471      -219.0644
  69   2.0000      -8.044910      -218.9131
  70   2.0000      -8.021427      -218.2741
  71   2.0000      -6.610987      -179.8941
  72   2.0000      -6.596868      -179.5099
  73   2.0000      -6.596729      -179.5061
  74   2.0000      -6.040617      -164.3736
  75   2.0000      -6.036373      -164.2581
  76   2.0000      -6.033924      -164.1914
  77   2.0000      -6.032432      -164.1508
  78   2.0000      -6.029952      -164.0833
  79   2.0000      -6.026114      -163.9789
  80   2.0000      -6.023761      -163.9149
  81   2.0000      -6.019864      -163.8088
  82   2.0000      -6.019597      -163.8016
  83   2.0000      -6.015750      -163.6969
  84   2.0000      -6.014906      -163.6739
  85   2.0000      -6.014669      -163.6675
  86   2.0000      -6.012209      -163.6005
  87   2.0000      -6.010428      -163.5521
  88   2.0000      -6.006180      -163.4365
  89   2.0000      -5.990856      -163.0195
  90   2.0000      -5.986725      -162.9071
  91   2.0000      -5.983243      -162.8123
  92   2.0000      -2.726936       -74.2037
  93   2.0000      -2.722964       -74.0956
  94   2.0000      -2.722835       -74.0921
  95   2.0000      -2.711631       -73.7872
  96   2.0000      -2.711618       -73.7869
  97   2.0000      -1.236807       -33.6552
  98   2.0000      -1.183332       -32.2001
  99   2.0000      -1.148456       -31.2511
 100   2.0000      -1.068940       -29.0873
 101   2.0000      -1.019809       -27.7504
 102   2.0000      -0.996776       -27.1236
 103   2.0000      -0.993664       -27.0390
 104   2.0000      -0.987183       -26.8626
 105   2.0000      -0.984707       -26.7952
 106   2.0000      -0.966862       -26.3096
 107   2.0000      -0.956022       -26.0147
 108   2.0000      -0.945500       -25.7284
 109   2.0000      -0.939061       -25.5532
 110   2.0000      -0.933770       -25.4092
 111   2.0000      -0.927484       -25.2381
 112   2.0000      -0.916743       -24.9458
 113   2.0000      -0.911617       -24.8064
 114   2.0000      -0.904084       -24.6014
 115   2.0000      -0.892956       -24.2986
 116   2.0000      -0.880164       -23.9505
 117   2.0000      -0.872538       -23.7430
 118   2.0000      -0.865918       -23.5628
 119   2.0000      -0.860691       -23.4206
 120   2.0000      -0.854909       -23.2633
 121   2.0000      -0.849920       -23.1275
 122   2.0000      -0.846481       -23.0339
 123   2.0000      -0.841766       -22.9056
 124   2.0000      -0.838954       -22.8291
 125   2.0000      -0.831067       -22.6145
 126   2.0000      -0.820771       -22.3343
 127   2.0000      -0.802488       -21.8368
 128   2.0000      -0.799180       -21.7468
 129   2.0000      -0.793006       -21.5788
 130   2.0000      -0.782402       -21.2902
 131   2.0000      -0.765856       -20.8400
 132   2.0000      -0.750294       -20.4165
 133   2.0000      -0.744256       -20.2522
 134   2.0000      -0.732126       -19.9222
 135   2.0000      -0.717617       -19.5273
 136   2.0000      -0.710253       -19.3270
 137   2.0000      -0.706387       -19.2218
 138   2.0000      -0.705829       -19.2066
 139   2.0000      -0.692490       -18.8436
 140   2.0000      -0.690327       -18.7847
 141   2.0000      -0.683462       -18.5980
 142   2.0000      -0.671813       -18.2810
 143   2.0000      -0.669330       -18.2134
 144   2.0000      -0.659040       -17.9334
 145   2.0000      -0.651230       -17.7209
 146   2.0000      -0.646064       -17.5803
 147   2.0000      -0.642064       -17.4714
 148   2.0000      -0.640437       -17.4272
 149   2.0000      -0.633482       -17.2379
 150   2.0000      -0.629020       -17.1165
 151   2.0000      -0.628034       -17.0897
 152   2.0000      -0.617058       -16.7910
 153   2.0000      -0.614890       -16.7320
 154   2.0000      -0.607648       -16.5349
 155   2.0000      -0.601467       -16.3668
 156   2.0000      -0.596664       -16.2360
 157   2.0000      -0.587681       -15.9916
 158   2.0000      -0.584388       -15.9020
 159   2.0000      -0.581728       -15.8296
 160   2.0000      -0.577687       -15.7197
 161   2.0000      -0.570972       -15.5369
 162   2.0000      -0.561548       -15.2805
 163   2.0000      -0.555239       -15.1088
 164   2.0000      -0.551439       -15.0054
 165   2.0000      -0.550673       -14.9846
 166   2.0000      -0.549034       -14.9400
 167   2.0000      -0.541443       -14.7334
 168   2.0000      -0.536985       -14.6121
 169   2.0000      -0.532616       -14.4932
 170   2.0000      -0.531007       -14.4494
 171   2.0000      -0.521832       -14.1998
 172   2.0000      -0.520134       -14.1536
 173   2.0000      -0.519162       -14.1271
 174   2.0000      -0.513574       -13.9751
 175   2.0000      -0.510013       -13.8782
 176   2.0000      -0.509432       -13.8624
 177   2.0000      -0.507138       -13.7999
 178   2.0000      -0.504955       -13.7405
 179   2.0000      -0.500981       -13.6324
 180   2.0000      -0.496365       -13.5068
 181   2.0000      -0.494719       -13.4620
 182   2.0000      -0.491430       -13.3725
 183   2.0000      -0.491032       -13.3617
 184   2.0000      -0.488532       -13.2936
 185   2.0000      -0.486862       -13.2482
 186   2.0000      -0.480189       -13.0666
 187   2.0000      -0.479071       -13.0362
 188   2.0000      -0.470788       -12.8108
 189   2.0000      -0.470037       -12.7904
 190   2.0000      -0.466326       -12.6894
 191   2.0000      -0.465423       -12.6648
 192   2.0000      -0.462007       -12.5718
 193   2.0000      -0.460186       -12.5223
 194   2.0000      -0.458001       -12.4628
 195   2.0000      -0.455444       -12.3933
 196   2.0000      -0.454628       -12.3710
 197   2.0000      -0.451242       -12.2789
 198   2.0000      -0.447582       -12.1793
 199   2.0000      -0.440912       -11.9978
 200   2.0000      -0.440503       -11.9867
 201   2.0000      -0.436929       -11.8894
 202   2.0000      -0.435597       -11.8532
 203   2.0000      -0.431400       -11.7390
 204   2.0000      -0.429924       -11.6988
 205   2.0000      -0.425021       -11.5654
 206   2.0000      -0.421868       -11.4796
 207   2.0000      -0.417701       -11.3662
 208   2.0000      -0.416883       -11.3440
 209   2.0000      -0.412885       -11.2352
 210   2.0000      -0.410723       -11.1764
 211   2.0000      -0.406249       -11.0546
 212   2.0000      -0.404467       -11.0061
 213   2.0000      -0.392939       -10.6924
 214   2.0000      -0.386974       -10.5301
 215   2.0000      -0.381874       -10.3913
 216   2.0000      -0.380847       -10.3634
 217   2.0000      -0.376255       -10.2384
 218   2.0000      -0.371568       -10.1109
 219   2.0000      -0.363694        -9.8966
 220   2.0000      -0.362587        -9.8665
 221   2.0000      -0.362139        -9.8543
 222   2.0000      -0.360916        -9.8210
 223   2.0000      -0.360115        -9.7992
 224   2.0000      -0.356629        -9.7044
 225   2.0000      -0.353210        -9.6113
 226   2.0000      -0.340452        -9.2642
 227   2.0000      -0.338398        -9.2083
 228   2.0000      -0.334659        -9.1065
 229   2.0000      -0.328745        -8.9456
 230   2.0000      -0.323260        -8.7964
 231   2.0000      -0.318289        -8.6611
 232   2.0000      -0.303985        -8.2719
 233   2.0000      -0.293306        -7.9813
 234   2.0000      -0.285414        -7.7665
 235   2.0000      -0.280418        -7.6305
 236   2.0000      -0.275753        -7.5036
 237   2.0000      -0.261619        -7.1190
 238   2.0000      -0.247275        -6.7287
 239   2.0000      -0.221951        -6.0396
 240   2.0000      -0.189935        -5.1684
 241   0.0000      -0.117611        -3.2004
 242   0.0000      -0.071246        -1.9387
 243   0.0000      -0.039407        -1.0723
 244   0.0000      -0.022248        -0.6054
 245   0.0000      -0.008244        -0.2243

MULLIKEN ATOMIC CHARGES
-----------------------
   0 C :    0.322283
   1 C :   -0.407526
   2 C :   -0.162692
   3 N :    0.068877
   4 C :   -0.220934
   5 N :    0.117414
   6 C :    0.028327
   7 C :    0.001702
   8 C :   -0.109860
   9 C :    0.105825
  10 C :   -0.061225
  11 C :   -0.028360
  12 S :    0.124825
  13 C :   -0.141320
  14 C :    0.051548
  15 Br:   -0.009480
  16 C :    0.113799
  17 O :   -0.174162
  18 C :   -0.214658
  19 C :    0.015959
  20 C :    0.010511
  21 C :   -0.017606
  22 C :    0.028012
  23 C :    0.026184
  24 C :   -0.051876
  25 S :    0.086020
  26 C :    0.015869
  27 C :    0.004284
  28 C :    0.036033
  29 C :   -0.072805
  30 S :    0.041362
  31 C :    0.076779
  32 C :   -0.193133
  33 S :    0.107116
  34 C :   -0.027646
  35 C :   -0.020787
  36 C :    0.157888
  37 N :   -0.017644
  38 N :   -0.053945
  39 C :   -0.010232
  40 C :   -0.003537
  41 C :    0.053677
  42 C :   -0.004066
  43 C :   -0.009392
  44 C :    0.009988
  45 C :    0.046647
  46 C :   -0.066596
  47 S :    0.091412
  48 C :   -0.013708
  49 C :    0.008931
  50 C :    0.061724
  51 C :   -0.053678
  52 S :    0.160445
  53 C :    0.013803
  54 C :    0.065920
  55 O :   -0.202374
  56 C :    0.217889
  57 C :   -0.087757
  58 C :    0.151025
  59 O :   -0.168556
  60 H :   -0.027378
  61 H :   -0.042304
  62 H :   -0.014240
  63 H :    0.017367
  64 H :   -0.020388
  65 H :   -0.025497
  66 H :   -0.022965
  67 H :   -0.014988
  68 H :   -0.011962
  69 H :   -0.010671
  70 H :    0.154601
  71 H :    0.014155
  72 H :   -0.026987
  73 H :   -0.011324
  74 H :   -0.016062
  75 H :   -0.010223
  76 H :   -0.007889
  77 H :   -0.007029
  78 H :    0.002122
  79 H :    0.021540
  80 H :    0.031097
  81 H :    0.007781
  82 H :    0.204718
Sum of atomic charges:   -0.0000000

LOEWDIN ATOMIC CHARGES
----------------------
   0 C :    0.066237
   1 C :   -0.215450
   2 C :    0.012416
   3 N :   -0.145104
   4 C :   -0.027002
   5 N :   -0.103407
   6 C :   -0.005858
   7 C :   -0.043229
   8 C :   -0.000328
   9 C :   -0.050640
  10 C :   -0.145461
  11 C :   -0.027211
  12 S :    0.404950
  13 C :   -0.291687
  14 C :   -0.066177
  15 Br:    0.121738
  16 C :    0.046814
  17 O :   -0.184147
  18 C :   -0.175120
  19 C :    0.022093
  20 C :   -0.085940
  21 C :   -0.106495
  22 C :   -0.068694
  23 C :   -0.025037
  24 C :   -0.218520
  25 S :    0.454390
  26 C :   -0.133443
  27 C :   -0.073781
  28 C :   -0.019076
  29 C :   -0.201625
  30 S :    0.433207
  31 C :   -0.026376
  32 C :   -0.195584
  33 S :    0.403846
  34 C :   -0.097166
  35 C :   -0.112247
  36 C :   -0.008362
  37 N :    0.126863
  38 N :   -0.055488
  39 C :   -0.034877
  40 C :   -0.089695
  41 C :    0.024172
  42 C :   -0.088960
  43 C :   -0.107197
  44 C :   -0.065449
  45 C :   -0.005357
  46 C :   -0.214707
  47 S :    0.420009
  48 C :   -0.128142
  49 C :   -0.057745
  50 C :    0.006767
  51 C :   -0.183869
  52 S :    0.437546
  53 C :    0.016239
  54 C :   -0.038365
  55 O :    0.014689
  56 C :    0.126053
  57 C :   -0.105224
  58 C :    0.055373
  59 O :   -0.027514
  60 H :    0.032998
  61 H :    0.030652
  62 H :    0.034524
  63 H :    0.037422
  64 H :    0.030476
  65 H :    0.028314
  66 H :    0.028302
  67 H :    0.032510
  68 H :    0.032574
  69 H :    0.040350
  70 H :    0.056139
  71 H :    0.014780
  72 H :    0.028766
  73 H :    0.020660
  74 H :    0.033034
  75 H :    0.034365
  76 H :    0.034378
  77 H :    0.034055
  78 H :    0.039451
  79 H :    0.055271
  80 H :    0.028339
  81 H :    0.042873
  82 H :    0.112121

  Mayer bond orders larger than 0.100000
B(  0-C ,  1-C ) :   1.4462 B(  0-C ,  6-C ) :   0.9576 B(  0-C , 18-C ) :   1.3122
B(  1-C ,  2-C ) :   1.1914 B(  1-C ,  4-C ) :   1.1639 B(  2-C ,  3-N ) :   2.9110
B(  3-N , 80-H ) :   0.1248 B(  4-C ,  5-N ) :   2.9873 B(  6-C ,  7-C ) :   1.2863
B(  6-C , 11-C ) :   1.4465 B(  7-C ,  8-C ) :   1.4461 B(  7-C , 16-C ) :   0.8980
B(  8-C ,  9-C ) :   1.2090 B(  8-C , 60-H ) :   1.0191 B(  9-C , 10-C ) :   1.3544
B(  9-C , 14-C ) :   1.1528 B( 10-C , 11-C ) :   1.2930 B( 10-C , 12-S ) :   1.0573
B( 11-C , 61-H ) :   0.9778 B( 12-S , 13-C ) :   1.0800 B( 13-C , 14-C ) :   1.6162
B( 13-C , 15-Br) :   0.9998 B( 14-C , 62-H ) :   1.0018 B( 16-C , 17-O ) :   2.2198
B( 16-C , 18-C ) :   1.0148 B( 18-C , 19-C ) :   1.1485 B( 19-C , 20-C ) :   1.6361
B( 19-C , 63-H ) :   0.9514 B( 20-C , 21-C ) :   1.1861 B( 20-C , 64-H ) :   0.9624
B( 21-C , 22-C ) :   1.4035 B( 21-C , 25-S ) :   1.1424 B( 22-C , 23-C ) :   1.3398
B( 22-C , 65-H ) :   0.9950 B( 23-C , 24-C ) :   1.4237 B( 23-C , 66-H ) :   0.9948
B( 24-C , 25-S ) :   1.0804 B( 24-C , 26-C ) :   1.1954 B( 26-C , 27-C ) :   1.4094
B( 26-C , 30-S ) :   1.1316 B( 27-C , 28-C ) :   1.3493 B( 27-C , 67-H ) :   0.9973
B( 28-C , 29-C ) :   1.3676 B( 28-C , 68-H ) :   0.9988 B( 29-C , 30-S ) :   1.0440
B( 29-C , 31-C ) :   1.2986 B( 31-C , 32-C ) :   1.5273 B( 31-C , 69-H ) :   0.9333
B( 32-C , 33-S ) :   1.0137 B( 32-C , 36-C ) :   1.1411 B( 33-S , 34-C ) :   1.0989
B( 34-C , 35-C ) :   1.1427 B( 34-C , 40-C ) :   1.4137 B( 35-C , 36-C ) :   1.3564
B( 35-C , 39-C ) :   1.2135 B( 36-C , 37-N ) :   1.2229 B( 37-N , 38-N ) :   1.1629
B( 37-N , 70-H ) :   0.9213 B( 38-N , 39-C ) :   1.6791 B( 39-C , 71-H ) :   0.9820
B( 40-C , 41-C ) :   1.3310 B( 40-C , 72-H ) :   0.9724 B( 41-C , 42-C ) :   1.4199
B( 41-C , 73-H ) :   0.9642 B( 42-C , 43-C ) :   1.2989 B( 42-C , 74-H ) :   0.9890
B( 43-C , 44-C ) :   1.2818 B( 43-C , 47-S ) :   1.1194 B( 44-C , 45-C ) :   1.4367
B( 44-C , 75-H ) :   1.0004 B( 45-C , 46-C ) :   1.3140 B( 45-C , 76-H ) :   0.9944
B( 46-C , 47-S ) :   1.0635 B( 46-C , 48-C ) :   1.3445 B( 48-C , 49-C ) :   1.2562
B( 48-C , 52-S ) :   1.1220 B( 49-C , 50-C ) :   1.5148 B( 49-C , 77-H ) :   0.9967
B( 50-C , 51-C ) :   1.1984 B( 50-C , 78-H ) :   0.9996 B( 51-C , 52-S ) :   1.0345
B( 51-C , 53-C ) :   1.4746 B( 53-C , 54-C ) :   1.2649 B( 53-C , 79-H ) :   0.9664
B( 54-C , 55-O ) :   1.0924 B( 54-C , 58-C ) :   1.3205 B( 55-O , 56-C ) :   1.1691
B( 56-C , 57-C ) :   1.4812 B( 56-C , 80-H ) :   0.9644 B( 57-C , 58-C ) :   1.2321
B( 57-C , 81-H ) :   1.0195 B( 58-C , 59-O ) :   1.2702 B( 59-O , 82-H ) :   0.9546

-----------------------------------------------------------------------------
         ABSORPTION SPECTRUM VIA TRANSITION ELECTRIC DIPOLE MOMENTS
-----------------------------------------------------------------------------
State   Energy  Wavelength   fosc         T2         TX        TY        TZ
        (cm-1)    (nm)                  (au**2)     (au)      (au)      (au)
-----------------------------------------------------------------------------
   0    4482.0   2231.1   0.146981426  10.79608   0.26182  -3.03538  -1.23044
   1    9863.6   1013.8   0.414062842  13.81998   1.81298  -2.21643  -2.37077
   2   12662.8    789.7   0.665824321  17.31031   3.18985  -0.13325  -2.66785
   3   15747.1    635.0   0.137331601   2.87108  -1.14036  -0.77418   0.98555
   4   17669.0    566.0   0.148491831   2.76672  -1.14041  -0.81390   0.89652
   5   18966.2    527.3   0.119224241   2.06947   0.58845  -0.46274  -1.22844
   6   19476.2    513.4   0.101063851   1.70831   0.24148  -1.28357   0.04949
   7   20259.9    493.6   0.675730584  10.98022   0.61609   3.25121   0.17401
   8   20872.3    479.1   0.052175298   0.82294  -0.02547   0.90032  -0.10824
   9   22594.7    442.6   0.463125786   6.74788  -0.27222  -2.56363   0.31871
  10   23614.0    423.5   0.017495133   0.24391  -0.12500  -0.47219   0.07290
  11   24864.6    402.2   0.129639634   1.71645   0.47649  -1.14833  -0.41321
  12   25320.0    394.9   0.236426708   3.07403   0.08024  -1.74795   0.11082
  13   26044.2    384.0   0.014551284   0.18394  -0.26997   0.20377  -0.26369
  14   26437.2    378.3   0.057671008   0.71816   0.16242  -0.83098   0.03531
  15   26866.9    372.2   0.013697929   0.16785   0.34972  -0.03854  -0.20990
  16   27188.7    367.8   0.073223574   0.88662  -0.13649  -0.69440   0.62113
  17   27579.7    362.6   0.026598455   0.31750   0.03822   0.21428  -0.51973
  18   28558.4    350.2   0.036742270   0.42355   0.39244   0.45723  -0.24593
  19   29401.4    340.1   0.076145405   0.85261  -0.51791  -0.40220   0.65009
  20   29493.3    339.1   0.005032552   0.05617  -0.23645  -0.01607   0.00277
  21   29834.6    335.2   0.001129252   0.01246   0.00959   0.08695  -0.06934
  22   29979.0    333.6   0.017847047   0.19599  -0.30630   0.14857   0.28301
  23   30261.6    330.5   0.053294685   0.57979  -0.06800   0.74643   0.13420
  24   30435.3    328.6   0.011631210   0.12581  -0.09251  -0.01420   0.34213
  25   30889.4    323.7   0.023691963   0.25250  -0.14142   0.48175   0.02047
  26   31582.1    316.6   0.021916472   0.22846   0.42814   0.05746  -0.20458
  27   32085.3    311.7   0.007239902   0.07429   0.06218   0.21045   0.16164
  28   32311.2    309.5   0.049886492   0.50828   0.08147   0.57116  -0.41883
  29   32497.2    307.7   0.003741946   0.03791   0.01737   0.17810  -0.07672
  30   33149.7    301.7   0.017091611   0.16974   0.24898   0.03741  -0.32611
  31   33344.5    299.9   0.343823240   3.39458  -0.45668  -1.38225   1.12934
  32   33600.7    297.6   0.096673583   0.94719   0.36526   0.58973  -0.68263
  33   33844.6    295.5   0.047047550   0.45764  -0.42130   0.38456   0.36367
  34   34048.6    293.7   0.023050416   0.22287  -0.10570   0.42072   0.18626
  35   34172.6    292.6   0.329759139   3.17683  -0.63364  -1.49051   0.74412
  36   34285.7    291.7   0.005062125   0.04861   0.16207  -0.04130  -0.14364
  37   34505.8    289.8   0.002351227   0.02243  -0.02183   0.03856  -0.14307
  38   34947.7    286.1   0.017434839   0.16424  -0.01836  -0.12825  -0.38400
  39   35322.4    283.1   0.017184292   0.16016   0.05558   0.39227   0.05651
  40   35513.4    281.6   0.063567601   0.58928   0.25760   0.43525  -0.57748
  41   35942.3    278.2   0.114416019   1.04799  -0.10318  -0.67703   0.76091
  42   36102.4    277.0   0.092538234   0.84384   0.31849   0.44790  -0.73606
  43   36341.9    275.2   0.133707602   1.21122   0.33950  -0.68505  -0.79163
  44   36369.2    275.0   0.028839894   0.26106   0.08175   0.49545   0.09435
  45   36437.0    274.4   0.032371241   0.29248  -0.08319   0.50690  -0.16915
  46   36616.4    273.1   0.029943474   0.26922  -0.20715   0.47100  -0.06684
  47   36769.5    272.0   0.010206853   0.09139   0.26318   0.07586  -0.12795
  48   37031.5    270.0   0.015785116   0.14033   0.11211  -0.26273   0.24235
  49   37282.3    268.2   0.021704219   0.19165   0.27763  -0.20423  -0.26994
  50   37443.7    267.1   0.025898341   0.22770   0.37551   0.17017  -0.24028
  51   37762.1    264.8   0.147008260   1.28163  -0.33334   0.52502   0.94597
  52   38056.3    262.8   0.051184384   0.44278   0.24416   0.29416  -0.54464
  53   38296.2    261.1   0.016267855   0.13985   0.20223  -0.18226  -0.25638
  54   38466.6    260.0   0.005032825   0.04307  -0.05853   0.00392   0.19908
  55   38998.6    256.4   0.055995420   0.47269  -0.04247  -0.17224  -0.66425
  56   39144.1    255.5   0.033522426   0.28193  -0.22803  -0.00025   0.47951
  57   39313.9    254.4   0.052506890   0.43969   0.33687   0.07350  -0.56639
  58   39586.6    252.6   0.012489537   0.10387  -0.13076   0.03278  -0.29273
  59   39764.6    251.5   0.038280198   0.31692   0.19592   0.43790  -0.29459
  60   40061.5    249.6   0.003404693   0.02798  -0.14861   0.06293   0.04398
  61   40274.0    248.3   0.045226102   0.36969   0.30287  -0.25192  -0.46314

FINAL SINGLE POINT ENERGY     -7170.837521373875

DIPOLE MOMENT
-------------
                                X             Y             Z
Electronic contribution:      6.26708     -34.13152      25.84161
Nuclear contribution   :     -7.23413      27.32091     -26.22636
                        -----------------------------------------
Total Dipole Moment    :     -0.96706      -6.81062      -0.38475
                        -----------------------------------------
Magnitude (a.u.)       :      6.88968
Magnitude (Debye)      :     17.51218

Rotational constants in cm-1:     0.001525     0.000815     0.000577
Rotational constants in MHz :    45.722299    24.440179    17.288703

                             ****ORCA TERMINATED NORMALLY****
TOTAL RUN TIME: 0 days 0 hours 8 minutes 26 seconds 36 msec
