                         Program Version 4.2.0 -  RELEASE  -
|  1> # ORCA input file
|  2> # SCF done       -168.032400348529          0.000335973981
|  3> ! CAM-B3LYP def2-SVP def2/J RIJCOSX Grid4 TightSCF
|  4> %maxcore 5000
|  5> %tddft
|  6>     Mode sTDDFT
|  7>     Ethresh 5.0
|  8>     maxcore 5000
|  9> end
| 10>
| 11> %pal
| 12>   nprocs 6
| 13>   end
| 14> * xyz 0 1
| 15>    C      -13.10004         0.07155        -2.94617
| 16>    C      -12.04002        -0.50086        -3.60260
| 17>    C      -12.13940        -1.65984        -4.39706
| 18>    N      -12.17004        -2.61535        -5.03289
| 19>    C      -10.75057         0.06460        -3.63122
| 20>    N       -9.69962         0.51268        -3.75699
| 21>    C      -14.50354        -0.28303        -3.09057
| 22>    C      -15.28268         0.73275        -2.48331
| 23>    C      -16.65523         0.70309        -2.47668
| 24>    C      -17.28711        -0.38174        -3.09565
| 25>    C      -16.49894        -1.39356        -3.69297
| 26>    C      -15.10960        -1.36219        -3.70384
| 27>    S      -17.48448        -2.64303        -4.39097
| 28>    C      -18.92217        -1.79850        -3.88152
| 29>    C      -18.67941        -0.64142        -3.22157
| 30>   Br      -20.60775        -2.52520        -4.26732
| 31>    C      -14.39065         1.75009        -1.88805
| 32>    O      -14.73552         2.73307        -1.26120
| 33>    C      -13.02151         1.26070        -2.12754
| 34>    C      -11.88612         1.68983        -1.49272
| 35>    C      -11.61351         2.93844        -0.89661
| 36>    S      -10.42197         2.95553         0.38779
| 37>    C      -10.41635         4.68964         0.43184
| 38>    C      -11.31912         5.21512        -0.47553
| 39>    C      -11.97942         4.23778        -1.24501
| 40>    C      -12.84465         4.62003        -2.39531
| 41>    S      -12.30621         3.76736        -3.93950
| 42>    C      -12.86614         6.12597        -2.63113
| 43>    C      -12.98487         6.85104        -1.29955
| 44>    C      -11.67469         6.68299        -0.53373
| 45>    O      -11.83944         7.24158         0.75012
| 46>    C       -9.43279         5.39540         1.20668
| 47>    C       -8.52897         6.21150         0.59089
| 48>    C       -7.43169         6.92764         1.14921
| 49>    C       -6.60819         7.49856         0.22808
| 50>    C       -6.99622         7.27605        -1.11238
| 51>    S       -8.49064         6.35870        -1.16211
| 52>    C       -6.37709         7.58088        -2.30423
| 53>    C       -5.13965         8.21379        -2.57209
| 54>    C       -4.79890         8.21705        -3.88923
| 55>    C       -5.73823         7.58116        -4.74644
| 56>    S       -7.11832         7.04673        -3.79535
| 57>    C       -5.66941         7.43898        -6.10332
| 58>    C       -6.60880         6.75409        -6.91852
| 59>    S       -7.05376         7.51520        -8.43506
| 60>    C       -8.28617         6.32351        -8.72905
| 61>    C       -8.28207         5.35312        -7.74001
| 62>    C       -7.32379         5.57972        -6.73437
| 63>    C       -7.03434         4.51100        -5.72702
| 64>    C       -8.30494         3.72376        -5.42589
| 65>    C       -8.84651         3.10620        -6.72267
| 66>    N       -9.97374         2.20897        -6.54242
| 67>    C       -9.25613         4.21610        -7.69648
| 68>    C       -9.15996         6.40393        -9.85127
| 69>    C       -9.12451         7.38659       -10.77400
| 70>    C       -9.99123         7.53878       -11.91166
| 71>    C      -10.61770         6.58737       -12.61900
| 72>    C      -10.47592         5.11482       -12.39211
| 73>    C      -11.53314         6.93259       -13.77718
| 74>    N      -11.73663         8.32640       -14.06135
| 75>    C      -12.52385         9.10342       -13.24004
| 76>    C      -12.45530        10.42605       -13.14315
| 77>    H      -17.22663         1.49117        -2.01164
| 78>    H      -14.54739        -2.15606        -4.16737
| 79>    H      -19.44895         0.00322        -2.83776
| 80>    H      -11.07492         0.97274        -1.41112
| 81>    H      -13.86229         4.25525        -2.22679
| 82>    H      -11.04818         4.20799        -3.89519
| 83>    H      -13.70126         6.37328        -3.28703
| 84>    H      -11.94255         6.43871        -3.12747
| 85>    H      -13.79764         6.43299        -0.70412
| 86>    H      -13.17770         7.91316        -1.44561
| 87>    H      -10.88173         7.23002        -1.07508
| 88>    H      -11.03467         7.09571         1.26278
| 89>    H       -9.30239         5.14487         2.24961
| 90>    H       -7.28068         6.97087         2.21331
| 91>    H       -5.72119         8.05607         0.47265
| 92>    H       -4.53885         8.63531        -1.78595
| 93>    H       -3.88969         8.63873        -4.28065
| 94>    H       -4.89145         7.98963        -6.61822
| 95>    H       -6.60245         4.91183        -4.81342
| 96>    H       -6.29139         3.83406        -6.16424
| 97>    H       -9.05471         4.39345        -4.99427
| 98>    H       -8.09721         2.93303        -4.70271
| 99>    H       -8.04485         2.51104        -7.17830
|100>    H      -10.74861         2.69639        -6.10021
|101>    H       -9.71212         1.44395        -5.92821
|102>    H      -10.22974         4.60736        -7.37893
|103>    H       -9.39188         3.78268        -8.68837
|104>    H       -9.91563         5.63626        -9.89903
|105>    H       -8.40379         8.18489       -10.63379
|106>    H      -10.11672         8.56778       -12.22600
|107>    H       -9.49799         4.87654       -11.98045
|108>    H      -10.60624         4.57577       -13.32922
|109>    H      -11.23778         4.75691       -11.69896
|110>    H      -12.51355         6.48417       -13.57271
|111>    H      -11.14491         6.45584       -14.68592
|112>    H      -10.93335         8.80431       -14.44567
|113>    H      -13.27598         8.54336       -12.70040
|114>    H      -11.71241        10.99603       -13.67531
|115>    H      -13.15352        10.97805       -12.54390
|116> *
|117>
|118>                          ****END OF INPUT****

CARTESIAN COORDINATES (ANGSTROEM)
---------------------------------
  C    -13.100040    0.071550   -2.946170
  C    -12.040020   -0.500860   -3.602600
  C    -12.139400   -1.659840   -4.397060
  N    -12.170040   -2.615350   -5.032890
  C    -10.750570    0.064600   -3.631220
  N     -9.699620    0.512680   -3.756990
  C    -14.503540   -0.283030   -3.090570
  C    -15.282680    0.732750   -2.483310
  C    -16.655230    0.703090   -2.476680
  C    -17.287110   -0.381740   -3.095650
  C    -16.498940   -1.393560   -3.692970
  C    -15.109600   -1.362190   -3.703840
  S    -17.484480   -2.643030   -4.390970
  C    -18.922170   -1.798500   -3.881520
  C    -18.679410   -0.641420   -3.221570
  Br   -20.607750   -2.525200   -4.267320
  C    -14.390650    1.750090   -1.888050
  O    -14.735520    2.733070   -1.261200
  C    -13.021510    1.260700   -2.127540
  C    -11.886120    1.689830   -1.492720
  C    -11.613510    2.938440   -0.896610
  S    -10.421970    2.955530    0.387790
  C    -10.416350    4.689640    0.431840
  C    -11.319120    5.215120   -0.475530
  C    -11.979420    4.237780   -1.245010
  C    -12.844650    4.620030   -2.395310
  S    -12.306210    3.767360   -3.939500
  C    -12.866140    6.125970   -2.631130
  C    -12.984870    6.851040   -1.299550
  C    -11.674690    6.682990   -0.533730
  O    -11.839440    7.241580    0.750120
  C     -9.432790    5.395400    1.206680
  C     -8.528970    6.211500    0.590890
  C     -7.431690    6.927640    1.149210
  C     -6.608190    7.498560    0.228080
  C     -6.996220    7.276050   -1.112380
  S     -8.490640    6.358700   -1.162110
  C     -6.377090    7.580880   -2.304230
  C     -5.139650    8.213790   -2.572090
  C     -4.798900    8.217050   -3.889230
  C     -5.738230    7.581160   -4.746440
  S     -7.118320    7.046730   -3.795350
  C     -5.669410    7.438980   -6.103320
  C     -6.608800    6.754090   -6.918520
  S     -7.053760    7.515200   -8.435060
  C     -8.286170    6.323510   -8.729050
  C     -8.282070    5.353120   -7.740010
  C     -7.323790    5.579720   -6.734370
  C     -7.034340    4.511000   -5.727020
  C     -8.304940    3.723760   -5.425890
  C     -8.846510    3.106200   -6.722670
  N     -9.973740    2.208970   -6.542420
  C     -9.256130    4.216100   -7.696480
  C     -9.159960    6.403930   -9.851270
  C     -9.124510    7.386590  -10.774000
  C     -9.991230    7.538780  -11.911660
  C    -10.617700    6.587370  -12.619000
  C    -10.475920    5.114820  -12.392110
  C    -11.533140    6.932590  -13.777180
  N    -11.736630    8.326400  -14.061350
  C    -12.523850    9.103420  -13.240040
  C    -12.455300   10.426050  -13.143150
  H    -17.226630    1.491170   -2.011640
  H    -14.547390   -2.156060   -4.167370
  H    -19.448950    0.003220   -2.837760
  H    -11.074920    0.972740   -1.411120
  H    -13.862290    4.255250   -2.226790
  H    -11.048180    4.207990   -3.895190
  H    -13.701260    6.373280   -3.287030
  H    -11.942550    6.438710   -3.127470
  H    -13.797640    6.432990   -0.704120
  H    -13.177700    7.913160   -1.445610
  H    -10.881730    7.230020   -1.075080
  H    -11.034670    7.095710    1.262780
  H     -9.302390    5.144870    2.249610
  H     -7.280680    6.970870    2.213310
  H     -5.721190    8.056070    0.472650
  H     -4.538850    8.635310   -1.785950
  H     -3.889690    8.638730   -4.280650
  H     -4.891450    7.989630   -6.618220
  H     -6.602450    4.911830   -4.813420
  H     -6.291390    3.834060   -6.164240
  H     -9.054710    4.393450   -4.994270
  H     -8.097210    2.933030   -4.702710
  H     -8.044850    2.511040   -7.178300
  H    -10.748610    2.696390   -6.100210
  H     -9.712120    1.443950   -5.928210
  H    -10.229740    4.607360   -7.378930
  H     -9.391880    3.782680   -8.688370
  H     -9.915630    5.636260   -9.899030
  H     -8.403790    8.184890  -10.633790
  H    -10.116720    8.567780  -12.226000
  H     -9.497990    4.876540  -11.980450
  H    -10.606240    4.575770  -13.329220
  H    -11.237780    4.756910  -11.698960
  H    -12.513550    6.484170  -13.572710
  H    -11.144910    6.455840  -14.685920
  H    -10.933350    8.804310  -14.445670
  H    -13.275980    8.543360  -12.700400
  H    -11.712410   10.996030  -13.675310
  H    -13.153520   10.978050  -12.543900

 Total Charge           Charge          ....    0
 Multiplicity           Mult            ....    1
 Number of Electrons    NEL             ....  508
 Basis Dimension        Dim             .... 1105

ORBITAL ENERGIES
----------------

  NO   OCC          E(Eh)            E(eV)
   0   2.0000    -482.883646    -13139.9320
   1   2.0000     -88.973102     -2421.0812
   2   2.0000     -88.959646     -2420.7150
   3   2.0000     -88.947222     -2420.3770
   4   2.0000     -88.946817     -2420.3659
   5   2.0000     -88.939371     -2420.1633
   6   2.0000     -88.912739     -2419.4386
   7   2.0000     -62.561354     -1702.3810
   8   2.0000     -56.395303     -1534.5942
   9   2.0000     -56.392591     -1534.5204
  10   2.0000     -56.392557     -1534.5195
  11   2.0000     -19.214198      -522.8449
  12   2.0000     -19.195909      -522.3472
  13   2.0000     -14.414277      -392.2324
  14   2.0000     -14.411885      -392.1673
  15   2.0000     -14.402549      -391.9133
  16   2.0000     -14.357516      -390.6879
  17   2.0000     -10.364410      -282.0299
  18   2.0000     -10.356559      -281.8163
  19   2.0000     -10.337968      -281.3104
  20   2.0000     -10.335766      -281.2505
  21   2.0000     -10.322905      -280.9005
  22   2.0000     -10.321192      -280.8539
  23   2.0000     -10.319416      -280.8056
  24   2.0000     -10.318527      -280.7814
  25   2.0000     -10.317783      -280.7611
  26   2.0000     -10.315361      -280.6952
  27   2.0000     -10.314679      -280.6767
  28   2.0000     -10.311275      -280.5841
  29   2.0000     -10.308597      -280.5112
  30   2.0000     -10.308255      -280.5019
  31   2.0000     -10.306926      -280.4657
  32   2.0000     -10.304980      -280.4127
  33   2.0000     -10.304515      -280.4001
  34   2.0000     -10.303181      -280.3638
  35   2.0000     -10.298388      -280.2334
  36   2.0000     -10.298059      -280.2244
  37   2.0000     -10.297671      -280.2139
  38   2.0000     -10.296887      -280.1925
  39   2.0000     -10.296862      -280.1919
  40   2.0000     -10.294409      -280.1251
  41   2.0000     -10.293371      -280.0969
  42   2.0000     -10.292747      -280.0799
  43   2.0000     -10.291508      -280.0462
  44   2.0000     -10.291232      -280.0387
  45   2.0000     -10.290882      -280.0291
  46   2.0000     -10.289896      -280.0023
  47   2.0000     -10.288247      -279.9574
  48   2.0000     -10.287445      -279.9356
  49   2.0000     -10.287298      -279.9316
  50   2.0000     -10.284020      -279.8424
  51   2.0000     -10.277995      -279.6785
  52   2.0000     -10.274743      -279.5900
  53   2.0000     -10.269898      -279.4581
  54   2.0000     -10.268861      -279.4299
  55   2.0000     -10.267382      -279.3897
  56   2.0000     -10.265693      -279.3437
  57   2.0000     -10.263605      -279.2869
  58   2.0000     -10.263212      -279.2762
  59   2.0000     -10.258083      -279.1366
  60   2.0000     -10.254596      -279.0418
  61   2.0000     -10.254153      -279.0297
  62   2.0000     -10.253536      -279.0129
  63   2.0000     -10.253173      -279.0030
  64   2.0000     -10.244232      -278.7597
  65   2.0000     -10.223238      -278.1884
  66   2.0000      -8.790776      -239.2092
  67   2.0000      -8.069157      -219.5729
  68   2.0000      -8.055548      -219.2026
  69   2.0000      -8.042984      -218.8607
  70   2.0000      -8.042612      -218.8506
  71   2.0000      -8.035101      -218.6462
  72   2.0000      -8.007326      -217.8904
  73   2.0000      -6.627058      -180.3314
  74   2.0000      -6.612514      -179.9357
  75   2.0000      -6.612329      -179.9306
  76   2.0000      -6.038862      -164.3258
  77   2.0000      -6.034556      -164.2086
  78   2.0000      -6.030359      -164.0944
  79   2.0000      -6.024741      -163.9415
  80   2.0000      -6.020714      -163.8320
  81   2.0000      -6.017675      -163.7493
  82   2.0000      -6.012805      -163.6167
  83   2.0000      -6.012441      -163.6068
  84   2.0000      -6.008737      -163.5061
  85   2.0000      -6.008301      -163.4942
  86   2.0000      -6.004340      -163.3864
  87   2.0000      -6.003775      -163.3710
  88   2.0000      -6.003438      -163.3619
  89   2.0000      -6.000480      -163.2814
  90   2.0000      -5.997037      -163.1877
  91   2.0000      -5.977794      -162.6640
  92   2.0000      -5.973907      -162.5583
  93   2.0000      -5.967031      -162.3712
  94   2.0000      -2.742943       -74.6393
  95   2.0000      -2.738849       -74.5279
  96   2.0000      -2.738699       -74.5238
  97   2.0000      -2.727137       -74.2092
  98   2.0000      -2.727132       -74.2090
  99   2.0000      -1.128165       -30.6989
 100   2.0000      -1.088993       -29.6330
 101   2.0000      -1.020422       -27.7671
 102   2.0000      -1.011088       -27.5131
 103   2.0000      -1.007198       -27.4073
 104   2.0000      -1.002327       -27.2747
 105   2.0000      -0.995457       -27.0878
 106   2.0000      -0.992027       -26.9944
 107   2.0000      -0.986414       -26.8417
 108   2.0000      -0.981076       -26.6964
 109   2.0000      -0.972818       -26.4717
 110   2.0000      -0.950615       -25.8675
 111   2.0000      -0.940530       -25.5931
 112   2.0000      -0.925455       -25.1829
 113   2.0000      -0.909578       -24.7509
 114   2.0000      -0.906308       -24.6619
 115   2.0000      -0.905803       -24.6481
 116   2.0000      -0.893900       -24.3243
 117   2.0000      -0.883432       -24.0394
 118   2.0000      -0.881171       -23.9779
 119   2.0000      -0.879900       -23.9433
 120   2.0000      -0.867570       -23.6078
 121   2.0000      -0.855464       -23.2783
 122   2.0000      -0.851469       -23.1696
 123   2.0000      -0.846776       -23.0419
 124   2.0000      -0.832588       -22.6559
 125   2.0000      -0.828895       -22.5554
 126   2.0000      -0.826690       -22.4954
 127   2.0000      -0.821941       -22.3661
 128   2.0000      -0.814479       -22.1631
 129   2.0000      -0.812595       -22.1118
 130   2.0000      -0.795354       -21.6427
 131   2.0000      -0.790008       -21.4972
 132   2.0000      -0.779447       -21.2098
 133   2.0000      -0.771963       -21.0062
 134   2.0000      -0.760216       -20.6865
 135   2.0000      -0.755509       -20.5585
 136   2.0000      -0.745778       -20.2937
 137   2.0000      -0.737940       -20.0804
 138   2.0000      -0.721352       -19.6290
 139   2.0000      -0.708111       -19.2687
 140   2.0000      -0.698389       -19.0041
 141   2.0000      -0.696336       -18.9483
 142   2.0000      -0.694048       -18.8860
 143   2.0000      -0.688210       -18.7271
 144   2.0000      -0.683185       -18.5904
 145   2.0000      -0.672765       -18.3069
 146   2.0000      -0.665236       -18.1020
 147   2.0000      -0.663927       -18.0664
 148   2.0000      -0.658440       -17.9171
 149   2.0000      -0.654524       -17.8105
 150   2.0000      -0.645665       -17.5694
 151   2.0000      -0.634454       -17.2644
 152   2.0000      -0.627396       -17.0723
 153   2.0000      -0.622713       -16.9449
 154   2.0000      -0.622335       -16.9346
 155   2.0000      -0.617952       -16.8153
 156   2.0000      -0.615142       -16.7389
 157   2.0000      -0.611675       -16.6445
 158   2.0000      -0.599274       -16.3071
 159   2.0000      -0.596632       -16.2352
 160   2.0000      -0.589040       -16.0286
 161   2.0000      -0.586086       -15.9482
 162   2.0000      -0.583469       -15.8770
 163   2.0000      -0.573890       -15.6164
 164   2.0000      -0.568235       -15.4625
 165   2.0000      -0.557924       -15.1819
 166   2.0000      -0.555091       -15.1048
 167   2.0000      -0.550573       -14.9818
 168   2.0000      -0.548835       -14.9346
 169   2.0000      -0.544057       -14.8045
 170   2.0000      -0.541056       -14.7229
 171   2.0000      -0.536971       -14.6117
 172   2.0000      -0.534669       -14.5491
 173   2.0000      -0.530518       -14.4361
 174   2.0000      -0.528654       -14.3854
 175   2.0000      -0.524074       -14.2608
 176   2.0000      -0.519862       -14.1462
 177   2.0000      -0.517264       -14.0755
 178   2.0000      -0.514076       -13.9887
 179   2.0000      -0.511006       -13.9052
 180   2.0000      -0.508710       -13.8427
 181   2.0000      -0.507069       -13.7981
 182   2.0000      -0.504084       -13.7168
 183   2.0000      -0.503250       -13.6941
 184   2.0000      -0.500875       -13.6295
 185   2.0000      -0.499349       -13.5880
 186   2.0000      -0.498178       -13.5561
 187   2.0000      -0.496883       -13.5209
 188   2.0000      -0.496191       -13.5020
 189   2.0000      -0.491397       -13.3716
 190   2.0000      -0.490968       -13.3599
 191   2.0000      -0.487367       -13.2619
 192   2.0000      -0.484596       -13.1865
 193   2.0000      -0.483238       -13.1496
 194   2.0000      -0.480644       -13.0790
 195   2.0000      -0.477545       -12.9947
 196   2.0000      -0.474759       -12.9188
 197   2.0000      -0.469829       -12.7847
 198   2.0000      -0.463659       -12.6168
 199   2.0000      -0.463039       -12.5999
 200   2.0000      -0.459471       -12.5028
 201   2.0000      -0.456975       -12.4349
 202   2.0000      -0.455746       -12.4015
 203   2.0000      -0.454942       -12.3796
 204   2.0000      -0.453855       -12.3500
 205   2.0000      -0.451501       -12.2860
 206   2.0000      -0.447036       -12.1645
 207   2.0000      -0.445397       -12.1199
 208   2.0000      -0.442249       -12.0342
 209   2.0000      -0.441447       -12.0124
 210   2.0000      -0.437059       -11.8930
 211   2.0000      -0.435655       -11.8548
 212   2.0000      -0.432382       -11.7657
 213   2.0000      -0.431306       -11.7364
 214   2.0000      -0.427663       -11.6373
 215   2.0000      -0.427256       -11.6262
 216   2.0000      -0.426072       -11.5940
 217   2.0000      -0.423320       -11.5191
 218   2.0000      -0.422153       -11.4874
 219   2.0000      -0.418550       -11.3893
 220   2.0000      -0.416284       -11.3277
 221   2.0000      -0.413091       -11.2408
 222   2.0000      -0.409884       -11.1535
 223   2.0000      -0.407610       -11.0916
 224   2.0000      -0.405332       -11.0297
 225   2.0000      -0.400870       -10.9082
 226   2.0000      -0.399589       -10.8734
 227   2.0000      -0.396331       -10.7847
 228   2.0000      -0.390500       -10.6261
 229   2.0000      -0.386701       -10.5227
 230   2.0000      -0.385176       -10.4812
 231   2.0000      -0.383095       -10.4245
 232   2.0000      -0.382743       -10.4150
 233   2.0000      -0.379475       -10.3260
 234   2.0000      -0.374244       -10.1837
 235   2.0000      -0.373033       -10.1507
 236   2.0000      -0.370280       -10.0758
 237   2.0000      -0.350735        -9.5440
 238   2.0000      -0.344369        -9.3708
 239   2.0000      -0.339802        -9.2465
 240   2.0000      -0.335535        -9.1304
 241   2.0000      -0.331760        -9.0276
 242   2.0000      -0.321492        -8.7482
 243   2.0000      -0.316281        -8.6065
 244   2.0000      -0.312497        -8.5035
 245   2.0000      -0.307379        -8.3642
 246   2.0000      -0.296209        -8.0603
 247   2.0000      -0.293166        -7.9774
 248   2.0000      -0.292187        -7.9508
 249   2.0000      -0.282444        -7.6857
 250   2.0000      -0.277538        -7.5522
 251   2.0000      -0.255909        -6.9636
 252   2.0000      -0.252920        -6.8823
 253   2.0000      -0.217667        -5.9230
 254   0.0000      -0.090544        -2.4638
 255   0.0000      -0.074828        -2.0362
 256   0.0000      -0.057320        -1.5598
 257   0.0000      -0.021970        -0.5978
 258   0.0000      -0.010421        -0.2836

MULLIKEN ATOMIC CHARGES
-----------------------
   0 C :    0.284101
   1 C :   -0.330696
   2 C :   -0.184567
   3 N :    0.148259
   4 C :   -0.175544
   5 N :    0.127115
   6 C :    0.018522
   7 C :   -0.013374
   8 C :   -0.072566
   9 C :    0.113366
  10 C :   -0.089198
  11 C :   -0.021033
  12 S :    0.184911
  13 C :   -0.125026
  14 C :    0.042028
  15 Br:    0.022153
  16 C :    0.149068
  17 O :   -0.166144
  18 C :   -0.075918
  19 C :    0.010863
  20 C :   -0.124930
  21 S :    0.151387
  22 C :   -0.130419
  23 C :   -0.072853
  24 C :    0.078579
  25 C :   -0.185441
  26 S :   -0.074122
  27 C :    0.110927
  28 C :    0.054849
  29 C :    0.204643
  30 O :   -0.286692
  31 C :   -0.105509
  32 C :   -0.010266
  33 C :    0.032394
  34 C :    0.048303
  35 C :   -0.058590
  36 S :    0.071806
  37 C :   -0.043737
  38 C :    0.027700
  39 C :    0.052579
  40 C :   -0.042041
  41 S :    0.081326
  42 C :    0.011979
  43 C :   -0.171495
  44 S :    0.097642
  45 C :   -0.095283
  46 C :   -0.070674
  47 C :   -0.069056
  48 C :    0.154724
  49 C :    0.034179
  50 C :   -0.060060
  51 N :   -0.178976
  52 C :    0.171900
  53 C :   -0.018010
  54 C :    0.012096
  55 C :    0.010354
  56 C :   -0.208305
  57 C :    0.073975
  58 C :    0.169884
  59 N :   -0.179517
  60 C :    0.051510
  61 C :   -0.080117
  62 H :   -0.011219
  63 H :   -0.004004
  64 H :   -0.004145
  65 H :    0.035247
  66 H :    0.084239
  67 H :    0.073684
  68 H :    0.007794
  69 H :   -0.003324
  70 H :    0.013646
  71 H :    0.008319
  72 H :    0.008505
  73 H :    0.163227
  74 H :    0.010111
  75 H :   -0.010059
  76 H :   -0.009726
  77 H :   -0.013208
  78 H :   -0.007518
  79 H :    0.000844
  80 H :    0.003088
  81 H :    0.013033
  82 H :   -0.019193
  83 H :    0.010567
  84 H :   -0.007794
  85 H :    0.077460
  86 H :    0.097866
  87 H :    0.004116
  88 H :    0.013849
  89 H :   -0.012794
  90 H :   -0.008759
  91 H :   -0.017309
  92 H :    0.031586
  93 H :    0.007691
  94 H :    0.039188
  95 H :    0.018121
  96 H :    0.019457
  97 H :    0.107907
  98 H :   -0.001148
  99 H :   -0.010157
 100 H :    0.007844
Sum of atomic charges:   -0.0000000

LOEWDIN ATOMIC CHARGES
----------------------
   0 C :    0.080511
   1 C :   -0.144098
   2 C :   -0.019405
   3 N :   -0.054030
   4 C :   -0.010003
   5 N :   -0.067857
   6 C :   -0.020101
   7 C :   -0.047533
   8 C :    0.020640
   9 C :   -0.033215
  10 C :   -0.144574
  11 C :   -0.009638
  12 S :    0.431800
  13 C :   -0.272332
  14 C :   -0.070081
  15 Br:    0.135500
  16 C :    0.083852
  17 O :   -0.148007
  18 C :   -0.101642
  19 C :    0.052382
  20 C :   -0.184190
  21 S :    0.449720
  22 C :   -0.154793
  23 C :   -0.085122
  24 C :   -0.018323
  25 C :   -0.121895
  26 S :    0.176737
  27 C :   -0.036939
  28 C :   -0.028729
  29 C :    0.059653
  30 O :   -0.125995
  31 C :   -0.125525
  32 C :   -0.121549
  33 C :   -0.051023
  34 C :   -0.013690
  35 C :   -0.197939
  36 S :    0.391701
  37 C :   -0.159912
  38 C :   -0.044308
  39 C :   -0.015376
  40 C :   -0.155942
  41 S :    0.402610
  42 C :   -0.051252
  43 C :   -0.189187
  44 S :    0.414422
  45 C :   -0.163428
  46 C :   -0.055604
  47 C :   -0.050691
  48 C :   -0.032682
  49 C :   -0.042125
  50 C :    0.015614
  51 N :   -0.105610
  52 C :   -0.026801
  53 C :   -0.045538
  54 C :   -0.024621
  55 C :   -0.065384
  56 C :   -0.032364
  57 C :   -0.052239
  58 C :    0.031030
  59 N :   -0.039865
  60 C :    0.026865
  61 C :   -0.158622
  62 H :    0.040563
  63 H :    0.041320
  64 H :    0.038676
  65 H :    0.042971
  66 H :    0.035784
  67 H :   -0.034542
  68 H :    0.029428
  69 H :    0.018470
  70 H :    0.028343
  71 H :    0.028998
  72 H :   -0.002805
  73 H :    0.060911
  74 H :    0.035060
  75 H :    0.033484
  76 H :    0.034255
  77 H :    0.032251
  78 H :    0.035257
  79 H :    0.035285
  80 H :    0.009414
  81 H :    0.034540
  82 H :    0.009851
  83 H :    0.026303
  84 H :    0.018338
  85 H :    0.038462
  86 H :    0.047754
  87 H :    0.030478
  88 H :    0.031899
  89 H :    0.031873
  90 H :    0.020289
  91 H :    0.026918
  92 H :    0.035771
  93 H :    0.027518
  94 H :    0.037444
  95 H :    0.031018
  96 H :    0.029456
  97 H :    0.069014
  98 H :    0.023735
  99 H :    0.012123
 100 H :    0.020837

  Mayer bond orders larger than 0.100000
B(  0-C ,  1-C ) :   1.6330 B(  0-C ,  6-C ) :   1.0131 B(  0-C , 18-C ) :   1.0720
B(  1-C ,  2-C ) :   1.1322 B(  1-C ,  4-C ) :   1.1572 B(  2-C ,  3-N ) :   2.9801
B(  4-C ,  5-N ) :   2.9202 B(  6-C ,  7-C ) :   1.2701 B(  6-C , 11-C ) :   1.4136
B(  7-C ,  8-C ) :   1.4300 B(  7-C , 16-C ) :   0.9339 B(  8-C ,  9-C ) :   1.2431
B(  8-C , 62-H ) :   1.0161 B(  9-C , 10-C ) :   1.3118 B(  9-C , 14-C ) :   1.1641
B( 10-C , 11-C ) :   1.3228 B( 10-C , 12-S ) :   1.0834 B( 11-C , 63-H ) :   0.9823
B( 12-S , 13-C ) :   1.0879 B( 13-C , 14-C ) :   1.6179 B( 13-C , 15-Br) :   1.0180
B( 14-C , 64-H ) :   1.0001 B( 16-C , 17-O ) :   2.1537 B( 16-C , 18-C ) :   0.9737
B( 18-C , 19-C ) :   1.5657 B( 19-C , 20-C ) :   1.2068 B( 19-C , 65-H ) :   0.9355
B( 20-C , 21-S ) :   1.0923 B( 20-C , 24-C ) :   1.4411 B( 21-S , 22-C ) :   1.1622
B( 22-C , 23-C ) :   1.4980 B( 22-C , 31-C ) :   1.0213 B( 23-C , 24-C ) :   1.3669
B( 23-C , 29-C ) :   0.9442 B( 24-C , 25-C ) :   0.9789 B( 25-C , 26-S ) :   1.0316
B( 25-C , 27-C ) :   1.0293 B( 25-C , 66-H ) :   0.8612 B( 26-S , 67-H ) :   0.9392
B( 27-C , 28-C ) :   1.0556 B( 27-C , 68-H ) :   0.9273 B( 27-C , 69-H ) :   0.9305
B( 28-C , 29-C ) :   1.0745 B( 28-C , 70-H ) :   0.9321 B( 28-C , 71-H ) :   0.9273
B( 29-C , 30-O ) :   1.1092 B( 29-C , 72-H ) :   0.8962 B( 30-O , 73-H ) :   0.9741
B( 31-C , 32-C ) :   1.6347 B( 31-C , 74-H ) :   0.9657 B( 32-C , 33-C ) :   1.1268
B( 32-C , 36-S ) :   1.0651 B( 33-C , 34-C ) :   1.6099 B( 33-C , 75-H ) :   0.9981
B( 34-C , 35-C ) :   1.1836 B( 34-C , 76-H ) :   0.9930 B( 35-C , 36-S ) :   1.0247
B( 35-C , 37-C ) :   1.5202 B( 37-C , 38-C ) :   1.1710 B( 37-C , 41-S ) :   1.0633
B( 38-C , 39-C ) :   1.6127 B( 38-C , 77-H ) :   0.9943 B( 39-C , 40-C ) :   1.1295
B( 39-C , 78-H ) :   0.9948 B( 40-C , 41-S ) :   1.0233 B( 40-C , 42-C ) :   1.6540
B( 42-C , 43-C ) :   1.1040 B( 42-C , 79-H ) :   0.9506 B( 43-C , 44-S ) :   1.0900
B( 43-C , 47-C ) :   1.4975 B( 44-S , 45-C ) :   1.1098 B( 45-C , 46-C ) :   1.4995
B( 45-C , 53-C ) :   1.1533 B( 46-C , 47-C ) :   1.2971 B( 46-C , 52-C ) :   1.0305
B( 47-C , 48-C ) :   1.0574 B( 48-C , 49-C ) :   1.0657 B( 48-C , 80-H ) :   0.8950
B( 48-C , 81-H ) :   0.9078 B( 49-C , 50-C ) :   1.0361 B( 49-C , 82-H ) :   0.9253
B( 49-C , 83-H ) :   0.9316 B( 50-C , 51-N ) :   1.1063 B( 50-C , 52-C ) :   1.0426
B( 50-C , 84-H ) :   0.9204 B( 51-N , 85-H ) :   0.9697 B( 51-N , 86-H ) :   0.9616
B( 52-C , 87-H ) :   0.9076 B( 52-C , 88-H ) :   0.9080 B( 53-C , 54-C ) :   1.7067
B( 53-C , 89-H ) :   0.9657 B( 54-C , 55-C ) :   1.1020 B( 54-C , 90-H ) :   0.9563
B( 55-C , 56-C ) :   1.8420 B( 55-C , 91-H ) :   0.9354 B( 56-C , 57-C ) :   1.0841
B( 56-C , 58-C ) :   0.9825 B( 57-C , 92-H ) :   0.9457 B( 57-C , 93-H ) :   0.9513
B( 57-C , 94-H ) :   0.9422 B( 58-C , 59-N ) :   1.0844 B( 58-C , 95-H ) :   0.9326
B( 58-C , 96-H ) :   0.9368 B( 59-N , 60-C ) :   1.1429 B( 59-N , 97-H ) :   0.9451
B( 60-C , 61-C ) :   1.9084 B( 60-C , 98-H ) :   0.9604 B( 61-C , 99-H ) :   0.9559
B( 61-C ,100-H ) :   0.9529

-----------------------------------------------------------------------------
         ABSORPTION SPECTRUM VIA TRANSITION ELECTRIC DIPOLE MOMENTS
-----------------------------------------------------------------------------
State   Energy  Wavelength   fosc         T2         TX        TY        TZ
        (cm-1)    (nm)                  (au**2)     (au)      (au)      (au)
-----------------------------------------------------------------------------
   0   13710.1    729.4   0.438140525  10.52079   1.59478   1.80322  -2.17390
   1   17564.1    569.3   0.718374170  13.46483  -0.04205   0.13304   3.66679
   2   22158.9    451.3   0.711006950  10.56334   1.84491   2.08210   1.68062
   3   22701.6    440.5   0.011628830   0.16864   0.24379  -0.30570   0.12551
   4   23698.5    422.0   0.065774227   0.91372   0.14805  -0.10549  -0.93844
   5   24826.6    402.8   0.107662738   1.42766  -0.70682   0.12637   0.95503
   6   25305.3    395.2   0.053771754   0.69955   0.11079  -0.47912  -0.67655
   7   26219.4    381.4   0.159314200   2.00035   0.56412   0.99255   0.83485
   8   27159.4    368.2   0.004881067   0.05917  -0.07579  -0.06414  -0.22205
   9   27320.7    366.0   0.037099831   0.44705   0.58393   0.31680  -0.07558
  10   28003.8    357.1   0.488587232   5.74381  -2.06901  -0.69273  -0.99153
  11   28624.4    349.4   0.285806373   3.28709  -1.75752  -0.39696  -0.20160
  12   29229.6    342.1   0.014179303   0.15970  -0.01421  -0.00888   0.39927
  13   29525.2    338.7   0.003240461   0.03613  -0.16080  -0.09963   0.01867
  14   29902.3    334.4   0.011651019   0.12827  -0.31701  -0.07365  -0.14950
  15   30083.5    332.4   0.032095826   0.35123  -0.52522  -0.00710   0.27447
  16   30561.0    327.2   0.016786972   0.18083  -0.01190   0.22442  -0.36101
  17   30741.2    325.3   0.138251362   1.48055   0.65992   0.96375   0.34095
  18   30886.2    323.8   0.084843552   0.90434   0.74140   0.53248   0.26670
  19   31057.6    322.0   0.014559090   0.15433  -0.21107   0.11198  -0.31183
  20   31839.6    314.1   0.050785746   0.52511   0.10000  -0.23649   0.67763
  21   32459.0    308.1   0.074637509   0.75700  -0.72153  -0.09710  -0.47641
  22   32796.4    304.9   0.123427918   1.23898   1.10226   0.13335  -0.07884
  23   33132.9    301.8   0.097336638   0.96715  -0.79021   0.57917   0.08532
  24   33187.1    301.3   0.191416973   1.89883   1.36775   0.16248   0.04102
  25   33533.0    298.2   0.086745962   0.85163   0.84747   0.27958  -0.23506
  26   33759.8    296.2   0.148610182   1.44919  -1.18140   0.13169   0.19012
  27   34141.7    292.9   0.030099988   0.29024  -0.34199  -0.28980  -0.29884
  28   34428.0    290.5   0.009065251   0.08668   0.08090  -0.15047   0.23979
  29   34666.5    288.5   0.022149078   0.21034  -0.40409  -0.05321   0.21027
  30   34825.4    287.1   0.001165331   0.01102  -0.00481  -0.09873  -0.03530
  31   35083.8    285.0   0.012957848   0.12159   0.32693   0.03921  -0.11476
  32   35321.0    283.1   0.035956654   0.33514   0.39066  -0.15381  -0.39857
  33   35874.9    278.7   0.055574873   0.50999  -0.27045   0.41030  -0.51817
  34   35920.8    278.4   0.014776463   0.13543  -0.19485  -0.14596  -0.27596
  35   36560.1    273.5   0.139784586   1.25872   0.53479  -0.21039   0.96356
  36   36842.7    271.4   0.034522258   0.30848  -0.38026   0.05493  -0.40107
  37   37572.3    266.2   0.020370917   0.17849   0.12357  -0.40387  -0.01069
  38   38382.0    260.5   0.031698512   0.27189  -0.20487   0.42588   0.22032
  39   38670.8    258.6   0.144311993   1.22855  -0.74881  -0.45922   0.67599
  40   38751.9    258.1   0.073645387   0.62564  -0.03890  -0.72395  -0.31627
  41   38992.6    256.5   0.058872800   0.49706  -0.21472  -0.52211  -0.42232
  42   39656.2    252.2   0.025860950   0.21469  -0.24891   0.32984  -0.20961
  43   39960.1    250.2   0.072804949   0.59981   0.00573  -0.28002  -0.72205

FINAL SINGLE POINT ENERGY     -7219.516547705229

DIPOLE MOMENT
-------------
                                X             Y             Z
Electronic contribution:   -125.35978    -124.32231      65.17155
Nuclear contribution   :    126.19234     125.41438     -64.12443
                        -----------------------------------------
Total Dipole Moment    :      0.83256       1.09207       1.04712
                        -----------------------------------------
Magnitude (a.u.)       :      1.72691
Magnitude (Debye)      :      4.38946

Rotational constants in cm-1:     0.000984     0.000530     0.000393
Rotational constants in MHz :    29.512486    15.895037    11.781810

                             ****ORCA TERMINATED NORMALLY****
TOTAL RUN TIME: 0 days 0 hours 10 minutes 28 seconds 431 msec
