                         Program Version 4.2.0 -  RELEASE  -
|  1> # ORCA input file
|  2> # SCF done       -211.922856523690          0.000869563885
|  3> ! CAM-B3LYP def2-SVP def2/J RIJCOSX Grid4 TightSCF
|  4> %maxcore 5000
|  5> %tddft
|  6>     Mode sTDDFT
|  7>     Ethresh 5.0
|  8>     maxcore 5000
|  9> end
| 10>
| 11> %pal
| 12>   nprocs 6
| 13>   end
| 14> * xyz 0 1
| 15>    C       -8.00973        -1.63363        -4.77312
| 16>    C       -9.21418        -1.97383        -5.32952
| 17>    C       -9.38213        -2.99840        -6.28405
| 18>    N       -9.56913        -3.81265        -7.07121
| 19>    C      -10.44375        -1.36932        -4.99129
| 20>    N      -11.47761        -0.93684        -4.74208
| 21>    C       -6.73488        -2.29806        -5.00166
| 22>    C       -5.77005        -1.74634        -4.12214
| 23>    C       -4.46379        -2.17143        -4.09812
| 24>    C       -4.09199        -3.18850        -4.98338
| 25>    C       -5.06248        -3.73137        -5.85987
| 26>    C       -6.38356        -3.30249        -5.88406
| 27>    S       -4.38756        -4.97098        -6.87204
| 28>    C       -2.83259        -4.74709        -6.11589
| 29>    C       -2.81739        -3.79442        -5.15331
| 30>   Br       -1.37661        -5.79073        -6.66882
| 31>    C       -6.39388        -0.69541        -3.29634
| 32>    O       -5.84510        -0.00422        -2.46458
| 33>    C       -7.79659        -0.60190        -3.77559
| 34>    C       -8.63198         0.44214        -3.51550
| 35>    C       -8.47733         1.40846        -2.48658
| 36>    S       -8.83606         3.07296        -2.87302
| 37>    C       -8.40839         3.59065        -1.27171
| 38>    C       -8.07970         2.50511        -0.47466
| 39>    C       -8.12238         1.27761        -1.15528
| 40>    C       -7.96328        -0.00691        -0.41850
| 41>    C       -7.03407         0.16713         0.78150
| 42>    C       -6.87423        -1.18987         1.48269
| 43>    O       -7.28392        -2.21006         1.00502
| 44>    O       -6.21382        -1.17278         2.63629
| 45>    C       -7.58435         1.27307         1.69237
| 46>    O       -6.74299         1.40397         2.83230
| 47>    C       -7.63253         2.61836         0.94970
| 48>    C       -8.41865         4.96978        -0.91351
| 49>    C       -8.66811         5.95798        -1.79552
| 50>    N       -8.70776         7.28286        -1.46958
| 51>    C       -8.88269         8.29987        -2.34937
| 52>    S       -8.96639         7.98644        -4.05218
| 53>    C       -9.18422         9.68525        -4.33787
| 54>    N       -9.31457        10.10290        -5.66447
| 55>    O       -9.46295        11.29275        -5.87389
| 56>    O       -9.26410         9.23143        -6.51737
| 57>    C       -9.19515        10.43281        -3.19309
| 58>    C       -9.02289         9.65924        -2.02800
| 59>    C       -9.00294        10.17978        -0.68793
| 60>    C       -9.36379        11.43837        -0.36332
| 61>    C       -9.36019        11.99362         0.94866
| 62>    S      -10.03434        13.60194         1.14849
| 63>    C       -9.71293        13.55521         2.83789
| 64>    C       -9.10376        12.34957         3.20713
| 65>    C       -8.90843        11.46889         2.14215
| 66>    S       -8.75617        12.26777         4.91295
| 67>    C       -9.44276        13.85612         5.12745
| 68>    C       -9.63328        14.68205         6.23109
| 69>    C      -10.25627        15.87006         5.89012
| 70>    S      -10.60171        15.96326         4.16811
| 71>    C       -9.91104        14.40844         3.92610
| 72>    C      -10.63690        16.91266         6.76485
| 73>    C      -11.34298        18.00676         6.37669
| 74>    C      -11.75862        19.02152         7.26400
| 75>    C      -12.64467        20.02342         6.99449
| 76>    C      -13.54032        20.22570         5.87719
| 77>    C      -14.12815        19.25116         5.11126
| 78>    C      -15.03331        19.51802         4.06344
| 79>    N      -15.75898        19.68123         3.18907
| 80>    C      -13.99990        17.86610         5.34708
| 81>    N      -13.98366        16.73178         5.52357
| 82>    C      -13.90216        21.64000         5.86402
| 83>    C      -13.43659        22.23891         7.06241
| 84>    C      -12.69389        21.23491         7.85257
| 85>    O      -12.18838        21.37417         8.94305
| 86>    C      -13.66861        23.55866         7.36432
| 87>    C      -14.38306        24.32540         6.43732
| 88>    C      -14.82885        23.72168         5.23720
| 89>    C      -14.60164        22.38474         4.93413
| 90>    S      -15.68070        24.85232         4.23042
| 91>    C      -15.43533        26.10276         5.42076
| 92>    C      -14.74896        25.69715         6.51539
| 93>   Br      -16.10792        27.82458         5.10500
| 94>    H       -3.75086        -1.73462        -3.41665
| 95>    H       -7.08620        -3.74183        -6.57241
| 96>    H       -1.94414        -3.52864        -4.58615
| 97>    H       -9.45458         0.62503        -4.19770
| 98>    H       -7.58063        -0.79972        -1.05311
| 99>    H       -8.94734        -0.33196        -0.06209
|100>    H       -6.03885         0.46268         0.42835
|101>    H       -6.05846        -0.25723         2.93948
|102>    H       -8.59802         0.98706         2.01355
|103>    H       -7.12620         2.04169         3.44333
|104>    H       -6.61761         3.03279         0.96235
|105>    H       -8.28053         3.30925         1.49730
|106>    H       -8.20582         5.20816         0.11951
|107>    H       -8.85564         5.73340        -2.83566
|108>    H       -8.59816         7.52863        -0.49364
|109>    H       -9.30982        11.50040        -3.21576
|110>    H       -8.68805         9.50797         0.09886
|111>    H       -9.71541        12.10677        -1.13552
|112>    H       -8.45156        10.50236         2.24192
|113>    H       -9.34588        14.43388         7.23621
|114>    H      -10.38432        16.77934         7.80880
|115>    H      -11.59801        18.10784         5.33000
|116>    H      -11.28846        19.06092         8.24075
|117>    H      -13.31184        23.98737         8.28759
|118>    H      -14.95588        21.96903         4.00538
|119>    H      -14.50970        26.33734         7.34472
|120> *
|121>
|122>                          ****END OF INPUT****

CARTESIAN COORDINATES (ANGSTROEM)
---------------------------------
  C     -8.009730   -1.633630   -4.773120
  C     -9.214180   -1.973830   -5.329520
  C     -9.382130   -2.998400   -6.284050
  N     -9.569130   -3.812650   -7.071210
  C    -10.443750   -1.369320   -4.991290
  N    -11.477610   -0.936840   -4.742080
  C     -6.734880   -2.298060   -5.001660
  C     -5.770050   -1.746340   -4.122140
  C     -4.463790   -2.171430   -4.098120
  C     -4.091990   -3.188500   -4.983380
  C     -5.062480   -3.731370   -5.859870
  C     -6.383560   -3.302490   -5.884060
  S     -4.387560   -4.970980   -6.872040
  C     -2.832590   -4.747090   -6.115890
  C     -2.817390   -3.794420   -5.153310
  Br    -1.376610   -5.790730   -6.668820
  C     -6.393880   -0.695410   -3.296340
  O     -5.845100   -0.004220   -2.464580
  C     -7.796590   -0.601900   -3.775590
  C     -8.631980    0.442140   -3.515500
  C     -8.477330    1.408460   -2.486580
  S     -8.836060    3.072960   -2.873020
  C     -8.408390    3.590650   -1.271710
  C     -8.079700    2.505110   -0.474660
  C     -8.122380    1.277610   -1.155280
  C     -7.963280   -0.006910   -0.418500
  C     -7.034070    0.167130    0.781500
  C     -6.874230   -1.189870    1.482690
  O     -7.283920   -2.210060    1.005020
  O     -6.213820   -1.172780    2.636290
  C     -7.584350    1.273070    1.692370
  O     -6.742990    1.403970    2.832300
  C     -7.632530    2.618360    0.949700
  C     -8.418650    4.969780   -0.913510
  C     -8.668110    5.957980   -1.795520
  N     -8.707760    7.282860   -1.469580
  C     -8.882690    8.299870   -2.349370
  S     -8.966390    7.986440   -4.052180
  C     -9.184220    9.685250   -4.337870
  N     -9.314570   10.102900   -5.664470
  O     -9.462950   11.292750   -5.873890
  O     -9.264100    9.231430   -6.517370
  C     -9.195150   10.432810   -3.193090
  C     -9.022890    9.659240   -2.028000
  C     -9.002940   10.179780   -0.687930
  C     -9.363790   11.438370   -0.363320
  C     -9.360190   11.993620    0.948660
  S    -10.034340   13.601940    1.148490
  C     -9.712930   13.555210    2.837890
  C     -9.103760   12.349570    3.207130
  C     -8.908430   11.468890    2.142150
  S     -8.756170   12.267770    4.912950
  C     -9.442760   13.856120    5.127450
  C     -9.633280   14.682050    6.231090
  C    -10.256270   15.870060    5.890120
  S    -10.601710   15.963260    4.168110
  C     -9.911040   14.408440    3.926100
  C    -10.636900   16.912660    6.764850
  C    -11.342980   18.006760    6.376690
  C    -11.758620   19.021520    7.264000
  C    -12.644670   20.023420    6.994490
  C    -13.540320   20.225700    5.877190
  C    -14.128150   19.251160    5.111260
  C    -15.033310   19.518020    4.063440
  N    -15.758980   19.681230    3.189070
  C    -13.999900   17.866100    5.347080
  N    -13.983660   16.731780    5.523570
  C    -13.902160   21.640000    5.864020
  C    -13.436590   22.238910    7.062410
  C    -12.693890   21.234910    7.852570
  O    -12.188380   21.374170    8.943050
  C    -13.668610   23.558660    7.364320
  C    -14.383060   24.325400    6.437320
  C    -14.828850   23.721680    5.237200
  C    -14.601640   22.384740    4.934130
  S    -15.680700   24.852320    4.230420
  C    -15.435330   26.102760    5.420760
  C    -14.748960   25.697150    6.515390
  Br   -16.107920   27.824580    5.105000
  H     -3.750860   -1.734620   -3.416650
  H     -7.086200   -3.741830   -6.572410
  H     -1.944140   -3.528640   -4.586150
  H     -9.454580    0.625030   -4.197700
  H     -7.580630   -0.799720   -1.053110
  H     -8.947340   -0.331960   -0.062090
  H     -6.038850    0.462680    0.428350
  H     -6.058460   -0.257230    2.939480
  H     -8.598020    0.987060    2.013550
  H     -7.126200    2.041690    3.443330
  H     -6.617610    3.032790    0.962350
  H     -8.280530    3.309250    1.497300
  H     -8.205820    5.208160    0.119510
  H     -8.855640    5.733400   -2.835660
  H     -8.598160    7.528630   -0.493640
  H     -9.309820   11.500400   -3.215760
  H     -8.688050    9.507970    0.098860
  H     -9.715410   12.106770   -1.135520
  H     -8.451560   10.502360    2.241920
  H     -9.345880   14.433880    7.236210
  H    -10.384320   16.779340    7.808800
  H    -11.598010   18.107840    5.330000
  H    -11.288460   19.060920    8.240750
  H    -13.311840   23.987370    8.287590
  H    -14.955880   21.969030    4.005380
  H    -14.509700   26.337340    7.344720

 Total Charge           Charge          ....    0
 Multiplicity           Mult            ....    1
 Number of Electrons    NEL             ....  648
 Basis Dimension        Dim             .... 1300

ORBITAL ENERGIES
----------------

  NO   OCC          E(Eh)            E(eV)
   0   2.0000    -482.885672    -13139.9872
   1   2.0000    -482.885372    -13139.9790
   2   2.0000     -88.993060     -2421.6243
   3   2.0000     -88.976357     -2421.1698
   4   2.0000     -88.975740     -2421.1530
   5   2.0000     -88.975466     -2421.1455
   6   2.0000     -88.974320     -2421.1143
   7   2.0000     -88.973042     -2421.0796
   8   2.0000     -88.968348     -2420.9518
   9   2.0000     -62.563383     -1702.4362
  10   2.0000     -62.563104     -1702.4286
  11   2.0000     -56.397333     -1534.6495
  12   2.0000     -56.397057     -1534.6419
  13   2.0000     -56.394619     -1534.5756
  14   2.0000     -56.394585     -1534.5747
  15   2.0000     -56.394335     -1534.5679
  16   2.0000     -56.394304     -1534.5670
  17   2.0000     -19.259666      -524.0822
  18   2.0000     -19.240083      -523.5493
  19   2.0000     -19.239734      -523.5398
  20   2.0000     -19.239144      -523.5237
  21   2.0000     -19.218879      -522.9723
  22   2.0000     -19.213261      -522.8194
  23   2.0000     -19.187930      -522.1301
  24   2.0000     -14.651484      -398.6872
  25   2.0000     -14.501483      -394.6054
  26   2.0000     -14.415684      -392.2707
  27   2.0000     -14.414643      -392.2424
  28   2.0000     -14.413693      -392.2165
  29   2.0000     -14.412832      -392.1931
  30   2.0000     -10.389508      -282.7129
  31   2.0000     -10.380675      -282.4725
  32   2.0000     -10.369798      -282.1765
  33   2.0000     -10.364364      -282.0287
  34   2.0000     -10.358810      -281.8776
  35   2.0000     -10.358742      -281.8757
  36   2.0000     -10.353700      -281.7385
  37   2.0000     -10.353456      -281.7319
  38   2.0000     -10.347351      -281.5657
  39   2.0000     -10.343185      -281.4524
  40   2.0000     -10.342094      -281.4227
  41   2.0000     -10.341345      -281.4023
  42   2.0000     -10.340126      -281.3691
  43   2.0000     -10.325856      -280.9808
  44   2.0000     -10.325848      -280.9806
  45   2.0000     -10.325724      -280.9772
  46   2.0000     -10.325652      -280.9753
  47   2.0000     -10.325216      -280.9634
  48   2.0000     -10.323691      -280.9219
  49   2.0000     -10.321260      -280.8558
  50   2.0000     -10.321208      -280.8544
  51   2.0000     -10.320845      -280.8445
  52   2.0000     -10.318393      -280.7777
  53   2.0000     -10.317806      -280.7618
  54   2.0000     -10.317206      -280.7455
  55   2.0000     -10.316532      -280.7271
  56   2.0000     -10.316366      -280.7226
  57   2.0000     -10.315611      -280.7020
  58   2.0000     -10.314914      -280.6831
  59   2.0000     -10.314236      -280.6646
  60   2.0000     -10.312194      -280.6091
  61   2.0000     -10.309830      -280.5447
  62   2.0000     -10.309608      -280.5387
  63   2.0000     -10.308479      -280.5080
  64   2.0000     -10.308312      -280.5034
  65   2.0000     -10.307864      -280.4912
  66   2.0000     -10.307277      -280.4753
  67   2.0000     -10.306123      -280.4439
  68   2.0000     -10.305991      -280.4403
  69   2.0000     -10.305778      -280.4345
  70   2.0000     -10.305462      -280.4259
  71   2.0000     -10.304931      -280.4114
  72   2.0000     -10.301641      -280.3219
  73   2.0000     -10.301023      -280.3051
  74   2.0000     -10.300690      -280.2960
  75   2.0000     -10.299703      -280.2692
  76   2.0000     -10.299406      -280.2611
  77   2.0000     -10.299155      -280.2543
  78   2.0000     -10.296690      -280.1872
  79   2.0000     -10.296589      -280.1844
  80   2.0000     -10.294614      -280.1307
  81   2.0000     -10.294036      -280.1150
  82   2.0000     -10.293854      -280.1100
  83   2.0000     -10.293784      -280.1081
  84   2.0000     -10.293324      -280.0956
  85   2.0000     -10.292373      -280.0697
  86   2.0000     -10.278036      -279.6796
  87   2.0000      -8.792812      -239.2646
  88   2.0000      -8.792544      -239.2573
  89   2.0000      -8.088561      -220.1009
  90   2.0000      -8.071745      -219.6433
  91   2.0000      -8.071663      -219.6411
  92   2.0000      -8.071511      -219.6370
  93   2.0000      -8.069442      -219.5807
  94   2.0000      -8.068240      -219.5480
  95   2.0000      -8.064158      -219.4369
  96   2.0000      -6.629105      -180.3871
  97   2.0000      -6.628870      -180.3807
  98   2.0000      -6.614549      -179.9910
  99   2.0000      -6.614355      -179.9858
 100   2.0000      -6.614266      -179.9833
 101   2.0000      -6.614062      -179.9778
 102   2.0000      -6.058312      -164.8550
 103   2.0000      -6.053851      -164.7336
 104   2.0000      -6.049862      -164.6251
 105   2.0000      -6.041361      -164.3938
 106   2.0000      -6.041222      -164.3900
 107   2.0000      -6.041208      -164.3896
 108   2.0000      -6.038946      -164.3281
 109   2.0000      -6.038013      -164.3027
 110   2.0000      -6.037161      -164.2795
 111   2.0000      -6.037080      -164.2773
 112   2.0000      -6.036912      -164.2727
 113   2.0000      -6.034906      -164.2181
 114   2.0000      -6.034170      -164.1981
 115   2.0000      -6.033430      -164.1780
 116   2.0000      -6.033398      -164.1771
 117   2.0000      -6.032908      -164.1638
 118   2.0000      -6.032719      -164.1586
 119   2.0000      -6.031025      -164.1125
 120   2.0000      -6.029508      -164.0713
 121   2.0000      -6.029126      -164.0609
 122   2.0000      -6.026054      -163.9773
 123   2.0000      -2.744989       -74.6949
 124   2.0000      -2.744707       -74.6873
 125   2.0000      -2.740891       -74.5834
 126   2.0000      -2.740735       -74.5792
 127   2.0000      -2.740655       -74.5770
 128   2.0000      -2.740502       -74.5728
 129   2.0000      -2.729170       -74.2645
 130   2.0000      -2.729161       -74.2642
 131   2.0000      -2.728888       -74.2568
 132   2.0000      -2.728883       -74.2567
 133   2.0000      -1.320444       -35.9311
 134   2.0000      -1.173062       -31.9206
 135   2.0000      -1.142571       -31.0909
 136   2.0000      -1.139689       -31.0125
 137   2.0000      -1.133486       -30.8437
 138   2.0000      -1.128233       -30.7008
 139   2.0000      -1.107060       -30.1246
 140   2.0000      -1.084745       -29.5174
 141   2.0000      -1.034053       -28.1380
 142   2.0000      -1.022994       -27.8371
 143   2.0000      -1.022706       -27.8293
 144   2.0000      -1.014024       -27.5930
 145   2.0000      -1.012784       -27.5593
 146   2.0000      -1.012705       -27.5571
 147   2.0000      -1.006982       -27.4014
 148   2.0000      -0.996070       -27.1044
 149   2.0000      -0.992941       -27.0193
 150   2.0000      -0.992857       -27.0170
 151   2.0000      -0.989405       -26.9231
 152   2.0000      -0.988926       -26.9100
 153   2.0000      -0.952125       -25.9086
 154   2.0000      -0.944251       -25.6944
 155   2.0000      -0.943138       -25.6641
 156   2.0000      -0.935999       -25.4698
 157   2.0000      -0.929072       -25.2813
 158   2.0000      -0.921554       -25.0768
 159   2.0000      -0.916902       -24.9502
 160   2.0000      -0.908482       -24.7211
 161   2.0000      -0.908128       -24.7114
 162   2.0000      -0.899908       -24.4877
 163   2.0000      -0.888307       -24.1721
 164   2.0000      -0.886225       -24.1154
 165   2.0000      -0.885775       -24.1032
 166   2.0000      -0.884900       -24.0793
 167   2.0000      -0.876496       -23.8507
 168   2.0000      -0.870396       -23.6847
 169   2.0000      -0.859627       -23.3916
 170   2.0000      -0.853158       -23.2156
 171   2.0000      -0.850389       -23.1403
 172   2.0000      -0.842492       -22.9254
 173   2.0000      -0.840515       -22.8716
 174   2.0000      -0.829525       -22.5725
 175   2.0000      -0.828877       -22.5549
 176   2.0000      -0.816034       -22.2054
 177   2.0000      -0.804981       -21.9047
 178   2.0000      -0.797775       -21.7086
 179   2.0000      -0.786829       -21.4107
 180   2.0000      -0.772650       -21.0249
 181   2.0000      -0.763354       -20.7719
 182   2.0000      -0.759298       -20.6615
 183   2.0000      -0.755870       -20.5683
 184   2.0000      -0.747269       -20.3342
 185   2.0000      -0.740849       -20.1595
 186   2.0000      -0.738305       -20.0903
 187   2.0000      -0.720544       -19.6070
 188   2.0000      -0.717778       -19.5317
 189   2.0000      -0.704649       -19.1745
 190   2.0000      -0.699923       -19.0459
 191   2.0000      -0.693903       -18.8821
 192   2.0000      -0.690435       -18.7877
 193   2.0000      -0.686115       -18.6701
 194   2.0000      -0.685461       -18.6524
 195   2.0000      -0.673682       -18.3318
 196   2.0000      -0.671586       -18.2748
 197   2.0000      -0.665587       -18.1115
 198   2.0000      -0.662844       -18.0369
 199   2.0000      -0.658612       -17.9217
 200   2.0000      -0.657265       -17.8851
 201   2.0000      -0.651294       -17.7226
 202   2.0000      -0.644353       -17.5337
 203   2.0000      -0.641190       -17.4477
 204   2.0000      -0.639091       -17.3906
 205   2.0000      -0.637255       -17.3406
 206   2.0000      -0.632922       -17.2227
 207   2.0000      -0.629133       -17.1196
 208   2.0000      -0.625618       -17.0239
 209   2.0000      -0.624138       -16.9837
 210   2.0000      -0.622021       -16.9260
 211   2.0000      -0.614578       -16.7235
 212   2.0000      -0.612695       -16.6723
 213   2.0000      -0.602126       -16.3847
 214   2.0000      -0.599952       -16.3255
 215   2.0000      -0.598704       -16.2916
 216   2.0000      -0.594387       -16.1741
 217   2.0000      -0.586490       -15.9592
 218   2.0000      -0.585650       -15.9363
 219   2.0000      -0.580711       -15.8019
 220   2.0000      -0.578578       -15.7439
 221   2.0000      -0.572139       -15.5687
 222   2.0000      -0.564424       -15.3588
 223   2.0000      -0.560663       -15.2564
 224   2.0000      -0.556971       -15.1560
 225   2.0000      -0.551796       -15.0151
 226   2.0000      -0.550192       -14.9715
 227   2.0000      -0.549236       -14.9455
 228   2.0000      -0.546489       -14.8707
 229   2.0000      -0.543520       -14.7899
 230   2.0000      -0.540994       -14.7212
 231   2.0000      -0.540196       -14.6995
 232   2.0000      -0.538563       -14.6550
 233   2.0000      -0.535042       -14.5592
 234   2.0000      -0.533644       -14.5212
 235   2.0000      -0.531884       -14.4733
 236   2.0000      -0.528920       -14.3926
 237   2.0000      -0.528156       -14.3719
 238   2.0000      -0.526062       -14.3149
 239   2.0000      -0.520928       -14.1752
 240   2.0000      -0.516009       -14.0413
 241   2.0000      -0.515501       -14.0275
 242   2.0000      -0.513165       -13.9639
 243   2.0000      -0.511203       -13.9105
 244   2.0000      -0.509394       -13.8613
 245   2.0000      -0.507850       -13.8193
 246   2.0000      -0.506295       -13.7770
 247   2.0000      -0.504986       -13.7414
 248   2.0000      -0.499888       -13.6026
 249   2.0000      -0.498640       -13.5687
 250   2.0000      -0.497276       -13.5316
 251   2.0000      -0.495537       -13.4843
 252   2.0000      -0.494361       -13.4522
 253   2.0000      -0.493632       -13.4324
 254   2.0000      -0.491213       -13.3666
 255   2.0000      -0.489233       -13.3127
 256   2.0000      -0.487285       -13.2597
 257   2.0000      -0.485633       -13.2148
 258   2.0000      -0.481154       -13.0929
 259   2.0000      -0.478651       -13.0248
 260   2.0000      -0.475876       -12.9492
 261   2.0000      -0.474602       -12.9146
 262   2.0000      -0.468359       -12.7447
 263   2.0000      -0.466643       -12.6980
 264   2.0000      -0.464048       -12.6274
 265   2.0000      -0.459241       -12.4966
 266   2.0000      -0.458725       -12.4826
 267   2.0000      -0.456524       -12.4226
 268   2.0000      -0.455375       -12.3914
 269   2.0000      -0.453812       -12.3489
 270   2.0000      -0.450560       -12.2604
 271   2.0000      -0.448259       -12.1978
 272   2.0000      -0.447663       -12.1815
 273   2.0000      -0.447459       -12.1760
 274   2.0000      -0.446024       -12.1369
 275   2.0000      -0.445606       -12.1255
 276   2.0000      -0.442675       -12.0458
 277   2.0000      -0.442520       -12.0416
 278   2.0000      -0.438893       -11.9429
 279   2.0000      -0.437842       -11.9143
 280   2.0000      -0.433332       -11.7916
 281   2.0000      -0.432698       -11.7743
 282   2.0000      -0.427740       -11.6394
 283   2.0000      -0.427182       -11.6242
 284   2.0000      -0.425221       -11.5709
 285   2.0000      -0.424631       -11.5548
 286   2.0000      -0.422924       -11.5083
 287   2.0000      -0.419994       -11.4286
 288   2.0000      -0.419564       -11.4169
 289   2.0000      -0.414051       -11.2669
 290   2.0000      -0.413311       -11.2468
 291   2.0000      -0.408638       -11.1196
 292   2.0000      -0.408548       -11.1172
 293   2.0000      -0.405467       -11.0333
 294   2.0000      -0.397182       -10.8079
 295   2.0000      -0.396054       -10.7772
 296   2.0000      -0.388916       -10.5829
 297   2.0000      -0.387543       -10.5456
 298   2.0000      -0.387412       -10.5420
 299   2.0000      -0.385938       -10.5019
 300   2.0000      -0.380795       -10.3620
 301   2.0000      -0.377012       -10.2590
 302   2.0000      -0.376207       -10.2371
 303   2.0000      -0.375047       -10.2056
 304   2.0000      -0.374816       -10.1993
 305   2.0000      -0.369146       -10.0450
 306   2.0000      -0.368369       -10.0238
 307   2.0000      -0.358985        -9.7685
 308   2.0000      -0.348484        -9.4827
 309   2.0000      -0.344289        -9.3686
 310   2.0000      -0.343389        -9.3441
 311   2.0000      -0.340029        -9.2527
 312   2.0000      -0.337670        -9.1885
 313   2.0000      -0.332633        -9.0514
 314   2.0000      -0.323546        -8.8041
 315   2.0000      -0.316150        -8.6029
 316   2.0000      -0.315282        -8.5793
 317   2.0000      -0.315145        -8.5755
 318   2.0000      -0.300649        -8.1811
 319   2.0000      -0.295636        -8.0447
 320   2.0000      -0.293697        -7.9919
 321   2.0000      -0.291116        -7.9217
 322   2.0000      -0.265037        -7.2120
 323   2.0000      -0.246151        -6.6981
 324   0.0000      -0.098928        -2.6920
 325   0.0000      -0.092806        -2.5254
 326   0.0000      -0.067019        -1.8237
 327   0.0000      -0.064618        -1.7584
 328   0.0000      -0.056053        -1.5253

MULLIKEN ATOMIC CHARGES
-----------------------
   0 C :    0.290939
   1 C :   -0.332126
   2 C :   -0.184855
   3 N :    0.150926
   4 C :   -0.208667
   5 N :    0.165484
   6 C :    0.021560
   7 C :   -0.019281
   8 C :   -0.065946
   9 C :    0.116391
  10 C :   -0.087831
  11 C :   -0.022246
  12 S :    0.188068
  13 C :   -0.122829
  14 C :    0.039446
  15 Br:    0.024720
  16 C :    0.146421
  17 O :   -0.154483
  18 C :   -0.095453
  19 C :   -0.005212
  20 C :   -0.151964
  21 S :    0.115344
  22 C :   -0.089618
  23 C :   -0.131804
  24 C :    0.027554
  25 C :    0.211973
  26 C :   -0.194216
  27 C :    0.164644
  28 O :   -0.186286
  29 O :   -0.159068
  30 C :    0.098160
  31 O :   -0.311028
  32 C :    0.188142
  33 C :   -0.018637
  34 C :    0.059369
  35 N :   -0.021915
  36 C :   -0.114077
  37 S :    0.154177
  38 C :   -0.003267
  39 N :    0.278235
  40 O :   -0.250779
  41 O :   -0.265370
  42 C :    0.005360
  43 C :    0.126420
  44 C :   -0.034167
  45 C :    0.060320
  46 C :   -0.074366
  47 S :    0.163061
  48 C :   -0.079636
  49 C :   -0.031435
  50 C :   -0.037024
  51 S :    0.154119
  52 C :   -0.021433
  53 C :   -0.026642
  54 C :   -0.045145
  55 S :    0.160462
  56 C :   -0.062998
  57 C :    0.041363
  58 C :   -0.012252
  59 C :    0.034625
  60 C :   -0.113091
  61 C :    0.270501
  62 C :   -0.330340
  63 C :   -0.179813
  64 N :    0.147608
  65 C :   -0.222544
  66 N :    0.170124
  67 C :    0.011296
  68 C :   -0.006973
  69 C :    0.140486
  70 O :   -0.144651
  71 C :   -0.072955
  72 C :    0.114440
  73 C :   -0.088760
  74 C :   -0.023565
  75 S :    0.185257
  76 C :   -0.125208
  77 C :    0.040006
  78 Br:    0.023177
  79 H :   -0.011633
  80 H :   -0.005146
  81 H :   -0.003158
  82 H :    0.038333
  83 H :    0.020542
  84 H :    0.029095
  85 H :    0.045897
  86 H :    0.179664
  87 H :    0.010892
  88 H :    0.187179
  89 H :    0.024590
  90 H :    0.005118
  91 H :   -0.019902
  92 H :    0.043810
  93 H :    0.134847
  94 H :    0.014244
  95 H :   -0.040404
  96 H :   -0.014315
  97 H :   -0.024804
  98 H :   -0.006875
  99 H :    0.004483
 100 H :    0.030221
 101 H :    0.013833
 102 H :   -0.009908
 103 H :   -0.003705
 104 H :   -0.003116
Sum of atomic charges:   -0.0000000

LOEWDIN ATOMIC CHARGES
----------------------
   0 C :    0.074640
   1 C :   -0.137697
   2 C :   -0.018275
   3 N :   -0.051398
   4 C :   -0.025240
   5 N :   -0.049869
   6 C :   -0.019941
   7 C :   -0.049312
   8 C :    0.023311
   9 C :   -0.031845
  10 C :   -0.143052
  11 C :   -0.008689
  12 S :    0.434514
  13 C :   -0.271322
  14 C :   -0.069805
  15 Br:    0.137809
  16 C :    0.083391
  17 O :   -0.145457
  18 C :   -0.094277
  19 C :    0.050363
  20 C :   -0.184390
  21 S :    0.435018
  22 C :   -0.147758
  23 C :   -0.071682
  24 C :   -0.007502
  25 C :   -0.008983
  26 C :   -0.070924
  27 C :    0.075424
  28 O :   -0.164013
  29 O :   -0.031709
  30 C :    0.075810
  31 O :   -0.111240
  32 C :   -0.038289
  33 C :   -0.095354
  34 C :    0.030273
  35 N :    0.044090
  36 C :   -0.099047
  37 S :    0.460129
  38 C :   -0.209695
  39 N :    0.273597
  40 O :   -0.217058
  41 O :   -0.232019
  42 C :    0.006451
  43 C :   -0.107027
  44 C :   -0.024467
  45 C :   -0.040103
  46 C :   -0.154973
  47 S :    0.440534
  48 C :   -0.222365
  49 C :   -0.181951
  50 C :   -0.071758
  51 S :    0.403278
  52 C :   -0.195624
  53 C :   -0.039618
  54 C :   -0.164659
  55 S :    0.448990
  56 C :   -0.200789
  57 C :    0.019583
  58 C :   -0.046000
  59 C :    0.067619
  60 C :   -0.097224
  61 C :    0.070266
  62 C :   -0.142265
  63 C :   -0.019547
  64 N :   -0.053716
  65 C :   -0.026158
  66 N :   -0.050936
  67 C :   -0.018138
  68 C :   -0.052316
  69 C :    0.081373
  70 O :   -0.145940
  71 C :    0.022044
  72 C :   -0.033766
  73 C :   -0.143548
  74 C :   -0.012973
  75 S :    0.432017
  76 C :   -0.272177
  77 C :   -0.070262
  78 Br:    0.136442
  79 H :    0.040701
  80 H :    0.041454
  81 H :    0.038978
  82 H :    0.045714
  83 H :    0.038838
  84 H :    0.042859
  85 H :    0.046454
  86 H :    0.065067
  87 H :    0.016216
  88 H :    0.088459
  89 H :    0.038800
  90 H :    0.026134
  91 H :    0.028443
  92 H :    0.021206
  93 H :    0.095565
  94 H :    0.045111
  95 H :    0.018519
  96 H :    0.029597
  97 H :    0.028330
  98 H :    0.037495
  99 H :    0.041978
 100 H :    0.025659
 101 H :    0.044849
 102 H :    0.041139
 103 H :    0.040726
 104 H :    0.038884

  Mayer bond orders larger than 0.100000
B(  0-C ,  1-C ) :   1.6533 B(  0-C ,  6-C ) :   1.0123 B(  0-C , 18-C ) :   1.0529
B(  1-C ,  2-C ) :   1.1363 B(  1-C ,  4-C ) :   1.1402 B(  2-C ,  3-N ) :   2.9744
B(  4-C ,  5-N ) :   3.0022 B(  6-C ,  7-C ) :   1.2703 B(  6-C , 11-C ) :   1.4070
B(  7-C ,  8-C ) :   1.4260 B(  7-C , 16-C ) :   0.9445 B(  8-C ,  9-C ) :   1.2464
B(  8-C , 79-H ) :   1.0158 B(  9-C , 10-C ) :   1.3044 B(  9-C , 14-C ) :   1.1645
B( 10-C , 11-C ) :   1.3301 B( 10-C , 12-S ) :   1.0868 B( 11-C , 80-H ) :   0.9810
B( 12-S , 13-C ) :   1.0866 B( 13-C , 14-C ) :   1.6173 B( 13-C , 15-Br) :   1.0190
B( 14-C , 81-H ) :   1.0001 B( 16-C , 17-O ) :   2.1969 B( 16-C , 18-C ) :   0.9492
B( 18-C , 19-C ) :   1.6344 B( 19-C , 20-C ) :   1.1414 B( 19-C , 82-H ) :   0.9349
B( 20-C , 21-S ) :   1.0839 B( 20-C , 24-C ) :   1.4979 B( 21-S , 22-C ) :   1.1351
B( 22-C , 23-C ) :   1.4882 B( 22-C , 33-C ) :   1.1735 B( 23-C , 24-C ) :   1.3234
B( 23-C , 32-C ) :   1.0350 B( 24-C , 25-C ) :   1.0377 B( 25-C , 26-C ) :   1.0456
B( 25-C , 83-H ) :   0.8885 B( 25-C , 84-H ) :   0.9082 B( 26-C , 27-C ) :   0.8995
B( 26-C , 30-C ) :   1.0015 B( 26-C , 85-H ) :   0.8987 B( 27-C , 28-O ) :   2.1541
B( 27-C , 29-O ) :   1.2845 B( 29-O , 86-H ) :   0.9133 B( 30-C , 31-O ) :   0.9832
B( 30-C , 32-C ) :   1.0474 B( 30-C , 87-H ) :   0.9350 B( 31-O , 86-H ) :   0.1154
B( 31-O , 88-H ) :   0.9639 B( 32-C , 89-H ) :   0.8957 B( 32-C , 90-H ) :   0.9025
B( 33-C , 34-C ) :   1.6622 B( 33-C , 91-H ) :   0.9598 B( 34-C , 35-N ) :   1.1294
B( 34-C , 92-H ) :   0.9564 B( 35-N , 36-C ) :   1.2236 B( 35-N , 93-H ) :   0.9173
B( 36-C , 37-S ) :   1.1362 B( 36-C , 43-C ) :   1.3540 B( 37-S , 38-C ) :   1.0652
B( 38-C , 39-N ) :   0.9765 B( 38-C , 42-C ) :   1.5010 B( 39-N , 40-O ) :   1.5302
B( 39-N , 41-O ) :   1.5073 B( 40-O , 41-O ) :   0.2566 B( 42-C , 43-C ) :   1.2246
B( 42-C , 94-H ) :   0.9985 B( 43-C , 44-C ) :   1.0727 B( 44-C , 45-C ) :   1.7541
B( 44-C , 95-H ) :   0.9651 B( 45-C , 46-C ) :   1.1076 B( 45-C , 96-H ) :   0.9553
B( 46-C , 47-S ) :   1.1036 B( 46-C , 50-C ) :   1.5129 B( 47-S , 48-C ) :   1.0738
B( 48-C , 49-C ) :   1.4528 B( 48-C , 56-C ) :   1.3130 B( 49-C , 50-C ) :   1.2791
B( 49-C , 51-S ) :   1.0547 B( 50-C , 97-H ) :   0.9948 B( 51-S , 52-C ) :   1.0399
B( 52-C , 53-C ) :   1.2850 B( 52-C , 56-C ) :   1.4390 B( 53-C , 54-C ) :   1.4565
B( 53-C , 98-H ) :   1.0067 B( 54-C , 55-S ) :   1.0797 B( 54-C , 57-C ) :   1.1781
B( 55-S , 56-C ) :   1.0990 B( 57-C , 58-C ) :   1.6062 B( 57-C , 99-H ) :   0.9863
B( 58-C , 59-C ) :   1.1572 B( 58-C ,100-H ) :   0.9521 B( 59-C , 60-C ) :   1.5976
B( 59-C ,101-H ) :   0.9597 B( 60-C , 61-C ) :   1.0501 B( 60-C , 69-C ) :   0.9436
B( 61-C , 62-C ) :   1.6320 B( 61-C , 67-C ) :   1.0158 B( 62-C , 63-C ) :   1.1318
B( 62-C , 65-C ) :   1.1576 B( 63-C , 64-N ) :   2.9836 B( 65-C , 66-N ) :   3.0156
B( 67-C , 68-C ) :   1.2738 B( 67-C , 74-C ) :   1.4148 B( 68-C , 69-C ) :   0.9201
B( 68-C , 71-C ) :   1.4280 B( 69-C , 70-O ) :   2.2691 B( 71-C , 72-C ) :   1.2501
B( 71-C ,102-H ) :   1.0164 B( 72-C , 73-C ) :   1.3080 B( 72-C , 77-C ) :   1.1634
B( 73-C , 74-C ) :   1.3263 B( 73-C , 75-S ) :   1.0849 B( 74-C ,103-H ) :   0.9820
B( 75-S , 76-C ) :   1.0864 B( 76-C , 77-C ) :   1.6204 B( 76-C , 78-Br) :   1.0182
B( 77-C ,104-H ) :   0.9998

-----------------------------------------------------------------------------
         ABSORPTION SPECTRUM VIA TRANSITION ELECTRIC DIPOLE MOMENTS
-----------------------------------------------------------------------------
State   Energy  Wavelength   fosc         T2         TX        TY        TZ
        (cm-1)    (nm)                  (au**2)     (au)      (au)      (au)
-----------------------------------------------------------------------------
   0   17863.9    559.8   2.360894953  43.50874   2.17309  -5.70672  -2.49395
   1   19478.1    513.4   0.284299927   4.80514   0.46233   2.11712   0.33047
   2   24800.6    403.2   0.424966356   5.64115   0.53481   0.59353   2.23671
   3   25013.3    399.8   0.123007485   1.61896   0.23725  -1.06542   0.65387
   4   25750.0    388.3   0.019404031   0.24808   0.08216   0.24376   0.42651
   5   26193.9    381.8   0.124256398   1.56169  -0.29278   0.01741   1.21477
   6   27016.5    370.1   0.136476633   1.66305  -0.04133   0.33360   1.24501
   7   27749.2    360.4   0.658795916   7.81584  -0.61821   2.65959   0.60018
   8   28016.7    356.9   0.033507172   0.39373   0.10303   0.59963  -0.15349
   9   28192.4    354.7   0.357236738   4.17157  -1.83418   0.87730   0.19413
  10   29013.1    344.7   0.072242109   0.81973  -0.03195  -0.90482  -0.00328
  11   29525.2    338.7   0.037799415   0.42147  -0.26482  -0.05776  -0.58992
  12   29740.0    336.2   0.077075673   0.85320   0.26158  -0.54550   0.69801
  13   30267.7    330.4   0.017657581   0.19206   0.02624   0.40046  -0.17605
  14   30417.0    328.8   0.008351835   0.09039  -0.11630   0.26566  -0.07934
  15   31493.2    317.5   0.041449020   0.43328  -0.17471   0.28940   0.56481
  16   31829.5    314.2   0.362243833   3.74669   1.04618  -0.53402   1.53851
  17   32455.6    308.1   0.043980833   0.44612  -0.17290   0.63359  -0.12161
  18   32761.9    305.2   0.133999521   1.34651   0.05199  -0.52124  -1.03543
  19   33312.9    300.2   0.357951831   3.53743  -1.80889   0.34790   0.37991
  20   33461.2    298.9   0.306405621   3.01461   0.15063  -1.71796  -0.20138
  21   33511.9    298.4   0.264323392   2.59664   1.45553  -0.55616  -0.41080
  22   33769.4    296.1   0.200165128   1.95138   0.69862  -0.03615   1.20913
  23   34010.3    294.0   0.245181965   2.37331   0.23649  -1.51516   0.14725
  24   34980.7    285.9   0.130372630   1.22697  -0.17641  -1.06703   0.23934
  25   35404.5    282.4   0.029806161   0.27716  -0.19022   0.47521  -0.12305
  26   35771.3    279.6   0.115543591   1.06338   0.29975  -0.82614  -0.53946
  27   36544.8    273.6   0.071893042   0.64765   0.35657  -0.43448   0.57596
  28   36652.9    272.8   0.002632968   0.02365   0.06282  -0.11433   0.08143
  29   36858.9    271.3   0.012432174   0.11104  -0.05996  -0.32760  -0.01097
  30   37017.1    270.1   0.026173158   0.23277  -0.11577  -0.34457  -0.31724
  31   37572.3    266.2   0.006978792   0.06115  -0.11001   0.20694  -0.07890
  32   37835.3    264.3   0.026402689   0.22973   0.16562  -0.11190   0.43564
  33   38089.9    262.5   0.098767013   0.85365  -0.29655   0.05202   0.87350
  34   38320.8    261.0   0.080470806   0.69132   0.46046   0.33825   0.60406
  35   38513.0    259.7   0.011209923   0.09582   0.04693  -0.08333   0.29441
  36   38638.4    258.8   0.079684497   0.67894   0.10093   0.49810   0.64857
  37   38774.0    257.9   0.099842980   0.84772   0.14267   0.59696   0.68629
  38   39099.7    255.8   0.079514261   0.66949  -0.36916   0.33729  -0.64765
  39   39311.4    254.4   0.049216180   0.41216   0.46827  -0.38924   0.20340
  40   39649.6    252.2   0.053861198   0.44721   0.43555  -0.23081   0.45193
  41   39856.2    250.9   0.048018112   0.39663   0.27979   0.38986   0.40787
  42   40268.8    248.3   0.089410800   0.73097  -0.77507  -0.04201  -0.35843

FINAL SINGLE POINT ENERGY    -10973.253073078560

DIPOLE MOMENT
-------------
                                X             Y             Z
Electronic contribution:      0.33410      70.84608     -41.74091
Nuclear contribution   :      3.03774     -68.37656      45.24822
                        -----------------------------------------
Total Dipole Moment    :      3.37184       2.46952       3.50732
                        -----------------------------------------
Magnitude (a.u.)       :      5.45611
Magnitude (Debye)      :     13.86832

Rotational constants in cm-1:     0.001492     0.000091     0.000088
Rotational constants in MHz :    44.726610     2.714837     2.639865

                             ****ORCA TERMINATED NORMALLY****
TOTAL RUN TIME: 0 days 0 hours 11 minutes 22 seconds 706 msec
