                         Program Version 4.2.0 -  RELEASE  -
|  1> # ORCA input file
|  2> # SCF done       -176.212869776067          0.000618471660
|  3> ! CAM-B3LYP def2-SVP def2/J RIJCOSX Grid4 TightSCF
|  4> %maxcore 5000
|  5> %tddft
|  6>     Mode sTDDFT
|  7>     Ethresh 5.0
|  8>     maxcore 5000
|  9> end
| 10>
| 11> %pal
| 12>   nprocs 6
| 13>   end
| 14> * xyz 0 1
| 15>    C      -19.60669        -8.07908         0.14184
| 16>    C      -18.52762        -8.84977        -0.24712
| 17>    C      -18.56395       -10.24697        -0.38279
| 18>    N      -18.50235       -11.39333        -0.45763
| 19>    C      -17.24830        -8.36622        -0.56096
| 20>    N      -16.17303        -8.07066        -0.84529
| 21>    C      -20.97279        -8.58012         0.28871
| 22>    C      -21.80879        -7.49693         0.64751
| 23>    C      -23.16042        -7.63371         0.83372
| 24>    C      -23.71741        -8.90667         0.65727
| 25>    C      -22.87486        -9.98206         0.29910
| 26>    C      -21.50393        -9.84091         0.10865
| 27>    S      -23.76777       -11.46413         0.12791
| 28>    C      -25.24233       -10.62608         0.53146
| 29>    C      -25.07630        -9.30674         0.78433
| 30>   Br      -26.86177       -11.57401         0.58514
| 31>    C      -20.98392        -6.27446         0.77145
| 32>    O      -21.39387        -5.17184         1.09101
| 33>    C      -19.60731        -6.68732         0.46329
| 34>    C      -18.49044        -5.85537         0.55602
| 35>    C      -18.52762        -4.53317         0.93471
| 36>    C      -17.38307        -3.73824         1.07509
| 37>    C      -17.34816        -2.37808         1.38278
| 38>    C      -16.07331        -1.85229         1.44730
| 39>    C      -15.07440        -2.79152         1.20428
| 40>    S      -15.76336        -4.36262         0.89246
| 41>    C      -13.68498        -2.58322         1.15282
| 42>    C      -12.98802        -1.37946         1.26813
| 43>    C      -11.62796        -1.51442         1.09130
| 44>    C      -11.21605        -2.82595         0.83690
| 45>    S      -12.59362        -3.90316         0.85329
| 46>    C       -9.91632        -3.24297         0.54541
| 47>    C       -9.51493        -4.52731         0.26608
| 48>    S      -10.57206        -5.94540         0.33137
| 49>    C       -9.32565        -7.07829        -0.19968
| 50>    C       -8.12104        -6.34804        -0.40661
| 51>    C       -8.24228        -4.97482        -0.13632
| 52>    O       -7.08542        -4.33544        -0.34341
| 53>    C       -6.20765        -5.29379        -0.74718
| 54>    N       -4.88666        -4.91023        -1.03845
| 55>    O       -4.12966        -5.79861        -1.39381
| 56>    O       -4.59028        -3.73790        -0.91842
| 57>    C       -6.78654        -6.54478        -0.80427
| 58>    C       -9.54044        -8.41652        -0.37330
| 59>    C      -10.73358        -9.10723        -0.10751
| 60>    C      -10.97065       -10.46720        -0.31252
| 61>    C      -12.22856       -10.88143         0.07934
| 62>    C      -13.00511        -9.85495         0.61033
| 63>    S      -12.13845        -8.34588         0.58213
| 64>    C      -14.29531        -9.91677         1.16529
| 65>    C      -15.14475       -11.01956         1.27117
| 66>    C      -16.32811       -10.73650         1.91312
| 67>    C      -16.43624        -9.40797         2.34656
| 68>    S      -15.00983        -8.51097         1.88318
| 69>    C      -17.57532        -8.84519         2.92690
| 70>    C      -17.76719        -7.57901         3.44590
| 71>    S      -19.42140        -6.97275         3.43056
| 72>    C      -18.92665        -5.34736         3.69170
| 73>    C      -17.53193        -5.27016         3.89972
| 74>    C      -16.88381        -6.54246         3.87240
| 75>    C      -15.57574        -6.64875         4.38340
| 76>    C      -14.97401        -7.93629         4.85494
| 77>    C      -14.86956        -5.47805         4.59360
| 78>    C      -15.43727        -4.22156         4.38756
| 79>    C      -16.77462        -4.10571         4.10093
| 80>    C      -19.94724        -4.34383         3.81064
| 81>    C      -19.87350        -3.21322         4.51426
| 82>    H      -23.77378        -6.78745         1.10111
| 83>    H      -20.90596       -10.69228        -0.17053
| 84>    H      -25.87781        -8.64110         1.04844
| 85>    H      -17.51611        -6.29050         0.36630
| 86>    H      -19.48146        -4.04895         1.08217
| 87>    H      -18.24751        -1.80858         1.53749
| 88>    H      -15.85948        -0.82064         1.66170
| 89>    H      -13.47818        -0.44159         1.45608
| 90>    H      -10.93081        -0.69616         1.12768
| 91>    H       -9.15228        -2.47722         0.50491
| 92>    H       -6.29053        -7.44724        -1.09531
| 93>    H       -8.71272        -9.00694        -0.74314
| 94>    H      -10.22727       -11.11922        -0.73561
| 95>    H      -12.58011       -11.89389        -0.00121
| 96>    H      -14.89399       -11.98620         0.87540
| 97>    H      -17.10881       -11.45702         2.07947
| 98>    H      -18.46325        -9.46674         2.86706
| 99>    H      -15.65846        -8.77090         4.74531
|100>    H      -14.72883        -7.83011         5.91213
|101>    H      -14.04948        -8.16017         4.32697
|102>    H      -13.85346        -5.54440         4.95285
|103>    H      -14.83467        -3.33562         4.51979
|104>    H      -17.23859        -3.13790         4.02366
|105>    H      -20.87084        -4.58097         3.29852
|106>    H      -19.01676        -2.94366         5.10578
|107>    H      -20.70861        -2.53514         4.54340
|108> *
|109>
|110>                          ****END OF INPUT****

CARTESIAN COORDINATES (ANGSTROEM)
---------------------------------
  C    -19.606690   -8.079080    0.141840
  C    -18.527620   -8.849770   -0.247120
  C    -18.563950  -10.246970   -0.382790
  N    -18.502350  -11.393330   -0.457630
  C    -17.248300   -8.366220   -0.560960
  N    -16.173030   -8.070660   -0.845290
  C    -20.972790   -8.580120    0.288710
  C    -21.808790   -7.496930    0.647510
  C    -23.160420   -7.633710    0.833720
  C    -23.717410   -8.906670    0.657270
  C    -22.874860   -9.982060    0.299100
  C    -21.503930   -9.840910    0.108650
  S    -23.767770  -11.464130    0.127910
  C    -25.242330  -10.626080    0.531460
  C    -25.076300   -9.306740    0.784330
  Br   -26.861770  -11.574010    0.585140
  C    -20.983920   -6.274460    0.771450
  O    -21.393870   -5.171840    1.091010
  C    -19.607310   -6.687320    0.463290
  C    -18.490440   -5.855370    0.556020
  C    -18.527620   -4.533170    0.934710
  C    -17.383070   -3.738240    1.075090
  C    -17.348160   -2.378080    1.382780
  C    -16.073310   -1.852290    1.447300
  C    -15.074400   -2.791520    1.204280
  S    -15.763360   -4.362620    0.892460
  C    -13.684980   -2.583220    1.152820
  C    -12.988020   -1.379460    1.268130
  C    -11.627960   -1.514420    1.091300
  C    -11.216050   -2.825950    0.836900
  S    -12.593620   -3.903160    0.853290
  C     -9.916320   -3.242970    0.545410
  C     -9.514930   -4.527310    0.266080
  S    -10.572060   -5.945400    0.331370
  C     -9.325650   -7.078290   -0.199680
  C     -8.121040   -6.348040   -0.406610
  C     -8.242280   -4.974820   -0.136320
  O     -7.085420   -4.335440   -0.343410
  C     -6.207650   -5.293790   -0.747180
  N     -4.886660   -4.910230   -1.038450
  O     -4.129660   -5.798610   -1.393810
  O     -4.590280   -3.737900   -0.918420
  C     -6.786540   -6.544780   -0.804270
  C     -9.540440   -8.416520   -0.373300
  C    -10.733580   -9.107230   -0.107510
  C    -10.970650  -10.467200   -0.312520
  C    -12.228560  -10.881430    0.079340
  C    -13.005110   -9.854950    0.610330
  S    -12.138450   -8.345880    0.582130
  C    -14.295310   -9.916770    1.165290
  C    -15.144750  -11.019560    1.271170
  C    -16.328110  -10.736500    1.913120
  C    -16.436240   -9.407970    2.346560
  S    -15.009830   -8.510970    1.883180
  C    -17.575320   -8.845190    2.926900
  C    -17.767190   -7.579010    3.445900
  S    -19.421400   -6.972750    3.430560
  C    -18.926650   -5.347360    3.691700
  C    -17.531930   -5.270160    3.899720
  C    -16.883810   -6.542460    3.872400
  C    -15.575740   -6.648750    4.383400
  C    -14.974010   -7.936290    4.854940
  C    -14.869560   -5.478050    4.593600
  C    -15.437270   -4.221560    4.387560
  C    -16.774620   -4.105710    4.100930
  C    -19.947240   -4.343830    3.810640
  C    -19.873500   -3.213220    4.514260
  H    -23.773780   -6.787450    1.101110
  H    -20.905960  -10.692280   -0.170530
  H    -25.877810   -8.641100    1.048440
  H    -17.516110   -6.290500    0.366300
  H    -19.481460   -4.048950    1.082170
  H    -18.247510   -1.808580    1.537490
  H    -15.859480   -0.820640    1.661700
  H    -13.478180   -0.441590    1.456080
  H    -10.930810   -0.696160    1.127680
  H     -9.152280   -2.477220    0.504910
  H     -6.290530   -7.447240   -1.095310
  H     -8.712720   -9.006940   -0.743140
  H    -10.227270  -11.119220   -0.735610
  H    -12.580110  -11.893890   -0.001210
  H    -14.893990  -11.986200    0.875400
  H    -17.108810  -11.457020    2.079470
  H    -18.463250   -9.466740    2.867060
  H    -15.658460   -8.770900    4.745310
  H    -14.728830   -7.830110    5.912130
  H    -14.049480   -8.160170    4.326970
  H    -13.853460   -5.544400    4.952850
  H    -14.834670   -3.335620    4.519790
  H    -17.238590   -3.137900    4.023660
  H    -20.870840   -4.580970    3.298520
  H    -19.016760   -2.943660    5.105780
  H    -20.708610   -2.535140    4.543400

 Total Charge           Charge          ....    0
 Multiplicity           Mult            ....    1
 Number of Electrons    NEL             ....  538
 Basis Dimension        Dim             .... 1114

ORBITAL ENERGIES
----------------

  NO   OCC          E(Eh)            E(eV)
   0   2.0000    -482.876118    -13139.7272
   1   2.0000     -88.980645     -2421.2864
   2   2.0000     -88.964302     -2420.8417
   3   2.0000     -88.963525     -2420.8206
   4   2.0000     -88.963436     -2420.8182
   5   2.0000     -88.962745     -2420.7994
   6   2.0000     -88.961821     -2420.7742
   7   2.0000     -88.952870     -2420.5307
   8   2.0000     -62.553819     -1702.1759
   9   2.0000     -56.387755     -1534.3888
  10   2.0000     -56.385070     -1534.3158
  11   2.0000     -56.385027     -1534.3146
  12   2.0000     -19.323963      -525.8318
  13   2.0000     -19.236426      -523.4498
  14   2.0000     -19.234503      -523.3974
  15   2.0000     -19.197585      -522.3928
  16   2.0000     -14.649668      -398.6377
  17   2.0000     -14.398253      -391.7964
  18   2.0000     -14.394863      -391.7041
  19   2.0000     -10.381440      -282.4933
  20   2.0000     -10.359865      -281.9062
  21   2.0000     -10.346474      -281.5419
  22   2.0000     -10.346192      -281.5342
  23   2.0000     -10.336207      -281.2625
  24   2.0000     -10.325242      -280.9641
  25   2.0000     -10.322955      -280.9019
  26   2.0000     -10.322406      -280.8870
  27   2.0000     -10.322332      -280.8849
  28   2.0000     -10.321951      -280.8746
  29   2.0000     -10.316850      -280.7358
  30   2.0000     -10.314789      -280.6797
  31   2.0000     -10.313963      -280.6572
  32   2.0000     -10.313813      -280.6531
  33   2.0000     -10.313399      -280.6419
  34   2.0000     -10.312586      -280.6197
  35   2.0000     -10.311516      -280.5906
  36   2.0000     -10.310398      -280.5602
  37   2.0000     -10.308990      -280.5219
  38   2.0000     -10.305817      -280.4355
  39   2.0000     -10.305703      -280.4324
  40   2.0000     -10.303984      -280.3857
  41   2.0000     -10.301313      -280.3130
  42   2.0000     -10.300457      -280.2897
  43   2.0000     -10.300361      -280.2871
  44   2.0000     -10.299485      -280.2632
  45   2.0000     -10.295734      -280.1612
  46   2.0000     -10.295215      -280.1470
  47   2.0000     -10.293766      -280.1076
  48   2.0000     -10.291783      -280.0536
  49   2.0000     -10.291292      -280.0403
  50   2.0000     -10.291217      -280.0382
  51   2.0000     -10.289976      -280.0045
  52   2.0000     -10.288863      -279.9742
  53   2.0000     -10.286774      -279.9174
  54   2.0000     -10.286136      -279.9000
  55   2.0000     -10.285350      -279.8786
  56   2.0000     -10.285325      -279.8779
  57   2.0000     -10.283237      -279.8211
  58   2.0000     -10.282572      -279.8030
  59   2.0000     -10.281773      -279.7813
  60   2.0000     -10.281512      -279.7742
  61   2.0000     -10.281122      -279.7635
  62   2.0000     -10.279899      -279.7303
  63   2.0000     -10.279839      -279.7286
  64   2.0000     -10.278909      -279.7033
  65   2.0000     -10.275866      -279.6205
  66   2.0000     -10.273778      -279.5637
  67   2.0000     -10.273036      -279.5435
  68   2.0000     -10.267749      -279.3997
  69   2.0000     -10.265645      -279.3424
  70   2.0000     -10.265087      -279.3272
  71   2.0000      -8.783230      -239.0038
  72   2.0000      -8.074471      -219.7175
  73   2.0000      -8.059464      -219.3092
  74   2.0000      -8.058912      -219.2941
  75   2.0000      -8.058793      -219.2909
  76   2.0000      -8.058126      -219.2728
  77   2.0000      -8.056875      -219.2387
  78   2.0000      -8.047700      -218.9891
  79   2.0000      -6.619468      -180.1249
  80   2.0000      -6.604973      -179.7305
  81   2.0000      -6.604831      -179.7266
  82   2.0000      -6.043564      -164.4538
  83   2.0000      -6.039413      -164.3408
  84   2.0000      -6.037202      -164.2806
  85   2.0000      -6.029167      -164.0620
  86   2.0000      -6.028257      -164.0372
  87   2.0000      -6.028119      -164.0335
  88   2.0000      -6.027487      -164.0163
  89   2.0000      -6.026797      -163.9975
  90   2.0000      -6.024889      -163.9456
  91   2.0000      -6.024047      -163.9226
  92   2.0000      -6.023988      -163.9210
  93   2.0000      -6.023318      -163.9028
  94   2.0000      -6.022573      -163.8825
  95   2.0000      -6.020903      -163.8371
  96   2.0000      -6.020848      -163.8356
  97   2.0000      -6.020708      -163.8318
  98   2.0000      -6.020069      -163.8144
  99   2.0000      -6.017601      -163.7472
 100   2.0000      -6.016986      -163.7305
 101   2.0000      -6.012977      -163.6214
 102   2.0000      -6.009800      -163.5350
 103   2.0000      -2.735323       -74.4319
 104   2.0000      -2.731257       -74.3213
 105   2.0000      -2.731204       -74.3198
 106   2.0000      -2.719658       -74.0057
 107   2.0000      -2.719639       -74.0051
 108   2.0000      -1.319061       -35.8935
 109   2.0000      -1.240620       -33.7590
 110   2.0000      -1.134863       -30.8812
 111   2.0000      -1.110895       -30.2290
 112   2.0000      -1.013669       -27.5833
 113   2.0000      -1.006815       -27.3968
 114   2.0000      -1.006439       -27.3866
 115   2.0000      -1.002063       -27.2675
 116   2.0000      -0.996862       -27.1260
 117   2.0000      -0.993563       -27.0362
 118   2.0000      -0.981181       -26.6993
 119   2.0000      -0.976493       -26.5717
 120   2.0000      -0.973421       -26.4881
 121   2.0000      -0.970855       -26.4183
 122   2.0000      -0.945307       -25.7231
 123   2.0000      -0.938316       -25.5329
 124   2.0000      -0.926045       -25.1990
 125   2.0000      -0.921244       -25.0683
 126   2.0000      -0.907954       -24.7067
 127   2.0000      -0.899907       -24.4877
 128   2.0000      -0.893911       -24.3246
 129   2.0000      -0.890123       -24.2215
 130   2.0000      -0.880636       -23.9633
 131   2.0000      -0.871213       -23.7069
 132   2.0000      -0.870627       -23.6910
 133   2.0000      -0.868066       -23.6213
 134   2.0000      -0.859226       -23.3807
 135   2.0000      -0.852544       -23.1989
 136   2.0000      -0.847066       -23.0498
 137   2.0000      -0.842385       -22.9224
 138   2.0000      -0.836565       -22.7641
 139   2.0000      -0.830367       -22.5954
 140   2.0000      -0.824485       -22.4354
 141   2.0000      -0.823724       -22.4147
 142   2.0000      -0.814315       -22.1586
 143   2.0000      -0.807742       -21.9798
 144   2.0000      -0.794659       -21.6238
 145   2.0000      -0.788120       -21.4458
 146   2.0000      -0.779245       -21.2043
 147   2.0000      -0.764979       -20.8161
 148   2.0000      -0.753545       -20.5050
 149   2.0000      -0.740993       -20.1635
 150   2.0000      -0.735282       -20.0080
 151   2.0000      -0.719901       -19.5895
 152   2.0000      -0.712349       -19.3840
 153   2.0000      -0.708416       -19.2770
 154   2.0000      -0.704556       -19.1720
 155   2.0000      -0.695427       -18.9235
 156   2.0000      -0.684364       -18.6225
 157   2.0000      -0.678085       -18.4516
 158   2.0000      -0.675463       -18.3803
 159   2.0000      -0.671705       -18.2780
 160   2.0000      -0.667874       -18.1738
 161   2.0000      -0.651296       -17.7227
 162   2.0000      -0.644670       -17.5424
 163   2.0000      -0.642640       -17.4871
 164   2.0000      -0.640867       -17.4389
 165   2.0000      -0.636130       -17.3100
 166   2.0000      -0.634749       -17.2724
 167   2.0000      -0.631926       -17.1956
 168   2.0000      -0.624581       -16.9957
 169   2.0000      -0.622238       -16.9319
 170   2.0000      -0.619522       -16.8581
 171   2.0000      -0.615124       -16.7384
 172   2.0000      -0.612041       -16.6545
 173   2.0000      -0.609409       -16.5829
 174   2.0000      -0.605066       -16.4647
 175   2.0000      -0.598901       -16.2969
 176   2.0000      -0.590426       -16.0663
 177   2.0000      -0.581946       -15.8355
 178   2.0000      -0.579397       -15.7662
 179   2.0000      -0.578930       -15.7535
 180   2.0000      -0.576517       -15.6878
 181   2.0000      -0.573358       -15.6019
 182   2.0000      -0.566505       -15.4154
 183   2.0000      -0.564599       -15.3635
 184   2.0000      -0.558662       -15.2020
 185   2.0000      -0.554878       -15.0990
 186   2.0000      -0.553832       -15.0705
 187   2.0000      -0.543080       -14.7780
 188   2.0000      -0.537997       -14.6396
 189   2.0000      -0.535181       -14.5630
 190   2.0000      -0.530909       -14.4468
 191   2.0000      -0.527318       -14.3491
 192   2.0000      -0.523647       -14.2491
 193   2.0000      -0.520143       -14.1538
 194   2.0000      -0.518744       -14.1158
 195   2.0000      -0.515016       -14.0143
 196   2.0000      -0.512690       -13.9510
 197   2.0000      -0.512404       -13.9432
 198   2.0000      -0.506700       -13.7880
 199   2.0000      -0.505442       -13.7538
 200   2.0000      -0.502840       -13.6830
 201   2.0000      -0.500146       -13.6097
 202   2.0000      -0.498933       -13.5767
 203   2.0000      -0.496508       -13.5107
 204   2.0000      -0.495054       -13.4711
 205   2.0000      -0.493406       -13.4263
 206   2.0000      -0.490101       -13.3363
 207   2.0000      -0.488949       -13.3050
 208   2.0000      -0.486774       -13.2458
 209   2.0000      -0.482575       -13.1315
 210   2.0000      -0.480220       -13.0674
 211   2.0000      -0.477461       -12.9924
 212   2.0000      -0.476235       -12.9590
 213   2.0000      -0.475254       -12.9323
 214   2.0000      -0.472116       -12.8469
 215   2.0000      -0.469686       -12.7808
 216   2.0000      -0.465304       -12.6616
 217   2.0000      -0.462239       -12.5782
 218   2.0000      -0.461750       -12.5649
 219   2.0000      -0.460319       -12.5259
 220   2.0000      -0.454901       -12.3785
 221   2.0000      -0.452471       -12.3124
 222   2.0000      -0.451743       -12.2925
 223   2.0000      -0.444280       -12.0895
 224   2.0000      -0.443224       -12.0607
 225   2.0000      -0.441095       -12.0028
 226   2.0000      -0.439916       -11.9707
 227   2.0000      -0.436960       -11.8903
 228   2.0000      -0.434312       -11.8182
 229   2.0000      -0.431819       -11.7504
 230   2.0000      -0.430772       -11.7219
 231   2.0000      -0.427424       -11.6308
 232   2.0000      -0.424603       -11.5540
 233   2.0000      -0.424162       -11.5420
 234   2.0000      -0.422150       -11.4873
 235   2.0000      -0.419052       -11.4030
 236   2.0000      -0.416567       -11.3354
 237   2.0000      -0.412791       -11.2326
 238   2.0000      -0.410623       -11.1736
 239   2.0000      -0.406679       -11.0663
 240   2.0000      -0.402191       -10.9442
 241   2.0000      -0.397997       -10.8300
 242   2.0000      -0.390767       -10.6333
 243   2.0000      -0.388753       -10.5785
 244   2.0000      -0.386304       -10.5119
 245   2.0000      -0.381745       -10.3878
 246   2.0000      -0.379696       -10.3320
 247   2.0000      -0.373449       -10.1621
 248   2.0000      -0.373090       -10.1523
 249   2.0000      -0.365946        -9.9579
 250   2.0000      -0.365178        -9.9370
 251   2.0000      -0.361151        -9.8274
 252   2.0000      -0.354835        -9.6555
 253   2.0000      -0.343399        -9.3444
 254   2.0000      -0.339896        -9.2490
 255   2.0000      -0.336821        -9.1654
 256   2.0000      -0.331222        -9.0130
 257   2.0000      -0.327389        -8.9087
 258   2.0000      -0.323549        -8.8042
 259   2.0000      -0.321053        -8.7363
 260   2.0000      -0.317540        -8.6407
 261   2.0000      -0.316375        -8.6090
 262   2.0000      -0.304798        -8.2940
 263   2.0000      -0.299688        -8.1549
 264   2.0000      -0.290231        -7.8976
 265   2.0000      -0.279527        -7.6063
 266   2.0000      -0.262598        -7.1457
 267   2.0000      -0.226355        -6.1594
 268   2.0000      -0.212719        -5.7884
 269   0.0000      -0.104440        -2.8420
 270   0.0000      -0.083398        -2.2694
 271   0.0000      -0.062729        -1.7069
 272   0.0000      -0.051082        -1.3900
 273   0.0000      -0.033236        -0.9044

MULLIKEN ATOMIC CHARGES
-----------------------
   0 C :    0.315386
   1 C :   -0.400245
   2 C :   -0.193848
   3 N :    0.117043
   4 C :   -0.176971
   5 N :    0.125833
   6 C :    0.015612
   7 C :    0.003094
   8 C :   -0.087226
   9 C :    0.117006
  10 C :   -0.093167
  11 C :   -0.043637
  12 S :    0.172252
  13 C :   -0.124584
  14 C :    0.036245
  15 Br:    0.009035
  16 C :    0.128971
  17 O :   -0.185857
  18 C :   -0.092029
  19 C :   -0.087090
  20 C :    0.028821
  21 C :   -0.043955
  22 C :    0.009702
  23 C :    0.005991
  24 C :   -0.046358
  25 S :    0.122638
  26 C :   -0.021909
  27 C :    0.008777
  28 C :    0.030040
  29 C :   -0.060201
  30 S :    0.108821
  31 C :    0.017847
  32 C :   -0.123943
  33 S :    0.034904
  34 C :   -0.044893
  35 C :    0.114111
  36 C :    0.193504
  37 O :   -0.157245
  38 C :    0.211629
  39 N :    0.281571
  40 O :   -0.261853
  41 O :   -0.243627
  42 C :   -0.084596
  43 C :   -0.005096
  44 C :   -0.045697
  45 C :    0.014266
  46 C :    0.025963
  47 C :   -0.026263
  48 S :    0.107893
  49 C :   -0.015106
  50 C :    0.009807
  51 C :    0.068145
  52 C :   -0.123021
  53 S :    0.146911
  54 C :    0.125790
  55 C :   -0.220871
  56 S :    0.180536
  57 C :   -0.112288
  58 C :    0.108175
  59 C :    0.123219
  60 C :   -0.141023
  61 C :    0.106406
  62 C :   -0.006786
  63 C :    0.055624
  64 C :   -0.036481
  65 C :    0.020873
  66 C :   -0.023073
  67 H :   -0.021756
  68 H :   -0.015157
  69 H :   -0.008995
  70 H :    0.003147
  71 H :    0.013412
  72 H :   -0.018500
  73 H :   -0.021343
  74 H :   -0.019147
  75 H :   -0.010726
  76 H :    0.010926
  77 H :    0.010762
  78 H :   -0.013139
  79 H :   -0.014590
  80 H :   -0.011556
  81 H :   -0.010198
  82 H :    0.000711
  83 H :    0.012051
  84 H :    0.023300
  85 H :    0.029885
  86 H :    0.039202
  87 H :   -0.020756
  88 H :   -0.010650
  89 H :   -0.014837
  90 H :    0.025971
  91 H :    0.030805
  92 H :    0.037679
Sum of atomic charges:   -0.0000000

LOEWDIN ATOMIC CHARGES
----------------------
   0 C :    0.058200
   1 C :   -0.180287
   2 C :   -0.016929
   3 N :   -0.092703
   4 C :   -0.023561
   5 N :   -0.085769
   6 C :   -0.018685
   7 C :   -0.051054
   8 C :    0.012318
   9 C :   -0.040911
  10 C :   -0.148772
  11 C :   -0.023815
  12 S :    0.422090
  13 C :   -0.278384
  14 C :   -0.071049
  15 Br:    0.125204
  16 C :    0.071247
  17 O :   -0.176278
  18 C :   -0.135394
  19 C :   -0.002705
  20 C :   -0.059526
  21 C :   -0.142800
  22 C :   -0.060423
  23 C :   -0.046397
  24 C :   -0.196230
  25 S :    0.441517
  26 C :   -0.168150
  27 C :   -0.061871
  28 C :   -0.033141
  29 C :   -0.184546
  30 S :    0.428957
  31 C :   -0.034729
  32 C :   -0.190892
  33 S :    0.379677
  34 C :   -0.144978
  35 C :   -0.082214
  36 C :    0.039732
  37 O :    0.033696
  38 C :    0.007020
  39 N :    0.272194
  40 O :   -0.221994
  41 O :   -0.205195
  42 C :   -0.003955
  43 C :   -0.073161
  44 C :   -0.158585
  45 C :   -0.053754
  46 C :   -0.034403
  47 C :   -0.191841
  48 S :    0.436768
  49 C :   -0.146576
  50 C :   -0.051259
  51 C :   -0.005871
  52 C :   -0.192498
  53 S :    0.500920
  54 C :   -0.008128
  55 C :   -0.181645
  56 S :    0.534741
  57 C :   -0.118756
  58 C :   -0.039246
  59 C :   -0.037546
  60 C :   -0.021213
  61 C :   -0.058665
  62 C :   -0.010108
  63 C :   -0.016249
  64 C :   -0.011939
  65 C :   -0.041441
  66 C :   -0.022189
  67 H :    0.036240
  68 H :    0.037540
  69 H :    0.036557
  70 H :    0.025239
  71 H :    0.035112
  72 H :    0.030792
  73 H :    0.028419
  74 H :    0.029929
  75 H :    0.033706
  76 H :    0.049713
  77 H :    0.046346
  78 H :    0.041544
  79 H :    0.032180
  80 H :    0.033439
  81 H :    0.034934
  82 H :    0.037635
  83 H :    0.043325
  84 H :    0.029900
  85 H :    0.038467
  86 H :    0.028931
  87 H :    0.030528
  88 H :    0.031851
  89 H :    0.029027
  90 H :    0.036883
  91 H :    0.023996
  92 H :    0.031897

  Mayer bond orders larger than 0.100000
B(  0-C ,  1-C ) :   1.4985 B(  0-C ,  6-C ) :   0.9779 B(  0-C , 18-C ) :   1.1899
B(  1-C ,  2-C ) :   1.1705 B(  1-C ,  4-C ) :   1.1795 B(  2-C ,  3-N ) :   2.9170
B(  4-C ,  5-N ) :   2.8954 B(  6-C ,  7-C ) :   1.2777 B(  6-C , 11-C ) :   1.4303
B(  7-C ,  8-C ) :   1.4420 B(  7-C , 16-C ) :   0.9277 B(  8-C ,  9-C ) :   1.2237
B(  8-C , 67-H ) :   1.0162 B(  9-C , 10-C ) :   1.3317 B(  9-C , 14-C ) :   1.1601
B( 10-C , 11-C ) :   1.3023 B( 10-C , 12-S ) :   1.0815 B( 11-C , 68-H ) :   0.9812
B( 12-S , 13-C ) :   1.0848 B( 13-C , 14-C ) :   1.6218 B( 13-C , 15-Br) :   1.0092
B( 14-C , 69-H ) :   0.9995 B( 16-C , 17-O ) :   2.1149 B( 16-C , 18-C ) :   0.9802
B( 18-C , 19-C ) :   1.3026 B( 19-C , 20-C ) :   1.4437 B( 19-C , 70-H ) :   0.9491
B( 20-C , 21-C ) :   1.2088 B( 20-C , 71-H ) :   0.9716 B( 21-C , 22-C ) :   1.3768
B( 21-C , 25-S ) :   1.1144 B( 22-C , 23-C ) :   1.3008 B( 22-C , 72-H ) :   1.0052
B( 23-C , 24-C ) :   1.4401 B( 23-C , 73-H ) :   0.9985 B( 24-C , 25-S ) :   1.1024
B( 24-C , 26-C ) :   1.1840 B( 26-C , 27-C ) :   1.4198 B( 26-C , 30-S ) :   1.1310
B( 27-C , 28-C ) :   1.3449 B( 27-C , 74-H ) :   0.9954 B( 28-C , 29-C ) :   1.3713
B( 28-C , 75-H ) :   1.0006 B( 29-C , 30-S ) :   1.0808 B( 29-C , 31-C ) :   1.2276
B( 31-C , 32-C ) :   1.5337 B( 31-C , 76-H ) :   0.9765 B( 32-C , 33-S ) :   1.0030
B( 32-C , 36-C ) :   1.1954 B( 33-S , 34-C ) :   1.0244 B( 34-C , 35-C ) :   1.1044
B( 34-C , 43-C ) :   1.5990 B( 35-C , 36-C ) :   1.3810 B( 35-C , 42-C ) :   1.1738
B( 36-C , 37-O ) :   1.1935 B( 37-O , 38-C ) :   1.1208 B( 38-C , 39-N ) :   0.9402
B( 38-C , 42-C ) :   1.4949 B( 39-N , 40-O ) :   1.5178 B( 39-N , 41-O ) :   1.4969
B( 40-O , 41-O ) :   0.2690 B( 42-C , 77-H ) :   1.0230 B( 43-C , 44-C ) :   1.2068
B( 43-C , 78-H ) :   0.9672 B( 44-C , 45-C ) :   1.3870 B( 44-C , 48-S ) :   1.1168
B( 45-C , 46-C ) :   1.3388 B( 45-C , 79-H ) :   1.0003 B( 46-C , 47-C ) :   1.4276
B( 46-C , 80-H ) :   0.9949 B( 47-C , 48-S ) :   1.1049 B( 47-C , 49-C ) :   1.1936
B( 49-C , 50-C ) :   1.3841 B( 49-C , 53-S ) :   1.1611 B( 50-C , 51-C ) :   1.3828
B( 50-C , 81-H ) :   0.9973 B( 51-C , 52-C ) :   1.3161 B( 51-C , 82-H ) :   0.9986
B( 52-C , 53-S ) :   1.0964 B( 52-C , 54-C ) :   1.3094 B( 54-C , 55-C ) :   1.4554
B( 54-C , 83-H ) :   0.9359 B( 55-C , 56-S ) :   1.0669 B( 55-C , 59-C ) :   1.1255
B( 56-S , 57-C ) :   1.2375 B( 57-C , 58-C ) :   1.2276 B( 57-C , 65-C ) :   1.1056
B( 58-C , 59-C ) :   1.2777 B( 58-C , 64-C ) :   1.2772 B( 59-C , 60-C ) :   1.3105
B( 60-C , 61-C ) :   1.0859 B( 60-C , 62-C ) :   1.4469 B( 61-C , 84-H ) :   0.9508
B( 61-C , 85-H ) :   0.9456 B( 61-C , 86-H ) :   0.9334 B( 62-C , 63-C ) :   1.3086
B( 62-C , 87-H ) :   0.9911 B( 63-C , 64-C ) :   1.4328 B( 63-C , 88-H ) :   0.9869
B( 64-C , 89-H ) :   0.9836 B( 65-C , 66-C ) :   1.9125 B( 65-C , 90-H ) :   0.9366
B( 66-C , 91-H ) :   0.9565 B( 66-C , 92-H ) :   0.9462

-----------------------------------------------------------------------------
         ABSORPTION SPECTRUM VIA TRANSITION ELECTRIC DIPOLE MOMENTS
-----------------------------------------------------------------------------
State   Energy  Wavelength   fosc         T2         TX        TY        TZ
        (cm-1)    (nm)                  (au**2)     (au)      (au)      (au)
-----------------------------------------------------------------------------
   0    8757.5   1141.9   0.118331999   4.44836  -1.24620   0.57078  -1.60298
   1   10474.9    954.7   0.025482440   0.80088  -0.66005  -0.25280   0.54891
   2   14728.4    679.0   1.188775481  26.57167   5.05420   0.13844  -1.00377
   3   16103.9    621.0   0.098564774   2.01495  -1.12196  -0.29645   0.81748
   4   16649.5    600.6   0.091855291   1.81627  -0.12223  -0.97702   0.92019
   5   19653.1    508.8   0.713150009  11.94608   0.96168  -3.05328  -1.30335
   6   20842.0    479.8   0.479131129   7.56818  -2.26572  -1.51059   0.39091
   7   21484.5    465.5   0.297870883   4.56434  -0.43772  -1.69333  -1.22694
   8   22948.9    435.8   0.155724482   2.23394  -0.07594   1.39380   0.53430
   9   23158.3    431.8   0.028801013   0.40943   0.28135  -0.36776  -0.44161
  10   23910.6    418.2   0.194599922   2.67934  -1.37205   0.86166   0.23314
  11   25111.9    398.2   0.241854844   3.17067  -0.96292  -1.49149   0.13752
  12   25184.4    397.1   0.047203966   0.61705  -0.61665   0.33691   0.35111
  13   26008.5    384.5   0.132226825   1.67371   1.11090   0.65977   0.06571
  14   26585.0    376.2   0.003831080   0.04744  -0.18445  -0.11378  -0.02176
  15   27157.6    368.2   0.183796364   2.22803   1.25007  -0.62679  -0.52200
  16   27434.0    364.5   0.094882659   1.13861   0.14344   1.05685   0.03310
  17   27836.7    359.2   0.112243456   1.32745  -0.30934   0.98337   0.51454
  18   28270.6    353.7   0.152298897   1.77352  -1.11633  -0.72596   0.01804
  19   28660.7    348.9   0.181488373   2.08467   1.19449   0.77799  -0.22932
  20   29139.0    343.2   0.031888756   0.36028   0.59603   0.02622   0.06589
  21   29829.2    335.2   0.168860421   1.86364   1.11747   0.78393   0.01877
  22   29946.7    333.9   0.169100992   1.85897  -0.92042  -0.99742  -0.13026
  23   30046.8    332.8   0.314845841   3.44965  -1.50606  -1.07277  -0.17488
  24   30377.8    329.2   0.086222967   0.93442  -0.42110   0.83707   0.23751
  25   30649.8    326.3   0.049954811   0.53657   0.23423   0.67320   0.16883
  26   30794.8    324.7   0.137329258   1.46812   0.99465   0.68545  -0.09454
  27   31122.7    321.3   0.012918954   0.13666   0.32511   0.16768   0.05329
  28   31287.7    319.6   0.000128998   0.00136  -0.03663   0.00256   0.00298
  29   31843.9    314.0   0.051757316   0.53508   0.65634   0.31946   0.04736
  30   31910.8    313.4   0.021789275   0.22479  -0.12794   0.41456   0.19121
  31   32311.9    309.5   0.086134788   0.87759  -0.86819  -0.11657   0.33202
  32   32641.3    306.4   0.086430780   0.87172  -0.90810   0.20086  -0.08208
  33   33160.2    301.6   0.024247870   0.24073  -0.33152  -0.29145  -0.21420
  34   33388.0    299.5   0.079909368   0.78792  -0.88411   0.02525   0.07504
  35   33765.0    296.2   0.049656723   0.48416   0.27414  -0.60883  -0.19580
  36   33846.4    295.5   0.072144250   0.70172   0.78093  -0.15135  -0.26260
  37   34182.0    292.6   0.002505602   0.02413   0.12478   0.04285   0.08201
  38   34436.6    290.4   0.167191038   1.59833  -1.07786   0.62691   0.20865
  39   34682.2    288.3   0.045959564   0.43626   0.51082   0.25844  -0.32945
  40   34996.7    285.7   0.016720276   0.15729  -0.34290   0.18377  -0.07702
  41   35347.0    282.9   0.158105514   1.47255  -0.72422   0.87572   0.42562
  42   35533.3    281.4   0.022562119   0.20904   0.31416  -0.18787  -0.27394
  43   35746.0    279.8   0.024252753   0.22336   0.38284  -0.27196  -0.05321
  44   36201.6    276.2   0.010675846   0.09708   0.19128  -0.24207   0.04357
  45   36314.2    275.4   0.001330076   0.01206  -0.10461   0.00793  -0.03243
  46   36610.3    273.1   0.043188289   0.38836  -0.62085  -0.03816  -0.03814
  47   36633.0    273.0   0.037016705   0.33266  -0.46919  -0.28976  -0.16900
  48   36689.5    272.6   0.016776882   0.15054  -0.38267  -0.04993   0.04013
  49   36825.5    271.6   0.015338724   0.13712   0.09873  -0.20078  -0.29506
  50   37152.9    269.2   0.082568975   0.73164   0.81102  -0.09034  -0.25639
  51   37283.3    268.2   0.015464806   0.13655  -0.15578  -0.30972  -0.12790
  52   37346.1    267.8   0.069284709   0.61076  -0.76869  -0.04699   0.13290
  53   37547.9    266.3   0.017184989   0.15067  -0.10186   0.37376  -0.02459
  54   37668.6    265.5   0.051648493   0.45139   0.39480  -0.54356  -0.00771
  55   37856.9    264.2   0.077775190   0.67635   0.23560  -0.75778  -0.21590
  56   38232.6    261.6   0.024526191   0.21119  -0.32681  -0.31131   0.08642
  57   38565.5    259.3   0.125294378   1.06957  -0.74465  -0.70909  -0.11071
  58   38819.1    257.6   0.061245627   0.51940  -0.57048   0.38173   0.21964
  59   39255.5    254.7   0.034498032   0.28931  -0.29016  -0.35972   0.27518
  60   39446.0    253.5   0.020828427   0.17383   0.38361  -0.16011   0.03222
  61   39576.6    252.7   0.042635416   0.35466   0.18496  -0.52835  -0.20321
  62   39803.9    251.2   0.074609065   0.61708  -0.62745  -0.44378  -0.16263
  63   39912.8    250.5   0.002228963   0.01839   0.00039   0.06501   0.11899
  64   40105.7    249.3   0.091161801   0.74831  -0.54957   0.59943   0.29491
  65   40324.5    248.0   0.016403106   0.13392   0.04031   0.32548   0.16233

FINAL SINGLE POINT ENERGY     -7819.437124448305

DIPOLE MOMENT
-------------
                                X             Y             Z
Electronic contribution:   -107.54348     -62.04922     -26.61046
Nuclear contribution   :    106.31153      62.41523      29.36049
                        -----------------------------------------
Total Dipole Moment    :     -1.23195       0.36601       2.75004
                        -----------------------------------------
Magnitude (a.u.)       :      3.03551
Magnitude (Debye)      :      7.71567

Rotational constants in cm-1:     0.001961     0.000417     0.000371
Rotational constants in MHz :    58.799727    12.497691    11.125961

                             ****ORCA TERMINATED NORMALLY****
TOTAL RUN TIME: 0 days 0 hours 11 minutes 7 seconds 29 msec
