                         Program Version 4.2.0 -  RELEASE  -
|  1> # ORCA input file
|  2> # SCF done       -199.694880901729          0.000489671403
|  3> ! CAM-B3LYP def2-SVP def2/J RIJCOSX Grid4 TightSCF
|  4> %maxcore 5000
|  5> %tddft
|  6>     Mode sTDDFT
|  7>     Ethresh 5.0
|  8>     maxcore 5000
|  9> end
| 10>
| 11> %pal
| 12>   nprocs 6
| 13>   end
| 14> * xyz 0 1
| 15>    C       -9.77991         1.09386         1.46753
| 16>    C       -9.42358         1.78705         2.59632
| 17>    C       -9.94631         1.51694         3.87848
| 18>    N      -10.35204         1.35162         4.93938
| 19>    C       -8.57556         2.91027         2.63331
| 20>    N       -7.92819         3.85270         2.75001
| 21>    C      -10.72295        -0.01525         1.42103
| 22>    C      -10.99466        -0.33119         0.06615
| 23>    C      -11.86304        -1.32957        -0.30119
| 24>    C      -12.47988        -2.06611         0.71573
| 25>    C      -12.19348        -1.75181         2.06717
| 26>    C      -11.32592        -0.73266         2.43849
| 27>    S      -13.05658        -2.78762         3.16124
| 28>    C      -13.78383        -3.61415         1.81082
| 29>    C      -13.39919        -3.14286         0.60052
| 30>   Br      -14.98255        -5.01598         2.12462
| 31>    C      -10.22022         0.56833        -0.80911
| 32>    O      -10.37043         0.73706        -1.99629
| 33>    C       -9.33967         1.34922         0.10800
| 34>    C       -8.35997         2.20511        -0.28481
| 35>    C       -7.81390         2.30076        -1.59092
| 36>    O       -7.18713         3.45868        -1.91618
| 37>    C       -7.66390         1.42131        -2.65201
| 38>    C       -7.85922         0.02848        -3.09048
| 39>    O       -8.29526        -0.93225        -2.51546
| 40>    N       -7.32612         0.01481        -4.37719
| 41>    C       -6.74385         1.20951        -4.79545
| 42>    O       -6.20726         1.39034        -5.85787
| 43>    C       -6.94533         2.10601        -3.65636
| 44>    C       -6.67391         3.37733        -3.16717
| 45>    C       -6.02405         4.52641        -3.66218
| 46>    C       -5.40923         4.69057        -4.86575
| 47>    C       -4.82834         5.93755        -5.19999
| 48>    S       -4.94315         7.22031        -4.03508
| 49>    C       -4.16163         6.37060        -6.35124
| 50>    C       -3.95009         5.46232        -7.51819
| 51>    C       -5.20756         5.35973        -8.39622
| 52>    N       -4.93261         4.47458        -9.51054
| 53>    C       -3.76472         7.71229        -6.28377
| 54>    C       -3.08601         8.46146        -7.38360
| 55>    C       -4.09921         9.25330        -8.22568
| 56>    N       -3.43119         9.80137        -9.39053
| 57>    C       -4.12346         8.34150        -5.07653
| 58>    C       -3.90976         9.66625        -4.66607
| 59>    C       -4.38390        10.21966        -3.49283
| 60>    C       -4.20513        11.53484        -2.99602
| 61>    C       -4.82373        11.78504        -1.80015
| 62>    C       -5.53189        10.67939        -1.29222
| 63>    S       -5.37234         9.31967        -2.37108
| 64>    C       -6.30920        10.46029        -0.16069
| 65>    C       -6.65611        11.25883         0.94340
| 66>    C       -7.47201        10.62425         1.84438
| 67>    C       -7.81885         9.30310         1.48611
| 68>    S       -7.04456         8.88020        -0.01731
| 69>    C       -8.64739         8.39797         2.13491
| 70>    C       -8.92270         7.16919         1.54674
| 71>    C       -9.70887         6.09099         1.89607
| 72>    C      -10.37056         5.64059         3.08949
| 73>    C      -10.12892         6.03117         4.38488
| 74>    C      -10.82328         5.53228         5.50476
| 75>    N      -11.37466         5.19672         6.45483
| 76>    C       -9.12784         6.93625         4.78455
| 77>    N       -8.32743         7.65096         5.19420
| 78>    C      -11.26907         4.54417         2.70752
| 79>    C      -11.09975         4.27546         1.32757
| 80>    C      -10.05063         5.16335         0.79533
| 81>    O       -9.56937         5.13566        -0.31933
| 82>    C      -11.81605         3.31579         0.65700
| 83>    C      -12.72855         2.55428         1.39412
| 84>    C      -12.85800         2.79190         2.78210
| 85>    C      -12.15097         3.78487         3.45321
| 86>    S      -14.00398         1.70725         3.50874
| 87>    C      -14.30951         0.98409         1.95222
| 88>    C      -13.58267         1.51214         0.94034
| 89>   Br      -15.56509        -0.39747         1.80211
| 90>    H      -12.05020        -1.54405        -1.34144
| 91>    H      -11.14026        -0.53305         3.48073
| 92>    H      -13.75259        -3.53486        -0.33530
| 93>    H       -7.92003         2.89413         0.42403
| 94>    H       -7.32550        -0.81715        -4.95003
| 95>    H       -6.05102         5.35438        -2.96450
| 96>    H       -5.36510         3.87672        -5.57576
| 97>    H       -3.70055         4.45835        -7.17441
| 98>    H       -3.12550         5.82078        -8.13488
| 99>    H       -5.51785         6.37430        -8.70337
|100>    H       -6.02200         4.92389        -7.81218
|101>    H       -4.26557         4.89673       -10.14769
|102>    H       -5.77854         4.27072       -10.02886
|103>    H       -2.56250         7.77748        -8.05018
|104>    H       -2.34838         9.15254        -6.97027
|105>    H       -4.58423        10.01306        -7.58809
|106>    H       -4.87919         8.57404        -8.58034
|107>    H       -2.73621        10.48735        -9.11507
|108>    H       -4.09478        10.25862       -10.00494
|109>    H       -3.33542        10.31051        -5.31740
|110>    H       -3.62319        12.26323        -3.53382
|111>    H       -4.79025        12.73094        -1.28914
|112>    H       -6.30499        12.26997         1.05174
|113>    H       -7.83647        11.07320         2.75136
|114>    H       -9.08634         8.69598         3.07342
|115>    H       -8.50920         7.03921         0.54656
|116>    H      -11.67412         3.15224        -0.40022
|117>    H      -12.30144         3.93317         4.50935
|118>    H      -13.64409         1.18873        -0.08272
|119> *
|120>
|121>                          ****END OF INPUT****

CARTESIAN COORDINATES (ANGSTROEM)
---------------------------------
  C     -9.779910    1.093860    1.467530
  C     -9.423580    1.787050    2.596320
  C     -9.946310    1.516940    3.878480
  N    -10.352040    1.351620    4.939380
  C     -8.575560    2.910270    2.633310
  N     -7.928190    3.852700    2.750010
  C    -10.722950   -0.015250    1.421030
  C    -10.994660   -0.331190    0.066150
  C    -11.863040   -1.329570   -0.301190
  C    -12.479880   -2.066110    0.715730
  C    -12.193480   -1.751810    2.067170
  C    -11.325920   -0.732660    2.438490
  S    -13.056580   -2.787620    3.161240
  C    -13.783830   -3.614150    1.810820
  C    -13.399190   -3.142860    0.600520
  Br   -14.982550   -5.015980    2.124620
  C    -10.220220    0.568330   -0.809110
  O    -10.370430    0.737060   -1.996290
  C     -9.339670    1.349220    0.108000
  C     -8.359970    2.205110   -0.284810
  C     -7.813900    2.300760   -1.590920
  O     -7.187130    3.458680   -1.916180
  C     -7.663900    1.421310   -2.652010
  C     -7.859220    0.028480   -3.090480
  O     -8.295260   -0.932250   -2.515460
  N     -7.326120    0.014810   -4.377190
  C     -6.743850    1.209510   -4.795450
  O     -6.207260    1.390340   -5.857870
  C     -6.945330    2.106010   -3.656360
  C     -6.673910    3.377330   -3.167170
  C     -6.024050    4.526410   -3.662180
  C     -5.409230    4.690570   -4.865750
  C     -4.828340    5.937550   -5.199990
  S     -4.943150    7.220310   -4.035080
  C     -4.161630    6.370600   -6.351240
  C     -3.950090    5.462320   -7.518190
  C     -5.207560    5.359730   -8.396220
  N     -4.932610    4.474580   -9.510540
  C     -3.764720    7.712290   -6.283770
  C     -3.086010    8.461460   -7.383600
  C     -4.099210    9.253300   -8.225680
  N     -3.431190    9.801370   -9.390530
  C     -4.123460    8.341500   -5.076530
  C     -3.909760    9.666250   -4.666070
  C     -4.383900   10.219660   -3.492830
  C     -4.205130   11.534840   -2.996020
  C     -4.823730   11.785040   -1.800150
  C     -5.531890   10.679390   -1.292220
  S     -5.372340    9.319670   -2.371080
  C     -6.309200   10.460290   -0.160690
  C     -6.656110   11.258830    0.943400
  C     -7.472010   10.624250    1.844380
  C     -7.818850    9.303100    1.486110
  S     -7.044560    8.880200   -0.017310
  C     -8.647390    8.397970    2.134910
  C     -8.922700    7.169190    1.546740
  C     -9.708870    6.090990    1.896070
  C    -10.370560    5.640590    3.089490
  C    -10.128920    6.031170    4.384880
  C    -10.823280    5.532280    5.504760
  N    -11.374660    5.196720    6.454830
  C     -9.127840    6.936250    4.784550
  N     -8.327430    7.650960    5.194200
  C    -11.269070    4.544170    2.707520
  C    -11.099750    4.275460    1.327570
  C    -10.050630    5.163350    0.795330
  O     -9.569370    5.135660   -0.319330
  C    -11.816050    3.315790    0.657000
  C    -12.728550    2.554280    1.394120
  C    -12.858000    2.791900    2.782100
  C    -12.150970    3.784870    3.453210
  S    -14.003980    1.707250    3.508740
  C    -14.309510    0.984090    1.952220
  C    -13.582670    1.512140    0.940340
  Br   -15.565090   -0.397470    1.802110
  H    -12.050200   -1.544050   -1.341440
  H    -11.140260   -0.533050    3.480730
  H    -13.752590   -3.534860   -0.335300
  H     -7.920030    2.894130    0.424030
  H     -7.325500   -0.817150   -4.950030
  H     -6.051020    5.354380   -2.964500
  H     -5.365100    3.876720   -5.575760
  H     -3.700550    4.458350   -7.174410
  H     -3.125500    5.820780   -8.134880
  H     -5.517850    6.374300   -8.703370
  H     -6.022000    4.923890   -7.812180
  H     -4.265570    4.896730  -10.147690
  H     -5.778540    4.270720  -10.028860
  H     -2.562500    7.777480   -8.050180
  H     -2.348380    9.152540   -6.970270
  H     -4.584230   10.013060   -7.588090
  H     -4.879190    8.574040   -8.580340
  H     -2.736210   10.487350   -9.115070
  H     -4.094780   10.258620  -10.004940
  H     -3.335420   10.310510   -5.317400
  H     -3.623190   12.263230   -3.533820
  H     -4.790250   12.730940   -1.289140
  H     -6.304990   12.269970    1.051740
  H     -7.836470   11.073200    2.751360
  H     -9.086340    8.695980    3.073420
  H     -8.509200    7.039210    0.546560
  H    -11.674120    3.152240   -0.400220
  H    -12.301440    3.933170    4.509350
  H    -13.644090    1.188730   -0.082720

 Total Charge           Charge          ....    0
 Multiplicity           Mult            ....    1
 Number of Electrons    NEL             ....  604
 Basis Dimension        Dim             .... 1251

ORBITAL ENERGIES
----------------

  NO   OCC          E(Eh)            E(eV)
   0   2.0000    -482.882647    -13139.9048
   1   2.0000    -482.878986    -13139.8052
   2   2.0000     -88.971424     -2421.0355
   3   2.0000     -88.966133     -2420.8915
   4   2.0000     -88.960576     -2420.7403
   5   2.0000     -88.959910     -2420.7222
   6   2.0000     -88.954662     -2420.5794
   7   2.0000     -62.560423     -1702.3557
   8   2.0000     -62.556295     -1702.2433
   9   2.0000     -56.394360     -1534.5686
  10   2.0000     -56.391654     -1534.4949
  11   2.0000     -56.391649     -1534.4948
  12   2.0000     -56.390218     -1534.4559
  13   2.0000     -56.387571     -1534.3838
  14   2.0000     -56.387540     -1534.3830
  15   2.0000     -19.308055      -525.3989
  16   2.0000     -19.213745      -522.8326
  17   2.0000     -19.212249      -522.7919
  18   2.0000     -19.210795      -522.7523
  19   2.0000     -19.200027      -522.4593
  20   2.0000     -14.453265      -393.2933
  21   2.0000     -14.415843      -392.2750
  22   2.0000     -14.410445      -392.1281
  23   2.0000     -14.395271      -391.7152
  24   2.0000     -14.394255      -391.6876
  25   2.0000     -14.391732      -391.6189
  26   2.0000     -14.381273      -391.3343
  27   2.0000     -10.399915      -282.9961
  28   2.0000     -10.398997      -282.9711
  29   2.0000     -10.365409      -282.0571
  30   2.0000     -10.364574      -282.0344
  31   2.0000     -10.358434      -281.8673
  32   2.0000     -10.354403      -281.7576
  33   2.0000     -10.349093      -281.6131
  34   2.0000     -10.347733      -281.5761
  35   2.0000     -10.339178      -281.3433
  36   2.0000     -10.338503      -281.3250
  37   2.0000     -10.330280      -281.1012
  38   2.0000     -10.324172      -280.9350
  39   2.0000     -10.323925      -280.9283
  40   2.0000     -10.322081      -280.8781
  41   2.0000     -10.321698      -280.8677
  42   2.0000     -10.321663      -280.8667
  43   2.0000     -10.320557      -280.8366
  44   2.0000     -10.318057      -280.7686
  45   2.0000     -10.317299      -280.7480
  46   2.0000     -10.315143      -280.6893
  47   2.0000     -10.314293      -280.6662
  48   2.0000     -10.313763      -280.6518
  49   2.0000     -10.310444      -280.5615
  50   2.0000     -10.308863      -280.5184
  51   2.0000     -10.306806      -280.4625
  52   2.0000     -10.304794      -280.4077
  53   2.0000     -10.304648      -280.4037
  54   2.0000     -10.303462      -280.3715
  55   2.0000     -10.303192      -280.3641
  56   2.0000     -10.302864      -280.3552
  57   2.0000     -10.301225      -280.3106
  58   2.0000     -10.300674      -280.2956
  59   2.0000     -10.299461      -280.2626
  60   2.0000     -10.298767      -280.2437
  61   2.0000     -10.298486      -280.2360
  62   2.0000     -10.297664      -280.2137
  63   2.0000     -10.297046      -280.1969
  64   2.0000     -10.296326      -280.1773
  65   2.0000     -10.295072      -280.1431
  66   2.0000     -10.293599      -280.1031
  67   2.0000     -10.293220      -280.0928
  68   2.0000     -10.292760      -280.0802
  69   2.0000     -10.292485      -280.0728
  70   2.0000     -10.292362      -280.0694
  71   2.0000     -10.292249      -280.0663
  72   2.0000     -10.291633      -280.0496
  73   2.0000     -10.291200      -280.0378
  74   2.0000     -10.290415      -280.0164
  75   2.0000     -10.288804      -279.9726
  76   2.0000     -10.288679      -279.9692
  77   2.0000     -10.287120      -279.9268
  78   2.0000     -10.279473      -279.7187
  79   2.0000     -10.278997      -279.7057
  80   2.0000     -10.278396      -279.6894
  81   2.0000     -10.274807      -279.5917
  82   2.0000     -10.271671      -279.5064
  83   2.0000      -8.789881      -239.1848
  84   2.0000      -8.785597      -239.0683
  85   2.0000      -8.067179      -219.5191
  86   2.0000      -8.061764      -219.3717
  87   2.0000      -8.057208      -219.2478
  88   2.0000      -8.055716      -219.2072
  89   2.0000      -8.051222      -219.0849
  90   2.0000      -6.626121      -180.3059
  91   2.0000      -6.621745      -180.1868
  92   2.0000      -6.611679      -179.9129
  93   2.0000      -6.611426      -179.9060
  94   2.0000      -6.607423      -179.7971
  95   2.0000      -6.607202      -179.7911
  96   2.0000      -6.036877      -164.2718
  97   2.0000      -6.032591      -164.1551
  98   2.0000      -6.031435      -164.1237
  99   2.0000      -6.028441      -164.0422
 100   2.0000      -6.027210      -164.0087
 101   2.0000      -6.026901      -164.0003
 102   2.0000      -6.024825      -163.9438
 103   2.0000      -6.023025      -163.8949
 104   2.0000      -6.022524      -163.8812
 105   2.0000      -6.020828      -163.8351
 106   2.0000      -6.020816      -163.8347
 107   2.0000      -6.018255      -163.7651
 108   2.0000      -6.017845      -163.7539
 109   2.0000      -6.016728      -163.7235
 110   2.0000      -6.012312      -163.6033
 111   2.0000      -2.742017       -74.6141
 112   2.0000      -2.737959       -74.5036
 113   2.0000      -2.737782       -74.4988
 114   2.0000      -2.737710       -74.4969
 115   2.0000      -2.733618       -74.3855
 116   2.0000      -2.733459       -74.3812
 117   2.0000      -2.726298       -74.1863
 118   2.0000      -2.726275       -74.1857
 119   2.0000      -2.722074       -74.0714
 120   2.0000      -2.722068       -74.0712
 121   2.0000      -1.228293       -33.4235
 122   2.0000      -1.155710       -31.4485
 123   2.0000      -1.136542       -30.9269
 124   2.0000      -1.128179       -30.6993
 125   2.0000      -1.113951       -30.3121
 126   2.0000      -1.042266       -28.3615
 127   2.0000      -1.021007       -27.7830
 128   2.0000      -1.015582       -27.6354
 129   2.0000      -1.011870       -27.5344
 130   2.0000      -1.008472       -27.4419
 131   2.0000      -1.001544       -27.2534
 132   2.0000      -0.995830       -27.0979
 133   2.0000      -0.992247       -27.0004
 134   2.0000      -0.986885       -26.8545
 135   2.0000      -0.986764       -26.8512
 136   2.0000      -0.973611       -26.4933
 137   2.0000      -0.972971       -26.4759
 138   2.0000      -0.972564       -26.4648
 139   2.0000      -0.963775       -26.2257
 140   2.0000      -0.943035       -25.6613
 141   2.0000      -0.932950       -25.3869
 142   2.0000      -0.929345       -25.2888
 143   2.0000      -0.923013       -25.1165
 144   2.0000      -0.915588       -24.9144
 145   2.0000      -0.905925       -24.6515
 146   2.0000      -0.904535       -24.6137
 147   2.0000      -0.897235       -24.4150
 148   2.0000      -0.894177       -24.3318
 149   2.0000      -0.882047       -24.0017
 150   2.0000      -0.881479       -23.9863
 151   2.0000      -0.876979       -23.8638
 152   2.0000      -0.873538       -23.7702
 153   2.0000      -0.865107       -23.5408
 154   2.0000      -0.860939       -23.4273
 155   2.0000      -0.854654       -23.2563
 156   2.0000      -0.833461       -22.6796
 157   2.0000      -0.831219       -22.6186
 158   2.0000      -0.830396       -22.5962
 159   2.0000      -0.825084       -22.4517
 160   2.0000      -0.817327       -22.2406
 161   2.0000      -0.803524       -21.8650
 162   2.0000      -0.786241       -21.3947
 163   2.0000      -0.784997       -21.3609
 164   2.0000      -0.773901       -21.0589
 165   2.0000      -0.770282       -20.9604
 166   2.0000      -0.761824       -20.7303
 167   2.0000      -0.756932       -20.5972
 168   2.0000      -0.751233       -20.4421
 169   2.0000      -0.744790       -20.2668
 170   2.0000      -0.730520       -19.8785
 171   2.0000      -0.717453       -19.5229
 172   2.0000      -0.705780       -19.2052
 173   2.0000      -0.703283       -19.1373
 174   2.0000      -0.701179       -19.0800
 175   2.0000      -0.697352       -18.9759
 176   2.0000      -0.687494       -18.7077
 177   2.0000      -0.686330       -18.6760
 178   2.0000      -0.683836       -18.6081
 179   2.0000      -0.673985       -18.3401
 180   2.0000      -0.670833       -18.2543
 181   2.0000      -0.660054       -17.9610
 182   2.0000      -0.654549       -17.8112
 183   2.0000      -0.648859       -17.6563
 184   2.0000      -0.645417       -17.5627
 185   2.0000      -0.641989       -17.4694
 186   2.0000      -0.636191       -17.3116
 187   2.0000      -0.628518       -17.1028
 188   2.0000      -0.621095       -16.9008
 189   2.0000      -0.615539       -16.7497
 190   2.0000      -0.610714       -16.6184
 191   2.0000      -0.608669       -16.5627
 192   2.0000      -0.604448       -16.4479
 193   2.0000      -0.600295       -16.3349
 194   2.0000      -0.597580       -16.2610
 195   2.0000      -0.593883       -16.1604
 196   2.0000      -0.590786       -16.0761
 197   2.0000      -0.586087       -15.9482
 198   2.0000      -0.584768       -15.9123
 199   2.0000      -0.580763       -15.8034
 200   2.0000      -0.579077       -15.7575
 201   2.0000      -0.578337       -15.7374
 202   2.0000      -0.571989       -15.5646
 203   2.0000      -0.564950       -15.3731
 204   2.0000      -0.561566       -15.2810
 205   2.0000      -0.559783       -15.2325
 206   2.0000      -0.552787       -15.0421
 207   2.0000      -0.546974       -14.8839
 208   2.0000      -0.545955       -14.8562
 209   2.0000      -0.542772       -14.7696
 210   2.0000      -0.541385       -14.7318
 211   2.0000      -0.539159       -14.6713
 212   2.0000      -0.535973       -14.5846
 213   2.0000      -0.533811       -14.5257
 214   2.0000      -0.528825       -14.3900
 215   2.0000      -0.525764       -14.3068
 216   2.0000      -0.524595       -14.2749
 217   2.0000      -0.524256       -14.2657
 218   2.0000      -0.521401       -14.1880
 219   2.0000      -0.520736       -14.1699
 220   2.0000      -0.517610       -14.0849
 221   2.0000      -0.517161       -14.0727
 222   2.0000      -0.513839       -13.9823
 223   2.0000      -0.511427       -13.9166
 224   2.0000      -0.509041       -13.8517
 225   2.0000      -0.507929       -13.8215
 226   2.0000      -0.506584       -13.7848
 227   2.0000      -0.503019       -13.6878
 228   2.0000      -0.502302       -13.6683
 229   2.0000      -0.498028       -13.5520
 230   2.0000      -0.494358       -13.4522
 231   2.0000      -0.492531       -13.4024
 232   2.0000      -0.491310       -13.3692
 233   2.0000      -0.489138       -13.3101
 234   2.0000      -0.486855       -13.2480
 235   2.0000      -0.485150       -13.2016
 236   2.0000      -0.482899       -13.1403
 237   2.0000      -0.479742       -13.0545
 238   2.0000      -0.478324       -13.0159
 239   2.0000      -0.476904       -12.9772
 240   2.0000      -0.475744       -12.9457
 241   2.0000      -0.474003       -12.8983
 242   2.0000      -0.470862       -12.8128
 243   2.0000      -0.468209       -12.7406
 244   2.0000      -0.464163       -12.6305
 245   2.0000      -0.458517       -12.4769
 246   2.0000      -0.454103       -12.3568
 247   2.0000      -0.451625       -12.2894
 248   2.0000      -0.448416       -12.2020
 249   2.0000      -0.447498       -12.1770
 250   2.0000      -0.447261       -12.1706
 251   2.0000      -0.446927       -12.1615
 252   2.0000      -0.443260       -12.0617
 253   2.0000      -0.442388       -12.0380
 254   2.0000      -0.440195       -11.9783
 255   2.0000      -0.435851       -11.8601
 256   2.0000      -0.433833       -11.8052
 257   2.0000      -0.432690       -11.7741
 258   2.0000      -0.432273       -11.7627
 259   2.0000      -0.430371       -11.7110
 260   2.0000      -0.427940       -11.6448
 261   2.0000      -0.427159       -11.6236
 262   2.0000      -0.425293       -11.5728
 263   2.0000      -0.424093       -11.5402
 264   2.0000      -0.421623       -11.4729
 265   2.0000      -0.419113       -11.4046
 266   2.0000      -0.416966       -11.3462
 267   2.0000      -0.413410       -11.2495
 268   2.0000      -0.409197       -11.1348
 269   2.0000      -0.406494       -11.0613
 270   2.0000      -0.404568       -11.0089
 271   2.0000      -0.401742       -10.9320
 272   2.0000      -0.391535       -10.6542
 273   2.0000      -0.388256       -10.5650
 274   2.0000      -0.387151       -10.5349
 275   2.0000      -0.382220       -10.4007
 276   2.0000      -0.379062       -10.3148
 277   2.0000      -0.377550       -10.2737
 278   2.0000      -0.374015       -10.1775
 279   2.0000      -0.372029       -10.1234
 280   2.0000      -0.369321       -10.0497
 281   2.0000      -0.367903       -10.0112
 282   2.0000      -0.364466        -9.9176
 283   2.0000      -0.358072        -9.7436
 284   2.0000      -0.355842        -9.6830
 285   2.0000      -0.351091        -9.5537
 286   2.0000      -0.345427        -9.3995
 287   2.0000      -0.338630        -9.2146
 288   2.0000      -0.333863        -9.0849
 289   2.0000      -0.330149        -8.9838
 290   2.0000      -0.327188        -8.9032
 291   2.0000      -0.319850        -8.7036
 292   2.0000      -0.317408        -8.6371
 293   2.0000      -0.312893        -8.5142
 294   2.0000      -0.312191        -8.4951
 295   2.0000      -0.303830        -8.2676
 296   2.0000      -0.302948        -8.2436
 297   2.0000      -0.294126        -8.0036
 298   2.0000      -0.289319        -7.8728
 299   2.0000      -0.279914        -7.6168
 300   2.0000      -0.259834        -7.0704
 301   2.0000      -0.221276        -6.0212
 302   0.0000      -0.114250        -3.1089
 303   0.0000      -0.094559        -2.5731
 304   0.0000      -0.063228        -1.7205
 305   0.0000      -0.056809        -1.5458
 306   0.0000      -0.049098        -1.3360

MULLIKEN ATOMIC CHARGES
-----------------------
   0 C :    0.307261
   1 C :   -0.357401
   2 C :   -0.211073
   3 N :    0.169835
   4 C :   -0.173646
   5 N :    0.161092
   6 C :    0.036857
   7 C :   -0.008636
   8 C :   -0.081546
   9 C :    0.124937
  10 C :   -0.084767
  11 C :   -0.030461
  12 S :    0.187334
  13 C :   -0.125818
  14 C :    0.043051
  15 Br:    0.020624
  16 C :    0.132295
  17 O :   -0.147887
  18 C :   -0.060486
  19 C :   -0.025622
  20 C :    0.112065
  21 O :   -0.175581
  22 C :   -0.014900
  23 C :    0.177881
  24 O :   -0.139847
  25 N :   -0.162427
  26 C :    0.174233
  27 O :   -0.147444
  28 C :   -0.099284
  29 C :    0.157705
  30 C :   -0.026319
  31 C :    0.013710
  32 C :   -0.087965
  33 S :    0.049884
  34 C :   -0.040217
  35 C :    0.101552
  36 C :    0.094230
  37 N :   -0.218723
  38 C :   -0.044851
  39 C :    0.092786
  40 C :    0.094552
  41 N :   -0.218349
  42 C :   -0.088767
  43 C :    0.032408
  44 C :   -0.039423
  45 C :    0.041760
  46 C :    0.032341
  47 C :   -0.000340
  48 S :    0.048530
  49 C :   -0.045400
  50 C :    0.044700
  51 C :    0.032273
  52 C :   -0.018540
  53 S :    0.074539
  54 C :    0.020542
  55 C :   -0.019295
  56 C :   -0.064523
  57 C :    0.318130
  58 C :   -0.353501
  59 C :   -0.183329
  60 N :    0.145451
  61 C :   -0.198676
  62 N :    0.149779
  63 C :   -0.008987
  64 C :   -0.007755
  65 C :    0.122538
  66 O :   -0.173544
  67 C :   -0.083403
  68 C :    0.103775
  69 C :   -0.100811
  70 C :   -0.017098
  71 S :    0.188595
  72 C :   -0.135120
  73 C :    0.055126
  74 Br:    0.018690
  75 H :   -0.010189
  76 H :   -0.004525
  77 H :   -0.006159
  78 H :    0.031279
  79 H :    0.138132
  80 H :    0.021954
  81 H :    0.019554
  82 H :    0.019828
  83 H :   -0.008822
  84 H :   -0.014741
  85 H :    0.004814
  86 H :    0.092735
  87 H :    0.095140
  88 H :    0.002586
  89 H :    0.001165
  90 H :   -0.011352
  91 H :   -0.002475
  92 H :    0.090777
  93 H :    0.094500
  94 H :   -0.013256
  95 H :   -0.006119
  96 H :   -0.008419
  97 H :   -0.005421
  98 H :    0.004764
  99 H :    0.004717
 100 H :    0.022811
 101 H :   -0.005960
 102 H :   -0.003864
 103 H :   -0.002756
Sum of atomic charges:   -0.0000000

LOEWDIN ATOMIC CHARGES
----------------------
   0 C :    0.076205
   1 C :   -0.139437
   2 C :   -0.019011
   3 N :   -0.051950
   4 C :   -0.018578
   5 N :   -0.046573
   6 C :   -0.018203
   7 C :   -0.047662
   8 C :    0.021686
   9 C :   -0.033231
  10 C :   -0.143370
  11 C :   -0.010184
  12 S :    0.435402
  13 C :   -0.275545
  14 C :   -0.071009
  15 Br:    0.136257
  16 C :    0.083902
  17 O :   -0.132049
  18 C :   -0.072690
  19 C :    0.052155
  20 C :    0.051618
  21 O :    0.039275
  22 C :   -0.056764
  23 C :    0.089867
  24 O :   -0.146513
  25 N :   -0.002654
  26 C :    0.086417
  27 O :   -0.161897
  28 C :   -0.103599
  29 C :    0.082353
  30 C :   -0.057832
  31 C :    0.001934
  32 C :   -0.167832
  33 S :    0.447943
  34 C :   -0.036428
  35 C :   -0.030670
  36 C :    0.024989
  37 N :   -0.117338
  38 C :   -0.039827
  39 C :   -0.031586
  40 C :    0.022869
  41 N :   -0.120583
  42 C :   -0.171495
  43 C :   -0.048394
  44 C :   -0.162981
  45 C :   -0.016888
  46 C :   -0.042374
  47 C :   -0.157004
  48 S :    0.395837
  49 C :   -0.185337
  50 C :   -0.011268
  51 C :   -0.035305
  52 C :   -0.103302
  53 S :    0.407914
  54 C :   -0.060927
  55 C :    0.047664
  56 C :   -0.096790
  57 C :    0.068423
  58 C :   -0.142776
  59 C :   -0.019194
  60 N :   -0.058994
  61 C :   -0.014460
  62 N :   -0.061729
  63 C :   -0.016703
  64 C :   -0.055334
  65 C :    0.078565
  66 O :   -0.163898
  67 C :    0.011393
  68 C :   -0.041300
  69 C :   -0.146550
  70 C :   -0.006166
  71 S :    0.436497
  72 C :   -0.277254
  73 C :   -0.070304
  74 Br:    0.140370
  75 H :    0.041120
  76 H :    0.040245
  77 H :    0.037797
  78 H :    0.051586
  79 H :    0.094964
  80 H :    0.031940
  81 H :    0.041838
  82 H :    0.036644
  83 H :    0.026394
  84 H :   -0.002030
  85 H :    0.020636
  86 H :    0.052679
  87 H :    0.056693
  88 H :    0.031185
  89 H :    0.024779
  90 H :   -0.000488
  91 H :    0.017380
  92 H :    0.051890
  93 H :    0.056529
  94 H :    0.037844
  95 H :    0.035474
  96 H :    0.035010
  97 H :    0.036415
  98 H :    0.040370
  99 H :    0.036989
 100 H :    0.027463
 101 H :    0.039305
 102 H :    0.042532
 103 H :    0.037024

  Mayer bond orders larger than 0.100000
B(  0-C ,  1-C ) :   1.6390 B(  0-C ,  6-C ) :   1.0112 B(  0-C , 18-C ) :   1.0685
B(  1-C ,  2-C ) :   1.1503 B(  1-C ,  4-C ) :   1.1505 B(  2-C ,  3-N ) :   2.9615
B(  4-C ,  5-N ) :   2.9058 B(  6-C ,  7-C ) :   1.2674 B(  6-C , 11-C ) :   1.4009
B(  7-C ,  8-C ) :   1.4203 B(  7-C , 16-C ) :   0.9269 B(  8-C ,  9-C ) :   1.2381
B(  8-C , 75-H ) :   1.0184 B(  9-C , 10-C ) :   1.3026 B(  9-C , 14-C ) :   1.1637
B( 10-C , 11-C ) :   1.3243 B( 10-C , 12-S ) :   1.0866 B( 11-C , 76-H ) :   0.9856
B( 12-S , 13-C ) :   1.0865 B( 13-C , 14-C ) :   1.6127 B( 13-C , 15-Br) :   1.0180
B( 14-C , 77-H ) :   1.0013 B( 16-C , 17-O ) :   2.2219 B( 16-C , 18-C ) :   0.9275
B( 18-C , 19-C ) :   1.6240 B( 19-C , 20-C ) :   1.1572 B( 19-C , 78-H ) :   0.9182
B( 20-C , 21-O ) :   1.1400 B( 20-C , 22-C ) :   1.4160 B( 21-O , 29-C ) :   1.1791
B( 22-C , 23-C ) :   0.8677 B( 22-C , 28-C ) :   1.3158 B( 23-C , 24-O ) :   2.2386
B( 23-C , 25-N ) :   1.0833 B( 25-N , 26-C ) :   1.0890 B( 25-N , 79-H ) :   0.9161
B( 26-C , 27-O ) :   2.2155 B( 26-C , 28-C ) :   0.8882 B( 28-C , 29-C ) :   1.3593
B( 29-C , 30-C ) :   1.1988 B( 30-C , 31-C ) :   1.5837 B( 30-C , 80-H ) :   0.9318
B( 31-C , 32-C ) :   1.2078 B( 31-C , 81-H ) :   0.9624 B( 32-C , 33-S ) :   1.1070
B( 32-C , 34-C ) :   1.3992 B( 33-S , 42-C ) :   1.0934 B( 34-C , 35-C ) :   1.0619
B( 34-C , 38-C ) :   1.3853 B( 35-C , 36-C ) :   1.0887 B( 35-C , 82-H ) :   0.9014
B( 35-C , 83-H ) :   0.9127 B( 36-C , 37-N ) :   1.0936 B( 36-C , 84-H ) :   0.9412
B( 36-C , 85-H ) :   0.9408 B( 37-N , 86-H ) :   0.9728 B( 37-N , 87-H ) :   0.9691
B( 38-C , 39-C ) :   1.0778 B( 38-C , 42-C ) :   1.3812 B( 39-C , 40-C ) :   1.0906
B( 39-C , 88-H ) :   0.9038 B( 39-C , 89-H ) :   0.9027 B( 40-C , 41-N ) :   1.0907
B( 40-C , 90-H ) :   0.9380 B( 40-C , 91-H ) :   0.9387 B( 41-N , 92-H ) :   0.9716
B( 41-N , 93-H ) :   0.9690 B( 42-C , 43-C ) :   1.2374 B( 43-C , 44-C ) :   1.5155
B( 43-C , 94-H ) :   0.9609 B( 44-C , 45-C ) :   1.1692 B( 44-C , 48-S ) :   1.0440
B( 45-C , 46-C ) :   1.5599 B( 45-C , 95-H ) :   0.9973 B( 46-C , 47-C ) :   1.2135
B( 46-C , 96-H ) :   0.9959 B( 47-C , 48-S ) :   1.0657 B( 47-C , 49-C ) :   1.4371
B( 49-C , 50-C ) :   1.2333 B( 49-C , 53-S ) :   1.0527 B( 50-C , 51-C ) :   1.5306
B( 50-C , 97-H ) :   0.9978 B( 51-C , 52-C ) :   1.1873 B( 51-C , 98-H ) :   0.9997
B( 52-C , 53-S ) :   1.0851 B( 52-C , 54-C ) :   1.4749 B( 54-C , 55-C ) :   1.2325
B( 54-C , 99-H ) :   0.9699 B( 55-C , 56-C ) :   1.5259 B( 55-C ,100-H ) :   0.9092
B( 56-C , 57-C ) :   1.0653 B( 56-C , 65-C ) :   0.9843 B( 57-C , 58-C ) :   1.6134
B( 57-C , 63-C ) :   0.9902 B( 58-C , 59-C ) :   1.1332 B( 58-C , 61-C ) :   1.1822
B( 59-C , 60-N ) :   2.9642 B( 61-C , 62-N ) :   2.9766 B( 63-C , 64-C ) :   1.2653
B( 63-C , 70-C ) :   1.4212 B( 64-C , 65-C ) :   0.9283 B( 64-C , 67-C ) :   1.4275
B( 65-C , 66-O ) :   2.1570 B( 67-C , 68-C ) :   1.2333 B( 67-C ,101-H ) :   1.0147
B( 68-C , 69-C ) :   1.3209 B( 68-C , 73-C ) :   1.1642 B( 69-C , 70-C ) :   1.3077
B( 69-C , 71-S ) :   1.0861 B( 70-C ,102-H ) :   0.9814 B( 71-S , 72-C ) :   1.0825
B( 72-C , 73-C ) :   1.6112 B( 72-C , 74-Br) :   1.0176 B( 73-C ,103-H ) :   0.9959

-----------------------------------------------------------------------------
         ABSORPTION SPECTRUM VIA TRANSITION ELECTRIC DIPOLE MOMENTS
-----------------------------------------------------------------------------
State   Energy  Wavelength   fosc         T2         TX        TY        TZ
        (cm-1)    (nm)                  (au**2)     (au)      (au)      (au)
-----------------------------------------------------------------------------
   0    9039.1   1106.3   0.328482573  11.96359   1.89358  -0.64507  -2.82167
   1   13897.1    719.6   0.275042268   6.51556   1.31190   1.48860  -1.60578
   2   17713.2    564.6   0.780705418  14.50994  -2.01884  -2.57281   1.95316
   3   20035.1    499.1   0.915781586  15.04787   1.90449   2.95548  -1.63888
   4   20808.6    480.6   0.322592738   5.10373  -0.99667   0.57713   1.94352
   5   22354.6    447.3   0.288689303   4.25148  -0.32052  -1.99928  -0.38938
   6   22796.5    438.7   0.167201086   2.41461  -1.22808  -0.82455   0.47597
   7   23201.1    431.0   0.030287328   0.42976  -0.21186  -0.61873   0.04524
   8   23785.2    420.4   0.024447874   0.33838   0.26320   0.46281  -0.23433
   9   24900.5    401.6   0.202988898   2.68374   0.56721   1.45209   0.50342
  10   25273.9    395.7   0.104302904   1.35863  -0.76371  -0.87148  -0.12609
  11   26151.2    382.4   0.041328039   0.52027  -0.05018  -0.59290  -0.40770
  12   26450.8    378.1   0.023606697   0.29381  -0.00578   0.41048   0.35396
  13   26844.7    372.5   0.100230399   1.22918  -0.24168   0.16847   1.06883
  14   26945.3    371.1   0.108079274   1.32049   0.72624   0.75569  -0.47117
  15   27028.0    370.0   0.082747113   1.00789  -0.15322  -0.76600  -0.63060
  16   27498.6    363.7   0.077881880   0.93240   0.24606  -0.40180  -0.84286
  17   28219.7    354.4   0.046010475   0.53676  -0.33605  -0.24290   0.60401
  18   28403.7    352.1   0.113226082   1.31234  -0.47378  -1.03525  -0.12703
  19   28696.7    348.5   0.008374389   0.09607   0.01239   0.22745   0.21020
  20   28930.1    345.7   0.029622288   0.33709  -0.12179  -0.07140   0.56317
  21   29043.1    344.3   0.079186153   0.89760  -0.64033  -0.20151   0.66856
  22   29280.9    341.5   0.068592707   0.77120  -0.60366  -0.56976   0.28665
  23   29530.7    338.6   0.005514437   0.06148   0.16699   0.16353  -0.08274
  24   30003.8    333.3   0.075406784   0.82739   0.56926   0.70436  -0.08494
  25   30374.5    329.2   0.059288751   0.64260   0.33983   0.35131  -0.63537
  26   30606.1    326.7   0.041786624   0.44947  -0.00200  -0.33475  -0.58087
  27   31012.0    322.5   0.003221842   0.03420   0.16441   0.06926  -0.04872
  28   31204.3    320.5   0.009760519   0.10298  -0.18668  -0.12063  -0.23146
  29   31387.1    318.6   0.005419057   0.05684  -0.03394   0.10360   0.21202
  30   31811.9    314.3   0.268803820   2.78177   0.91782   1.17819   0.74245
  31   32257.0    310.0   0.224972253   2.29605  -0.92935  -1.14218  -0.35747
  32   32827.7    304.6   0.011623164   0.11656   0.01234  -0.21522  -0.26474
  33   33126.1    301.9   0.012607576   0.12530   0.09663   0.17200   0.29390
  34   33223.4    301.0   0.097890193   0.97000   0.61795   0.67470   0.36457
  35   33278.2    300.5   0.009667269   0.09564  -0.19811  -0.14732   0.18623
  36   33443.7    299.0   0.244994678   2.41167   0.91983   1.09195   0.61091
  37   33588.5    297.7   0.224601936   2.20140  -0.82158  -1.13573  -0.48634
  38   33927.0    294.8   0.066479157   0.64508   0.03022  -0.14151  -0.79003
  39   34097.7    293.3   0.018902104   0.18250   0.16192  -0.13276  -0.37237
  40   34183.9    292.5   0.002717472   0.02617  -0.11223   0.07208   0.09154
  41   34395.9    290.7   0.051428782   0.49224   0.00777   0.17465   0.67947
  42   34852.5    286.9   0.076387120   0.72154   0.59342   0.17667  -0.58154
  43   35047.4    285.3   0.005809507   0.05457   0.14756   0.16906  -0.06495
  44   35213.7    284.0   0.044806045   0.41889   0.48259   0.40301  -0.15356
  45   35444.8    282.1   0.034903179   0.32418   0.42866   0.28054  -0.24845
  46   35565.7    281.2   0.017848077   0.16521  -0.13364  -0.30240  -0.23643
  47   35775.8    279.5   0.082576000   0.75987   0.35286   0.56440   0.56286
  48   35981.2    277.9   0.006719516   0.06148  -0.00418   0.17934   0.17117
  49   36046.0    277.4   0.003074679   0.02808  -0.08107  -0.14355  -0.03003
  50   36656.7    272.8   0.003351002   0.03010   0.16000  -0.06532  -0.01507
  51   36753.7    272.1   0.012297106   0.11015  -0.11198  -0.30534  -0.06614
  52   37183.3    268.9   0.065598092   0.58079  -0.51705  -0.50058  -0.25074
  53   37513.5    266.6   0.043494109   0.38170  -0.01307  -0.12254  -0.60540
  54   37646.9    265.6   0.000423906   0.00371   0.03992  -0.00360   0.04583
  55   37852.7    264.2   0.147806015   1.28550   0.33444   0.69375   0.83208
  56   38306.2    261.1   0.004377184   0.03762   0.07459   0.02676  -0.17703
  57   38446.9    260.1   0.030871685   0.26435  -0.27186  -0.12359   0.41853
  58   38690.1    258.5   0.003475864   0.02958   0.07220   0.04489   0.14949
  59   38743.0    258.1   0.000673164   0.00572   0.04641  -0.00150   0.05970
  60   38841.5    257.5   0.050198612   0.42547  -0.05257   0.01705  -0.64994
  61   38971.9    256.6   0.013550860   0.11447   0.00334   0.11463   0.31831
  62   39396.6    253.8   0.051532002   0.43062  -0.20108   0.24776   0.57341
  63   39409.1    253.7   0.032270661   0.26958  -0.35244  -0.04076   0.37909
  64   39566.9    252.7   0.011664934   0.09706   0.00282   0.16870   0.26190
  65   39621.1    252.4   0.133470913   1.10901  -0.07150   0.20829   1.02981
  66   39938.6    250.4   0.025508564   0.21027  -0.24233  -0.36768  -0.12789
  67   40112.5    249.3   0.112609170   0.92421  -0.21194   0.02161  -0.93745
  68   40291.2    248.2   0.004684659   0.03828  -0.17193  -0.09332   0.00268

FINAL SINGLE POINT ENERGY    -10045.303410402554

DIPOLE MOMENT
-------------
                                X             Y             Z
Electronic contribution:   -181.19875    -182.78607     133.48192
Nuclear contribution   :    182.27925     185.14476    -138.69766
                        -----------------------------------------
Total Dipole Moment    :      1.08050       2.35869      -5.21573
                        -----------------------------------------
Magnitude (a.u.)       :      5.82536
Magnitude (Debye)      :     14.80688

Rotational constants in cm-1:     0.001173     0.000375     0.000301
Rotational constants in MHz :    35.176098    11.228561     9.009063

                             ****ORCA TERMINATED NORMALLY****
TOTAL RUN TIME: 0 days 0 hours 14 minutes 25 seconds 575 msec
