                         Program Version 4.2.0 -  RELEASE  -
|  1> # ORCA input file
|  2> # SCF done       -189.516095854166          0.000727282145
|  3> ! CAM-B3LYP def2-SVP def2/J RIJCOSX Grid4 TightSCF
|  4> %maxcore 5000
|  5> %tddft
|  6>     Mode sTDDFT
|  7>     Ethresh 5.0
|  8>     maxcore 5000
|  9> end
| 10>
| 11> %pal
| 12>   nprocs 6
| 13>   end
| 14> * xyz 0 1
| 15>    C       -0.97897        -1.19099        -2.72562
| 16>    C       -1.23172        -2.31376        -1.96437
| 17>    C       -0.24153        -3.21773        -1.53811
| 18>    N        0.51477        -3.99534        -1.15673
| 19>    C       -2.49384        -2.72926        -1.50092
| 20>    N       -3.47868        -3.14743        -1.07888
| 21>    C        0.34605        -0.78445        -3.19698
| 22>    C        0.21052         0.40872        -3.94581
| 23>    C        1.27784         1.04579        -4.52635
| 24>    C        2.54647         0.47716        -4.36054
| 25>    C        2.67232        -0.71364        -3.61147
| 26>    C        1.58951        -1.35872        -3.02312
| 27>    S        4.32571        -1.24627        -3.53050
| 28>    C        4.81613         0.12256        -4.49277
| 29>    C        3.79823         0.93669        -4.85630
| 30>   Br        6.62839         0.34774        -4.92643
| 31>    C       -1.21640         0.80260        -3.97407
| 32>    O       -1.67466         1.78199        -4.53431
| 33>    C       -1.92755        -0.22487        -3.19819
| 34>    C       -3.29892        -0.23336        -2.97597
| 35>    C       -4.18403         0.71523        -3.45222
| 36>    C       -5.55400         0.66804        -3.21374
| 37>    C       -6.51808         1.58077        -3.66752
| 38>    C       -7.80146         1.27403        -3.28472
| 39>    C       -7.89120         0.10922        -2.51398
| 40>    S       -6.31462        -0.59702        -2.27688
| 41>    C       -9.04433        -0.47895        -1.97993
| 42>    C      -10.36742        -0.04705        -2.10989
| 43>    C      -11.27655        -0.86397        -1.47550
| 44>    C      -10.69981        -1.95758        -0.82538
| 45>    S       -8.96512        -1.93677        -1.03025
| 46>    C      -11.37210        -2.95672        -0.11328
| 47>    C      -10.77071        -4.00782         0.52554
| 48>    C      -11.46150        -5.01485         1.20964
| 49>    C      -10.91186        -6.10429         1.88929
| 50>    C      -11.84692        -6.94510         2.45215
| 51>    C      -13.16609        -6.54351         2.22869
| 52>    S      -13.20440        -5.06687         1.29881
| 53>    C      -14.34776        -7.17760         2.62632
| 54>    C      -14.48979        -8.36685         3.35315
| 55>    C      -15.79615        -8.74151         3.54763
| 56>    C      -16.73578        -7.86331         2.98326
| 57>    S      -15.90786        -6.52889         2.20284
| 58>    C      -18.11646        -7.98603         2.97838
| 59>    C      -18.97161        -7.07064         2.37831
| 60>    C      -20.33750        -7.21462         2.30151
| 61>    C      -21.16885        -6.28416         1.66715
| 62>    O      -20.67605        -5.13652         1.13206
| 63>    C      -21.69620        -4.44825         0.54965
| 64>    C      -22.88211        -5.16621         0.73191
| 65>    C      -22.55254        -6.32822         1.44209
| 66>    O      -23.38631        -7.31059         1.83617
| 67>    O      -24.15505        -4.86471         0.35915
| 68>    C      -21.38433        -3.21258        -0.05761
| 69>    C      -22.17798        -2.45539        -0.86638
| 70>    C      -21.75358        -1.21909        -1.39982
| 71>    C      -22.47855        -0.48017        -2.28107
| 72>    C      -22.06360         0.75564        -2.82182
| 73>    S      -20.58981         1.57118        -2.35045
| 74>    C      -20.85594         2.91848        -3.42061
| 75>    C      -22.03838         2.73565        -4.13235
| 76>    C      -22.69846         1.52436        -3.77795
| 77>    S      -24.16132         1.28092        -4.67154
| 78>    C      -23.88863         2.78885        -5.53364
| 79>    C      -24.80684         3.26577        -6.57393
| 80>    O      -24.61209         4.31980        -7.13812
| 81>    C      -25.97503         2.35560        -6.87752
| 82>    C      -26.87523         2.92320        -7.96497
| 83>    C      -22.74998         3.42928        -5.14193
| 84>    C      -19.88783         3.97169        -3.42219
| 85>    C      -19.97992         5.13557        -4.06868
| 86>    H        1.14132         1.95465        -5.09131
| 87>    H        1.74048        -2.26536        -2.46183
| 88>    H        3.92138         1.82465        -5.44922
| 89>    H       -3.71410        -1.04212        -2.38733
| 90>    H       -3.80832         1.53770        -4.04354
| 91>    H       -6.24910         2.43503        -4.26268
| 92>    H       -8.66374         1.86168        -3.54372
| 93>    H      -10.63418         0.83739        -2.65924
| 94>    H      -12.33883        -0.69413        -1.46907
| 95>    H      -12.45205        -2.87738        -0.07880
| 96>    H       -9.69119        -4.08584         0.50779
| 97>    H       -9.84890        -6.25524         1.95276
| 98>    H      -11.60058        -7.83159         3.00790
| 99>    H      -13.64361        -8.92360         3.71323
|100>    H      -16.09822        -9.62737         4.07780
|101>    H      -18.53730        -8.85887         3.45980
|102>    H      -18.53206        -6.19200         1.92402
|103>    H      -20.82876        -8.08159         2.71683
|104>    H      -24.27952        -7.08279         1.54533
|105>    H      -24.18902        -3.96396         0.02000
|106>    H      -20.37752        -2.86951         0.14030
|107>    H      -23.16083        -2.79680        -1.16517
|108>    H      -20.78524        -0.84936        -1.08759
|109>    H      -23.44093        -0.83575        -2.62840
|110>    H      -26.53671         2.20200        -5.95172
|111>    H      -25.57550         1.38255        -7.17767
|112>    H      -27.27605         3.88509        -7.65563
|113>    H      -27.70005         2.24551        -8.16936
|114>    H      -26.30720         3.07458        -8.87932
|115>    H      -22.45217         4.35681        -5.59393
|116>    H      -19.01420         3.76963        -2.81399
|117>    H      -20.83133         5.40197        -4.66767
|118>    H      -19.19196         5.86481        -4.00244
|119> *
|120>
|121>                          ****END OF INPUT****

CARTESIAN COORDINATES (ANGSTROEM)
---------------------------------
  C     -0.978970   -1.190990   -2.725620
  C     -1.231720   -2.313760   -1.964370
  C     -0.241530   -3.217730   -1.538110
  N      0.514770   -3.995340   -1.156730
  C     -2.493840   -2.729260   -1.500920
  N     -3.478680   -3.147430   -1.078880
  C      0.346050   -0.784450   -3.196980
  C      0.210520    0.408720   -3.945810
  C      1.277840    1.045790   -4.526350
  C      2.546470    0.477160   -4.360540
  C      2.672320   -0.713640   -3.611470
  C      1.589510   -1.358720   -3.023120
  S      4.325710   -1.246270   -3.530500
  C      4.816130    0.122560   -4.492770
  C      3.798230    0.936690   -4.856300
  Br     6.628390    0.347740   -4.926430
  C     -1.216400    0.802600   -3.974070
  O     -1.674660    1.781990   -4.534310
  C     -1.927550   -0.224870   -3.198190
  C     -3.298920   -0.233360   -2.975970
  C     -4.184030    0.715230   -3.452220
  C     -5.554000    0.668040   -3.213740
  C     -6.518080    1.580770   -3.667520
  C     -7.801460    1.274030   -3.284720
  C     -7.891200    0.109220   -2.513980
  S     -6.314620   -0.597020   -2.276880
  C     -9.044330   -0.478950   -1.979930
  C    -10.367420   -0.047050   -2.109890
  C    -11.276550   -0.863970   -1.475500
  C    -10.699810   -1.957580   -0.825380
  S     -8.965120   -1.936770   -1.030250
  C    -11.372100   -2.956720   -0.113280
  C    -10.770710   -4.007820    0.525540
  C    -11.461500   -5.014850    1.209640
  C    -10.911860   -6.104290    1.889290
  C    -11.846920   -6.945100    2.452150
  C    -13.166090   -6.543510    2.228690
  S    -13.204400   -5.066870    1.298810
  C    -14.347760   -7.177600    2.626320
  C    -14.489790   -8.366850    3.353150
  C    -15.796150   -8.741510    3.547630
  C    -16.735780   -7.863310    2.983260
  S    -15.907860   -6.528890    2.202840
  C    -18.116460   -7.986030    2.978380
  C    -18.971610   -7.070640    2.378310
  C    -20.337500   -7.214620    2.301510
  C    -21.168850   -6.284160    1.667150
  O    -20.676050   -5.136520    1.132060
  C    -21.696200   -4.448250    0.549650
  C    -22.882110   -5.166210    0.731910
  C    -22.552540   -6.328220    1.442090
  O    -23.386310   -7.310590    1.836170
  O    -24.155050   -4.864710    0.359150
  C    -21.384330   -3.212580   -0.057610
  C    -22.177980   -2.455390   -0.866380
  C    -21.753580   -1.219090   -1.399820
  C    -22.478550   -0.480170   -2.281070
  C    -22.063600    0.755640   -2.821820
  S    -20.589810    1.571180   -2.350450
  C    -20.855940    2.918480   -3.420610
  C    -22.038380    2.735650   -4.132350
  C    -22.698460    1.524360   -3.777950
  S    -24.161320    1.280920   -4.671540
  C    -23.888630    2.788850   -5.533640
  C    -24.806840    3.265770   -6.573930
  O    -24.612090    4.319800   -7.138120
  C    -25.975030    2.355600   -6.877520
  C    -26.875230    2.923200   -7.964970
  C    -22.749980    3.429280   -5.141930
  C    -19.887830    3.971690   -3.422190
  C    -19.979920    5.135570   -4.068680
  H      1.141320    1.954650   -5.091310
  H      1.740480   -2.265360   -2.461830
  H      3.921380    1.824650   -5.449220
  H     -3.714100   -1.042120   -2.387330
  H     -3.808320    1.537700   -4.043540
  H     -6.249100    2.435030   -4.262680
  H     -8.663740    1.861680   -3.543720
  H    -10.634180    0.837390   -2.659240
  H    -12.338830   -0.694130   -1.469070
  H    -12.452050   -2.877380   -0.078800
  H     -9.691190   -4.085840    0.507790
  H     -9.848900   -6.255240    1.952760
  H    -11.600580   -7.831590    3.007900
  H    -13.643610   -8.923600    3.713230
  H    -16.098220   -9.627370    4.077800
  H    -18.537300   -8.858870    3.459800
  H    -18.532060   -6.192000    1.924020
  H    -20.828760   -8.081590    2.716830
  H    -24.279520   -7.082790    1.545330
  H    -24.189020   -3.963960    0.020000
  H    -20.377520   -2.869510    0.140300
  H    -23.160830   -2.796800   -1.165170
  H    -20.785240   -0.849360   -1.087590
  H    -23.440930   -0.835750   -2.628400
  H    -26.536710    2.202000   -5.951720
  H    -25.575500    1.382550   -7.177670
  H    -27.276050    3.885090   -7.655630
  H    -27.700050    2.245510   -8.169360
  H    -26.307200    3.074580   -8.879320
  H    -22.452170    4.356810   -5.593930
  H    -19.014200    3.769630   -2.813990
  H    -20.831330    5.401970   -4.667670
  H    -19.191960    5.864810   -4.002440

 Total Charge           Charge          ....    0
 Multiplicity           Mult            ....    1
 Number of Electrons    NEL             ....  570
 Basis Dimension        Dim             .... 1205

ORBITAL ENERGIES
----------------

  NO   OCC          E(Eh)            E(eV)
   0   2.0000    -482.863258    -13139.3772
   1   2.0000     -88.976757     -2421.1806
   2   2.0000     -88.968047     -2420.9436
   3   2.0000     -88.965863     -2420.8842
   4   2.0000     -88.961400     -2420.7628
   5   2.0000     -88.951502     -2420.4934
   6   2.0000     -88.947710     -2420.3903
   7   2.0000     -88.939346     -2420.1626
   8   2.0000     -62.540952     -1701.8258
   9   2.0000     -56.374871     -1534.0382
  10   2.0000     -56.372215     -1533.9659
  11   2.0000     -56.372171     -1533.9648
  12   2.0000     -19.305424      -525.3273
  13   2.0000     -19.286729      -524.8186
  14   2.0000     -19.280455      -524.6478
  15   2.0000     -19.212719      -522.8046
  16   2.0000     -19.174878      -521.7749
  17   2.0000     -14.376640      -391.2083
  18   2.0000     -14.374801      -391.1582
  19   2.0000     -10.366436      -282.0851
  20   2.0000     -10.361243      -281.9438
  21   2.0000     -10.359261      -281.8898
  22   2.0000     -10.357414      -281.8396
  23   2.0000     -10.348257      -281.5904
  24   2.0000     -10.334268      -281.2097
  25   2.0000     -10.331721      -281.1404
  26   2.0000     -10.325172      -280.9622
  27   2.0000     -10.325017      -280.9580
  28   2.0000     -10.322091      -280.8784
  29   2.0000     -10.320858      -280.8448
  30   2.0000     -10.320634      -280.8387
  31   2.0000     -10.319967      -280.8206
  32   2.0000     -10.318068      -280.7689
  33   2.0000     -10.317923      -280.7650
  34   2.0000     -10.311750      -280.5970
  35   2.0000     -10.307911      -280.4925
  36   2.0000     -10.307281      -280.4754
  37   2.0000     -10.307229      -280.4739
  38   2.0000     -10.305989      -280.4402
  39   2.0000     -10.304682      -280.4046
  40   2.0000     -10.304374      -280.3963
  41   2.0000     -10.304269      -280.3934
  42   2.0000     -10.300728      -280.2970
  43   2.0000     -10.299658      -280.2680
  44   2.0000     -10.299438      -280.2619
  45   2.0000     -10.299258      -280.2571
  46   2.0000     -10.298984      -280.2496
  47   2.0000     -10.298154      -280.2270
  48   2.0000     -10.297872      -280.2194
  49   2.0000     -10.297394      -280.2063
  50   2.0000     -10.296475      -280.1813
  51   2.0000     -10.296126      -280.1718
  52   2.0000     -10.294083      -280.1163
  53   2.0000     -10.293902      -280.1113
  54   2.0000     -10.292619      -280.0764
  55   2.0000     -10.288772      -279.9717
  56   2.0000     -10.288742      -279.9709
  57   2.0000     -10.284214      -279.8477
  58   2.0000     -10.283259      -279.8217
  59   2.0000     -10.281868      -279.7839
  60   2.0000     -10.281055      -279.7617
  61   2.0000     -10.280893      -279.7573
  62   2.0000     -10.280645      -279.7506
  63   2.0000     -10.280557      -279.7482
  64   2.0000     -10.275699      -279.6160
  65   2.0000     -10.272470      -279.5281
  66   2.0000     -10.270979      -279.4875
  67   2.0000     -10.270671      -279.4792
  68   2.0000     -10.268562      -279.4218
  69   2.0000     -10.267633      -279.3965
  70   2.0000     -10.265942      -279.3505
  71   2.0000     -10.259856      -279.1849
  72   2.0000     -10.256152      -279.0841
  73   2.0000     -10.246895      -278.8322
  74   2.0000     -10.246363      -278.8177
  75   2.0000      -8.770354      -238.6535
  76   2.0000      -8.071891      -219.6473
  77   2.0000      -8.063423      -219.4169
  78   2.0000      -8.062055      -219.3797
  79   2.0000      -8.057670      -219.2603
  80   2.0000      -8.047644      -218.9875
  81   2.0000      -8.043737      -218.8812
  82   2.0000      -8.035176      -218.6482
  83   2.0000      -6.606517      -179.7725
  84   2.0000      -6.592139      -179.3812
  85   2.0000      -6.591997      -179.3773
  86   2.0000      -6.041015      -164.3844
  87   2.0000      -6.037096      -164.2777
  88   2.0000      -6.034192      -164.1987
  89   2.0000      -6.033120      -164.1695
  90   2.0000      -6.031599      -164.1282
  91   2.0000      -6.029047      -164.0587
  92   2.0000      -6.027586      -164.0190
  93   2.0000      -6.027154      -164.0072
  94   2.0000      -6.024644      -163.9389
  95   2.0000      -6.023350      -163.9037
  96   2.0000      -6.023184      -163.8992
  97   2.0000      -6.019067      -163.7871
  98   2.0000      -6.017106      -163.7338
  99   2.0000      -6.013441      -163.6341
 100   2.0000      -6.013072      -163.6240
 101   2.0000      -6.009192      -163.5184
 102   2.0000      -6.009122      -163.5165
 103   2.0000      -6.004924      -163.4023
 104   2.0000      -6.004647      -163.3948
 105   2.0000      -6.000621      -163.2852
 106   2.0000      -5.996673      -163.1778
 107   2.0000      -2.722420       -74.0808
 108   2.0000      -2.718340       -73.9698
 109   2.0000      -2.718295       -73.9686
 110   2.0000      -2.706836       -73.6567
 111   2.0000      -2.706821       -73.6563
 112   2.0000      -1.226476       -33.3741
 113   2.0000      -1.181738       -32.1567
 114   2.0000      -1.165133       -31.7049
 115   2.0000      -1.129831       -30.7443
 116   2.0000      -1.087883       -29.6028
 117   2.0000      -1.021331       -27.7918
 118   2.0000      -1.012042       -27.5391
 119   2.0000      -0.994866       -27.0717
 120   2.0000      -0.990172       -26.9439
 121   2.0000      -0.989017       -26.9125
 122   2.0000      -0.976398       -26.5692
 123   2.0000      -0.969070       -26.3697
 124   2.0000      -0.962768       -26.1983
 125   2.0000      -0.955596       -26.0031
 126   2.0000      -0.952210       -25.9109
 127   2.0000      -0.944482       -25.7007
 128   2.0000      -0.932733       -25.3810
 129   2.0000      -0.915829       -24.9210
 130   2.0000      -0.911960       -24.8157
 131   2.0000      -0.909961       -24.7613
 132   2.0000      -0.907077       -24.6828
 133   2.0000      -0.892946       -24.2983
 134   2.0000      -0.882931       -24.0258
 135   2.0000      -0.879080       -23.9210
 136   2.0000      -0.875163       -23.8144
 137   2.0000      -0.871608       -23.7177
 138   2.0000      -0.862406       -23.4673
 139   2.0000      -0.856949       -23.3188
 140   2.0000      -0.853259       -23.2184
 141   2.0000      -0.851050       -23.1583
 142   2.0000      -0.843786       -22.9606
 143   2.0000      -0.841624       -22.9018
 144   2.0000      -0.836418       -22.7601
 145   2.0000      -0.833172       -22.6718
 146   2.0000      -0.827728       -22.5236
 147   2.0000      -0.816281       -22.2121
 148   2.0000      -0.814552       -22.1651
 149   2.0000      -0.800563       -21.7844
 150   2.0000      -0.797419       -21.6989
 151   2.0000      -0.786122       -21.3915
 152   2.0000      -0.770393       -20.9635
 153   2.0000      -0.759143       -20.6573
 154   2.0000      -0.757906       -20.6237
 155   2.0000      -0.748620       -20.3710
 156   2.0000      -0.731396       -19.9023
 157   2.0000      -0.726176       -19.7603
 158   2.0000      -0.720961       -19.6184
 159   2.0000      -0.716513       -19.4973
 160   2.0000      -0.711461       -19.3598
 161   2.0000      -0.700897       -19.0724
 162   2.0000      -0.692236       -18.8367
 163   2.0000      -0.686939       -18.6926
 164   2.0000      -0.680081       -18.5059
 165   2.0000      -0.678269       -18.4566
 166   2.0000      -0.668538       -18.1918
 167   2.0000      -0.662331       -18.0229
 168   2.0000      -0.659430       -17.9440
 169   2.0000      -0.654035       -17.7972
 170   2.0000      -0.648768       -17.6539
 171   2.0000      -0.642720       -17.4893
 172   2.0000      -0.641783       -17.4638
 173   2.0000      -0.635427       -17.2909
 174   2.0000      -0.631795       -17.1920
 175   2.0000      -0.628094       -17.0913
 176   2.0000      -0.624003       -16.9800
 177   2.0000      -0.622956       -16.9515
 178   2.0000      -0.619998       -16.8710
 179   2.0000      -0.607126       -16.5207
 180   2.0000      -0.604478       -16.4487
 181   2.0000      -0.599963       -16.3258
 182   2.0000      -0.598144       -16.2763
 183   2.0000      -0.596715       -16.2374
 184   2.0000      -0.595514       -16.2048
 185   2.0000      -0.588824       -16.0227
 186   2.0000      -0.587211       -15.9788
 187   2.0000      -0.577444       -15.7131
 188   2.0000      -0.575482       -15.6597
 189   2.0000      -0.564697       -15.3662
 190   2.0000      -0.563440       -15.3320
 191   2.0000      -0.560842       -15.2613
 192   2.0000      -0.557751       -15.1772
 193   2.0000      -0.557240       -15.1633
 194   2.0000      -0.554974       -15.1016
 195   2.0000      -0.551869       -15.0171
 196   2.0000      -0.542904       -14.7732
 197   2.0000      -0.539113       -14.6700
 198   2.0000      -0.530140       -14.4258
 199   2.0000      -0.528575       -14.3833
 200   2.0000      -0.525648       -14.3036
 201   2.0000      -0.521024       -14.1778
 202   2.0000      -0.520315       -14.1585
 203   2.0000      -0.516258       -14.0481
 204   2.0000      -0.513890       -13.9837
 205   2.0000      -0.512991       -13.9592
 206   2.0000      -0.510652       -13.8955
 207   2.0000      -0.509723       -13.8703
 208   2.0000      -0.507831       -13.8188
 209   2.0000      -0.505129       -13.7453
 210   2.0000      -0.502942       -13.6857
 211   2.0000      -0.501909       -13.6576
 212   2.0000      -0.500124       -13.6091
 213   2.0000      -0.496048       -13.4981
 214   2.0000      -0.495481       -13.4827
 215   2.0000      -0.493506       -13.4290
 216   2.0000      -0.490988       -13.3605
 217   2.0000      -0.489129       -13.3099
 218   2.0000      -0.483851       -13.1663
 219   2.0000      -0.483112       -13.1461
 220   2.0000      -0.481852       -13.1118
 221   2.0000      -0.478835       -13.0298
 222   2.0000      -0.477004       -12.9799
 223   2.0000      -0.475938       -12.9509
 224   2.0000      -0.475638       -12.9428
 225   2.0000      -0.473744       -12.8912
 226   2.0000      -0.471563       -12.8319
 227   2.0000      -0.470050       -12.7907
 228   2.0000      -0.467843       -12.7307
 229   2.0000      -0.461321       -12.5532
 230   2.0000      -0.461110       -12.5474
 231   2.0000      -0.459369       -12.5001
 232   2.0000      -0.454619       -12.3708
 233   2.0000      -0.452296       -12.3076
 234   2.0000      -0.452007       -12.2997
 235   2.0000      -0.451759       -12.2930
 236   2.0000      -0.450446       -12.2573
 237   2.0000      -0.449627       -12.2350
 238   2.0000      -0.444714       -12.1013
 239   2.0000      -0.442578       -12.0432
 240   2.0000      -0.439077       -11.9479
 241   2.0000      -0.437752       -11.9119
 242   2.0000      -0.434445       -11.8219
 243   2.0000      -0.433872       -11.8063
 244   2.0000      -0.430272       -11.7083
 245   2.0000      -0.430113       -11.7040
 246   2.0000      -0.426851       -11.6152
 247   2.0000      -0.425799       -11.5866
 248   2.0000      -0.421376       -11.4662
 249   2.0000      -0.419802       -11.4234
 250   2.0000      -0.417039       -11.3482
 251   2.0000      -0.414143       -11.2694
 252   2.0000      -0.413537       -11.2529
 253   2.0000      -0.410970       -11.1831
 254   2.0000      -0.408917       -11.1272
 255   2.0000      -0.406560       -11.0630
 256   2.0000      -0.405437       -11.0325
 257   2.0000      -0.392773       -10.6879
 258   2.0000      -0.390196       -10.6178
 259   2.0000      -0.387913       -10.5557
 260   2.0000      -0.386080       -10.5058
 261   2.0000      -0.377286       -10.2665
 262   2.0000      -0.369915       -10.0659
 263   2.0000      -0.365695        -9.9511
 264   2.0000      -0.357619        -9.7313
 265   2.0000      -0.353142        -9.6095
 266   2.0000      -0.353074        -9.6076
 267   2.0000      -0.349993        -9.5238
 268   2.0000      -0.345254        -9.3948
 269   2.0000      -0.340666        -9.2700
 270   2.0000      -0.337004        -9.1703
 271   2.0000      -0.335423        -9.1273
 272   2.0000      -0.331977        -9.0335
 273   2.0000      -0.326093        -8.8734
 274   2.0000      -0.322384        -8.7725
 275   2.0000      -0.316196        -8.6041
 276   2.0000      -0.311919        -8.4878
 277   2.0000      -0.295908        -8.0521
 278   2.0000      -0.294598        -8.0164
 279   2.0000      -0.284496        -7.7415
 280   2.0000      -0.274740        -7.4761
 281   2.0000      -0.262860        -7.1528
 282   2.0000      -0.249216        -6.7815
 283   2.0000      -0.230231        -6.2649
 284   2.0000      -0.187434        -5.1003
 285   0.0000      -0.123018        -3.3475
 286   0.0000      -0.080496        -2.1904
 287   0.0000      -0.064263        -1.7487
 288   0.0000      -0.045725        -1.2442
 289   0.0000      -0.033563        -0.9133

MULLIKEN ATOMIC CHARGES
-----------------------
   0 C :    0.330842
   1 C :   -0.381404
   2 C :   -0.190909
   3 N :    0.118432
   4 C :   -0.190805
   5 N :    0.117932
   6 C :    0.011857
   7 C :   -0.003504
   8 C :   -0.083852
   9 C :    0.116728
  10 C :   -0.091929
  11 C :   -0.029580
  12 S :    0.169366
  13 C :   -0.124757
  14 C :    0.035843
  15 Br:    0.001436
  16 C :    0.129194
  17 O :   -0.177406
  18 C :   -0.101471
  19 C :   -0.042672
  20 C :   -0.025472
  21 C :    0.002227
  22 C :    0.011920
  23 C :    0.032264
  24 C :   -0.054873
  25 S :    0.110878
  26 C :   -0.021720
  27 C :    0.000576
  28 C :    0.037116
  29 C :   -0.048269
  30 S :    0.120048
  31 C :    0.018271
  32 C :   -0.017740
  33 C :   -0.016780
  34 C :    0.017199
  35 C :    0.028791
  36 C :   -0.053600
  37 S :    0.090652
  38 C :   -0.025179
  39 C :    0.012240
  40 C :    0.045407
  41 C :   -0.038291
  42 S :    0.096986
  43 C :    0.022979
  44 C :    0.002657
  45 C :   -0.028994
  46 C :    0.085023
  47 O :   -0.218335
  48 C :    0.127640
  49 C :    0.056819
  50 C :    0.105844
  51 O :   -0.167675
  52 O :   -0.195495
  53 C :   -0.017813
  54 C :   -0.010597
  55 C :    0.001984
  56 C :    0.001497
  57 C :   -0.130926
  58 S :    0.134547
  59 C :   -0.133714
  60 C :    0.145574
  61 C :   -0.019237
  62 S :    0.101737
  63 C :   -0.080643
  64 C :    0.035681
  65 O :   -0.174785
  66 C :   -0.071983
  67 C :    0.059974
  68 C :   -0.021162
  69 C :    0.042437
  70 C :   -0.021109
  71 H :   -0.022020
  72 H :   -0.014691
  73 H :   -0.011288
  74 H :    0.006325
  75 H :    0.009114
  76 H :   -0.010841
  77 H :   -0.016395
  78 H :   -0.016467
  79 H :   -0.013838
  80 H :   -0.003359
  81 H :    0.005645
  82 H :   -0.001639
  83 H :   -0.008342
  84 H :   -0.007810
  85 H :   -0.005942
  86 H :   -0.005110
  87 H :    0.012324
  88 H :    0.009347
  89 H :    0.198935
  90 H :    0.192017
  91 H :    0.003913
  92 H :   -0.033165
  93 H :   -0.003140
  94 H :   -0.011827
  95 H :    0.037907
  96 H :    0.038635
  97 H :    0.020995
  98 H :    0.008938
  99 H :    0.022667
 100 H :    0.003264
 101 H :   -0.008758
 102 H :    0.020865
 103 H :    0.035824
Sum of atomic charges:   -0.0000000

LOEWDIN ATOMIC CHARGES
----------------------
   0 C :    0.069903
   1 C :   -0.173455
   2 C :   -0.019439
   3 N :   -0.086753
   4 C :   -0.020841
   5 N :   -0.083777
   6 C :   -0.014554
   7 C :   -0.046278
   8 C :    0.011312
   9 C :   -0.040299
  10 C :   -0.148056
  11 C :   -0.018758
  12 S :    0.419581
  13 C :   -0.279409
  14 C :   -0.071614
  15 Br:    0.119901
  16 C :    0.078355
  17 O :   -0.170093
  18 C :   -0.123258
  19 C :    0.036162
  20 C :   -0.080118
  21 C :   -0.110464
  22 C :   -0.059056
  23 C :   -0.018731
  24 C :   -0.207074
  25 S :    0.419126
  26 C :   -0.146558
  27 C :   -0.058831
  28 C :   -0.022838
  29 C :   -0.175300
  30 S :    0.417178
  31 C :   -0.022666
  32 C :   -0.076666
  33 C :   -0.125666
  34 C :   -0.048938
  35 C :   -0.019402
  36 C :   -0.196899
  37 S :    0.397502
  38 C :   -0.151666
  39 C :   -0.045672
  40 C :   -0.017226
  41 C :   -0.164954
  42 S :    0.400164
  43 C :   -0.015368
  44 C :   -0.045460
  45 C :   -0.005080
  46 C :   -0.002167
  47 O :    0.002258
  48 C :    0.005222
  49 C :   -0.018834
  50 C :    0.011888
  51 O :   -0.037354
  52 O :   -0.055640
  53 C :   -0.042088
  54 C :   -0.032345
  55 C :   -0.034805
  56 C :   -0.035178
  57 C :   -0.201577
  58 S :    0.457496
  59 C :   -0.157144
  60 C :   -0.077227
  61 C :   -0.177702
  62 S :    0.392160
  63 C :   -0.195375
  64 C :    0.066750
  65 O :   -0.143720
  66 C :   -0.077774
  67 C :   -0.048046
  68 C :   -0.000399
  69 C :   -0.046102
  70 C :   -0.027283
  71 H :    0.036095
  72 H :    0.038497
  73 H :    0.035550
  74 H :    0.029029
  75 H :    0.035792
  76 H :    0.034235
  77 H :    0.030677
  78 H :    0.030495
  79 H :    0.032933
  80 H :    0.029320
  81 H :    0.033250
  82 H :    0.037777
  83 H :    0.034215
  84 H :    0.034163
  85 H :    0.036464
  86 H :    0.037285
  87 H :    0.025220
  88 H :    0.044061
  89 H :    0.107648
  90 H :    0.092996
  91 H :    0.042847
  92 H :    0.017473
  93 H :    0.025382
  94 H :    0.031625
  95 H :    0.036519
  96 H :    0.037657
  97 H :    0.029955
  98 H :    0.024823
  99 H :    0.030394
 100 H :    0.038181
 101 H :    0.030705
 102 H :    0.024345
 103 H :    0.031411

  Mayer bond orders larger than 0.100000
B(  0-C ,  1-C ) :   1.5400 B(  0-C ,  6-C ) :   0.9779 B(  0-C , 18-C ) :   1.1586
B(  1-C ,  2-C ) :   1.1572 B(  1-C ,  4-C ) :   1.1604 B(  2-C ,  3-N ) :   2.9534
B(  4-C ,  5-N ) :   2.9528 B(  6-C ,  7-C ) :   1.2817 B(  6-C , 11-C ) :   1.4303
B(  7-C ,  8-C ) :   1.4364 B(  7-C , 16-C ) :   0.9301 B(  8-C ,  9-C ) :   1.2322
B(  8-C , 71-H ) :   1.0159 B(  9-C , 10-C ) :   1.3279 B(  9-C , 14-C ) :   1.1569
B( 10-C , 11-C ) :   1.3097 B( 10-C , 12-S ) :   1.0785 B( 11-C , 72-H ) :   0.9789
B( 12-S , 13-C ) :   1.0840 B( 13-C , 14-C ) :   1.6234 B( 13-C , 15-Br) :   1.0055
B( 14-C , 73-H ) :   0.9998 B( 16-C , 17-O ) :   2.1719 B( 16-C , 18-C ) :   0.9860
B( 18-C , 19-C ) :   1.3852 B( 19-C , 20-C ) :   1.3569 B( 19-C , 74-H ) :   0.9443
B( 20-C , 21-C ) :   1.3155 B( 20-C , 75-H ) :   0.9776 B( 21-C , 22-C ) :   1.2600
B( 21-C , 25-S ) :   1.1016 B( 22-C , 23-C ) :   1.4416 B( 22-C , 76-H ) :   1.0020
B( 23-C , 24-C ) :   1.3104 B( 23-C , 77-H ) :   0.9951 B( 24-C , 25-S ) :   1.0627
B( 24-C , 26-C ) :   1.3258 B( 26-C , 27-C ) :   1.3077 B( 26-C , 30-S ) :   1.1077
B( 27-C , 28-C ) :   1.4419 B( 27-C , 78-H ) :   0.9960 B( 28-C , 29-C ) :   1.2746
B( 28-C , 79-H ) :   1.0004 B( 29-C , 30-S ) :   1.0552 B( 29-C , 31-C ) :   1.3852
B( 31-C , 32-C ) :   1.3568 B( 31-C , 80-H ) :   0.9703 B( 32-C , 33-C ) :   1.3706
B( 32-C , 81-H ) :   0.9750 B( 33-C , 34-C ) :   1.2704 B( 33-C , 37-S ) :   1.0865
B( 34-C , 35-C ) :   1.4510 B( 34-C , 82-H ) :   1.0022 B( 35-C , 36-C ) :   1.3020
B( 35-C , 83-H ) :   0.9956 B( 36-C , 37-S ) :   1.0588 B( 36-C , 38-C ) :   1.3573
B( 38-C , 39-C ) :   1.2705 B( 38-C , 42-S ) :   1.0958 B( 39-C , 40-C ) :   1.4982
B( 39-C , 84-H ) :   0.9962 B( 40-C , 41-C ) :   1.2146 B( 40-C , 85-H ) :   1.0000
B( 41-C , 42-S ) :   1.0380 B( 41-C , 43-C ) :   1.4578 B( 43-C , 44-C ) :   1.2322
B( 43-C , 86-H ) :   0.9837 B( 44-C , 45-C ) :   1.4889 B( 44-C , 87-H ) :   0.9782
B( 45-C , 46-C ) :   1.2425 B( 45-C , 88-H ) :   0.9761 B( 46-C , 47-O ) :   1.1095
B( 46-C , 48-C ) :   0.1029 B( 46-C , 50-C ) :   1.3083 B( 47-O , 48-C ) :   1.1093
B( 48-C , 49-C ) :   1.3035 B( 48-C , 53-C ) :   1.1628 B( 49-C , 50-C ) :   1.2722
B( 49-C , 52-O ) :   1.2313 B( 50-C , 51-O ) :   1.2877 B( 51-O , 89-H ) :   0.9499
B( 52-O , 90-H ) :   0.9554 B( 53-C , 54-C ) :   1.5781 B( 53-C , 91-H ) :   0.9606
B( 54-C , 55-C ) :   1.1871 B( 54-C , 92-H ) :   0.9691 B( 55-C , 56-C ) :   1.5996
B( 55-C , 93-H ) :   0.9883 B( 56-C , 57-C ) :   1.1701 B( 56-C , 94-H ) :   0.9766
B( 57-C , 58-S ) :   1.1028 B( 57-C , 61-C ) :   1.4770 B( 58-S , 59-C ) :   1.1456
B( 59-C , 60-C ) :   1.3901 B( 59-C , 69-C ) :   1.1244 B( 60-C , 61-C ) :   1.2379
B( 60-C , 68-C ) :   1.1119 B( 61-C , 62-S ) :   1.0465 B( 62-S , 63-C ) :   1.0517
B( 63-C , 64-C ) :   0.9857 B( 63-C , 68-C ) :   1.6310 B( 64-C , 65-O ) :   2.2012
B( 64-C , 66-C ) :   1.0007 B( 66-C , 67-C ) :   1.1099 B( 66-C , 95-H ) :   0.9235
B( 66-C , 96-H ) :   0.9248 B( 67-C , 97-H ) :   0.9686 B( 67-C , 98-H ) :   0.9633
B( 67-C , 99-H ) :   0.9680 B( 68-C ,100-H ) :   1.0088 B( 69-C , 70-C ) :   1.9165
B( 69-C ,101-H ) :   0.9471 B( 70-C ,102-H ) :   0.9585 B( 70-C ,103-H ) :   0.9463

-----------------------------------------------------------------------------
         ABSORPTION SPECTRUM VIA TRANSITION ELECTRIC DIPOLE MOMENTS
-----------------------------------------------------------------------------
State   Energy  Wavelength   fosc         T2         TX        TY        TZ
        (cm-1)    (nm)                  (au**2)     (au)      (au)      (au)
-----------------------------------------------------------------------------
   0    3645.4   2743.2   0.605567962  54.68839   6.99633   1.81689  -1.56161
   1   10990.5    909.9   0.059698477   1.78823   1.30157  -0.24399   0.18600
   2   13532.5    739.0   0.436286115  10.61377   0.01468   2.45648  -2.13992
   3   15872.7    630.0   0.011614926   0.24090   0.21679   0.30238  -0.32011
   4   17979.5    556.2   0.955734030  17.49988   1.11341  -3.56741   1.87984
   5   19507.4    512.6   0.165438943   2.79200   0.69626  -1.28047   0.81708
   6   21161.0    472.6   0.004063154   0.06321  -0.08470  -0.23622   0.01545
   7   21624.4    462.4   0.842054054  12.81950   0.37282  -3.05191   1.83476
   8   21880.0    457.0   0.184568507   2.77707   0.86078   1.32774  -0.52271
   9   23196.8    431.1   0.392626183   5.57220  -2.15500   0.80465  -0.52984
  10   24354.8    410.6   0.039293639   0.53114  -0.65611   0.10085   0.30082
  11   24691.3    405.0   0.481701404   6.42258  -2.40031   0.44960  -0.67746
  12   25767.9    388.1   0.000005539   0.00007   0.00539  -0.00644   0.00046
  13   26084.2    383.4   0.072878812   0.91981   0.15635   0.76888  -0.55153
  14   26137.0    382.6   0.049254348   0.62039   0.71304   0.22486  -0.24780
  15   26838.7    372.6   0.045140865   0.55371  -0.64264  -0.28058   0.24900
  16   27601.3    362.3   0.045992498   0.54857  -0.66334  -0.05381  -0.32505
  17   28256.6    353.9   0.024024670   0.27991  -0.50396   0.14188   0.07615
  18   28772.2    347.6   0.007830651   0.08960   0.17337  -0.09639  -0.22417
  19   29281.3    341.5   0.005935844   0.06674  -0.16728   0.18516  -0.06685
  20   29976.9    333.6   0.023673526   0.25999   0.22972   0.38619  -0.24098
  21   30267.3    330.4   0.104025941   1.13147   0.92042   0.48885  -0.21286
  22   30793.6    324.7   0.125302746   1.33960  -1.06624  -0.25544   0.37079
  23   31088.0    321.7   0.047971718   0.50801  -0.60604  -0.15514   0.34154
  24   31149.4    321.0   0.086947772   0.91894  -0.27228  -0.72322   0.56723
  25   31578.2    316.7   0.008610223   0.08976   0.27098   0.05952  -0.11309
  26   31650.0    316.0   0.152044151   1.58151  -1.06345  -0.32076   0.58967
  27   31939.6    313.1   0.007428265   0.07657   0.14977   0.21701  -0.08391
  28   32180.3    310.7   0.000007226   0.00007   0.00191   0.00561   0.00623
  29   32558.7    307.1   0.124869318   1.26260  -1.12061   0.07096   0.04236
  30   32864.0    304.3   0.137927306   1.38167   0.85908   0.60275  -0.52949
  31   33265.2    300.6   0.008740194   0.08650  -0.22176  -0.00281  -0.19317
  32   33436.3    299.1   0.100259581   0.98715   0.86780  -0.12814   0.46654
  33   33631.3    297.3   0.000511352   0.00501  -0.06102  -0.03492   0.00793
  34   33976.7    294.3   0.025472304   0.24681  -0.47529  -0.13527  -0.05107
  35   34313.9    291.4   0.016022903   0.15373   0.03118  -0.19318   0.33976
  36   34948.1    286.1   0.008090490   0.07621  -0.10579   0.16025  -0.19834
  37   35231.0    283.8   0.073531104   0.68710  -0.79027  -0.23026   0.09777
  38   35275.7    283.5   0.096197472   0.89777  -0.59429  -0.55050   0.49146
  39   35754.3    279.7   0.000004130   0.00004  -0.00134  -0.00038   0.00601
  40   36150.9    276.6   0.100726660   0.91728  -0.46118  -0.68251   0.48864
  41   36489.4    274.1   0.222467249   2.00713  -0.13080  -1.09948   0.88384
  42   36770.2    272.0   0.036692066   0.32851  -0.21159  -0.47239   0.24614
  43   37116.5    269.4   0.024640203   0.21855   0.01323  -0.30866   0.35086
  44   37156.6    269.1   0.018117031   0.16052  -0.07048  -0.20145   0.33907
  45   37618.5    265.8   0.000285553   0.00250  -0.04955   0.00063  -0.00661
  46   37696.0    265.3   0.014326877   0.12512  -0.33156  -0.08665  -0.08764
  47   38088.3    262.5   0.091995988   0.79516   0.62844  -0.18458   0.60510
  48   38312.4    261.0   0.016920010   0.14539  -0.18471   0.19645  -0.26959
  49   38671.5    258.6   0.009423029   0.08022  -0.14799   0.22635   0.08418
  50   38693.6    258.4   0.093229631   0.79321   0.78987   0.27659   0.30465
  51   38891.9    257.1   0.050524129   0.42768  -0.63900  -0.09740  -0.09932
  52   39383.6    253.9   0.078579711   0.65686   0.35601  -0.55508   0.47117
  53   39530.2    253.0   0.186498204   1.55318  -0.28775   0.75462  -0.94917
  54   39650.2    252.2   0.029711345   0.24669  -0.14486   0.45927  -0.12155
  55   39874.0    250.8   0.084874590   0.70075  -0.62709   0.36971  -0.41330
  56   40235.8    248.5   0.060788706   0.49738   0.47878  -0.26092   0.44729

FINAL SINGLE POINT ENERGY     -7996.403821805427

DIPOLE MOMENT
-------------
                                X             Y             Z
Electronic contribution:    297.39611       6.85641     -21.31872
Nuclear contribution   :   -308.65416      -8.27983      23.13212
                        -----------------------------------------
Total Dipole Moment    :    -11.25805      -1.42341       1.81340
                        -----------------------------------------
Magnitude (a.u.)       :     11.49165
Magnitude (Debye)      :     29.20946

Rotational constants in cm-1:     0.000784     0.000139     0.000119
Rotational constants in MHz :    23.500976     4.165283     3.567471

                             ****ORCA TERMINATED NORMALLY****
TOTAL RUN TIME: 0 days 0 hours 11 minutes 10 seconds 975 msec
