                         Program Version 4.2.0 -  RELEASE  -
|  1> # ORCA input file
|  2> # SCF done       -147.653094286623          0.000997255264
|  3> ! CAM-B3LYP def2-SVP def2/J RIJCOSX Grid4 TightSCF
|  4> %maxcore 5000
|  5> %tddft
|  6>     Mode sTDDFT
|  7>     Ethresh 5.0
|  8>     maxcore 5000
|  9> end
| 10>
| 11> %pal
| 12>   nprocs 6
| 13>   end
| 14> * xyz 0 1
| 15>    C       -9.42636        -2.66121        -1.46309
| 16>    C       -8.94859        -2.72561        -2.74510
| 17>    C       -9.16582        -3.81610        -3.61431
| 18>    N       -9.31352        -4.67088        -4.36534
| 19>    C       -8.14864        -1.74297        -3.36781
| 20>    N       -7.47884        -1.00312        -3.93474
| 21>    C      -10.16873        -3.71277        -0.78010
| 22>    C      -10.36075        -3.33093         0.57049
| 23>    C      -11.03112        -4.11880         1.47493
| 24>    C      -11.53471        -5.34400         1.02670
| 25>    C      -11.33889        -5.71733        -0.32518
| 26>    C      -10.66238        -4.92009        -1.23979
| 27>    S      -12.04679        -7.26555        -0.66947
| 28>    C      -12.58953        -7.38953         0.98304
| 29>    C      -12.25776        -6.32716         1.75520
| 30>   Br      -13.54176        -8.90818         1.53288
| 31>    C       -9.76284        -2.00182         0.79893
| 32>    O       -9.79411        -1.36718         1.83131
| 33>    C       -9.21339        -1.58132        -0.51249
| 34>    C       -8.74885        -0.33688        -0.81954
| 35>    C       -8.40580         0.71104         0.06676
| 36>    S       -8.28491         2.34339        -0.63237
| 37>    C       -7.73236         3.09218         0.86705
| 38>    C       -7.64618         2.08909         1.81047
| 39>    C       -8.01893         0.79578         1.37388
| 40>    C       -7.70283         0.29383         2.76358
| 41>    N       -7.46476         1.70474         3.12146
| 42>    C       -7.56422         4.49416         0.95621
| 43>    S       -8.37366         5.53635        -0.16544
| 44>    C       -7.84210         6.91972         0.72867
| 45>    N       -8.22499         8.19451         0.28822
| 46>    O       -7.85991         9.15102         0.94577
| 47>    O       -8.90798         8.24655        -0.71846
| 48>    C       -7.07688         6.59966         1.81968
| 49>    C       -6.89705         5.21362         1.95660
| 50>    C       -6.05737         4.65344         2.98825
| 51>    S       -4.81791         3.50895         2.59194
| 52>    C       -4.18454         3.64497         4.20003
| 53>    N       -3.07729         2.85152         4.54405
| 54>    O       -2.60999         2.98671         5.65726
| 55>    O       -2.67646         2.07497         3.69583
| 56>    C       -4.88527         4.51674         4.98889
| 57>    C       -5.98709         5.08457         4.31370
| 58>    C       -6.93877         5.94973         4.96192
| 59>    C       -8.28273         5.94369         4.76543
| 60>    C       -9.23168         6.81976         5.37818
| 61>    C      -10.51931         6.58766         5.02997
| 62>    C      -10.68974         5.50534         4.12522
| 63>    S       -9.13542         4.77731         3.75853
| 64>    C      -11.83553         5.03867         3.53852
| 65>    C      -13.16779         5.51746         3.71335
| 66>    C      -14.09193         4.85820         2.98497
| 67>    C      -13.56438         3.79674         2.17193
| 68>    S      -11.80972         3.70478         2.40158
| 69>    C      -14.23950         2.97786         1.35680
| 70>    H      -11.16399        -3.79891         2.49650
| 71>    H      -10.54553        -5.24582        -2.25971
| 72>    H      -12.51266        -6.23926         2.79547
| 73>    H       -8.63046        -0.08292        -1.86580
| 74>    H       -6.82191        -0.34566         2.82049
| 75>    H       -8.54190        -0.15371         3.29211
| 76>    H       -6.76850         2.04292         3.76431
| 77>    H       -6.65208         7.33772         2.47553
| 78>    H       -4.63202         4.71099         6.01548
| 79>    H       -6.54415         6.60994         5.72187
| 80>    H       -8.91020         7.60195         6.04264
| 81>    H      -11.35606         7.16153         5.38585
| 82>    H      -13.38337         6.33720         4.37529
| 83>    H      -15.14510         5.07659         2.98172
| 84>    H      -15.30582         3.06916         1.24631
| 85>    H      -13.74484         2.21240         0.78760
| 86> *
| 87>
| 88>                          ****END OF INPUT****

CARTESIAN COORDINATES (ANGSTROEM)
---------------------------------
  C     -9.426360   -2.661210   -1.463090
  C     -8.948590   -2.725610   -2.745100
  C     -9.165820   -3.816100   -3.614310
  N     -9.313520   -4.670880   -4.365340
  C     -8.148640   -1.742970   -3.367810
  N     -7.478840   -1.003120   -3.934740
  C    -10.168730   -3.712770   -0.780100
  C    -10.360750   -3.330930    0.570490
  C    -11.031120   -4.118800    1.474930
  C    -11.534710   -5.344000    1.026700
  C    -11.338890   -5.717330   -0.325180
  C    -10.662380   -4.920090   -1.239790
  S    -12.046790   -7.265550   -0.669470
  C    -12.589530   -7.389530    0.983040
  C    -12.257760   -6.327160    1.755200
  Br   -13.541760   -8.908180    1.532880
  C     -9.762840   -2.001820    0.798930
  O     -9.794110   -1.367180    1.831310
  C     -9.213390   -1.581320   -0.512490
  C     -8.748850   -0.336880   -0.819540
  C     -8.405800    0.711040    0.066760
  S     -8.284910    2.343390   -0.632370
  C     -7.732360    3.092180    0.867050
  C     -7.646180    2.089090    1.810470
  C     -8.018930    0.795780    1.373880
  C     -7.702830    0.293830    2.763580
  N     -7.464760    1.704740    3.121460
  C     -7.564220    4.494160    0.956210
  S     -8.373660    5.536350   -0.165440
  C     -7.842100    6.919720    0.728670
  N     -8.224990    8.194510    0.288220
  O     -7.859910    9.151020    0.945770
  O     -8.907980    8.246550   -0.718460
  C     -7.076880    6.599660    1.819680
  C     -6.897050    5.213620    1.956600
  C     -6.057370    4.653440    2.988250
  S     -4.817910    3.508950    2.591940
  C     -4.184540    3.644970    4.200030
  N     -3.077290    2.851520    4.544050
  O     -2.609990    2.986710    5.657260
  O     -2.676460    2.074970    3.695830
  C     -4.885270    4.516740    4.988890
  C     -5.987090    5.084570    4.313700
  C     -6.938770    5.949730    4.961920
  C     -8.282730    5.943690    4.765430
  C     -9.231680    6.819760    5.378180
  C    -10.519310    6.587660    5.029970
  C    -10.689740    5.505340    4.125220
  S     -9.135420    4.777310    3.758530
  C    -11.835530    5.038670    3.538520
  C    -13.167790    5.517460    3.713350
  C    -14.091930    4.858200    2.984970
  C    -13.564380    3.796740    2.171930
  S    -11.809720    3.704780    2.401580
  C    -14.239500    2.977860    1.356800
  H    -11.163990   -3.798910    2.496500
  H    -10.545530   -5.245820   -2.259710
  H    -12.512660   -6.239260    2.795470
  H     -8.630460   -0.082920   -1.865800
  H     -6.821910   -0.345660    2.820490
  H     -8.541900   -0.153710    3.292110
  H     -6.768500    2.042920    3.764310
  H     -6.652080    7.337720    2.475530
  H     -4.632020    4.710990    6.015480
  H     -6.544150    6.609940    5.721870
  H     -8.910200    7.601950    6.042640
  H    -11.356060    7.161530    5.385850
  H    -13.383370    6.337200    4.375290
  H    -15.145100    5.076590    2.981720
  H    -15.305820    3.069160    1.246310
  H    -13.744840    2.212400    0.787600

 Total Charge           Charge          ....    0
 Multiplicity           Mult            ....    1
 Number of Electrons    NEL             ....  450
 Basis Dimension        Dim             ....  892

ORBITAL ENERGIES
----------------

  NO   OCC          E(Eh)            E(eV)
   0   2.0000    -482.890655    -13140.1228
   1   2.0000     -88.988578     -2421.5023
   2   2.0000     -88.982942     -2421.3490
   3   2.0000     -88.981435     -2421.3079
   4   2.0000     -88.966194     -2420.8932
   5   2.0000     -88.949948     -2420.4511
   6   2.0000     -88.946375     -2420.3539
   7   2.0000     -62.568375     -1702.5721
   8   2.0000     -56.402333     -1534.7855
   9   2.0000     -56.399603     -1534.7112
  10   2.0000     -56.399573     -1534.7104
  11   2.0000     -19.246292      -523.7182
  12   2.0000     -19.246229      -523.7165
  13   2.0000     -19.237707      -523.4846
  14   2.0000     -19.236764      -523.4590
  15   2.0000     -19.226391      -523.1767
  16   2.0000     -14.657546      -398.8521
  17   2.0000     -14.648846      -398.6154
  18   2.0000     -14.438640      -392.8954
  19   2.0000     -14.420869      -392.4118
  20   2.0000     -14.420773      -392.4092
  21   2.0000     -10.377524      -282.3868
  22   2.0000     -10.364870      -282.0425
  23   2.0000     -10.352493      -281.7057
  24   2.0000     -10.349670      -281.6288
  25   2.0000     -10.347921      -281.5813
  26   2.0000     -10.343839      -281.4702
  27   2.0000     -10.340175      -281.3705
  28   2.0000     -10.333873      -281.1990
  29   2.0000     -10.332059      -281.1496
  30   2.0000     -10.331413      -281.1321
  31   2.0000     -10.331091      -281.1233
  32   2.0000     -10.329718      -281.0859
  33   2.0000     -10.327187      -281.0170
  34   2.0000     -10.325003      -280.9576
  35   2.0000     -10.323318      -280.9118
  36   2.0000     -10.323086      -280.9055
  37   2.0000     -10.320348      -280.8310
  38   2.0000     -10.320265      -280.8287
  39   2.0000     -10.315089      -280.6878
  40   2.0000     -10.314263      -280.6654
  41   2.0000     -10.314023      -280.6588
  42   2.0000     -10.313600      -280.6473
  43   2.0000     -10.313120      -280.6343
  44   2.0000     -10.312032      -280.6046
  45   2.0000     -10.311223      -280.5826
  46   2.0000     -10.310050      -280.5507
  47   2.0000     -10.308827      -280.5174
  48   2.0000     -10.308160      -280.4993
  49   2.0000     -10.308064      -280.4967
  50   2.0000     -10.302478      -280.3447
  51   2.0000     -10.299619      -280.2669
  52   2.0000     -10.299547      -280.2649
  53   2.0000     -10.297344      -280.2050
  54   2.0000     -10.297212      -280.2014
  55   2.0000     -10.294111      -280.1170
  56   2.0000     -10.291135      -280.0360
  57   2.0000     -10.289818      -280.0002
  58   2.0000     -10.279094      -279.7084
  59   2.0000      -8.797811      -239.4006
  60   2.0000      -8.083380      -219.9599
  61   2.0000      -8.078344      -219.8229
  62   2.0000      -8.077445      -219.7984
  63   2.0000      -8.061347      -219.3604
  64   2.0000      -8.045442      -218.9276
  65   2.0000      -8.042987      -218.8608
  66   2.0000      -6.634153      -180.5245
  67   2.0000      -6.619524      -180.1264
  68   2.0000      -6.619318      -180.1208
  69   2.0000      -6.052807      -164.7053
  70   2.0000      -6.048348      -164.5839
  71   2.0000      -6.047829      -164.5698
  72   2.0000      -6.047121      -164.5505
  73   2.0000      -6.045439      -164.5048
  74   2.0000      -6.043409      -164.4495
  75   2.0000      -6.042849      -164.4343
  76   2.0000      -6.040150      -164.3608
  77   2.0000      -6.038674      -164.3207
  78   2.0000      -6.031187      -164.1169
  79   2.0000      -6.026955      -164.0018
  80   2.0000      -6.022425      -163.8785
  81   2.0000      -6.015307      -163.6848
  82   2.0000      -6.012834      -163.6175
  83   2.0000      -6.011185      -163.5727
  84   2.0000      -6.008867      -163.5096
  85   2.0000      -6.006212      -163.4373
  86   2.0000      -6.003511      -163.3638
  87   2.0000      -2.750002       -74.8314
  88   2.0000      -2.745925       -74.7204
  89   2.0000      -2.745758       -74.7159
  90   2.0000      -2.734144       -74.3998
  91   2.0000      -2.734123       -74.3993
  92   2.0000      -1.328093       -36.1393
  93   2.0000      -1.318763       -35.8854
  94   2.0000      -1.147197       -31.2168
  95   2.0000      -1.141735       -31.0682
  96   2.0000      -1.137715       -30.9588
  97   2.0000      -1.083638       -29.4873
  98   2.0000      -1.029491       -28.0139
  99   2.0000      -1.028572       -27.9889
 100   2.0000      -1.019293       -27.7364
 101   2.0000      -1.011575       -27.5264
 102   2.0000      -0.999615       -27.2009
 103   2.0000      -0.999579       -27.1999
 104   2.0000      -0.996828       -27.1251
 105   2.0000      -0.978109       -26.6157
 106   2.0000      -0.976521       -26.5725
 107   2.0000      -0.949007       -25.8238
 108   2.0000      -0.927891       -25.2492
 109   2.0000      -0.919106       -25.0101
 110   2.0000      -0.914728       -24.8910
 111   2.0000      -0.903347       -24.5813
 112   2.0000      -0.892471       -24.2854
 113   2.0000      -0.891611       -24.2620
 114   2.0000      -0.879059       -23.9204
 115   2.0000      -0.872704       -23.7475
 116   2.0000      -0.862914       -23.4811
 117   2.0000      -0.853305       -23.2196
 118   2.0000      -0.847379       -23.0583
 119   2.0000      -0.839119       -22.8336
 120   2.0000      -0.835640       -22.7389
 121   2.0000      -0.825283       -22.4571
 122   2.0000      -0.819205       -22.2917
 123   2.0000      -0.798309       -21.7231
 124   2.0000      -0.790429       -21.5087
 125   2.0000      -0.783729       -21.3264
 126   2.0000      -0.771894       -21.0043
 127   2.0000      -0.766649       -20.8616
 128   2.0000      -0.749915       -20.4062
 129   2.0000      -0.732502       -19.9324
 130   2.0000      -0.713827       -19.4242
 131   2.0000      -0.704747       -19.1771
 132   2.0000      -0.695959       -18.9380
 133   2.0000      -0.690208       -18.7815
 134   2.0000      -0.687191       -18.6994
 135   2.0000      -0.677772       -18.4431
 136   2.0000      -0.667881       -18.1740
 137   2.0000      -0.665021       -18.0962
 138   2.0000      -0.651223       -17.7207
 139   2.0000      -0.649877       -17.6840
 140   2.0000      -0.640751       -17.4357
 141   2.0000      -0.639196       -17.3934
 142   2.0000      -0.634549       -17.2670
 143   2.0000      -0.633857       -17.2481
 144   2.0000      -0.630162       -17.1476
 145   2.0000      -0.627031       -17.0624
 146   2.0000      -0.626487       -17.0476
 147   2.0000      -0.617484       -16.8026
 148   2.0000      -0.607759       -16.5380
 149   2.0000      -0.606029       -16.4909
 150   2.0000      -0.596937       -16.2435
 151   2.0000      -0.595384       -16.2012
 152   2.0000      -0.586604       -15.9623
 153   2.0000      -0.584124       -15.8948
 154   2.0000      -0.577271       -15.7084
 155   2.0000      -0.568810       -15.4781
 156   2.0000      -0.566603       -15.4180
 157   2.0000      -0.560237       -15.2448
 158   2.0000      -0.553570       -15.0634
 159   2.0000      -0.551859       -15.0168
 160   2.0000      -0.547795       -14.9062
 161   2.0000      -0.546571       -14.8730
 162   2.0000      -0.540221       -14.7002
 163   2.0000      -0.536342       -14.5946
 164   2.0000      -0.533905       -14.5283
 165   2.0000      -0.527805       -14.3623
 166   2.0000      -0.522614       -14.2211
 167   2.0000      -0.517823       -14.0907
 168   2.0000      -0.515629       -14.0310
 169   2.0000      -0.514437       -13.9985
 170   2.0000      -0.512557       -13.9474
 171   2.0000      -0.504835       -13.7373
 172   2.0000      -0.502696       -13.6791
 173   2.0000      -0.501091       -13.6354
 174   2.0000      -0.500505       -13.6194
 175   2.0000      -0.496379       -13.5071
 176   2.0000      -0.493274       -13.4227
 177   2.0000      -0.486608       -13.2413
 178   2.0000      -0.484909       -13.1950
 179   2.0000      -0.481761       -13.1094
 180   2.0000      -0.479358       -13.0440
 181   2.0000      -0.468577       -12.7506
 182   2.0000      -0.465339       -12.6625
 183   2.0000      -0.464089       -12.6285
 184   2.0000      -0.462670       -12.5899
 185   2.0000      -0.458077       -12.4649
 186   2.0000      -0.453866       -12.3503
 187   2.0000      -0.453376       -12.3370
 188   2.0000      -0.450741       -12.2653
 189   2.0000      -0.448718       -12.2102
 190   2.0000      -0.444958       -12.1079
 191   2.0000      -0.438654       -11.9364
 192   2.0000      -0.435030       -11.8378
 193   2.0000      -0.433025       -11.7832
 194   2.0000      -0.430809       -11.7229
 195   2.0000      -0.429051       -11.6751
 196   2.0000      -0.424940       -11.5632
 197   2.0000      -0.415586       -11.3087
 198   2.0000      -0.414045       -11.2667
 199   2.0000      -0.409587       -11.1454
 200   2.0000      -0.402509       -10.9528
 201   2.0000      -0.400430       -10.8962
 202   2.0000      -0.393579       -10.7098
 203   2.0000      -0.391947       -10.6654
 204   2.0000      -0.386153       -10.5078
 205   2.0000      -0.384743       -10.4694
 206   2.0000      -0.379959       -10.3392
 207   2.0000      -0.379552       -10.3281
 208   2.0000      -0.378158       -10.2902
 209   2.0000      -0.374412       -10.1883
 210   2.0000      -0.367440        -9.9986
 211   2.0000      -0.365289        -9.9400
 212   2.0000      -0.364296        -9.9130
 213   2.0000      -0.360433        -9.8079
 214   2.0000      -0.349501        -9.5104
 215   2.0000      -0.345694        -9.4068
 216   2.0000      -0.340023        -9.2525
 217   2.0000      -0.333826        -9.0839
 218   2.0000      -0.322257        -8.7690
 219   2.0000      -0.316886        -8.6229
 220   2.0000      -0.307847        -8.3769
 221   2.0000      -0.303190        -8.2502
 222   2.0000      -0.298637        -8.1263
 223   2.0000      -0.264155        -7.1880
 224   2.0000      -0.235128        -6.3981
 225   0.0000      -0.104223        -2.8361
 226   0.0000      -0.075772        -2.0618
 227   0.0000      -0.070003        -1.9049
 228   0.0000      -0.063428        -1.7260
 229   0.0000      -0.052885        -1.4391

MULLIKEN ATOMIC CHARGES
-----------------------
   0 C :    0.306610
   1 C :   -0.340974
   2 C :   -0.184758
   3 N :    0.153749
   4 C :   -0.200760
   5 N :    0.167725
   6 C :    0.015033
   7 C :   -0.021084
   8 C :   -0.070986
   9 C :    0.118046
  10 C :   -0.090777
  11 C :   -0.019032
  12 S :    0.190887
  13 C :   -0.124047
  14 C :    0.040648
  15 Br:    0.028133
  16 C :    0.145585
  17 O :   -0.152133
  18 C :   -0.084275
  19 C :    0.046948
  20 C :   -0.186180
  21 S :    0.125800
  22 C :   -0.274024
  23 C :    0.149407
  24 C :   -0.024337
  25 C :    0.253545
  26 N :   -0.164134
  27 C :   -0.023214
  28 S :    0.210083
  29 C :    0.003243
  30 N :    0.277324
  31 O :   -0.249573
  32 O :   -0.258290
  33 C :    0.028616
  34 C :    0.023343
  35 C :   -0.216325
  36 S :    0.208125
  37 C :   -0.015423
  38 N :    0.274509
  39 O :   -0.241186
  40 O :   -0.255995
  41 C :    0.000239
  42 C :    0.131760
  43 C :   -0.092186
  44 C :   -0.007043
  45 C :    0.034733
  46 C :    0.042565
  47 C :   -0.058989
  48 S :    0.082911
  49 C :   -0.058553
  50 C :    0.031256
  51 C :    0.058181
  52 C :   -0.066003
  53 S :    0.086657
  54 C :   -0.023261
  55 H :   -0.011477
  56 H :   -0.004218
  57 H :   -0.002507
  58 H :    0.025182
  59 H :    0.039292
  60 H :    0.057159
  61 H :    0.126861
  62 H :    0.012196
  63 H :    0.009548
  64 H :   -0.003179
  65 H :   -0.008805
  66 H :   -0.009859
  67 H :   -0.007583
  68 H :   -0.006041
  69 H :    0.025068
  70 H :    0.026243
Sum of atomic charges:   -0.0000000

LOEWDIN ATOMIC CHARGES
----------------------
   0 C :    0.073233
   1 C :   -0.134818
   2 C :   -0.018069
   3 N :   -0.048653
   4 C :   -0.025773
   5 N :   -0.042702
   6 C :   -0.021107
   7 C :   -0.052409
   8 C :    0.022111
   9 C :   -0.031904
  10 C :   -0.143022
  11 C :   -0.008624
  12 S :    0.436195
  13 C :   -0.270250
  14 C :   -0.070549
  15 Br:    0.140308
  16 C :    0.085173
  17 O :   -0.136797
  18 C :   -0.087225
  19 C :    0.050685
  20 C :   -0.162395
  21 S :    0.408249
  22 C :   -0.231190
  23 C :    0.001563
  24 C :   -0.030567
  25 C :    0.081094
  26 N :   -0.032961
  27 C :   -0.157783
  28 S :    0.491729
  29 C :   -0.202160
  30 N :    0.273629
  31 O :   -0.215292
  32 O :   -0.223640
  33 C :    0.004371
  34 C :   -0.108796
  35 C :   -0.171917
  36 S :    0.495432
  37 C :   -0.205422
  38 N :    0.271963
  39 O :   -0.207562
  40 O :   -0.222645
  41 C :   -0.007411
  42 C :   -0.063887
  43 C :   -0.086619
  44 C :   -0.128036
  45 C :   -0.036973
  46 C :   -0.020680
  47 C :   -0.188027
  48 S :    0.397574
  49 C :   -0.165705
  50 C :   -0.026665
  51 C :   -0.021574
  52 C :   -0.139874
  53 S :    0.356454
  54 C :   -0.065415
  55 H :    0.040621
  56 H :    0.041738
  57 H :    0.039214
  58 H :    0.046562
  59 H :    0.035073
  60 H :    0.037445
  61 H :    0.059497
  62 H :    0.046810
  63 H :    0.045749
  64 H :    0.035405
  65 H :    0.034530
  66 H :    0.033714
  67 H :    0.033971
  68 H :    0.035670
  69 H :    0.030901
  70 H :    0.028435

  Mayer bond orders larger than 0.100000
B(  0-C ,  1-C ) :   1.6447 B(  0-C ,  6-C ) :   1.0046 B(  0-C , 18-C ) :   1.0618
B(  1-C ,  2-C ) :   1.1402 B(  1-C ,  4-C ) :   1.1402 B(  2-C ,  3-N ) :   2.9721
B(  4-C ,  5-N ) :   2.9884 B(  6-C ,  7-C ) :   1.2750 B(  6-C , 11-C ) :   1.4074
B(  7-C ,  8-C ) :   1.4183 B(  7-C , 16-C ) :   0.9433 B(  8-C ,  9-C ) :   1.2472
B(  8-C , 55-H ) :   1.0171 B(  9-C , 10-C ) :   1.3042 B(  9-C , 14-C ) :   1.1643
B( 10-C , 11-C ) :   1.3310 B( 10-C , 12-S ) :   1.0880 B( 11-C , 56-H ) :   0.9803
B( 12-S , 13-C ) :   1.0879 B( 13-C , 14-C ) :   1.6165 B( 13-C , 15-Br) :   1.0213
B( 14-C , 57-H ) :   0.9999 B( 16-C , 17-O ) :   2.1966 B( 16-C , 18-C ) :   0.9497
B( 18-C , 19-C ) :   1.6240 B( 19-C , 20-C ) :   1.1697 B( 19-C , 58-H ) :   0.9252
B( 20-C , 21-S ) :   1.0708 B( 20-C , 24-C ) :   1.5172 B( 21-S , 22-C ) :   1.0725
B( 22-C , 23-C ) :   1.4957 B( 22-C , 27-C ) :   1.1625 B( 23-C , 24-C ) :   1.2151
B( 23-C , 26-N ) :   1.1713 B( 24-C , 25-C ) :   1.0328 B( 25-C , 26-N ) :   1.0054
B( 25-C , 59-H ) :   0.9245 B( 25-C , 60-H ) :   0.9067 B( 26-N , 61-H ) :   0.9281
B( 27-C , 28-S ) :   1.1642 B( 27-C , 34-C ) :   1.4433 B( 28-S , 29-C ) :   1.0967
B( 29-C , 30-N ) :   0.9589 B( 29-C , 33-C ) :   1.4807 B( 30-N , 31-O ) :   1.5378
B( 30-N , 32-O ) :   1.5160 B( 31-O , 32-O ) :   0.2632 B( 33-C , 34-C ) :   1.2468
B( 33-C , 62-H ) :   1.0090 B( 34-C , 35-C ) :   1.0472 B( 35-C , 36-S ) :   1.1461
B( 35-C , 37-C ) :   0.1028 B( 35-C , 42-C ) :   1.4576 B( 36-S , 37-C ) :   1.1062
B( 37-C , 38-N ) :   0.9470 B( 37-C , 41-C ) :   1.4906 B( 38-N , 39-O ) :   1.5442
B( 38-N , 40-O ) :   1.5205 B( 39-O , 40-O ) :   0.2674 B( 41-C , 42-C ) :   1.2013
B( 41-C , 63-H ) :   1.0085 B( 42-C , 43-C ) :   1.0549 B( 43-C , 44-C ) :   1.6622
B( 43-C , 64-H ) :   0.9634 B( 44-C , 45-C ) :   1.1064 B( 44-C , 48-S ) :   1.0507
B( 45-C , 46-C ) :   1.6367 B( 45-C , 65-H ) :   0.9992 B( 46-C , 47-C ) :   1.1526
B( 46-C , 66-H ) :   0.9919 B( 47-C , 48-S ) :   1.0328 B( 47-C , 49-C ) :   1.5775
B( 49-C , 50-C ) :   1.1408 B( 49-C , 53-S ) :   1.0515 B( 50-C , 51-C ) :   1.6725
B( 50-C , 67-H ) :   0.9928 B( 51-C , 52-C ) :   1.0753 B( 51-C , 68-H ) :   0.9928
B( 52-C , 53-S ) :   1.0042 B( 52-C , 54-C ) :   1.8734 B( 54-C , 69-H ) :   0.9505
B( 54-C , 70-H ) :   0.9414

-----------------------------------------------------------------------------
         ABSORPTION SPECTRUM VIA TRANSITION ELECTRIC DIPOLE MOMENTS
-----------------------------------------------------------------------------
State   Energy  Wavelength   fosc         T2         TX        TY        TZ
        (cm-1)    (nm)                  (au**2)     (au)      (au)      (au)
-----------------------------------------------------------------------------
   0   13921.2    718.3   0.033496769   0.79214  -0.49309   0.64511   0.36447
   1   18296.2    546.6   0.619294808  11.14324  -0.33063  -3.21982  -0.81653
   2   19715.5    507.2   0.266292510   4.44658  -1.65835  -1.29102  -0.17236
   3   21795.3    458.8   0.010459739   0.15799   0.36577  -0.08988   0.12697
   4   22741.4    439.7   0.600623299   8.69481  -2.60528  -1.14178  -0.77694
   5   23544.0    424.7   0.409116950   5.72061  -2.20448   0.17038  -0.91207
   6   24590.1    406.7   0.005764225   0.07717   0.00012  -0.00604  -0.27773
   7   25058.9    399.1   0.284370388   3.73592  -0.72071  -1.41481  -1.10219
   8   26149.3    382.4   0.023109727   0.29094   0.48575   0.11613   0.20373
   9   26772.0    373.5   0.039505166   0.48579   0.51234   0.11947  -0.45720
  10   27039.0    369.8   0.385292551   4.69110  -0.78727  -1.78102   0.94831
  11   28517.5    350.7   0.030762463   0.35513  -0.46480   0.37104  -0.03769
  12   29270.3    341.6   0.047325030   0.53228   0.48197  -0.20413   0.50825
  13   29643.5    337.3   0.162084547   1.80006   0.45998  -0.83940   0.94015
  14   29776.7    335.8   0.018999128   0.21005  -0.09806  -0.39161  -0.21698
  15   30744.0    325.3   0.065164049   0.69779   0.09943  -0.81030  -0.17698
  16   31232.9    320.2   0.038828227   0.40927   0.46843   0.39254   0.18909
  17   31603.3    316.4   0.132482420   1.38007  -0.41074  -0.96380   0.53146
  18   32357.2    309.1   0.047597106   0.48427   0.22207  -0.57160   0.32897
  19   32923.2    303.7   0.568428045   5.68393  -1.30621  -1.28948   1.52151
  20   33879.4    295.2   0.069546290   0.67579   0.20260   0.30208   0.73722
  21   34047.5    293.7   0.048344252   0.46745  -0.11083  -0.22855  -0.63477
  22   34372.4    290.9   0.005062725   0.04849   0.00862  -0.19490  -0.10212
  23   34706.9    288.1   0.069491900   0.65916  -0.46543  -0.16891  -0.64343
  24   34827.2    287.1   0.085072486   0.80417  -0.20916  -0.85143  -0.18837
  25   35104.0    284.9   0.092984687   0.87203  -0.67574   0.19419  -0.61457
  26   35664.7    280.4   0.120853246   1.11557  -0.63904   0.79647   0.26987
  27   36081.5    277.2   0.007977061   0.07278  -0.23543   0.13172  -0.00268
  28   36339.1    275.2   0.047349402   0.42896   0.54663  -0.01206  -0.36057
  29   36630.2    273.0   0.006489401   0.05832   0.21398  -0.11008  -0.02046
  30   36951.3    270.6   0.075459772   0.67230   0.70289  -0.39379  -0.15223
  31   37165.6    269.1   0.010202325   0.09037   0.02203   0.02200   0.29900
  32   37382.3    267.5   0.032254697   0.28406  -0.38888   0.27900  -0.23449
  33   37858.6    264.1   0.024964822   0.21709   0.33154   0.23378   0.22917
  34   38303.6    261.1   0.224999208   1.93382   0.16445   0.94613   1.00579
  35   38429.1    260.2   0.018318502   0.15693  -0.03576  -0.21015  -0.33390
  36   38577.4    259.2   0.062151784   0.53039   0.50920  -0.51761   0.05646
  37   38978.0    256.6   0.006664877   0.05629   0.03588   0.22730   0.05778
  38   39198.3    255.1   0.036922594   0.31010  -0.28016  -0.45724  -0.15014
  39   39337.3    254.2   0.030449196   0.25483  -0.35832  -0.08102  -0.34622
  40   39591.7    252.6   0.055245717   0.45938   0.42338  -0.31799  -0.42310
  41   39990.2    250.1   0.012679166   0.10438  -0.24264   0.17730  -0.11863
  42   40111.0    249.3   0.026121268   0.21439  -0.43973   0.06226  -0.13098

FINAL SINGLE POINT ENERGY     -7066.963858803526

DIPOLE MOMENT
-------------
                                X             Y             Z
Electronic contribution:    -31.02531    -112.97775     -17.68897
Nuclear contribution   :     28.18682     112.25950      20.83752
                        -----------------------------------------
Total Dipole Moment    :     -2.83848      -0.71824       3.14855
                        -----------------------------------------
Magnitude (a.u.)       :      4.29956
Magnitude (Debye)      :     10.92861

Rotational constants in cm-1:     0.001879     0.000538     0.000515
Rotational constants in MHz :    56.322662    16.137913    15.435085

                             ****ORCA TERMINATED NORMALLY****
TOTAL RUN TIME: 0 days 0 hours 6 minutes 8 seconds 55 msec
