                         Program Version 4.2.0 -  RELEASE  -
|  1> # ORCA input file
|  2> # SCF done       -159.668914840750          0.000722823435
|  3> ! CAM-B3LYP def2-SVP def2/J RIJCOSX Grid4 TightSCF
|  4> %maxcore 5000
|  5> %tddft
|  6>     Mode sTDDFT
|  7>     Ethresh 5.0
|  8>     maxcore 5000
|  9> end
| 10>
| 11> %pal
| 12>   nprocs 6
| 13>   end
| 14> * xyz 0 1
| 15>    C       -8.51549         1.17452         7.52416
| 16>    C       -8.92648         0.96502         8.81394
| 17>    C       -8.18448         0.24313         9.77387
| 18>    N       -7.63278        -0.32715        10.60336
| 19>    C      -10.11678         1.44873         9.39803
| 20>    N      -11.05214         1.80283         9.96314
| 21>    C       -7.26002         0.70629         6.95552
| 22>    C       -7.12831         1.22059         5.64245
| 23>    C       -6.03260         0.96719         4.85337
| 24>    C       -5.02236         0.15544         5.37888
| 25>    C       -5.16655        -0.36304         6.68881
| 26>    C       -6.26912        -0.09991         7.48966
| 27>    S       -3.80419        -1.34232         7.14234
| 28>    C       -3.06932        -1.04473         5.58929
| 29>    C       -3.80437        -0.25425         4.77118
| 30>   Br       -1.40144        -1.80566         5.19516
| 31>    C       -8.30636         2.04951         5.31540
| 32>    O       -8.44338         2.74781         4.33845
| 33>    C       -9.22469         1.91268         6.48144
| 34>    C      -10.48656         2.39041         6.58281
| 35>    C      -11.31236         3.02378         5.57458
| 36>    C      -12.33877         3.80843         5.97109
| 37>    C      -11.11557         2.77687         4.20135
| 38>    C      -11.08281         2.55773         3.00948
| 39>    C      -11.00772         2.32099         1.64249
| 40>    C      -11.98675         2.72209         0.79112
| 41>    C      -11.94707         2.50485        -0.61364
| 42>    C      -12.95549         2.88540        -1.48954
| 43>    O      -12.86604         2.66067        -2.84611
| 44>    C      -11.73710         2.03843        -3.28310
| 45>    C      -10.70797         1.64291        -2.38238
| 46>    C       -9.66624         1.03747        -3.00664
| 47>    S       -9.93244         0.94399        -4.70758
| 48>    C      -11.46113         1.72773        -4.57382
| 49>    O      -10.80201         1.86960        -1.04171
| 50>    C      -14.15831         3.51957        -1.10585
| 51>    C      -15.12599         3.85756        -2.01886
| 52>    C      -16.33732         4.47208        -1.70617
| 53>    C      -17.28314         4.78240        -2.66425
| 54>    C      -18.54283         5.39313        -2.48523
| 55>    C      -19.25256         5.56152        -3.64181
| 56>    C      -18.58200         5.09083        -4.78740
| 57>    S      -17.02538         4.42756        -4.36043
| 58>    C      -18.98579         5.09389        -6.11450
| 59>    C      -20.17888         5.56438        -6.69626
| 60>    C      -20.22747         5.40020        -8.05000
| 61>    C      -19.07324         4.79183        -8.60657
| 62>    S      -17.92445         4.43561        -7.33498
| 63>    C      -18.87854         4.52223        -9.93989
| 64>    C      -17.75664         3.92635       -10.54523
| 65>    S      -17.74359         3.69772       -12.29166
| 66>    C      -16.18300         2.97711       -12.32502
| 67>    C      -15.66828         2.90336       -11.05285
| 68>    C      -16.55331         3.43528       -10.06164
| 69>    O      -15.99931         3.33332        -8.83548
| 70>    C      -14.78731         2.75179        -9.02409
| 71>    N      -13.99148         2.52597        -7.88230
| 72>    O      -12.90451         2.00194        -8.06482
| 73>    O      -14.42522         2.86278        -6.79934
| 74>    C      -14.52053         2.46486       -10.33774
| 75>    H       -5.95892         1.38172         3.86023
| 76>    H       -6.33003        -0.51738         8.48053
| 77>    H       -3.50086         0.02999         3.78023
| 78>    H      -10.98629         2.29364         7.53838
| 79>    H      -12.53408         3.98997         7.01406
| 80>    H      -12.97033         4.30289         5.25424
| 81>    H      -10.13358         1.80249         1.27488
| 82>    H      -12.84461         3.23463         1.19406
| 83>    H       -8.77101         0.64784        -2.56951
| 84>    H      -12.05728         1.91061        -5.44348
| 85>    H      -14.31837         3.73635        -0.06280
| 86>    H      -14.94209         3.62822        -3.06026
| 87>    H      -16.55913         4.71814        -0.67590
| 88>    H      -18.89139         5.69029        -1.51154
| 89>    H      -20.22969         6.00767        -3.69493
| 90>    H      -20.96483         6.00756        -6.11101
| 91>    H      -21.05539         5.69697        -8.66945
| 92>    H      -19.67752         4.79947       -10.61442
| 93>    H      -15.75436         2.66260       -13.25285
| 94>    H      -13.62984         2.00809       -10.71597
| 95> *
| 96>
| 97>                          ****END OF INPUT****

CARTESIAN COORDINATES (ANGSTROEM)
---------------------------------
  C     -8.515490    1.174520    7.524160
  C     -8.926480    0.965020    8.813940
  C     -8.184480    0.243130    9.773870
  N     -7.632780   -0.327150   10.603360
  C    -10.116780    1.448730    9.398030
  N    -11.052140    1.802830    9.963140
  C     -7.260020    0.706290    6.955520
  C     -7.128310    1.220590    5.642450
  C     -6.032600    0.967190    4.853370
  C     -5.022360    0.155440    5.378880
  C     -5.166550   -0.363040    6.688810
  C     -6.269120   -0.099910    7.489660
  S     -3.804190   -1.342320    7.142340
  C     -3.069320   -1.044730    5.589290
  C     -3.804370   -0.254250    4.771180
  Br    -1.401440   -1.805660    5.195160
  C     -8.306360    2.049510    5.315400
  O     -8.443380    2.747810    4.338450
  C     -9.224690    1.912680    6.481440
  C    -10.486560    2.390410    6.582810
  C    -11.312360    3.023780    5.574580
  C    -12.338770    3.808430    5.971090
  C    -11.115570    2.776870    4.201350
  C    -11.082810    2.557730    3.009480
  C    -11.007720    2.320990    1.642490
  C    -11.986750    2.722090    0.791120
  C    -11.947070    2.504850   -0.613640
  C    -12.955490    2.885400   -1.489540
  O    -12.866040    2.660670   -2.846110
  C    -11.737100    2.038430   -3.283100
  C    -10.707970    1.642910   -2.382380
  C     -9.666240    1.037470   -3.006640
  S     -9.932440    0.943990   -4.707580
  C    -11.461130    1.727730   -4.573820
  O    -10.802010    1.869600   -1.041710
  C    -14.158310    3.519570   -1.105850
  C    -15.125990    3.857560   -2.018860
  C    -16.337320    4.472080   -1.706170
  C    -17.283140    4.782400   -2.664250
  C    -18.542830    5.393130   -2.485230
  C    -19.252560    5.561520   -3.641810
  C    -18.582000    5.090830   -4.787400
  S    -17.025380    4.427560   -4.360430
  C    -18.985790    5.093890   -6.114500
  C    -20.178880    5.564380   -6.696260
  C    -20.227470    5.400200   -8.050000
  C    -19.073240    4.791830   -8.606570
  S    -17.924450    4.435610   -7.334980
  C    -18.878540    4.522230   -9.939890
  C    -17.756640    3.926350  -10.545230
  S    -17.743590    3.697720  -12.291660
  C    -16.183000    2.977110  -12.325020
  C    -15.668280    2.903360  -11.052850
  C    -16.553310    3.435280  -10.061640
  O    -15.999310    3.333320   -8.835480
  C    -14.787310    2.751790   -9.024090
  N    -13.991480    2.525970   -7.882300
  O    -12.904510    2.001940   -8.064820
  O    -14.425220    2.862780   -6.799340
  C    -14.520530    2.464860  -10.337740
  H     -5.958920    1.381720    3.860230
  H     -6.330030   -0.517380    8.480530
  H     -3.500860    0.029990    3.780230
  H    -10.986290    2.293640    7.538380
  H    -12.534080    3.989970    7.014060
  H    -12.970330    4.302890    5.254240
  H    -10.133580    1.802490    1.274880
  H    -12.844610    3.234630    1.194060
  H     -8.771010    0.647840   -2.569510
  H    -12.057280    1.910610   -5.443480
  H    -14.318370    3.736350   -0.062800
  H    -14.942090    3.628220   -3.060260
  H    -16.559130    4.718140   -0.675900
  H    -18.891390    5.690290   -1.511540
  H    -20.229690    6.007670   -3.694930
  H    -20.964830    6.007560   -6.111010
  H    -21.055390    5.696970   -8.669450
  H    -19.677520    4.799470  -10.614420
  H    -15.754360    2.662600  -13.252850
  H    -13.629840    2.008090  -10.715970

 Total Charge           Charge          ....    0
 Multiplicity           Mult            ....    1
 Number of Electrons    NEL             ....  474
 Basis Dimension        Dim             ....  978

ORBITAL ENERGIES
----------------

  NO   OCC          E(Eh)            E(eV)
   0   2.0000    -482.886010    -13139.9964
   1   2.0000     -88.975659     -2421.1508
   2   2.0000     -88.975395     -2421.1436
   3   2.0000     -88.943552     -2420.2771
   4   2.0000     -88.937733     -2420.1188
   5   2.0000     -88.937288     -2420.1066
   6   2.0000     -62.563699     -1702.4448
   7   2.0000     -56.397653     -1534.6582
   8   2.0000     -56.394930     -1534.5841
   9   2.0000     -56.394903     -1534.5833
  10   2.0000     -19.309824      -525.4470
  11   2.0000     -19.265268      -524.2346
  12   2.0000     -19.263011      -524.1732
  13   2.0000     -19.252875      -523.8974
  14   2.0000     -19.250270      -523.8265
  15   2.0000     -19.213971      -522.8387
  16   2.0000     -14.662037      -398.9743
  17   2.0000     -14.418528      -392.3481
  18   2.0000     -14.416608      -392.2959
  19   2.0000     -10.391527      -282.7678
  20   2.0000     -10.365154      -282.0502
  21   2.0000     -10.359669      -281.9009
  22   2.0000     -10.348469      -281.5961
  23   2.0000     -10.344967      -281.5009
  24   2.0000     -10.343851      -281.4705
  25   2.0000     -10.341226      -281.3991
  26   2.0000     -10.338202      -281.3168
  27   2.0000     -10.328376      -281.0494
  28   2.0000     -10.325993      -280.9845
  29   2.0000     -10.325740      -280.9777
  30   2.0000     -10.321101      -280.8514
  31   2.0000     -10.320680      -280.8400
  32   2.0000     -10.319322      -280.8030
  33   2.0000     -10.316836      -280.7354
  34   2.0000     -10.316074      -280.7147
  35   2.0000     -10.312372      -280.6139
  36   2.0000     -10.310887      -280.5735
  37   2.0000     -10.309259      -280.5292
  38   2.0000     -10.308838      -280.5177
  39   2.0000     -10.308568      -280.5104
  40   2.0000     -10.307181      -280.4727
  41   2.0000     -10.306258      -280.4475
  42   2.0000     -10.302797      -280.3534
  43   2.0000     -10.302109      -280.3346
  44   2.0000     -10.301477      -280.3174
  45   2.0000     -10.300746      -280.2975
  46   2.0000     -10.300564      -280.2926
  47   2.0000     -10.296883      -280.1924
  48   2.0000     -10.292294      -280.0676
  49   2.0000     -10.291675      -280.0507
  50   2.0000     -10.288106      -279.9536
  51   2.0000     -10.286152      -279.9004
  52   2.0000     -10.285321      -279.8778
  53   2.0000     -10.282762      -279.8082
  54   2.0000     -10.282110      -279.7904
  55   2.0000     -10.282100      -279.7902
  56   2.0000     -10.281487      -279.7735
  57   2.0000     -10.279811      -279.7279
  58   2.0000     -10.276947      -279.6499
  59   2.0000     -10.276350      -279.6337
  60   2.0000     -10.275519      -279.6111
  61   2.0000     -10.270650      -279.4786
  62   2.0000     -10.261550      -279.2310
  63   2.0000     -10.258677      -279.1528
  64   2.0000      -8.793112      -239.2727
  65   2.0000      -8.071693      -219.6419
  66   2.0000      -8.070396      -219.6066
  67   2.0000      -8.039409      -218.7634
  68   2.0000      -8.034140      -218.6201
  69   2.0000      -8.033734      -218.6090
  70   2.0000      -6.629414      -180.3955
  71   2.0000      -6.614863      -179.9996
  72   2.0000      -6.614628      -179.9932
  73   2.0000      -6.041376      -164.3942
  74   2.0000      -6.039736      -164.3496
  75   2.0000      -6.037126      -164.2785
  76   2.0000      -6.035445      -164.2328
  77   2.0000      -6.032885      -164.1632
  78   2.0000      -6.032668      -164.1572
  79   2.0000      -6.008887      -163.5101
  80   2.0000      -6.004734      -163.3971
  81   2.0000      -6.003839      -163.3728
  82   2.0000      -6.003479      -163.3630
  83   2.0000      -6.001112      -163.2986
  84   2.0000      -5.999744      -163.2613
  85   2.0000      -5.999314      -163.2496
  86   2.0000      -5.995093      -163.1348
  87   2.0000      -5.994474      -163.1179
  88   2.0000      -2.745292       -74.7032
  89   2.0000      -2.741192       -74.5916
  90   2.0000      -2.741044       -74.5876
  91   2.0000      -2.729458       -74.2723
  92   2.0000      -2.729451       -74.2721
  93   2.0000      -1.332739       -36.2657
  94   2.0000      -1.232794       -33.5460
  95   2.0000      -1.191178       -32.4136
  96   2.0000      -1.154316       -31.4105
  97   2.0000      -1.147829       -31.2340
  98   2.0000      -1.129785       -30.7430
  99   2.0000      -1.023821       -27.8596
 100   2.0000      -1.014873       -27.6161
 101   2.0000      -0.997585       -27.1457
 102   2.0000      -0.995969       -27.1017
 103   2.0000      -0.991245       -26.9731
 104   2.0000      -0.990362       -26.9491
 105   2.0000      -0.973629       -26.4938
 106   2.0000      -0.970125       -26.3984
 107   2.0000      -0.947079       -25.7713
 108   2.0000      -0.939731       -25.5714
 109   2.0000      -0.929638       -25.2967
 110   2.0000      -0.918057       -24.9816
 111   2.0000      -0.909220       -24.7411
 112   2.0000      -0.903685       -24.5905
 113   2.0000      -0.898043       -24.4370
 114   2.0000      -0.886447       -24.1215
 115   2.0000      -0.884153       -24.0590
 116   2.0000      -0.880865       -23.9696
 117   2.0000      -0.867596       -23.6085
 118   2.0000      -0.849539       -23.1171
 119   2.0000      -0.841631       -22.9020
 120   2.0000      -0.834920       -22.7193
 121   2.0000      -0.829009       -22.5585
 122   2.0000      -0.825582       -22.4652
 123   2.0000      -0.817811       -22.2538
 124   2.0000      -0.809063       -22.0157
 125   2.0000      -0.803674       -21.8691
 126   2.0000      -0.795818       -21.6553
 127   2.0000      -0.789770       -21.4907
 128   2.0000      -0.770966       -20.9791
 129   2.0000      -0.768604       -20.9148
 130   2.0000      -0.758585       -20.6421
 131   2.0000      -0.742990       -20.2178
 132   2.0000      -0.723912       -19.6986
 133   2.0000      -0.712068       -19.3763
 134   2.0000      -0.710837       -19.3429
 135   2.0000      -0.699847       -19.0438
 136   2.0000      -0.693381       -18.8679
 137   2.0000      -0.686431       -18.6787
 138   2.0000      -0.681657       -18.5488
 139   2.0000      -0.676900       -18.4194
 140   2.0000      -0.670035       -18.2326
 141   2.0000      -0.668105       -18.1801
 142   2.0000      -0.659527       -17.9466
 143   2.0000      -0.657444       -17.8900
 144   2.0000      -0.654008       -17.7965
 145   2.0000      -0.645999       -17.5785
 146   2.0000      -0.642648       -17.4873
 147   2.0000      -0.630045       -17.1444
 148   2.0000      -0.627434       -17.0733
 149   2.0000      -0.625315       -17.0157
 150   2.0000      -0.616263       -16.7694
 151   2.0000      -0.614929       -16.7331
 152   2.0000      -0.612709       -16.6727
 153   2.0000      -0.607005       -16.5174
 154   2.0000      -0.598467       -16.2851
 155   2.0000      -0.592954       -16.1351
 156   2.0000      -0.581340       -15.8191
 157   2.0000      -0.579966       -15.7817
 158   2.0000      -0.576672       -15.6921
 159   2.0000      -0.568828       -15.4786
 160   2.0000      -0.565757       -15.3950
 161   2.0000      -0.559273       -15.2186
 162   2.0000      -0.556979       -15.1562
 163   2.0000      -0.553812       -15.0700
 164   2.0000      -0.551417       -15.0048
 165   2.0000      -0.549104       -14.9419
 166   2.0000      -0.539888       -14.6911
 167   2.0000      -0.538503       -14.6534
 168   2.0000      -0.535519       -14.5722
 169   2.0000      -0.530361       -14.4319
 170   2.0000      -0.525181       -14.2909
 171   2.0000      -0.523012       -14.2319
 172   2.0000      -0.519538       -14.1373
 173   2.0000      -0.517195       -14.0736
 174   2.0000      -0.513039       -13.9605
 175   2.0000      -0.512276       -13.9397
 176   2.0000      -0.508792       -13.8449
 177   2.0000      -0.507145       -13.8001
 178   2.0000      -0.494485       -13.4556
 179   2.0000      -0.494076       -13.4445
 180   2.0000      -0.493857       -13.4385
 181   2.0000      -0.493316       -13.4238
 182   2.0000      -0.491400       -13.3717
 183   2.0000      -0.490772       -13.3546
 184   2.0000      -0.483955       -13.1691
 185   2.0000      -0.481756       -13.1093
 186   2.0000      -0.473739       -12.8911
 187   2.0000      -0.472782       -12.8650
 188   2.0000      -0.471519       -12.8307
 189   2.0000      -0.467941       -12.7333
 190   2.0000      -0.466598       -12.6968
 191   2.0000      -0.463823       -12.6213
 192   2.0000      -0.460324       -12.5260
 193   2.0000      -0.457694       -12.4545
 194   2.0000      -0.455516       -12.3952
 195   2.0000      -0.450546       -12.2600
 196   2.0000      -0.449454       -12.2303
 197   2.0000      -0.448898       -12.2151
 198   2.0000      -0.446381       -12.1467
 199   2.0000      -0.443943       -12.0803
 200   2.0000      -0.442941       -12.0530
 201   2.0000      -0.439292       -11.9537
 202   2.0000      -0.435860       -11.8603
 203   2.0000      -0.429118       -11.6769
 204   2.0000      -0.428462       -11.6590
 205   2.0000      -0.424611       -11.5543
 206   2.0000      -0.419146       -11.4055
 207   2.0000      -0.415006       -11.2929
 208   2.0000      -0.414680       -11.2840
 209   2.0000      -0.412794       -11.2327
 210   2.0000      -0.409196       -11.1348
 211   2.0000      -0.405173       -11.0253
 212   2.0000      -0.398558       -10.8453
 213   2.0000      -0.398433       -10.8419
 214   2.0000      -0.395613       -10.7652
 215   2.0000      -0.387266       -10.5380
 216   2.0000      -0.386873       -10.5274
 217   2.0000      -0.384690       -10.4679
 218   2.0000      -0.377755       -10.2792
 219   2.0000      -0.375255       -10.2112
 220   2.0000      -0.372351       -10.1322
 221   2.0000      -0.366554        -9.9744
 222   2.0000      -0.348783        -9.4909
 223   2.0000      -0.347424        -9.4539
 224   2.0000      -0.334725        -9.1083
 225   2.0000      -0.326849        -8.8940
 226   2.0000      -0.322194        -8.7673
 227   2.0000      -0.319171        -8.6851
 228   2.0000      -0.317828        -8.6485
 229   2.0000      -0.312909        -8.5147
 230   2.0000      -0.309940        -8.4339
 231   2.0000      -0.294913        -8.0250
 232   2.0000      -0.293352        -7.9825
 233   2.0000      -0.279090        -7.5944
 234   2.0000      -0.276191        -7.5155
 235   2.0000      -0.240209        -6.5364
 236   2.0000      -0.198367        -5.3978
 237   0.0000      -0.089653        -2.4396
 238   0.0000      -0.086133        -2.3438
 239   0.0000      -0.067181        -1.8281
 240   0.0000      -0.055519        -1.5107
 241   0.0000      -0.033489        -0.9113

MULLIKEN ATOMIC CHARGES
-----------------------
   0 C :    0.315429
   1 C :   -0.349423
   2 C :   -0.187343
   3 N :    0.154049
   4 C :   -0.185644
   5 N :    0.151915
   6 C :    0.011081
   7 C :   -0.009171
   8 C :   -0.070965
   9 C :    0.118274
  10 C :   -0.091740
  11 C :   -0.016378
  12 S :    0.187055
  13 C :   -0.123911
  14 C :    0.041868
  15 Br:    0.025898
  16 C :    0.129961
  17 O :   -0.116212
  18 C :   -0.039916
  19 C :   -0.026500
  20 C :   -0.032105
  21 C :    0.016121
  22 C :    0.025990
  23 C :    0.010821
  24 C :   -0.073313
  25 C :   -0.042059
  26 C :    0.161119
  27 C :    0.198330
  28 O :   -0.251644
  29 C :    0.216661
  30 C :    0.218182
  31 C :   -0.177397
  32 S :    0.106985
  33 C :   -0.165154
  34 O :   -0.254995
  35 C :   -0.081135
  36 C :    0.024178
  37 C :   -0.006396
  38 C :   -0.019042
  39 C :    0.034668
  40 C :    0.025841
  41 C :   -0.045288
  42 S :    0.088408
  43 C :   -0.039094
  44 C :    0.036959
  45 C :    0.025962
  46 C :   -0.029039
  47 S :    0.087949
  48 C :    0.044099
  49 C :   -0.230040
  50 S :    0.147180
  51 C :   -0.139163
  52 C :    0.125003
  53 C :    0.196146
  54 O :   -0.194098
  55 C :    0.251815
  56 N :    0.275666
  57 O :   -0.245578
  58 O :   -0.215962
  59 C :   -0.078775
  60 H :   -0.009477
  61 H :   -0.006646
  62 H :   -0.002546
  63 H :    0.011779
  64 H :    0.039241
  65 H :    0.037336
  66 H :    0.030563
  67 H :    0.000741
  68 H :    0.017823
  69 H :    0.007766
  70 H :   -0.012869
  71 H :    0.031793
  72 H :   -0.020005
  73 H :   -0.014051
  74 H :   -0.015529
  75 H :   -0.015137
  76 H :   -0.015535
  77 H :   -0.024968
  78 H :    0.030363
  79 H :    0.013224
Sum of atomic charges:   -0.0000000

LOEWDIN ATOMIC CHARGES
----------------------
   0 C :    0.079151
   1 C :   -0.135983
   2 C :   -0.017350
   3 N :   -0.050391
   4 C :   -0.021197
   5 N :   -0.048565
   6 C :   -0.023534
   7 C :   -0.048386
   8 C :    0.021548
   9 C :   -0.029990
  10 C :   -0.143647
  11 C :   -0.008258
  12 S :    0.432620
  13 C :   -0.269980
  14 C :   -0.070291
  15 Br:    0.138609
  16 C :    0.080350
  17 O :   -0.110968
  18 C :   -0.079191
  19 C :    0.081222
  20 C :   -0.044977
  21 C :    0.030867
  22 C :   -0.043293
  23 C :   -0.017305
  24 C :   -0.038472
  25 C :   -0.013102
  26 C :    0.019546
  27 C :    0.036063
  28 O :   -0.046480
  29 C :   -0.011989
  30 C :   -0.008874
  31 C :   -0.216202
  32 S :    0.435334
  33 C :   -0.200110
  34 O :   -0.051939
  35 C :   -0.041689
  36 C :   -0.020875
  37 C :   -0.052621
  38 C :   -0.144148
  39 C :   -0.032869
  40 C :   -0.034210
  41 C :   -0.174167
  42 S :    0.393986
  43 C :   -0.187300
  44 C :   -0.029415
  45 C :   -0.040546
  46 C :   -0.140877
  47 S :    0.401722
  48 C :   -0.095017
  49 C :   -0.195034
  50 S :    0.471977
  51 C :   -0.193353
  52 C :   -0.081067
  53 C :    0.008068
  54 O :   -0.000686
  55 C :    0.024710
  56 N :    0.276310
  57 O :   -0.213481
  58 O :   -0.185207
  59 C :   -0.005475
  60 H :    0.041362
  61 H :    0.041055
  62 H :    0.039243
  63 H :    0.046365
  64 H :    0.031959
  65 H :    0.034887
  66 H :    0.043570
  67 H :    0.035999
  68 H :    0.026269
  69 H :    0.021626
  70 H :    0.030816
  71 H :    0.028496
  72 H :    0.030202
  73 H :    0.032782
  74 H :    0.031161
  75 H :    0.031457
  76 H :    0.031400
  77 H :    0.032505
  78 H :    0.028023
  79 H :    0.047247

  Mayer bond orders larger than 0.100000
B(  0-C ,  1-C ) :   1.6411 B(  0-C ,  6-C ) :   1.0123 B(  0-C , 18-C ) :   1.0498
B(  1-C ,  2-C ) :   1.1409 B(  1-C ,  4-C ) :   1.1413 B(  2-C ,  3-N ) :   2.9718
B(  4-C ,  5-N ) :   2.9660 B(  6-C ,  7-C ) :   1.2740 B(  6-C , 11-C ) :   1.3984
B(  7-C ,  8-C ) :   1.4212 B(  7-C , 16-C ) :   0.9295 B(  8-C ,  9-C ) :   1.2512
B(  8-C , 60-H ) :   1.0156 B(  9-C , 10-C ) :   1.3016 B(  9-C , 14-C ) :   1.1634
B( 10-C , 11-C ) :   1.3427 B( 10-C , 12-S ) :   1.0838 B( 11-C , 61-H ) :   0.9784
B( 12-S , 13-C ) :   1.0872 B( 13-C , 14-C ) :   1.6163 B( 13-C , 15-Br) :   1.0206
B( 14-C , 62-H ) :   1.0003 B( 16-C , 17-O ) :   2.2690 B( 16-C , 18-C ) :   0.9080
B( 18-C , 19-C ) :   1.6836 B( 19-C , 20-C ) :   1.0791 B( 19-C , 63-H ) :   0.9374
B( 20-C , 21-C ) :   1.8468 B( 20-C , 22-C ) :   0.8920 B( 21-C , 64-H ) :   0.9474
B( 21-C , 65-H ) :   0.9486 B( 22-C , 23-C ) :   2.3069 B( 23-C , 24-C ) :   0.9682
B( 24-C , 25-C ) :   1.6691 B( 24-C , 66-H ) :   0.9663 B( 25-C , 26-C ) :   1.1907
B( 25-C , 67-H ) :   0.9577 B( 26-C , 27-C ) :   1.4079 B( 26-C , 34-O ) :   1.0660
B( 27-C , 28-O ) :   1.0744 B( 27-C , 35-C ) :   1.1942 B( 28-O , 29-C ) :   1.0419
B( 29-C , 30-C ) :   1.2036 B( 29-C , 33-C ) :   1.5699 B( 30-C , 31-C ) :   1.5683
B( 30-C , 34-O ) :   1.0475 B( 31-C , 32-S ) :   1.1404 B( 31-C , 68-H ) :   0.9725
B( 32-S , 33-C ) :   1.1464 B( 33-C , 69-H ) :   0.9588 B( 35-C , 36-C ) :   1.5853
B( 35-C , 70-H ) :   0.9664 B( 36-C , 37-C ) :   1.1597 B( 36-C , 71-H ) :   0.9717
B( 37-C , 38-C ) :   1.5239 B( 37-C , 72-H ) :   0.9882 B( 38-C , 39-C ) :   1.1614
B( 38-C , 42-S ) :   1.0413 B( 39-C , 40-C ) :   1.5656 B( 39-C , 73-H ) :   1.0000
B( 40-C , 41-C ) :   1.2058 B( 40-C , 74-H ) :   0.9944 B( 41-C , 42-S ) :   1.0588
B( 41-C , 43-C ) :   1.4755 B( 43-C , 44-C ) :   1.2002 B( 43-C , 47-S ) :   1.0383
B( 44-C , 45-C ) :   1.5791 B( 44-C , 75-H ) :   0.9930 B( 45-C , 46-C ) :   1.1509
B( 45-C , 76-H ) :   0.9991 B( 46-C , 47-S ) :   1.0516 B( 46-C , 48-C ) :   1.5851
B( 48-C , 49-C ) :   1.1611 B( 48-C , 77-H ) :   0.9434 B( 49-C , 50-S ) :   1.1349
B( 49-C , 51-C ) :   0.1077 B( 49-C , 53-C ) :   1.4184 B( 50-S , 51-C ) :   1.1774
B( 51-C , 52-C ) :   1.4298 B( 51-C , 78-H ) :   0.9766 B( 52-C , 53-C ) :   1.2334
B( 52-C , 59-C ) :   1.0691 B( 53-C , 54-O ) :   1.0848 B( 54-O , 55-C ) :   1.1211
B( 55-C , 56-N ) :   0.9200 B( 55-C , 59-C ) :   1.5655 B( 56-N , 57-O ) :   1.5147
B( 56-N , 58-O ) :   1.5132 B( 57-O , 58-O ) :   0.2711 B( 59-C , 79-H ) :   1.0253

-----------------------------------------------------------------------------
         ABSORPTION SPECTRUM VIA TRANSITION ELECTRIC DIPOLE MOMENTS
-----------------------------------------------------------------------------
State   Energy  Wavelength   fosc         T2         TX        TY        TZ
        (cm-1)    (nm)                  (au**2)     (au)      (au)      (au)
-----------------------------------------------------------------------------
   0   11144.1    897.3   0.691340048  20.42318   1.57263  -0.20115   4.23197
   1   13384.0    747.2   0.680993344  16.75064  -2.17451   0.57670  -3.41900
   2   14332.2    697.7   0.071798276   1.64921   0.80191  -0.31344   0.95284
   3   19238.4    519.8   0.046383326   0.79372   0.67519  -0.37834  -0.44125
   4   20641.6    484.5   0.014787838   0.23585   0.42972  -0.19689   0.11147
   5   22077.0    453.0   0.246892146   3.68165   1.70027  -0.88885   0.02583
   6   22560.7    443.2   0.009313759   0.13591  -0.35652   0.09146   0.02097
   7   22766.5    439.2   0.198535591   2.87090   1.48834  -0.70207   0.40354
   8   25897.1    386.1   0.212310953   2.69897   1.44857  -0.66581   0.39662
   9   26335.1    379.7   0.027951150   0.34941   0.52270  -0.26905  -0.06171
  10   27801.1    359.7   0.082460802   0.97648   0.90346  -0.35178  -0.19104
  11   28069.3    356.3   0.308642640   3.61992  -1.68108   0.64533   0.61438
  12   28189.8    354.7   0.086752002   1.01313   0.37964   0.01378  -0.93210
  13   28327.2    353.0   0.204431455   2.37585   0.86095  -0.35876   1.22716
  14   28813.2    347.1   0.016536740   0.18894   0.24912  -0.19429   0.29856
  15   29374.0    340.4   0.330692106   3.70627   1.13529  -0.73978  -1.36752
  16   30059.2    332.7   0.065309269   0.71528  -0.13746  -0.07303   0.83129
  17   30417.8    328.8   0.045058417   0.48767  -0.20875   0.03281  -0.66559
  18   30750.5    325.2   0.020141396   0.21563  -0.32120   0.05238  -0.33124
  19   31380.3    318.7   0.139172374   1.46006   0.19523   0.09968   1.18828
  20   32083.8    311.7   0.044967185   0.46141   0.11583  -0.01534  -0.66915
  21   32356.1    309.1   0.047220462   0.48045  -0.50680   0.28383  -0.37821
  22   32486.9    307.8   0.102803712   1.04178   0.78931  -0.61147  -0.21184
  23   32667.5    306.1   0.000031391   0.00032   0.00976  -0.00390  -0.01435
  24   32810.7    304.8   0.056171217   0.56360   0.60148  -0.38744   0.22740
  25   33150.1    301.7   0.074420712   0.73907   0.51197  -0.28971  -0.62691
  26   33400.3    299.4   0.000161512   0.00159  -0.01865   0.03043  -0.01784
  27   33611.7    297.5   0.206038750   2.01806  -1.34661   0.45061   0.04072
  28   33773.8    296.1   0.286694845   2.79458  -1.09256   0.25882   1.23851
  29   34075.9    293.5   0.031770171   0.30694  -0.02511   0.03937  -0.55205
  30   34346.4    291.2   0.224823284   2.15494  -0.95133   0.09958   1.11355
  31   34651.4    288.6   0.088211436   0.83807  -0.80297   0.43404   0.07012
  32   34900.1    286.5   0.041283105   0.38942  -0.45014   0.15516   0.40339
  33   35892.9    278.6   0.116268852   1.06643   0.73042  -0.36433   0.63259
  34   36007.4    277.7   0.260829099   2.38473  -1.18887   0.42715  -0.88818
  35   36264.3    275.8   0.005330238   0.04839   0.15830  -0.06631  -0.13760
  36   36342.9    275.2   0.163626601   1.48221  -0.28577  -0.05174  -1.18232
  37   36376.3    274.9   0.000333316   0.00302   0.03958   0.03435   0.01643
  38   36528.8    273.8   0.014929095   0.13455   0.12506  -0.02465   0.34395
  39   37312.5    268.0   0.064193867   0.56639  -0.49108   0.15300  -0.54938
  40   37528.1    266.5   0.073053369   0.64085  -0.30035   0.03157  -0.74138
  41   37789.3    264.6   0.093567470   0.81514   0.79616  -0.37990   0.19222
  42   38239.1    261.5   0.100479902   0.86506   0.84602  -0.37747   0.08264
  43   38418.5    260.3   0.153109783   1.31201   0.42993  -0.03281   1.06118
  44   38603.4    259.0   0.055015251   0.46917   0.59601  -0.31399   0.12392
  45   39123.8    255.6   0.147631925   1.24227   0.46545  -0.55556   0.84675
  46   39355.3    254.1   0.033217910   0.27787   0.07652  -0.24207   0.46197
  47   39590.4    252.6   0.176855343   1.47063  -0.84306   0.64790   0.58319
  48   39852.2    250.9   0.123794773   1.02265   0.78905  -0.58249  -0.24648

FINAL SINGLE POINT ENERGY     -6903.462789058223

DIPOLE MOMENT
-------------
                                X             Y             Z
Electronic contribution:    131.13158     -55.75850      63.88445
Nuclear contribution   :   -132.36487      56.43456     -67.43378
                        -----------------------------------------
Total Dipole Moment    :     -1.23329       0.67607      -3.54933
                        -----------------------------------------
Magnitude (a.u.)       :      3.81783
Magnitude (Debye)      :      9.70416

Rotational constants in cm-1:     0.001904     0.000257     0.000228
Rotational constants in MHz :    57.090184     7.714127     6.828010

                             ****ORCA TERMINATED NORMALLY****
TOTAL RUN TIME: 0 days 0 hours 6 minutes 42 seconds 489 msec
