                         Program Version 4.2.0 -  RELEASE  -
|  1> # ORCA input file
|  2> # SCF done       -189.268107923886          0.000274627126
|  3> ! CAM-B3LYP def2-SVP def2/J RIJCOSX Grid4 TightSCF
|  4> %maxcore 5000
|  5> %tddft
|  6>     Mode sTDDFT
|  7>     Ethresh 5.0
|  8>     maxcore 5000
|  9> end
| 10>
| 11> %pal
| 12>   nprocs 6
| 13>   end
| 14> * xyz 0 1
| 15>    C       -6.28552        -3.68953        -2.52002
| 16>    C       -6.03084        -3.65251        -3.86849
| 17>    C       -5.86848        -4.80063        -4.67258
| 18>    N       -5.72930        -5.68610        -5.39045
| 19>    C       -5.85884        -2.50392        -4.67019
| 20>    N       -5.68543        -1.64228        -5.41156
| 21>    C       -6.36672        -4.91169        -1.73109
| 22>    C       -6.51054        -4.55778        -0.36983
| 23>    C       -6.60162        -5.48789         0.63672
| 24>    C       -6.55052        -6.83933         0.28124
| 25>    C       -6.41190        -7.18629        -1.08369
| 26>    C       -6.31870        -6.24434        -2.10004
| 27>    S       -6.37286        -8.91014        -1.30368
| 28>    C       -6.53863        -9.13669         0.41743
| 29>    C       -6.62067        -7.98359         1.12230
| 30>   Br       -6.58825       -10.87486         1.12083
| 31>    C       -6.54461        -3.08752        -0.23786
| 32>    O       -6.64535        -2.49275         0.81514
| 33>    C       -6.45230        -2.55400        -1.61748
| 34>    C       -6.56499        -1.27385        -2.08418
| 35>    C       -6.66153         0.02031        -1.48595
| 36>    C       -6.76459         1.10385        -2.38991
| 37>    C       -6.79054         2.39153        -1.92552
| 38>    C       -6.77582         2.63684        -0.53758
| 39>    C       -6.69343         1.58317         0.36501
| 40>    C       -6.62393         0.29086        -0.10717
| 41>    C       -6.84941         4.05985        -0.32074
| 42>    C       -6.90673         4.70460        -1.56962
| 43>    C       -6.89221         3.69222        -2.69830
| 44>    C       -5.64767         3.96890        -3.56823
| 45>    C       -5.41734         3.02683        -4.74302
| 46>    C       -8.21710         3.66634        -3.48933
| 47>    C       -8.55180         4.92824        -4.27359
| 48>    C       -6.89448         6.07709        -1.63039
| 49>    C       -6.85760         6.83752        -0.45048
| 50>    C       -6.85169         6.17424         0.78495
| 51>    C       -6.83967         4.79846         0.85631
| 52>    C       -6.79004         8.27397        -0.56875
| 53>    C       -6.55090         9.14313         0.42828
| 54>    N       -6.43760        10.49152         0.22263
| 55>    C       -6.07461        11.41055         1.14840
| 56>    S       -5.81182        10.96389         2.80210
| 57>    C       -5.35040        12.60278         3.15510
| 58>    N       -4.99763        12.89569         4.46655
| 59>    O       -4.66518        14.04065         4.73067
| 60>    O       -5.04577        11.97277         5.27031
| 61>    C       -5.39946        13.42743         2.06173
| 62>    C       -5.82246        12.76931         0.89162
| 63>    C       -5.97984        13.38247        -0.39434
| 64>    C       -5.41354        14.56312        -0.75471
| 65>    C       -5.59100        15.17700        -2.00830
| 66>    C       -4.92172        16.30502        -2.40844
| 67>    C       -5.06256        16.99410        -3.63967
| 68>    C       -4.24621        18.07464        -3.77517
| 69>    C       -3.39916        18.29973        -2.66691
| 70>    S       -3.70023        17.09780        -1.42472
| 71>    C       -2.43382        19.27088        -2.51097
| 72>    C       -2.08304        20.30041        -3.42175
| 73>    C       -1.06800        21.09024        -2.99218
| 74>    C       -0.53662        20.73161        -1.71924
| 75>    S       -1.42370        19.34579        -1.08639
| 76>    C        0.45776        21.38052        -1.05758
| 77>    C        1.03280        21.03674         0.20735
| 78>    C        1.37660        21.97907         1.16947
| 79>    C        1.25693        23.45999         1.14416
| 80>    N        1.79308        21.31058         2.27449
| 81>    C        1.76263        19.96261         2.05873
| 82>    C        2.22338        18.99778         3.09192
| 83>    C        1.30620        19.74507         0.77610
| 84>    C        1.30040        18.44395         0.13706
| 85>    C        1.52431        18.22003        -1.15136
| 86>    H       -6.70813        -5.18118         1.66548
| 87>    H       -6.21716        -6.56339        -3.12344
| 88>    H       -6.72607        -7.93930         2.19092
| 89>    H       -6.57112        -1.20796        -3.16628
| 90>    H       -6.81940         0.89366        -3.44751
| 91>    H       -6.67959         1.77332         1.42752
| 92>    H       -6.54863        -0.52590         0.58964
| 93>    H       -4.77482         3.93220        -2.91030
| 94>    H       -5.72344         4.99048        -3.94488
| 95>    H       -5.19276         2.01987        -4.40476
| 96>    H       -4.56547         3.37965        -5.32091
| 97>    H       -6.27931         2.99350        -5.40359
| 98>    H       -9.02203         3.47260        -2.77473
| 99>    H       -8.18313         2.81894        -4.17574
|100>    H       -8.71229         5.77019        -3.60610
|101>    H       -9.46893         4.76771        -4.83677
|102>    H       -7.76364         5.17823        -4.97874
|103>    H       -6.88514         6.59259        -2.57921
|104>    H       -6.84768         6.74741         1.69852
|105>    H       -6.81226         4.30135         1.81417
|106>    H       -6.89988         8.66645        -1.57306
|107>    H       -6.41031         8.83435         1.45237
|108>    H       -6.54491        10.82498        -0.72763
|109>    H       -5.15493        14.47162         2.12355
|110>    H       -6.58705        12.86047        -1.12382
|111>    H       -4.76023        15.07208        -0.05914
|112>    H       -6.29108        14.73681        -2.70653
|113>    H       -5.76589        16.66535        -4.38474
|114>    H       -4.22243        18.70873        -4.64362
|115>    H       -2.59365        20.42405        -4.36011
|116>    H       -0.66456        21.91997        -3.54654
|117>    H        0.80919        22.30415        -1.50447
|118>    H        1.57438        23.85199         0.17989
|119>    H        1.87463        23.90414         1.92238
|120>    H        0.22381        23.77112         1.30651
|121>    H        2.08163        21.74692         3.13571
|122>    H        2.29006        19.48359         4.06324
|123>    H        3.20517        18.59548         2.83939
|124>    H        1.53034        18.16234         3.16799
|125>    H        1.15407        17.60671         0.80782
|126>    H        1.70726        19.02311        -1.84560
|127>    H        1.53245        17.22343        -1.55727
|128> *
|129>
|130>                          ****END OF INPUT****

CARTESIAN COORDINATES (ANGSTROEM)
---------------------------------
  C     -6.285520   -3.689530   -2.520020
  C     -6.030840   -3.652510   -3.868490
  C     -5.868480   -4.800630   -4.672580
  N     -5.729300   -5.686100   -5.390450
  C     -5.858840   -2.503920   -4.670190
  N     -5.685430   -1.642280   -5.411560
  C     -6.366720   -4.911690   -1.731090
  C     -6.510540   -4.557780   -0.369830
  C     -6.601620   -5.487890    0.636720
  C     -6.550520   -6.839330    0.281240
  C     -6.411900   -7.186290   -1.083690
  C     -6.318700   -6.244340   -2.100040
  S     -6.372860   -8.910140   -1.303680
  C     -6.538630   -9.136690    0.417430
  C     -6.620670   -7.983590    1.122300
  Br    -6.588250  -10.874860    1.120830
  C     -6.544610   -3.087520   -0.237860
  O     -6.645350   -2.492750    0.815140
  C     -6.452300   -2.554000   -1.617480
  C     -6.564990   -1.273850   -2.084180
  C     -6.661530    0.020310   -1.485950
  C     -6.764590    1.103850   -2.389910
  C     -6.790540    2.391530   -1.925520
  C     -6.775820    2.636840   -0.537580
  C     -6.693430    1.583170    0.365010
  C     -6.623930    0.290860   -0.107170
  C     -6.849410    4.059850   -0.320740
  C     -6.906730    4.704600   -1.569620
  C     -6.892210    3.692220   -2.698300
  C     -5.647670    3.968900   -3.568230
  C     -5.417340    3.026830   -4.743020
  C     -8.217100    3.666340   -3.489330
  C     -8.551800    4.928240   -4.273590
  C     -6.894480    6.077090   -1.630390
  C     -6.857600    6.837520   -0.450480
  C     -6.851690    6.174240    0.784950
  C     -6.839670    4.798460    0.856310
  C     -6.790040    8.273970   -0.568750
  C     -6.550900    9.143130    0.428280
  N     -6.437600   10.491520    0.222630
  C     -6.074610   11.410550    1.148400
  S     -5.811820   10.963890    2.802100
  C     -5.350400   12.602780    3.155100
  N     -4.997630   12.895690    4.466550
  O     -4.665180   14.040650    4.730670
  O     -5.045770   11.972770    5.270310
  C     -5.399460   13.427430    2.061730
  C     -5.822460   12.769310    0.891620
  C     -5.979840   13.382470   -0.394340
  C     -5.413540   14.563120   -0.754710
  C     -5.591000   15.177000   -2.008300
  C     -4.921720   16.305020   -2.408440
  C     -5.062560   16.994100   -3.639670
  C     -4.246210   18.074640   -3.775170
  C     -3.399160   18.299730   -2.666910
  S     -3.700230   17.097800   -1.424720
  C     -2.433820   19.270880   -2.510970
  C     -2.083040   20.300410   -3.421750
  C     -1.068000   21.090240   -2.992180
  C     -0.536620   20.731610   -1.719240
  S     -1.423700   19.345790   -1.086390
  C      0.457760   21.380520   -1.057580
  C      1.032800   21.036740    0.207350
  C      1.376600   21.979070    1.169470
  C      1.256930   23.459990    1.144160
  N      1.793080   21.310580    2.274490
  C      1.762630   19.962610    2.058730
  C      2.223380   18.997780    3.091920
  C      1.306200   19.745070    0.776100
  C      1.300400   18.443950    0.137060
  C      1.524310   18.220030   -1.151360
  H     -6.708130   -5.181180    1.665480
  H     -6.217160   -6.563390   -3.123440
  H     -6.726070   -7.939300    2.190920
  H     -6.571120   -1.207960   -3.166280
  H     -6.819400    0.893660   -3.447510
  H     -6.679590    1.773320    1.427520
  H     -6.548630   -0.525900    0.589640
  H     -4.774820    3.932200   -2.910300
  H     -5.723440    4.990480   -3.944880
  H     -5.192760    2.019870   -4.404760
  H     -4.565470    3.379650   -5.320910
  H     -6.279310    2.993500   -5.403590
  H     -9.022030    3.472600   -2.774730
  H     -8.183130    2.818940   -4.175740
  H     -8.712290    5.770190   -3.606100
  H     -9.468930    4.767710   -4.836770
  H     -7.763640    5.178230   -4.978740
  H     -6.885140    6.592590   -2.579210
  H     -6.847680    6.747410    1.698520
  H     -6.812260    4.301350    1.814170
  H     -6.899880    8.666450   -1.573060
  H     -6.410310    8.834350    1.452370
  H     -6.544910   10.824980   -0.727630
  H     -5.154930   14.471620    2.123550
  H     -6.587050   12.860470   -1.123820
  H     -4.760230   15.072080   -0.059140
  H     -6.291080   14.736810   -2.706530
  H     -5.765890   16.665350   -4.384740
  H     -4.222430   18.708730   -4.643620
  H     -2.593650   20.424050   -4.360110
  H     -0.664560   21.919970   -3.546540
  H      0.809190   22.304150   -1.504470
  H      1.574380   23.851990    0.179890
  H      1.874630   23.904140    1.922380
  H      0.223810   23.771120    1.306510
  H      2.081630   21.746920    3.135710
  H      2.290060   19.483590    4.063240
  H      3.205170   18.595480    2.839390
  H      1.530340   18.162340    3.167990
  H      1.154070   17.606710    0.807820
  H      1.707260   19.023110   -1.845600
  H      1.532450   17.223430   -1.557270

 Total Charge           Charge          ....    0
 Multiplicity           Mult            ....    1
 Number of Electrons    NEL             ....  548
 Basis Dimension        Dim             .... 1238

ORBITAL ENERGIES
----------------

  NO   OCC          E(Eh)            E(eV)
   0   2.0000    -482.883949    -13139.9403
   1   2.0000     -88.973442     -2421.0904
   2   2.0000     -88.972501     -2421.0648
   3   2.0000     -88.930879     -2419.9322
   4   2.0000     -88.927983     -2419.8534
   5   2.0000     -62.561697     -1702.3903
   6   2.0000     -56.395647     -1534.6036
   7   2.0000     -56.392929     -1534.5296
   8   2.0000     -56.392895     -1534.5287
   9   2.0000     -19.219797      -522.9973
  10   2.0000     -19.219303      -522.9838
  11   2.0000     -19.215548      -522.8816
  12   2.0000     -14.631637      -398.1471
  13   2.0000     -14.476294      -393.9200
  14   2.0000     -14.453374      -393.2963
  15   2.0000     -14.414446      -392.2370
  16   2.0000     -14.411060      -392.1449
  17   2.0000     -10.367042      -282.1016
  18   2.0000     -10.357669      -281.8465
  19   2.0000     -10.357222      -281.8343
  20   2.0000     -10.338865      -281.3348
  21   2.0000     -10.337772      -281.3051
  22   2.0000     -10.328926      -281.0644
  23   2.0000     -10.325881      -280.9815
  24   2.0000     -10.323222      -280.9091
  25   2.0000     -10.318120      -280.7703
  26   2.0000     -10.314641      -280.6757
  27   2.0000     -10.312672      -280.6221
  28   2.0000     -10.305582      -280.4291
  29   2.0000     -10.305011      -280.4136
  30   2.0000     -10.302886      -280.3558
  31   2.0000     -10.299665      -280.2681
  32   2.0000     -10.298217      -280.2287
  33   2.0000     -10.297367      -280.2056
  34   2.0000     -10.295172      -280.1459
  35   2.0000     -10.294901      -280.1385
  36   2.0000     -10.294844      -280.1370
  37   2.0000     -10.293744      -280.1070
  38   2.0000     -10.291803      -280.0542
  39   2.0000     -10.289577      -279.9936
  40   2.0000     -10.288974      -279.9772
  41   2.0000     -10.287178      -279.9283
  42   2.0000     -10.286305      -279.9046
  43   2.0000     -10.286122      -279.8996
  44   2.0000     -10.285266      -279.8763
  45   2.0000     -10.284099      -279.8446
  46   2.0000     -10.283793      -279.8362
  47   2.0000     -10.280831      -279.7556
  48   2.0000     -10.279061      -279.7075
  49   2.0000     -10.278026      -279.6793
  50   2.0000     -10.277138      -279.6551
  51   2.0000     -10.276099      -279.6269
  52   2.0000     -10.275966      -279.6233
  53   2.0000     -10.274693      -279.5886
  54   2.0000     -10.274590      -279.5858
  55   2.0000     -10.274218      -279.5757
  56   2.0000     -10.273376      -279.5528
  57   2.0000     -10.273246      -279.5492
  58   2.0000     -10.272997      -279.5425
  59   2.0000     -10.272810      -279.5374
  60   2.0000     -10.272582      -279.5312
  61   2.0000     -10.272189      -279.5205
  62   2.0000     -10.271932      -279.5135
  63   2.0000     -10.271398      -279.4989
  64   2.0000     -10.270877      -279.4848
  65   2.0000     -10.269326      -279.4426
  66   2.0000     -10.266557      -279.3672
  67   2.0000     -10.265079      -279.3270
  68   2.0000     -10.264385      -279.3081
  69   2.0000     -10.255622      -279.0697
  70   2.0000     -10.252714      -278.9905
  71   2.0000     -10.251102      -278.9467
  72   2.0000     -10.250291      -278.9246
  73   2.0000     -10.245360      -278.7904
  74   2.0000     -10.239129      -278.6209
  75   2.0000      -8.791149      -239.2193
  76   2.0000      -8.069434      -219.5805
  77   2.0000      -8.067865      -219.5378
  78   2.0000      -8.027194      -218.4311
  79   2.0000      -8.023789      -218.3384
  80   2.0000      -6.627468      -180.3426
  81   2.0000      -6.612870      -179.9453
  82   2.0000      -6.612683      -179.9403
  83   2.0000      -6.039130      -164.3331
  84   2.0000      -6.037614      -164.2918
  85   2.0000      -6.034853      -164.2167
  86   2.0000      -6.033230      -164.1725
  87   2.0000      -6.030643      -164.1022
  88   2.0000      -6.029186      -164.0625
  89   2.0000      -5.996941      -163.1851
  90   2.0000      -5.993597      -163.0941
  91   2.0000      -5.993027      -163.0785
  92   2.0000      -5.989516      -162.9830
  93   2.0000      -5.987977      -162.9411
  94   2.0000      -5.984568      -162.8484
  95   2.0000      -2.743286       -74.6486
  96   2.0000      -2.739276       -74.5395
  97   2.0000      -2.739103       -74.5348
  98   2.0000      -2.727516       -74.2195
  99   2.0000      -2.727485       -74.2186
 100   2.0000      -1.298508       -35.3342
 101   2.0000      -1.130570       -30.7644
 102   2.0000      -1.117098       -30.3978
 103   2.0000      -1.082853       -29.4659
 104   2.0000      -1.069722       -29.1086
 105   2.0000      -1.020597       -27.7719
 106   2.0000      -1.011419       -27.5221
 107   2.0000      -0.992469       -27.0065
 108   2.0000      -0.991402       -26.9774
 109   2.0000      -0.990566       -26.9547
 110   2.0000      -0.986575       -26.8461
 111   2.0000      -0.981417       -26.7057
 112   2.0000      -0.959613       -26.1124
 113   2.0000      -0.952970       -25.9316
 114   2.0000      -0.939845       -25.5745
 115   2.0000      -0.924444       -25.1554
 116   2.0000      -0.910617       -24.7791
 117   2.0000      -0.905921       -24.6514
 118   2.0000      -0.898677       -24.4542
 119   2.0000      -0.896627       -24.3985
 120   2.0000      -0.890780       -24.2394
 121   2.0000      -0.883450       -24.0399
 122   2.0000      -0.880057       -23.9476
 123   2.0000      -0.877041       -23.8655
 124   2.0000      -0.867094       -23.5948
 125   2.0000      -0.859799       -23.3963
 126   2.0000      -0.847198       -23.0534
 127   2.0000      -0.843771       -22.9602
 128   2.0000      -0.838241       -22.8097
 129   2.0000      -0.836221       -22.7547
 130   2.0000      -0.833777       -22.6882
 131   2.0000      -0.831585       -22.6286
 132   2.0000      -0.826709       -22.4959
 133   2.0000      -0.822557       -22.3829
 134   2.0000      -0.816032       -22.2053
 135   2.0000      -0.811573       -22.0840
 136   2.0000      -0.807094       -21.9621
 137   2.0000      -0.803507       -21.8645
 138   2.0000      -0.777751       -21.1637
 139   2.0000      -0.772174       -21.0119
 140   2.0000      -0.768185       -20.9034
 141   2.0000      -0.758269       -20.6335
 142   2.0000      -0.751370       -20.4458
 143   2.0000      -0.735440       -20.0123
 144   2.0000      -0.723207       -19.6795
 145   2.0000      -0.719868       -19.5886
 146   2.0000      -0.713389       -19.4123
 147   2.0000      -0.709200       -19.2983
 148   2.0000      -0.706590       -19.2273
 149   2.0000      -0.696854       -18.9624
 150   2.0000      -0.688369       -18.7315
 151   2.0000      -0.687506       -18.7080
 152   2.0000      -0.681799       -18.5527
 153   2.0000      -0.678924       -18.4745
 154   2.0000      -0.669606       -18.2209
 155   2.0000      -0.660955       -17.9855
 156   2.0000      -0.656304       -17.8589
 157   2.0000      -0.651703       -17.7337
 158   2.0000      -0.649846       -17.6832
 159   2.0000      -0.644389       -17.5347
 160   2.0000      -0.635914       -17.3041
 161   2.0000      -0.628192       -17.0940
 162   2.0000      -0.620769       -16.8920
 163   2.0000      -0.619805       -16.8658
 164   2.0000      -0.615978       -16.7616
 165   2.0000      -0.612712       -16.6728
 166   2.0000      -0.609466       -16.5844
 167   2.0000      -0.604109       -16.4386
 168   2.0000      -0.601863       -16.3775
 169   2.0000      -0.596328       -16.2269
 170   2.0000      -0.593456       -16.1487
 171   2.0000      -0.591879       -16.1058
 172   2.0000      -0.590351       -16.0643
 173   2.0000      -0.583464       -15.8769
 174   2.0000      -0.580531       -15.7970
 175   2.0000      -0.573453       -15.6044
 176   2.0000      -0.565753       -15.3949
 177   2.0000      -0.564028       -15.3480
 178   2.0000      -0.553880       -15.0718
 179   2.0000      -0.551467       -15.0062
 180   2.0000      -0.551052       -14.9949
 181   2.0000      -0.548204       -14.9174
 182   2.0000      -0.540859       -14.7175
 183   2.0000      -0.539795       -14.6886
 184   2.0000      -0.537943       -14.6382
 185   2.0000      -0.537147       -14.6165
 186   2.0000      -0.536105       -14.5882
 187   2.0000      -0.533235       -14.5101
 188   2.0000      -0.532094       -14.4790
 189   2.0000      -0.527833       -14.3631
 190   2.0000      -0.526459       -14.3257
 191   2.0000      -0.525396       -14.2967
 192   2.0000      -0.519534       -14.1372
 193   2.0000      -0.518760       -14.1162
 194   2.0000      -0.515480       -14.0269
 195   2.0000      -0.509321       -13.8593
 196   2.0000      -0.506863       -13.7924
 197   2.0000      -0.503868       -13.7109
 198   2.0000      -0.501301       -13.6411
 199   2.0000      -0.499207       -13.5841
 200   2.0000      -0.497791       -13.5456
 201   2.0000      -0.495564       -13.4850
 202   2.0000      -0.494759       -13.4631
 203   2.0000      -0.491847       -13.3838
 204   2.0000      -0.488273       -13.2866
 205   2.0000      -0.487249       -13.2587
 206   2.0000      -0.485380       -13.2079
 207   2.0000      -0.484741       -13.1905
 208   2.0000      -0.484036       -13.1713
 209   2.0000      -0.482288       -13.1237
 210   2.0000      -0.478858       -13.0304
 211   2.0000      -0.477042       -12.9810
 212   2.0000      -0.474133       -12.9018
 213   2.0000      -0.472127       -12.8472
 214   2.0000      -0.464148       -12.6301
 215   2.0000      -0.463196       -12.6042
 216   2.0000      -0.461224       -12.5506
 217   2.0000      -0.458910       -12.4876
 218   2.0000      -0.457198       -12.4410
 219   2.0000      -0.454951       -12.3798
 220   2.0000      -0.454551       -12.3690
 221   2.0000      -0.451548       -12.2872
 222   2.0000      -0.450950       -12.2710
 223   2.0000      -0.449659       -12.2358
 224   2.0000      -0.448268       -12.1980
 225   2.0000      -0.447321       -12.1722
 226   2.0000      -0.446295       -12.1443
 227   2.0000      -0.445067       -12.1109
 228   2.0000      -0.440882       -11.9970
 229   2.0000      -0.438847       -11.9416
 230   2.0000      -0.437372       -11.9015
 231   2.0000      -0.436977       -11.8907
 232   2.0000      -0.436791       -11.8857
 233   2.0000      -0.433244       -11.7892
 234   2.0000      -0.431586       -11.7440
 235   2.0000      -0.428182       -11.6514
 236   2.0000      -0.424174       -11.5424
 237   2.0000      -0.421498       -11.4695
 238   2.0000      -0.419947       -11.4273
 239   2.0000      -0.416632       -11.3371
 240   2.0000      -0.415228       -11.2989
 241   2.0000      -0.411340       -11.1931
 242   2.0000      -0.406941       -11.0734
 243   2.0000      -0.402527       -10.9533
 244   2.0000      -0.400509       -10.8984
 245   2.0000      -0.399518       -10.8714
 246   2.0000      -0.391659       -10.6576
 247   2.0000      -0.387050       -10.5322
 248   2.0000      -0.386312       -10.5121
 249   2.0000      -0.384151       -10.4533
 250   2.0000      -0.379027       -10.3139
 251   2.0000      -0.373426       -10.1614
 252   2.0000      -0.372640       -10.1401
 253   2.0000      -0.369368       -10.0510
 254   2.0000      -0.369179       -10.0459
 255   2.0000      -0.361026        -9.8240
 256   2.0000      -0.357291        -9.7224
 257   2.0000      -0.348460        -9.4821
 258   2.0000      -0.348024        -9.4702
 259   2.0000      -0.339315        -9.2332
 260   2.0000      -0.334745        -9.1089
 261   2.0000      -0.327244        -8.9048
 262   2.0000      -0.326067        -8.8727
 263   2.0000      -0.319987        -8.7073
 264   2.0000      -0.318346        -8.6626
 265   2.0000      -0.313293        -8.5251
 266   2.0000      -0.311325        -8.4716
 267   2.0000      -0.297724        -8.1015
 268   2.0000      -0.291637        -7.9358
 269   2.0000      -0.282546        -7.6885
 270   2.0000      -0.267233        -7.2718
 271   2.0000      -0.252998        -6.8844
 272   2.0000      -0.241422        -6.5694
 273   2.0000      -0.197056        -5.3622
 274   0.0000      -0.087478        -2.3804
 275   0.0000      -0.061618        -1.6767
 276   0.0000      -0.057941        -1.5766
 277   0.0000      -0.044370        -1.2074
 278   0.0000      -0.016166        -0.4399

MULLIKEN ATOMIC CHARGES
-----------------------
   0 C :    0.311926
   1 C :   -0.359743
   2 C :   -0.187046
   3 N :    0.144861
   4 C :   -0.192265
   5 N :    0.147518
   6 C :    0.009663
   7 C :   -0.007716
   8 C :   -0.070181
   9 C :    0.117012
  10 C :   -0.091429
  11 C :   -0.016619
  12 S :    0.185794
  13 C :   -0.122186
  14 C :    0.036727
  15 Br:    0.022688
  16 C :    0.154686
  17 O :   -0.151642
  18 C :   -0.046782
  19 C :   -0.024226
  20 C :    0.080497
  21 C :   -0.118527
  22 C :    0.043098
  23 C :    0.113299
  24 C :   -0.059591
  25 C :    0.002760
  26 C :    0.085805
  27 C :    0.045790
  28 C :   -0.125265
  29 C :    0.049216
  30 C :    0.030324
  31 C :    0.055043
  32 C :    0.031457
  33 C :   -0.125684
  34 C :    0.128498
  35 C :   -0.020933
  36 C :   -0.035079
  37 C :   -0.030385
  38 C :    0.077332
  39 N :   -0.027353
  40 C :   -0.112109
  41 S :    0.133663
  42 C :   -0.009980
  43 N :    0.277881
  44 O :   -0.263615
  45 O :   -0.280033
  46 C :    0.008545
  47 C :    0.135102
  48 C :   -0.071080
  49 C :    0.016154
  50 C :   -0.032772
  51 C :   -0.007731
  52 C :    0.022524
  53 C :    0.032337
  54 C :   -0.058876
  55 S :    0.058585
  56 C :   -0.051111
  57 C :    0.022441
  58 C :    0.042697
  59 C :   -0.036855
  60 S :    0.106593
  61 C :   -0.083401
  62 C :    0.032970
  63 C :   -0.149738
  64 C :    0.128221
  65 N :   -0.030982
  66 C :   -0.154234
  67 C :    0.122068
  68 C :    0.024197
  69 C :   -0.057180
  70 C :   -0.001386
  71 H :   -0.010702
  72 H :   -0.005960
  73 H :   -0.002881
  74 H :   -0.004453
  75 H :   -0.005855
  76 H :   -0.029845
  77 H :   -0.002864
  78 H :    0.008275
  79 H :    0.001358
  80 H :    0.026619
  81 H :    0.014840
  82 H :    0.008717
  83 H :    0.006753
  84 H :    0.008503
  85 H :    0.015322
  86 H :    0.015167
  87 H :    0.005600
  88 H :   -0.037287
  89 H :   -0.033270
  90 H :   -0.031382
  91 H :   -0.031379
  92 H :    0.028469
  93 H :    0.134007
  94 H :    0.010351
  95 H :   -0.036757
  96 H :   -0.000107
  97 H :   -0.028709
  98 H :   -0.020632
  99 H :   -0.017055
 100 H :   -0.022359
 101 H :   -0.017901
 102 H :   -0.020325
 103 H :    0.023665
 104 H :    0.000483
 105 H :    0.038830
 106 H :    0.112740
 107 H :   -0.003529
 108 H :    0.035320
 109 H :    0.036510
 110 H :   -0.019719
 111 H :    0.016736
 112 H :    0.010468
Sum of atomic charges:   -0.0000000

LOEWDIN ATOMIC CHARGES
----------------------
   0 C :    0.080914
   1 C :   -0.146378
   2 C :   -0.017374
   3 N :   -0.057649
   4 C :   -0.023608
   5 N :   -0.058478
   6 C :   -0.022415
   7 C :   -0.049233
   8 C :    0.021488
   9 C :   -0.032413
  10 C :   -0.143842
  11 C :   -0.009601
  12 S :    0.431549
  13 C :   -0.271307
  14 C :   -0.070596
  15 Br:    0.135985
  16 C :    0.088427
  17 O :   -0.139298
  18 C :   -0.102850
  19 C :    0.084768
  20 C :   -0.050336
  21 C :    0.006070
  22 C :   -0.005017
  23 C :    0.015635
  24 C :   -0.026614
  25 C :    0.018781
  26 C :   -0.030258
  27 C :    0.013903
  28 C :   -0.032562
  29 C :   -0.015003
  30 C :   -0.057428
  31 C :   -0.013776
  32 C :   -0.058802
  33 C :   -0.029438
  34 C :   -0.010355
  35 C :   -0.023838
  36 C :   -0.006732
  37 C :   -0.075037
  38 C :    0.029241
  39 N :    0.041206
  40 C :   -0.100839
  41 S :    0.443831
  42 C :   -0.217929
  43 N :    0.274200
  44 O :   -0.229692
  45 O :   -0.247309
  46 C :    0.006685
  47 C :   -0.105712
  48 C :   -0.055036
  49 C :   -0.020508
  50 C :   -0.082558
  51 C :   -0.135549
  52 C :   -0.050574
  53 C :   -0.025396
  54 C :   -0.195155
  55 S :    0.357759
  56 C :   -0.168908
  57 C :   -0.047402
  58 C :   -0.024394
  59 C :   -0.158379
  60 S :    0.400409
  61 C :   -0.037457
  62 C :   -0.090551
  63 C :   -0.013036
  64 C :   -0.052629
  65 N :    0.092861
  66 C :   -0.018911
  67 C :   -0.052919
  68 C :   -0.084401
  69 C :   -0.034904
  70 C :   -0.054677
  71 H :    0.040533
  72 H :    0.040943
  73 H :    0.038912
  74 H :    0.044322
  75 H :    0.030990
  76 H :    0.029268
  77 H :    0.028653
  78 H :    0.028474
  79 H :    0.018399
  80 H :    0.026541
  81 H :    0.029899
  82 H :    0.021878
  83 H :    0.028055
  84 H :    0.021067
  85 H :    0.022837
  86 H :    0.029149
  87 H :    0.020748
  88 H :    0.022200
  89 H :    0.024576
  90 H :    0.029108
  91 H :    0.024554
  92 H :    0.022501
  93 H :    0.094855
  94 H :    0.044756
  95 H :    0.016790
  96 H :    0.022237
  97 H :    0.027024
  98 H :    0.029852
  99 H :    0.030391
 100 H :    0.028323
 101 H :    0.030763
 102 H :    0.029364
 103 H :    0.037715
 104 H :    0.029584
 105 H :    0.039720
 106 H :    0.085173
 107 H :    0.028613
 108 H :    0.038489
 109 H :    0.040948
 110 H :    0.024070
 111 H :    0.019253
 112 H :    0.019823

  Mayer bond orders larger than 0.100000
B(  0-C ,  1-C ) :   1.6090 B(  0-C ,  6-C ) :   0.9975 B(  0-C , 18-C ) :   1.0852
B(  1-C ,  2-C ) :   1.1491 B(  1-C ,  4-C ) :   1.1394 B(  2-C ,  3-N ) :   2.9658
B(  4-C ,  5-N ) :   2.9807 B(  6-C ,  7-C ) :   1.2782 B(  6-C , 11-C ) :   1.4063
B(  7-C ,  8-C ) :   1.4192 B(  7-C , 16-C ) :   0.9574 B(  8-C ,  9-C ) :   1.2472
B(  8-C , 71-H ) :   1.0173 B(  9-C , 10-C ) :   1.3053 B(  9-C , 14-C ) :   1.1605
B( 10-C , 11-C ) :   1.3336 B( 10-C , 12-S ) :   1.0847 B( 11-C , 72-H ) :   0.9793
B( 12-S , 13-C ) :   1.0859 B( 13-C , 14-C ) :   1.6191 B( 13-C , 15-Br) :   1.0180
B( 14-C , 73-H ) :   1.0007 B( 16-C , 17-O ) :   2.1669 B( 16-C , 18-C ) :   0.9262
B( 17-O , 77-H ) :   0.1041 B( 18-C , 19-C ) :   1.5277 B( 19-C , 20-C ) :   1.1714
B( 19-C , 74-H ) :   0.9371 B( 20-C , 21-C ) :   1.2235 B( 20-C , 25-C ) :   1.3203
B( 21-C , 22-C ) :   1.3976 B( 21-C , 75-H ) :   1.0042 B( 22-C , 23-C ) :   1.3695
B( 22-C , 28-C ) :   0.9296 B( 23-C , 24-C ) :   1.3061 B( 23-C , 26-C ) :   1.0143
B( 24-C , 25-C ) :   1.4029 B( 24-C , 76-H ) :   0.9963 B( 25-C , 77-H ) :   0.9658
B( 26-C , 27-C ) :   1.3850 B( 26-C , 36-C ) :   1.3150 B( 27-C , 28-C ) :   0.9293
B( 27-C , 33-C ) :   1.3855 B( 28-C , 29-C ) :   1.0067 B( 28-C , 31-C ) :   1.0071
B( 29-C , 30-C ) :   1.1102 B( 29-C , 78-H ) :   0.9388 B( 29-C , 79-H ) :   0.9392
B( 30-C , 80-H ) :   0.9613 B( 30-C , 81-H ) :   0.9597 B( 30-C , 82-H ) :   0.9627
B( 31-C , 32-C ) :   1.1127 B( 31-C , 83-H ) :   0.9376 B( 31-C , 84-H ) :   0.9401
B( 32-C , 85-H ) :   0.9607 B( 32-C , 86-H ) :   0.9604 B( 32-C , 87-H ) :   0.9621
B( 33-C , 34-C ) :   1.2965 B( 33-C , 88-H ) :   1.0018 B( 34-C , 35-C ) :   1.3349
B( 34-C , 37-C ) :   1.0970 B( 35-C , 36-C ) :   1.4128 B( 35-C , 89-H ) :   0.9847
B( 36-C , 90-H ) :   0.9909 B( 37-C , 38-C ) :   1.6889 B( 37-C , 91-H ) :   0.9759
B( 38-C , 39-N ) :   1.1157 B( 38-C , 92-H ) :   0.9536 B( 39-N , 40-C ) :   1.2312
B( 39-N , 93-H ) :   0.9148 B( 40-C , 41-S ) :   1.1294 B( 40-C , 47-C ) :   1.3395
B( 41-S , 42-C ) :   1.0588 B( 42-C , 43-N ) :   0.9942 B( 42-C , 46-C ) :   1.4705
B( 43-N , 44-O ) :   1.5195 B( 43-N , 45-O ) :   1.4953 B( 44-O , 45-O ) :   0.2476
B( 46-C , 47-C ) :   1.2460 B( 46-C , 94-H ) :   1.0008 B( 47-C , 48-C ) :   1.0483
B( 48-C , 49-C ) :   1.6872 B( 48-C , 95-H ) :   0.9729 B( 49-C , 50-C ) :   1.1465
B( 49-C , 96-H ) :   0.9706 B( 50-C , 51-C ) :   1.5669 B( 50-C , 97-H ) :   0.9830
B( 51-C , 52-C ) :   1.1387 B( 51-C , 55-S ) :   1.0384 B( 52-C , 53-C ) :   1.5884
B( 52-C , 98-H ) :   0.9989 B( 53-C , 54-C ) :   1.1931 B( 53-C , 99-H ) :   0.9923
B( 54-C , 55-S ) :   1.0268 B( 54-C , 56-C ) :   1.5187 B( 56-C , 57-C ) :   1.1653
B( 56-C , 60-S ) :   1.0669 B( 57-C , 58-C ) :   1.6200 B( 57-C ,100-H ) :   0.9929
B( 58-C , 59-C ) :   1.1098 B( 58-C ,101-H ) :   0.9974 B( 59-C , 60-S ) :   1.0284
B( 59-C , 61-C ) :   1.6761 B( 61-C , 62-C ) :   1.0680 B( 61-C ,102-H ) :   0.9554
B( 62-C , 63-C ) :   1.4436 B( 62-C , 68-C ) :   1.2220 B( 63-C , 64-C ) :   1.1112
B( 63-C , 65-N ) :   1.2372 B( 64-C ,103-H ) :   0.9403 B( 64-C ,104-H ) :   0.9401
B( 64-C ,105-H ) :   0.9441 B( 65-N , 66-C ) :   1.2094 B( 65-N ,106-H ) :   0.9350
B( 66-C , 67-C ) :   1.1037 B( 66-C , 68-C ) :   1.4944 B( 67-C ,107-H ) :   0.9415
B( 67-C ,108-H ) :   0.9448 B( 67-C ,109-H ) :   0.9437 B( 68-C , 69-C ) :   1.0799
B( 69-C , 70-C ) :   1.9659 B( 69-C ,110-H ) :   0.9539 B( 70-C ,111-H ) :   0.9535
B( 70-C ,112-H ) :   0.9474

-----------------------------------------------------------------------------
         ABSORPTION SPECTRUM VIA TRANSITION ELECTRIC DIPOLE MOMENTS
-----------------------------------------------------------------------------
State   Energy  Wavelength   fosc         T2         TX        TY        TZ
        (cm-1)    (nm)                  (au**2)     (au)      (au)      (au)
-----------------------------------------------------------------------------
   0   15880.5    629.7   1.859377731  38.54600   3.07710   5.39162   0.08921
   1   17311.5    577.7   0.106405960   2.02352  -1.07539   0.54851   0.75245
   2   20058.7    498.5   0.129915328   2.13223   0.63386   1.01166   0.84083
   3   21814.7    458.4   1.234848775  18.63550  -0.39878   4.17589   1.01902
   4   24486.4    408.4   0.019915059   0.26775  -0.31490   0.04386  -0.40825
   5   24965.2    400.6   0.109308597   1.44144   0.04065   0.40873  -1.12815
   6   25849.1    386.9   0.005236998   0.06670   0.19444  -0.07640   0.15184
   7   27241.1    367.1   0.153093588   1.85015   0.36605   1.22899   0.45359
   8   27941.7    357.9   0.109685137   1.29232  -0.08276  -0.46020   1.03619
   9   28106.0    355.8   0.450429737   5.27599   1.11490  -0.56541   1.92699
  10   28891.4    346.1   0.359803683   4.09989  -0.23293  -1.74139  -1.00657
  11   29183.7    342.7   0.348874619   3.93554  -0.01862  -1.72614   0.97757
  12   30005.5    333.3   0.021061763   0.23108  -0.09363   0.11370  -0.45759
  13   30212.7    331.0   0.155263635   1.69182   0.15774  -0.96473   0.85804
  14   30508.2    327.8   0.046711723   0.50406   0.00836   0.33677  -0.62496
  15   31172.9    320.8   0.062470539   0.65974  -0.10988   0.79058  -0.15053
  16   31719.3    315.3   0.047509747   0.49310   0.10487   0.09793   0.68739
  17   32711.1    305.7   0.007754672   0.07804   0.02013   0.21947  -0.17168
  18   32752.4    305.3   0.003977891   0.03998   0.12993  -0.09460   0.11896
  19   33258.8    300.7   0.015791897   0.15632   0.03991  -0.32348   0.22380
  20   33290.9    300.4   0.000244504   0.00242  -0.03618  -0.02327  -0.02383
  21   33447.8    299.0   0.039151309   0.38535   0.31816  -0.06815   0.52866
  22   33779.3    296.0   0.058736444   0.57244  -0.02878  -0.44110   0.61404
  23   33856.3    295.4   0.618007648   6.00938  -0.20776  -1.46753   1.95258
  24   34377.9    290.9   0.047093303   0.45098   0.01432  -0.46981  -0.47964
  25   34808.3    287.3   0.034457370   0.32589  -0.05086   0.28744  -0.49060
  26   35345.2    282.9   0.006247512   0.05819  -0.03519  -0.23847   0.00919
  27   35837.5    279.0   0.001307190   0.01201  -0.09858   0.00987  -0.04683
  28   36295.4    275.5   0.124565382   1.12985   0.01728  -0.47773   0.94938
  29   36429.2    274.5   0.014253923   0.12881   0.06678  -0.35246  -0.01111
  30   36800.9    271.7   0.031112144   0.27832   0.06615  -0.16274  -0.49746
  31   37352.7    267.7   0.098637528   0.86935  -0.00528  -0.91472  -0.18058
  32   37578.3    266.1   0.044257545   0.38773  -0.01074   0.62258   0.00021
  33   37845.1    264.2   0.016723114   0.14547  -0.02679  -0.37410   0.06931
  34   37954.8    263.5   0.110483240   0.95831   0.02446  -0.96873   0.13884
  35   38054.4    262.8   0.003758802   0.03252   0.02445  -0.16543  -0.06746
  36   38380.0    260.6   0.138483131   1.18787   0.00934  -0.83876   0.69588
  37   39221.0    255.0   0.028058669   0.23552   0.03983  -0.46441  -0.13512
  38   39301.9    254.4   0.202780991   1.69859  -0.05621   1.03515   0.78987
  39   39678.4    252.0   0.106808463   0.88619   0.26626   0.20605   0.87911
  40   39930.2    250.4   0.020569768   0.16959  -0.19775  -0.35508  -0.06636
  41   40217.9    248.6   0.014566851   0.11924   0.11673  -0.26203  -0.19224

FINAL SINGLE POINT ENERGY     -6897.469363368419

DIPOLE MOMENT
-------------
                                X             Y             Z
Electronic contribution:    -42.24868    -304.29875      41.53009
Nuclear contribution   :     42.57925     307.00938     -41.62607
                        -----------------------------------------
Total Dipole Moment    :      0.33057       2.71062      -0.09598
                        -----------------------------------------
Magnitude (a.u.)       :      2.73239
Magnitude (Debye)      :      6.94519

Rotational constants in cm-1:     0.001756     0.000129     0.000127
Rotational constants in MHz :    52.657411     3.877366     3.811001

                             ****ORCA TERMINATED NORMALLY****
TOTAL RUN TIME: 0 days 0 hours 10 minutes 46 seconds 93 msec
