                         Program Version 4.2.0 -  RELEASE  -
|  1> # ORCA input file
|  2> # SCF done       -195.943268159092          0.000476158495
|  3> ! CAM-B3LYP def2-SVP def2/J RIJCOSX Grid4 TightSCF
|  4> %maxcore 5000
|  5> %tddft
|  6>     Mode sTDDFT
|  7>     Ethresh 5.0
|  8>     maxcore 5000
|  9> end
| 10>
| 11> %pal
| 12>   nprocs 6
| 13>   end
| 14> * xyz 0 1
| 15>    C       -3.86064        12.44055         9.85588
| 16>    C       -4.87124        12.94286        10.63180
| 17>    C       -4.69006        13.93717        11.61686
| 18>    N       -4.60501        14.74559        12.42713
| 19>    C       -6.21800        12.52123        10.59364
| 20>    N       -7.32646        12.22481        10.64143
| 21>    C       -2.45396        12.79831         9.96070
| 22>    C       -1.70522        11.94288         9.11683
| 23>    C       -0.33878        12.02802         8.99961
| 24>    C        0.32084        13.00522         9.75169
| 25>    C       -0.43669        13.86026        10.58874
| 26>    C       -1.81765        13.77396        10.70702
| 27>    S        0.57579        14.99978        11.42221
| 28>    C        1.98333        14.32013        10.64942
| 29>    C        1.71166        13.29355         9.80868
| 30>   Br        3.67742        15.03089        11.02413
| 31>    C       -2.61086        11.00470         8.42344
| 32>    O       -2.27799        10.15289         7.63090
| 33>    C       -3.98397        11.39035         8.85244
| 34>    C       -5.15839        11.01734         8.27838
| 35>    C       -5.43889         9.95555         7.35080
| 36>    C       -4.71138         8.74641         7.32938
| 37>    C       -5.02267         7.71565         6.47537
| 38>    C       -6.09319         7.89713         5.60279
| 39>    C       -6.83212         9.10756         5.63198
| 40>    C       -6.54253        10.12880         6.50028
| 41>    O       -7.81611         9.00584         4.70507
| 42>    C       -7.64712         7.76308         4.16474
| 43>    N       -6.64663         7.08289         4.66377
| 44>    C       -8.54268         7.32720         3.16585
| 45>    S       -9.80167         8.36661         2.60856
| 46>    C      -10.42624         7.16402         1.51656
| 47>    C       -9.65339         5.98071         1.59352
| 48>    C       -8.58202         6.07769         2.52693
| 49>    C       -7.70638         4.99785         2.73228
| 50>    C       -7.90981         3.85429         2.01199
| 51>    F       -7.09735         2.80138         2.17676
| 52>    C       -8.97017         3.75236         1.08420
| 53>    F       -9.12854         2.60829         0.40071
| 54>    C       -9.83413         4.79184         0.86994
| 55>    C      -11.54446         7.40359         0.71437
| 56>    C      -12.20760         8.60729         0.65454
| 57>    C      -13.33438         8.84315        -0.12550
| 58>    C      -13.96644        10.06938        -0.21654
| 59>    C      -15.12151        10.38120        -0.96329
| 60>    C      -15.50691        11.68936        -0.87606
| 61>    C      -14.66577        12.47423        -0.06252
| 62>    S      -13.38352        11.50175         0.60784
| 63>    C      -14.75517        13.83610         0.19615
| 64>    C      -15.73220        14.74203        -0.26420
| 65>    C      -15.52108        16.03093         0.13434
| 66>    C      -14.36318        16.20278         0.92481
| 67>    S      -13.56568        14.66849         1.16400
| 68>    C      -13.80373        17.36429         1.42427
| 69>    C      -14.37416        18.62971         1.32317
| 70>    C      -13.76775        19.82305         1.65467
| 71>    C      -14.58934        21.01576         1.96249
| 72>    O      -15.78018        21.14689         1.77360
| 73>    C      -13.65893        21.97797         2.58788
| 74>    C      -13.92241        23.19785         3.13858
| 75>    C      -12.86249        23.94308         3.70456
| 76>    C      -11.54458        23.40177         3.69113
| 77>    C      -10.49343        24.14728         4.25818
| 78>    C      -10.75824        25.37208         4.80531
| 79>    C      -12.04658        25.92183         4.82850
| 80>    C      -13.07910        25.20989         4.28324
| 81>    F       -9.75372        26.08736         5.34549
| 82>    C      -11.30032        22.13507         3.10867
| 83>    C      -12.34073        21.43712         2.56091
| 84>    C      -12.38580        20.14863         1.86912
| 85>    C      -11.29551        19.50033         1.33380
| 86>    C      -11.38270        18.44459         0.40501
| 87>    N      -11.39898        17.62256        -0.39740
| 88>    C       -9.96175        19.89211         1.55637
| 89>    N       -8.85448        20.14823         1.72378
| 90>    H        0.20336        11.36046         8.34839
| 91>    H       -2.35046        14.45213        11.35228
| 92>    H        2.45993        12.76123         9.25044
| 93>    H       -6.02637        11.62190         8.51750
| 94>    H       -3.90106         8.61884         8.02632
| 95>    H       -4.46815         6.79226         6.47639
| 96>    H       -7.12599        11.03572         6.51590
| 97>    H       -6.90052         5.08682         3.44182
| 98>    H      -10.63127         4.68038         0.15368
| 99>    H      -11.89692         6.58435         0.10305
|100>    H      -11.82899         9.43040         1.24869
|101>    H      -13.75096         8.02768        -0.70222
|102>    H      -15.63503         9.63510        -1.54353
|103>    H      -16.36108        12.10233        -1.38114
|104>    H      -16.55865        14.42862        -0.87629
|105>    H      -16.15733        16.85504        -0.13208
|106>    H      -12.85862        17.26381         1.93982
|107>    H      -15.41781        18.71059         1.04290
|108>    H      -14.92725        23.59306         3.14223
|109>    H       -9.48800        23.75602         4.25545
|110>    H      -12.19572        26.89236         5.27451
|111>    H      -14.08079        25.61278         4.28921
|112>    H      -10.29404        21.74713         3.11847
|113> *
|114>
|115>                          ****END OF INPUT****

CARTESIAN COORDINATES (ANGSTROEM)
---------------------------------
  C     -3.860640   12.440550    9.855880
  C     -4.871240   12.942860   10.631800
  C     -4.690060   13.937170   11.616860
  N     -4.605010   14.745590   12.427130
  C     -6.218000   12.521230   10.593640
  N     -7.326460   12.224810   10.641430
  C     -2.453960   12.798310    9.960700
  C     -1.705220   11.942880    9.116830
  C     -0.338780   12.028020    8.999610
  C      0.320840   13.005220    9.751690
  C     -0.436690   13.860260   10.588740
  C     -1.817650   13.773960   10.707020
  S      0.575790   14.999780   11.422210
  C      1.983330   14.320130   10.649420
  C      1.711660   13.293550    9.808680
  Br     3.677420   15.030890   11.024130
  C     -2.610860   11.004700    8.423440
  O     -2.277990   10.152890    7.630900
  C     -3.983970   11.390350    8.852440
  C     -5.158390   11.017340    8.278380
  C     -5.438890    9.955550    7.350800
  C     -4.711380    8.746410    7.329380
  C     -5.022670    7.715650    6.475370
  C     -6.093190    7.897130    5.602790
  C     -6.832120    9.107560    5.631980
  C     -6.542530   10.128800    6.500280
  O     -7.816110    9.005840    4.705070
  C     -7.647120    7.763080    4.164740
  N     -6.646630    7.082890    4.663770
  C     -8.542680    7.327200    3.165850
  S     -9.801670    8.366610    2.608560
  C    -10.426240    7.164020    1.516560
  C     -9.653390    5.980710    1.593520
  C     -8.582020    6.077690    2.526930
  C     -7.706380    4.997850    2.732280
  C     -7.909810    3.854290    2.011990
  F     -7.097350    2.801380    2.176760
  C     -8.970170    3.752360    1.084200
  F     -9.128540    2.608290    0.400710
  C     -9.834130    4.791840    0.869940
  C    -11.544460    7.403590    0.714370
  C    -12.207600    8.607290    0.654540
  C    -13.334380    8.843150   -0.125500
  C    -13.966440   10.069380   -0.216540
  C    -15.121510   10.381200   -0.963290
  C    -15.506910   11.689360   -0.876060
  C    -14.665770   12.474230   -0.062520
  S    -13.383520   11.501750    0.607840
  C    -14.755170   13.836100    0.196150
  C    -15.732200   14.742030   -0.264200
  C    -15.521080   16.030930    0.134340
  C    -14.363180   16.202780    0.924810
  S    -13.565680   14.668490    1.164000
  C    -13.803730   17.364290    1.424270
  C    -14.374160   18.629710    1.323170
  C    -13.767750   19.823050    1.654670
  C    -14.589340   21.015760    1.962490
  O    -15.780180   21.146890    1.773600
  C    -13.658930   21.977970    2.587880
  C    -13.922410   23.197850    3.138580
  C    -12.862490   23.943080    3.704560
  C    -11.544580   23.401770    3.691130
  C    -10.493430   24.147280    4.258180
  C    -10.758240   25.372080    4.805310
  C    -12.046580   25.921830    4.828500
  C    -13.079100   25.209890    4.283240
  F     -9.753720   26.087360    5.345490
  C    -11.300320   22.135070    3.108670
  C    -12.340730   21.437120    2.560910
  C    -12.385800   20.148630    1.869120
  C    -11.295510   19.500330    1.333800
  C    -11.382700   18.444590    0.405010
  N    -11.398980   17.622560   -0.397400
  C     -9.961750   19.892110    1.556370
  N     -8.854480   20.148230    1.723780
  H      0.203360   11.360460    8.348390
  H     -2.350460   14.452130   11.352280
  H      2.459930   12.761230    9.250440
  H     -6.026370   11.621900    8.517500
  H     -3.901060    8.618840    8.026320
  H     -4.468150    6.792260    6.476390
  H     -7.125990   11.035720    6.515900
  H     -6.900520    5.086820    3.441820
  H    -10.631270    4.680380    0.153680
  H    -11.896920    6.584350    0.103050
  H    -11.828990    9.430400    1.248690
  H    -13.750960    8.027680   -0.702220
  H    -15.635030    9.635100   -1.543530
  H    -16.361080   12.102330   -1.381140
  H    -16.558650   14.428620   -0.876290
  H    -16.157330   16.855040   -0.132080
  H    -12.858620   17.263810    1.939820
  H    -15.417810   18.710590    1.042900
  H    -14.927250   23.593060    3.142230
  H     -9.488000   23.756020    4.255450
  H    -12.195720   26.892360    5.274510
  H    -14.080790   25.612780    4.289210
  H    -10.294040   21.747130    3.118470

 Total Charge           Charge          ....    0
 Multiplicity           Mult            ....    1
 Number of Electrons    NEL             ....  562
 Basis Dimension        Dim             .... 1199

ORBITAL ENERGIES
----------------

  NO   OCC          E(Eh)            E(eV)
   0   2.0000    -482.886171    -13140.0007
   1   2.0000     -88.990322     -2421.5498
   2   2.0000     -88.976465     -2421.1727
   3   2.0000     -88.969340     -2420.9788
   4   2.0000     -88.964013     -2420.8339
   5   2.0000     -62.563882     -1702.4498
   6   2.0000     -56.397835     -1534.6631
   7   2.0000     -56.395113     -1534.5890
   8   2.0000     -56.395083     -1534.5882
   9   2.0000     -24.796708      -674.7527
  10   2.0000     -24.793857      -674.6752
  11   2.0000     -24.776517      -674.2033
  12   2.0000     -19.311118      -525.4822
  13   2.0000     -19.218013      -522.9487
  14   2.0000     -19.198258      -522.4111
  15   2.0000     -14.420613      -392.4048
  16   2.0000     -14.415794      -392.2737
  17   2.0000     -14.415618      -392.2689
  18   2.0000     -14.401548      -391.8860
  19   2.0000     -14.399636      -391.8340
  20   2.0000     -10.392210      -282.7864
  21   2.0000     -10.380044      -282.4554
  22   2.0000     -10.378009      -282.4000
  23   2.0000     -10.370584      -282.1979
  24   2.0000     -10.359953      -281.9086
  25   2.0000     -10.359248      -281.8895
  26   2.0000     -10.349631      -281.6278
  27   2.0000     -10.345089      -281.5042
  28   2.0000     -10.343414      -281.4586
  29   2.0000     -10.341966      -281.4192
  30   2.0000     -10.339334      -281.3476
  31   2.0000     -10.333031      -281.1761
  32   2.0000     -10.331495      -281.1343
  33   2.0000     -10.330169      -281.0982
  34   2.0000     -10.328519      -281.0533
  35   2.0000     -10.328056      -281.0407
  36   2.0000     -10.326820      -281.0071
  37   2.0000     -10.326535      -280.9993
  38   2.0000     -10.325545      -280.9724
  39   2.0000     -10.319020      -280.7948
  40   2.0000     -10.318758      -280.7877
  41   2.0000     -10.318714      -280.7865
  42   2.0000     -10.318404      -280.7781
  43   2.0000     -10.312224      -280.6099
  44   2.0000     -10.311817      -280.5988
  45   2.0000     -10.311272      -280.5840
  46   2.0000     -10.309795      -280.5438
  47   2.0000     -10.309328      -280.5311
  48   2.0000     -10.309160      -280.5265
  49   2.0000     -10.309017      -280.5226
  50   2.0000     -10.308935      -280.5204
  51   2.0000     -10.308707      -280.5142
  52   2.0000     -10.306765      -280.4613
  53   2.0000     -10.305138      -280.4171
  54   2.0000     -10.304620      -280.4030
  55   2.0000     -10.303392      -280.3696
  56   2.0000     -10.303159      -280.3632
  57   2.0000     -10.303024      -280.3595
  58   2.0000     -10.302134      -280.3353
  59   2.0000     -10.300426      -280.2888
  60   2.0000     -10.298939      -280.2484
  61   2.0000     -10.298616      -280.2396
  62   2.0000     -10.297996      -280.2227
  63   2.0000     -10.297479      -280.2086
  64   2.0000     -10.294547      -280.1289
  65   2.0000     -10.293551      -280.1018
  66   2.0000     -10.292924      -280.0847
  67   2.0000     -10.292891      -280.0838
  68   2.0000     -10.289647      -279.9955
  69   2.0000     -10.287947      -279.9493
  70   2.0000     -10.287636      -279.9408
  71   2.0000     -10.287400      -279.9344
  72   2.0000     -10.285148      -279.8731
  73   2.0000     -10.285046      -279.8703
  74   2.0000     -10.284462      -279.8544
  75   2.0000     -10.283360      -279.8245
  76   2.0000     -10.278785      -279.7000
  77   2.0000     -10.278707      -279.6978
  78   2.0000     -10.276883      -279.6482
  79   2.0000      -8.793313      -239.2782
  80   2.0000      -8.084929      -220.0021
  81   2.0000      -8.072429      -219.6619
  82   2.0000      -8.065788      -219.4812
  83   2.0000      -8.060572      -219.3393
  84   2.0000      -6.629614      -180.4010
  85   2.0000      -6.615050      -180.0047
  86   2.0000      -6.614843      -179.9990
  87   2.0000      -6.053915      -164.7354
  88   2.0000      -6.049854      -164.6249
  89   2.0000      -6.047661      -164.5652
  90   2.0000      -6.042132      -164.4148
  91   2.0000      -6.037824      -164.2975
  92   2.0000      -6.035416      -164.2320
  93   2.0000      -6.033659      -164.1842
  94   2.0000      -6.031401      -164.1228
  95   2.0000      -6.030215      -164.0905
  96   2.0000      -6.026818      -163.9981
  97   2.0000      -6.026065      -163.9776
  98   2.0000      -6.021693      -163.8586
  99   2.0000      -2.745498       -74.7088
 100   2.0000      -2.741403       -74.5974
 101   2.0000      -2.741231       -74.5927
 102   2.0000      -2.729657       -74.2777
 103   2.0000      -2.729651       -74.2776
 104   2.0000      -1.318083       -35.8669
 105   2.0000      -1.302716       -35.4487
 106   2.0000      -1.291185       -35.1349
 107   2.0000      -1.240202       -33.7476
 108   2.0000      -1.134254       -30.8646
 109   2.0000      -1.112477       -30.2720
 110   2.0000      -1.035184       -28.1688
 111   2.0000      -1.023960       -27.8634
 112   2.0000      -1.021736       -27.8028
 113   2.0000      -1.017928       -27.6992
 114   2.0000      -1.014088       -27.5947
 115   2.0000      -1.004499       -27.3338
 116   2.0000      -0.995196       -27.0807
 117   2.0000      -0.994363       -27.0580
 118   2.0000      -0.990801       -26.9611
 119   2.0000      -0.987527       -26.8720
 120   2.0000      -0.979590       -26.6560
 121   2.0000      -0.970682       -26.4136
 122   2.0000      -0.963757       -26.2252
 123   2.0000      -0.958862       -26.0920
 124   2.0000      -0.943592       -25.6764
 125   2.0000      -0.937030       -25.4979
 126   2.0000      -0.921104       -25.0645
 127   2.0000      -0.912149       -24.8208
 128   2.0000      -0.909288       -24.7430
 129   2.0000      -0.903672       -24.5902
 130   2.0000      -0.895907       -24.3789
 131   2.0000      -0.886936       -24.1348
 132   2.0000      -0.882970       -24.0268
 133   2.0000      -0.875375       -23.8202
 134   2.0000      -0.871579       -23.7169
 135   2.0000      -0.869456       -23.6591
 136   2.0000      -0.864243       -23.5172
 137   2.0000      -0.862384       -23.4667
 138   2.0000      -0.851332       -23.1659
 139   2.0000      -0.848463       -23.0879
 140   2.0000      -0.842206       -22.9176
 141   2.0000      -0.835247       -22.7282
 142   2.0000      -0.829906       -22.5829
 143   2.0000      -0.823402       -22.4059
 144   2.0000      -0.816911       -22.2293
 145   2.0000      -0.800950       -21.7950
 146   2.0000      -0.783824       -21.3289
 147   2.0000      -0.767286       -20.8789
 148   2.0000      -0.760375       -20.6909
 149   2.0000      -0.755007       -20.5448
 150   2.0000      -0.748952       -20.3800
 151   2.0000      -0.747875       -20.3507
 152   2.0000      -0.740969       -20.1628
 153   2.0000      -0.727534       -19.7972
 154   2.0000      -0.714805       -19.4508
 155   2.0000      -0.711145       -19.3512
 156   2.0000      -0.705831       -19.2066
 157   2.0000      -0.701508       -19.0890
 158   2.0000      -0.697470       -18.9791
 159   2.0000      -0.694096       -18.8873
 160   2.0000      -0.691141       -18.8069
 161   2.0000      -0.683953       -18.6113
 162   2.0000      -0.680567       -18.5192
 163   2.0000      -0.668643       -18.1947
 164   2.0000      -0.666680       -18.1413
 165   2.0000      -0.664805       -18.0903
 166   2.0000      -0.658624       -17.9221
 167   2.0000      -0.655708       -17.8427
 168   2.0000      -0.646705       -17.5977
 169   2.0000      -0.639164       -17.3925
 170   2.0000      -0.633442       -17.2368
 171   2.0000      -0.631259       -17.1774
 172   2.0000      -0.628785       -17.1101
 173   2.0000      -0.621195       -16.9036
 174   2.0000      -0.620919       -16.8961
 175   2.0000      -0.620424       -16.8826
 176   2.0000      -0.616424       -16.7738
 177   2.0000      -0.613901       -16.7051
 178   2.0000      -0.606760       -16.5108
 179   2.0000      -0.601799       -16.3758
 180   2.0000      -0.599629       -16.3167
 181   2.0000      -0.593930       -16.1616
 182   2.0000      -0.590913       -16.0796
 183   2.0000      -0.584929       -15.9167
 184   2.0000      -0.583122       -15.8676
 185   2.0000      -0.582556       -15.8522
 186   2.0000      -0.574025       -15.6200
 187   2.0000      -0.567145       -15.4328
 188   2.0000      -0.563293       -15.3280
 189   2.0000      -0.557457       -15.1692
 190   2.0000      -0.553561       -15.0632
 191   2.0000      -0.551486       -15.0067
 192   2.0000      -0.548836       -14.9346
 193   2.0000      -0.547844       -14.9076
 194   2.0000      -0.544860       -14.8264
 195   2.0000      -0.544424       -14.8145
 196   2.0000      -0.542661       -14.7666
 197   2.0000      -0.540788       -14.7156
 198   2.0000      -0.538393       -14.6504
 199   2.0000      -0.535779       -14.5793
 200   2.0000      -0.534413       -14.5421
 201   2.0000      -0.531514       -14.4632
 202   2.0000      -0.523231       -14.2378
 203   2.0000      -0.521313       -14.1856
 204   2.0000      -0.519785       -14.1441
 205   2.0000      -0.518761       -14.1162
 206   2.0000      -0.517045       -14.0695
 207   2.0000      -0.516502       -14.0547
 208   2.0000      -0.514763       -14.0074
 209   2.0000      -0.512863       -13.9557
 210   2.0000      -0.512631       -13.9494
 211   2.0000      -0.509032       -13.8515
 212   2.0000      -0.506447       -13.7811
 213   2.0000      -0.503836       -13.7101
 214   2.0000      -0.502759       -13.6808
 215   2.0000      -0.498609       -13.5678
 216   2.0000      -0.495373       -13.4798
 217   2.0000      -0.493868       -13.4388
 218   2.0000      -0.490645       -13.3511
 219   2.0000      -0.488996       -13.3063
 220   2.0000      -0.488344       -13.2885
 221   2.0000      -0.485374       -13.2077
 222   2.0000      -0.482659       -13.1338
 223   2.0000      -0.479766       -13.0551
 224   2.0000      -0.478177       -13.0119
 225   2.0000      -0.475484       -12.9386
 226   2.0000      -0.471057       -12.8181
 227   2.0000      -0.466458       -12.6930
 228   2.0000      -0.466222       -12.6865
 229   2.0000      -0.463006       -12.5990
 230   2.0000      -0.459250       -12.4968
 231   2.0000      -0.459049       -12.4914
 232   2.0000      -0.452887       -12.3237
 233   2.0000      -0.450793       -12.2667
 234   2.0000      -0.448598       -12.2070
 235   2.0000      -0.448269       -12.1980
 236   2.0000      -0.447354       -12.1731
 237   2.0000      -0.445845       -12.1321
 238   2.0000      -0.444150       -12.0859
 239   2.0000      -0.443776       -12.0757
 240   2.0000      -0.441838       -12.0230
 241   2.0000      -0.439805       -11.9677
 242   2.0000      -0.437112       -11.8944
 243   2.0000      -0.435736       -11.8570
 244   2.0000      -0.435281       -11.8446
 245   2.0000      -0.430619       -11.7177
 246   2.0000      -0.428342       -11.6558
 247   2.0000      -0.427417       -11.6306
 248   2.0000      -0.423742       -11.5306
 249   2.0000      -0.423296       -11.5185
 250   2.0000      -0.420658       -11.4467
 251   2.0000      -0.418740       -11.3945
 252   2.0000      -0.415819       -11.3150
 253   2.0000      -0.412247       -11.2178
 254   2.0000      -0.410981       -11.1834
 255   2.0000      -0.408102       -11.1050
 256   2.0000      -0.403903       -10.9908
 257   2.0000      -0.397032       -10.8038
 258   2.0000      -0.389443       -10.5973
 259   2.0000      -0.387666       -10.5489
 260   2.0000      -0.377972       -10.2852
 261   2.0000      -0.375509       -10.2181
 262   2.0000      -0.375380       -10.2146
 263   2.0000      -0.371132       -10.0990
 264   2.0000      -0.366490        -9.9727
 265   2.0000      -0.356062        -9.6889
 266   2.0000      -0.346266        -9.4224
 267   2.0000      -0.345559        -9.4031
 268   2.0000      -0.343659        -9.3514
 269   2.0000      -0.342022        -9.3069
 270   2.0000      -0.328547        -8.9402
 271   2.0000      -0.324470        -8.8293
 272   2.0000      -0.322948        -8.7879
 273   2.0000      -0.316494        -8.6122
 274   2.0000      -0.313868        -8.5408
 275   2.0000      -0.302631        -8.2350
 276   2.0000      -0.297616        -8.0985
 277   2.0000      -0.292960        -7.9719
 278   2.0000      -0.286664        -7.8005
 279   2.0000      -0.264067        -7.1856
 280   2.0000      -0.222674        -6.0593
 281   0.0000      -0.124366        -3.3842
 282   0.0000      -0.090949        -2.4748
 283   0.0000      -0.077315        -2.1038
 284   0.0000      -0.059224        -1.6116
 285   0.0000      -0.052074        -1.4170

MULLIKEN ATOMIC CHARGES
-----------------------
   0 C :    0.289818
   1 C :   -0.337939
   2 C :   -0.186320
   3 N :    0.151338
   4 C :   -0.204074
   5 N :    0.159221
   6 C :    0.018443
   7 C :   -0.020717
   8 C :   -0.068503
   9 C :    0.116770
  10 C :   -0.091954
  11 C :   -0.018116
  12 S :    0.188328
  13 C :   -0.124211
  14 C :    0.041872
  15 Br:    0.025865
  16 C :    0.143819
  17 O :   -0.142705
  18 C :   -0.064889
  19 C :   -0.033221
  20 C :    0.070957
  21 C :    0.057696
  22 C :   -0.055692
  23 C :    0.050985
  24 C :    0.244752
  25 C :   -0.139651
  26 O :   -0.205754
  27 C :    0.129375
  28 N :   -0.061094
  29 C :   -0.167725
  30 S :    0.207382
  31 C :   -0.067870
  32 C :    0.120442
  33 C :    0.108446
  34 C :   -0.106222
  35 C :    0.248202
  36 F :   -0.172737
  37 C :    0.234562
  38 F :   -0.175289
  39 C :   -0.122325
  40 C :   -0.008044
  41 C :   -0.002189
  42 C :    0.006162
  43 C :   -0.029761
  44 C :    0.047001
  45 C :    0.022772
  46 C :   -0.028069
  47 S :    0.100582
  48 C :   -0.060385
  49 C :    0.034856
  50 C :    0.028473
  51 C :   -0.044445
  52 S :    0.140368
  53 C :    0.036030
  54 C :    0.029155
  55 C :   -0.136245
  56 C :    0.143037
  57 O :   -0.156203
  58 C :    0.004201
  59 C :   -0.088301
  60 C :    0.103731
  61 C :    0.104440
  62 C :   -0.102819
  63 C :    0.303749
  64 C :   -0.028582
  65 C :   -0.013770
  66 F :   -0.193349
  67 C :   -0.095025
  68 C :    0.046790
  69 C :    0.282763
  70 C :   -0.343694
  71 C :   -0.224745
  72 N :    0.162022
  73 C :   -0.177203
  74 N :    0.137384
  75 H :   -0.008808
  76 H :   -0.003949
  77 H :   -0.002365
  78 H :    0.028443
  79 H :   -0.002695
  80 H :   -0.014907
  81 H :   -0.005729
  82 H :    0.010144
  83 H :   -0.009778
  84 H :   -0.005384
  85 H :    0.014707
  86 H :   -0.006304
  87 H :   -0.002592
  88 H :   -0.004180
  89 H :   -0.005293
  90 H :    0.003400
  91 H :    0.009096
  92 H :    0.006648
  93 H :   -0.016917
  94 H :   -0.004493
  95 H :   -0.000960
  96 H :   -0.012680
  97 H :   -0.007351
Sum of atomic charges:   -0.0000000

LOEWDIN ATOMIC CHARGES
----------------------
   0 C :    0.076197
   1 C :   -0.138803
   2 C :   -0.018080
   3 N :   -0.051802
   4 C :   -0.025627
   5 N :   -0.049903
   6 C :   -0.021956
   7 C :   -0.050849
   8 C :    0.022724
   9 C :   -0.031606
  10 C :   -0.143132
  11 C :   -0.009000
  12 S :    0.434182
  13 C :   -0.270724
  14 C :   -0.070155
  15 Br:    0.138690
  16 C :    0.082619
  17 O :   -0.134247
  18 C :   -0.093642
  19 C :    0.080768
  20 C :   -0.041035
  21 C :    0.020408
  22 C :   -0.024081
  23 C :   -0.009519
  24 C :    0.027403
  25 C :   -0.015126
  26 O :   -0.015330
  27 C :    0.059304
  28 N :   -0.108917
  29 C :   -0.210875
  30 S :    0.508858
  31 C :   -0.160594
  32 C :   -0.040619
  33 C :   -0.022150
  34 C :   -0.029049
  35 C :    0.067298
  36 F :   -0.050031
  37 C :    0.066307
  38 F :   -0.053520
  39 C :   -0.041378
  40 C :   -0.027544
  41 C :   -0.031536
  42 C :   -0.033484
  43 C :   -0.148876
  44 C :   -0.018430
  45 C :   -0.032417
  46 C :   -0.153304
  47 S :    0.398218
  48 C :   -0.188334
  49 C :   -0.007845
  50 C :   -0.038598
  51 C :   -0.104457
  52 S :    0.419352
  53 C :   -0.061606
  54 C :    0.056197
  55 C :   -0.104397
  56 C :    0.077142
  57 O :   -0.159284
  58 C :   -0.057043
  59 C :    0.029007
  60 C :   -0.020266
  61 C :    0.002271
  62 C :   -0.043228
  63 C :    0.090882
  64 C :   -0.040608
  65 C :    0.002759
  66 F :   -0.067795
  67 C :    0.006326
  68 C :   -0.014910
  69 C :    0.066379
  70 C :   -0.152228
  71 C :   -0.024405
  72 N :   -0.062001
  73 C :   -0.019704
  74 N :   -0.064552
  75 H :    0.041306
  76 H :    0.041461
  77 H :    0.039218
  78 H :    0.046155
  79 H :    0.034166
  80 H :    0.039071
  81 H :    0.041121
  82 H :    0.045860
  83 H :    0.039990
  84 H :    0.036467
  85 H :    0.018702
  86 H :    0.037572
  87 H :    0.037910
  88 H :    0.035604
  89 H :    0.035935
  90 H :    0.038171
  91 H :    0.034470
  92 H :    0.039360
  93 H :    0.037704
  94 H :    0.042299
  95 H :    0.040171
  96 H :    0.034324
  97 H :    0.038281

  Mayer bond orders larger than 0.100000
B(  0-C ,  1-C ) :   1.6439 B(  0-C ,  6-C ) :   1.0101 B(  0-C , 18-C ) :   1.0543
B(  1-C ,  2-C ) :   1.1389 B(  1-C ,  4-C ) :   1.1388 B(  2-C ,  3-N ) :   2.9753
B(  4-C ,  5-N ) :   2.9944 B(  6-C ,  7-C ) :   1.2713 B(  6-C , 11-C ) :   1.4044
B(  7-C ,  8-C ) :   1.4237 B(  7-C , 16-C ) :   0.9445 B(  8-C ,  9-C ) :   1.2485
B(  8-C , 75-H ) :   1.0163 B(  9-C , 10-C ) :   1.3026 B(  9-C , 14-C ) :   1.1645
B( 10-C , 11-C ) :   1.3360 B( 10-C , 12-S ) :   1.0854 B( 11-C , 76-H ) :   0.9802
B( 12-S , 13-C ) :   1.0872 B( 13-C , 14-C ) :   1.6164 B( 13-C , 15-Br) :   1.0204
B( 14-C , 77-H ) :   1.0001 B( 16-C , 17-O ) :   2.2277 B( 16-C , 18-C ) :   0.9301
B( 18-C , 19-C ) :   1.6191 B( 19-C , 20-C ) :   1.1153 B( 19-C , 78-H ) :   0.9506
B( 20-C , 21-C ) :   1.3136 B( 20-C , 25-C ) :   1.2601 B( 21-C , 22-C ) :   1.4232
B( 21-C , 79-H ) :   0.9774 B( 22-C , 23-C ) :   1.2781 B( 22-C , 80-H ) :   1.0201
B( 23-C , 24-C ) :   1.2418 B( 23-C , 28-N ) :   1.3144 B( 24-C , 25-C ) :   1.3424
B( 24-C , 26-O ) :   1.0861 B( 25-C , 81-H ) :   1.0278 B( 26-O , 27-C ) :   1.1910
B( 27-C , 28-N ) :   1.6936 B( 27-C , 29-C ) :   1.1169 B( 29-C , 30-S ) :   1.1513
B( 29-C , 31-C ) :   0.1160 B( 29-C , 33-C ) :   1.3604 B( 30-S , 31-C ) :   1.1381
B( 31-C , 32-C ) :   1.2769 B( 31-C , 40-C ) :   1.2246 B( 32-C , 33-C ) :   1.2186
B( 32-C , 39-C ) :   1.1781 B( 33-C , 34-C ) :   1.1987 B( 34-C , 35-C ) :   1.4475
B( 34-C , 39-C ) :   0.1157 B( 34-C , 82-H ) :   0.9939 B( 35-C , 36-F ) :   1.1311
B( 35-C , 37-C ) :   1.1627 B( 37-C , 38-F ) :   1.1298 B( 37-C , 39-C ) :   1.4927
B( 39-C , 83-H ) :   0.9990 B( 40-C , 41-C ) :   1.5394 B( 40-C , 84-H ) :   0.9775
B( 41-C , 42-C ) :   1.2166 B( 41-C , 85-H ) :   0.9695 B( 42-C , 43-C ) :   1.4990
B( 42-C , 86-H ) :   0.9866 B( 43-C , 44-C ) :   1.1721 B( 43-C , 47-S ) :   1.0419
B( 44-C , 45-C ) :   1.5526 B( 44-C , 87-H ) :   1.0006 B( 45-C , 46-C ) :   1.2179
B( 45-C , 88-H ) :   0.9952 B( 46-C , 47-S ) :   1.0775 B( 46-C , 48-C ) :   1.4431
B( 48-C , 49-C ) :   1.2240 B( 48-C , 52-S ) :   1.0598 B( 49-C , 50-C ) :   1.5542
B( 49-C , 89-H ) :   0.9931 B( 50-C , 51-C ) :   1.2018 B( 50-C , 90-H ) :   0.9895
B( 51-C , 52-S ) :   1.0945 B( 51-C , 53-C ) :   1.4599 B( 53-C , 54-C ) :   1.2646
B( 53-C , 91-H ) :   0.9445 B( 54-C , 55-C ) :   1.5137 B( 54-C , 92-H ) :   0.9458
B( 55-C , 56-C ) :   0.9597 B( 55-C , 69-C ) :   1.0971 B( 56-C , 57-O ) :   2.2523
B( 56-C , 58-C ) :   0.9188 B( 58-C , 59-C ) :   1.4776 B( 58-C , 68-C ) :   1.2179
B( 59-C , 60-C ) :   1.1806 B( 59-C , 93-H ) :   1.0162 B( 60-C , 61-C ) :   1.2630
B( 60-C , 65-C ) :   1.2374 B( 61-C , 62-C ) :   1.2031 B( 61-C , 67-C ) :   1.1935
B( 62-C , 63-C ) :   1.4373 B( 62-C , 94-H ) :   1.0075 B( 63-C , 64-C ) :   1.2594
B( 63-C , 66-F ) :   1.0860 B( 64-C , 65-C ) :   1.4556 B( 64-C , 95-H ) :   0.9922
B( 65-C , 96-H ) :   0.9971 B( 67-C , 68-C ) :   1.4682 B( 67-C , 97-H ) :   0.9933
B( 68-C , 69-C ) :   0.9912 B( 69-C , 70-C ) :   1.5930 B( 70-C , 71-C ) :   1.1651
B( 70-C , 73-C ) :   1.1408 B( 71-C , 72-N ) :   3.0171 B( 73-C , 74-N ) :   2.9716

-----------------------------------------------------------------------------
         ABSORPTION SPECTRUM VIA TRANSITION ELECTRIC DIPOLE MOMENTS
-----------------------------------------------------------------------------
State   Energy  Wavelength   fosc         T2         TX        TY        TZ
        (cm-1)    (nm)                  (au**2)     (au)      (au)      (au)
-----------------------------------------------------------------------------
   0    8892.4   1124.6   1.103397935  40.84954  -2.40389   5.81027  -1.14524
   1   16259.6    615.0   0.122203606   2.47429  -0.74746  -1.19866  -0.69196
   2   18078.6    553.1   1.808209566  32.92756   3.59527   3.15111   3.17365
   3   20481.0    488.3   0.109032610   1.75259  -0.95191   0.87484   0.28479
   4   22584.8    442.8   0.004683382   0.06827   0.24919   0.04690   0.06304
   5   24076.1    415.3   0.486039634   6.64601   0.15806  -2.12091  -1.45697
   6   24709.4    404.7   0.084077164   1.12019   0.42902  -0.83666  -0.48593
   7   25408.5    393.6   0.085864049   1.11252  -0.27948  -0.73927  -0.69848
   8   25816.4    387.3   0.010250696   0.13072   0.00139  -0.33014  -0.14738
   9   26267.2    380.7   0.018671323   0.23401   0.06465   0.35059   0.32699
  10   26781.7    373.4   0.017873432   0.21971  -0.38981  -0.25816  -0.03334
  11   27310.2    366.2   0.038561998   0.46485  -0.05448  -0.58058  -0.35327
  12   27656.1    361.6   0.135599802   1.61415   1.21749   0.36005   0.04720
  13   28047.2    356.5   0.059677669   0.70048   0.81820   0.16387   0.06466
  14   28669.0    348.8   0.059454453   0.68273   0.59182   0.54320   0.19343
  15   29023.4    344.5   0.038303444   0.43448  -0.27766  -0.34344  -0.48931
  16   29772.2    335.9   0.046213226   0.51101  -0.70810   0.01372  -0.09703
  17   30023.6    333.1   0.010825396   0.11870  -0.33814  -0.06360   0.01785
  18   30489.5    328.0   0.055241601   0.59647   0.06990  -0.69795  -0.32319
  19   30880.1    323.8   0.053474045   0.57008   0.11555   0.74577   0.02365
  20   31288.9    319.6   0.164707859   1.73301  -1.29344   0.10596   0.22088
  21   31404.5    318.4   0.031690240   0.33221  -0.11811   0.36556   0.42968
  22   31599.4    316.5   0.019711997   0.20537   0.08443   0.02731   0.44440
  23   31833.0    314.1   0.145078497   1.50038  -0.03604  -1.06586  -0.60252
  24   32773.3    305.1   0.278396763   2.79653   1.20156   1.07941   0.43322
  25   32872.7    304.2   0.268162309   2.68558   1.55209   0.14703   0.50495
  26   33257.0    300.7   0.086594778   0.85721   0.50742  -0.57816  -0.51523
  27   33411.4    299.3   0.273878427   2.69860  -1.57226  -0.47581  -0.01463
  28   33502.7    298.5   0.010179515   0.10003   0.28658  -0.08592  -0.10255
  29   33765.3    296.2   0.132762400   1.29443  -0.31109   0.86307   0.67288
  30   33936.9    294.7   0.012090783   0.11729  -0.01093  -0.27427  -0.20480
  31   34061.0    293.6   0.006634515   0.06413  -0.10055  -0.15501  -0.17316
  32   34285.0    291.7   0.005420299   0.05205   0.16264  -0.12280   0.10254
  33   34778.7    287.5   0.084839207   0.80308  -0.38629  -0.39237  -0.70704
  34   35118.4    284.8   0.028670910   0.26877   0.00925   0.42883   0.29119
  35   35485.7    281.8   0.187454592   1.73907   1.12270  -0.35660  -0.59284
  36   35676.8    280.3   0.067440875   0.62232  -0.40739   0.66420   0.12325
  37   36169.0    276.5   0.367144785   3.34177  -0.29685   1.60246   0.82811
  38   36802.9    271.7   0.191512959   1.71313  -0.34965   1.17327   0.46294
  39   36908.6    270.9   0.023560224   0.21015  -0.23705   0.21274  -0.32969
  40   37199.3    268.8   0.037906733   0.33547   0.37788  -0.39382  -0.19386
  41   37632.4    265.7   0.123747110   1.08255  -0.67690   0.65680   0.43929
  42   37888.7    263.9   0.062563438   0.54361   0.17838  -0.61122  -0.37175
  43   38155.0    262.1   0.012404318   0.10703   0.21480   0.20807   0.13265
  44   38305.9    261.1   0.057536050   0.49448   0.47730   0.39974   0.32691
  45   38587.6    259.2   0.036341637   0.31005   0.47662   0.28458  -0.04358
  46   38871.8    257.3   0.051799796   0.43870   0.03633  -0.50887  -0.42241
  47   38985.9    256.5   0.072153388   0.60929  -0.69731   0.32214  -0.13885
  48   39081.6    255.9   0.020047505   0.16887   0.30348  -0.26670   0.07513
  49   39451.0    253.5   0.019719018   0.16455  -0.38384   0.10574   0.07772
  50   39927.1    250.5   0.012588457   0.10380  -0.18952   0.02557   0.25928
  51   40010.0    249.9   0.172405317   1.41859   0.05483  -0.98439  -0.66825
  52   40147.2    249.1   0.004968309   0.04074   0.08437   0.18333   0.00336

FINAL SINGLE POINT ENERGY     -7223.420138006613

DIPOLE MOMENT
-------------
                                X             Y             Z
Electronic contribution:    148.50180      -5.54166      76.57022
Nuclear contribution   :   -150.03791       3.09516     -78.13708
                        -----------------------------------------
Total Dipole Moment    :     -1.53612      -2.44650      -1.56686
                        -----------------------------------------
Magnitude (a.u.)       :      3.28635
Magnitude (Debye)      :      8.35323

Rotational constants in cm-1:     0.000426     0.000303     0.000185
Rotational constants in MHz :    12.763378     9.078929     5.544010

                             ****ORCA TERMINATED NORMALLY****
TOTAL RUN TIME: 0 days 0 hours 10 minutes 45 seconds 888 msec
