                         Program Version 4.2.0 -  RELEASE  -
|  1> # ORCA input file
|  2> # SCF done       -165.738237146395          0.000623937864
|  3> ! CAM-B3LYP def2-SVP def2/J RIJCOSX Grid4 TightSCF
|  4> %maxcore 5000
|  5> %tddft
|  6>     Mode sTDDFT
|  7>     Ethresh 5.0
|  8>     maxcore 5000
|  9> end
| 10>
| 11> %pal
| 12>   nprocs 6
| 13>   end
| 14> * xyz 0 1
| 15>    C      -11.54580         5.83545         0.21694
| 16>    C      -12.37861         4.92223         0.81254
| 17>    C      -13.47616         5.26222         1.62644
| 18>    N      -14.38855         5.47346         2.29099
| 19>    C      -12.20323         3.52869         0.72007
| 20>    N      -12.09792         2.38624         0.66921
| 21>    C      -11.63941         7.28653         0.35180
| 22>    C      -10.50728         7.87710        -0.26535
| 23>    C      -10.32268         9.23640        -0.32728
| 24>    C      -11.31412        10.05267         0.22790
| 25>    C      -12.43721         9.45425         0.84422
| 26>    C      -12.61410         8.07750         0.92424
| 27>    S      -13.55250        10.64469         1.43648
| 28>    C      -12.51972        11.91441         0.83680
| 29>    C      -11.38869        11.47202         0.23877
| 30>   Br      -13.04601        13.70312         1.02736
| 31>    C       -9.67561         6.81308        -0.84389
| 32>    O       -8.59742         6.93636        -1.41599
| 33>    C      -10.39495         5.55860        -0.60396
| 34>    C       -9.99946         4.37623        -1.18902
| 35>    N       -8.94518         4.36677        -2.00779
| 36>    C       -8.46322         3.34046        -2.75903
| 37>    S       -8.77489         1.68299        -2.36496
| 38>    C       -7.72577         1.20167        -3.65497
| 39>    N       -7.57821        -0.17371        -3.88046
| 40>    O       -6.81203        -0.52842        -4.75395
| 41>    O       -8.23258        -0.91454        -3.16736
| 42>    C       -7.17384         2.24804        -4.34103
| 43>    C       -7.61156         3.49930        -3.86250
| 44>    C       -7.29210         4.76323        -4.46819
| 45>    C       -8.13492         5.82701        -4.43266
| 46>    C       -7.88051         7.14393        -4.86050
| 47>    C       -8.78789         8.14552        -4.62599
| 48>    C       -8.65860         9.54078        -4.84352
| 49>    C       -9.70729        10.28431        -4.38958
| 50>    C      -10.73857         9.52172        -3.79930
| 51>    S      -10.34353         7.81858        -3.87333
| 52>    C      -11.91754         9.90357        -3.19448
| 53>    C      -12.50233        11.17581        -3.01294
| 54>    C      -13.70346        11.14162        -2.37178
| 55>    C      -14.14587         9.84282        -1.99944
| 56>    S      -12.94706         8.66270        -2.51070
| 57>    C      -15.26233         9.55016        -1.26531
| 58>    C      -15.71481         8.28513        -0.81436
| 59>    O      -16.49895         8.28172         0.29770
| 60>    C      -16.73450         7.00523         0.62740
| 61>    C      -16.13441         6.15309        -0.24616
| 62>    C      -15.47978         6.96198        -1.21179
| 63>    C      -14.81988         6.53207        -2.41081
| 64>    C      -14.07577         5.41487        -2.53637
| 65>    C      -13.31731         5.11501        -3.70683
| 66>    S      -13.27086         6.27798        -5.01703
| 67>    C      -12.02471         5.45982        -5.80588
| 68>    C      -11.64770         4.31817        -5.13574
| 69>    N      -10.60212         3.51269        -5.61173
| 70>    O      -10.10310         3.78744        -6.68524
| 71>    O      -10.22293         2.57610        -4.90885
| 72>    C      -12.41757         4.07634        -3.94177
| 73>    N      -12.24225         2.95141        -3.20078
| 74>    C      -13.17478         2.31391        -2.40339
| 75>    C      -12.89757         1.19494        -1.74533
| 76>    H       -9.45301         9.65940        -0.80564
| 77>    H      -13.49085         7.66895         1.39804
| 78>    H      -10.64144        12.11732        -0.18551
| 79>    H      -10.54164         3.44877        -1.05697
| 80>    H       -8.46983         5.28457        -2.09152
| 81>    H       -6.52233         2.11302        -5.18516
| 82>    H       -6.35400         4.82775        -4.99995
| 83>    H       -9.12531         5.68308        -4.01675
| 84>    H       -6.93019         7.39156        -5.30980
| 85>    H       -7.78051         9.95157        -5.31001
| 86>    H       -9.76411        11.35679        -4.45305
| 87>    H      -12.02613        12.07536        -3.36051
| 88>    H      -14.29378        12.01303        -2.14717
| 89>    H      -15.83275        10.38987        -0.88818
| 90>    H      -17.33141         6.82488         1.49906
| 91>    H      -16.17693         5.08391        -0.23130
| 92>    H      -14.93517         7.18285        -3.26766
| 93>    H      -13.94338         4.76208        -1.68554
| 94>    H      -11.59683         5.82351        -6.71891
| 95>    H      -11.43627         2.38934        -3.47169
| 96>    H      -14.15314         2.76943        -2.37716
| 97>    H      -11.92341         0.73936        -1.78240
| 98>    H      -13.64160         0.70576        -1.14796
| 99> *
|100>
|101>                          ****END OF INPUT****

CARTESIAN COORDINATES (ANGSTROEM)
---------------------------------
  C    -11.545800    5.835450    0.216940
  C    -12.378610    4.922230    0.812540
  C    -13.476160    5.262220    1.626440
  N    -14.388550    5.473460    2.290990
  C    -12.203230    3.528690    0.720070
  N    -12.097920    2.386240    0.669210
  C    -11.639410    7.286530    0.351800
  C    -10.507280    7.877100   -0.265350
  C    -10.322680    9.236400   -0.327280
  C    -11.314120   10.052670    0.227900
  C    -12.437210    9.454250    0.844220
  C    -12.614100    8.077500    0.924240
  S    -13.552500   10.644690    1.436480
  C    -12.519720   11.914410    0.836800
  C    -11.388690   11.472020    0.238770
  Br   -13.046010   13.703120    1.027360
  C     -9.675610    6.813080   -0.843890
  O     -8.597420    6.936360   -1.415990
  C    -10.394950    5.558600   -0.603960
  C     -9.999460    4.376230   -1.189020
  N     -8.945180    4.366770   -2.007790
  C     -8.463220    3.340460   -2.759030
  S     -8.774890    1.682990   -2.364960
  C     -7.725770    1.201670   -3.654970
  N     -7.578210   -0.173710   -3.880460
  O     -6.812030   -0.528420   -4.753950
  O     -8.232580   -0.914540   -3.167360
  C     -7.173840    2.248040   -4.341030
  C     -7.611560    3.499300   -3.862500
  C     -7.292100    4.763230   -4.468190
  C     -8.134920    5.827010   -4.432660
  C     -7.880510    7.143930   -4.860500
  C     -8.787890    8.145520   -4.625990
  C     -8.658600    9.540780   -4.843520
  C     -9.707290   10.284310   -4.389580
  C    -10.738570    9.521720   -3.799300
  S    -10.343530    7.818580   -3.873330
  C    -11.917540    9.903570   -3.194480
  C    -12.502330   11.175810   -3.012940
  C    -13.703460   11.141620   -2.371780
  C    -14.145870    9.842820   -1.999440
  S    -12.947060    8.662700   -2.510700
  C    -15.262330    9.550160   -1.265310
  C    -15.714810    8.285130   -0.814360
  O    -16.498950    8.281720    0.297700
  C    -16.734500    7.005230    0.627400
  C    -16.134410    6.153090   -0.246160
  C    -15.479780    6.961980   -1.211790
  C    -14.819880    6.532070   -2.410810
  C    -14.075770    5.414870   -2.536370
  C    -13.317310    5.115010   -3.706830
  S    -13.270860    6.277980   -5.017030
  C    -12.024710    5.459820   -5.805880
  C    -11.647700    4.318170   -5.135740
  N    -10.602120    3.512690   -5.611730
  O    -10.103100    3.787440   -6.685240
  O    -10.222930    2.576100   -4.908850
  C    -12.417570    4.076340   -3.941770
  N    -12.242250    2.951410   -3.200780
  C    -13.174780    2.313910   -2.403390
  C    -12.897570    1.194940   -1.745330
  H     -9.453010    9.659400   -0.805640
  H    -13.490850    7.668950    1.398040
  H    -10.641440   12.117320   -0.185510
  H    -10.541640    3.448770   -1.056970
  H     -8.469830    5.284570   -2.091520
  H     -6.522330    2.113020   -5.185160
  H     -6.354000    4.827750   -4.999950
  H     -9.125310    5.683080   -4.016750
  H     -6.930190    7.391560   -5.309800
  H     -7.780510    9.951570   -5.310010
  H     -9.764110   11.356790   -4.453050
  H    -12.026130   12.075360   -3.360510
  H    -14.293780   12.013030   -2.147170
  H    -15.832750   10.389870   -0.888180
  H    -17.331410    6.824880    1.499060
  H    -16.176930    5.083910   -0.231300
  H    -14.935170    7.182850   -3.267660
  H    -13.943380    4.762080   -1.685540
  H    -11.596830    5.823510   -6.718910
  H    -11.436270    2.389340   -3.471690
  H    -14.153140    2.769430   -2.377160
  H    -11.923410    0.739360   -1.782400
  H    -13.641600    0.705760   -1.147960

 Total Charge           Charge          ....    0
 Multiplicity           Mult            ....    1
 Number of Electrons    NEL             ....  486
 Basis Dimension        Dim             .... 1007

ORBITAL ENERGIES
----------------

  NO   OCC          E(Eh)            E(eV)
   0   2.0000    -482.888598    -13140.0668
   1   2.0000     -88.983188     -2421.3556
   2   2.0000     -88.979858     -2421.2650
   3   2.0000     -88.975098     -2421.1355
   4   2.0000     -88.950283     -2420.4603
   5   2.0000     -88.949636     -2420.4426
   6   2.0000     -62.566278     -1702.5150
   7   2.0000     -56.400206     -1534.7276
   8   2.0000     -56.397533     -1534.6549
   9   2.0000     -56.397493     -1534.6538
  10   2.0000     -19.289373      -524.8905
  11   2.0000     -19.253457      -523.9132
  12   2.0000     -19.250296      -523.8272
  13   2.0000     -19.232172      -523.3340
  14   2.0000     -19.231962      -523.3283
  15   2.0000     -19.221096      -523.0326
  16   2.0000     -14.658998      -398.8916
  17   2.0000     -14.643674      -398.4746
  18   2.0000     -14.487921      -394.2364
  19   2.0000     -14.445700      -393.0875
  20   2.0000     -14.414891      -392.2491
  21   2.0000     -14.412892      -392.1947
  22   2.0000     -10.370439      -282.1940
  23   2.0000     -10.363206      -281.9972
  24   2.0000     -10.362183      -281.9693
  25   2.0000     -10.357748      -281.8487
  26   2.0000     -10.346624      -281.5459
  27   2.0000     -10.340872      -281.3894
  28   2.0000     -10.339029      -281.3393
  29   2.0000     -10.336393      -281.2675
  30   2.0000     -10.335008      -281.2299
  31   2.0000     -10.330689      -281.1123
  32   2.0000     -10.329754      -281.0869
  33   2.0000     -10.323616      -280.9199
  34   2.0000     -10.322963      -280.9021
  35   2.0000     -10.316711      -280.7320
  36   2.0000     -10.316692      -280.7315
  37   2.0000     -10.316429      -280.7243
  38   2.0000     -10.314544      -280.6730
  39   2.0000     -10.314514      -280.6722
  40   2.0000     -10.313715      -280.6505
  41   2.0000     -10.309724      -280.5418
  42   2.0000     -10.304970      -280.4125
  43   2.0000     -10.304418      -280.3975
  44   2.0000     -10.303301      -280.3671
  45   2.0000     -10.302091      -280.3341
  46   2.0000     -10.301849      -280.3276
  47   2.0000     -10.299795      -280.2717
  48   2.0000     -10.299542      -280.2648
  49   2.0000     -10.296926      -280.1936
  50   2.0000     -10.296803      -280.1903
  51   2.0000     -10.294112      -280.1170
  52   2.0000     -10.293508      -280.1006
  53   2.0000     -10.292881      -280.0835
  54   2.0000     -10.290898      -280.0296
  55   2.0000     -10.290874      -280.0289
  56   2.0000     -10.290746      -280.0254
  57   2.0000     -10.290584      -280.0210
  58   2.0000     -10.288224      -279.9568
  59   2.0000     -10.285997      -279.8962
  60   2.0000     -10.283903      -279.8392
  61   2.0000     -10.283080      -279.8168
  62   2.0000     -10.281985      -279.7870
  63   2.0000     -10.267734      -279.3993
  64   2.0000     -10.248794      -278.8839
  65   2.0000      -8.795699      -239.3432
  66   2.0000      -8.077923      -219.8115
  67   2.0000      -8.074909      -219.7294
  68   2.0000      -8.070550      -219.6108
  69   2.0000      -8.044926      -218.9136
  70   2.0000      -8.044786      -218.9097
  71   2.0000      -6.631864      -180.4622
  72   2.0000      -6.617523      -180.0720
  73   2.0000      -6.617292      -180.0657
  74   2.0000      -6.047525      -164.5615
  75   2.0000      -6.043989      -164.4653
  76   2.0000      -6.043248      -164.4451
  77   2.0000      -6.040266      -164.3640
  78   2.0000      -6.039787      -164.3509
  79   2.0000      -6.039523      -164.3438
  80   2.0000      -6.037508      -164.2889
  81   2.0000      -6.035992      -164.2477
  82   2.0000      -6.031806      -164.1338
  83   2.0000      -6.014760      -163.6700
  84   2.0000      -6.014580      -163.6650
  85   2.0000      -6.010747      -163.5607
  86   2.0000      -6.010614      -163.5571
  87   2.0000      -6.005790      -163.4258
  88   2.0000      -6.005682      -163.4229
  89   2.0000      -2.747762       -74.7704
  90   2.0000      -2.743748       -74.6612
  91   2.0000      -2.743583       -74.6567
  92   2.0000      -2.732176       -74.3463
  93   2.0000      -2.732158       -74.3458
  94   2.0000      -1.328500       -36.1503
  95   2.0000      -1.313990       -35.7555
  96   2.0000      -1.207753       -32.8646
  97   2.0000      -1.146682       -31.2028
  98   2.0000      -1.137448       -30.9515
  99   2.0000      -1.133067       -30.8323
 100   2.0000      -1.095400       -29.8073
 101   2.0000      -1.059898       -28.8413
 102   2.0000      -1.021650       -27.8005
 103   2.0000      -1.012424       -27.5494
 104   2.0000      -1.003277       -27.3006
 105   2.0000      -1.002044       -27.2670
 106   2.0000      -0.999216       -27.1901
 107   2.0000      -0.993362       -27.0307
 108   2.0000      -0.987688       -26.8763
 109   2.0000      -0.979024       -26.6406
 110   2.0000      -0.941086       -25.6083
 111   2.0000      -0.932852       -25.3842
 112   2.0000      -0.924724       -25.1630
 113   2.0000      -0.913583       -24.8598
 114   2.0000      -0.908623       -24.7249
 115   2.0000      -0.903848       -24.5950
 116   2.0000      -0.895559       -24.3694
 117   2.0000      -0.884232       -24.0612
 118   2.0000      -0.883589       -24.0437
 119   2.0000      -0.873879       -23.7795
 120   2.0000      -0.871262       -23.7082
 121   2.0000      -0.860185       -23.4068
 122   2.0000      -0.854613       -23.2552
 123   2.0000      -0.846008       -23.0210
 124   2.0000      -0.839891       -22.8546
 125   2.0000      -0.829990       -22.5852
 126   2.0000      -0.828056       -22.5326
 127   2.0000      -0.818920       -22.2839
 128   2.0000      -0.804734       -21.8979
 129   2.0000      -0.790529       -21.5114
 130   2.0000      -0.780591       -21.2410
 131   2.0000      -0.769042       -20.9267
 132   2.0000      -0.758898       -20.6507
 133   2.0000      -0.750679       -20.4270
 134   2.0000      -0.736658       -20.0455
 135   2.0000      -0.731119       -19.8948
 136   2.0000      -0.721107       -19.6223
 137   2.0000      -0.708864       -19.2892
 138   2.0000      -0.704028       -19.1576
 139   2.0000      -0.697262       -18.9735
 140   2.0000      -0.687898       -18.7187
 141   2.0000      -0.680039       -18.5048
 142   2.0000      -0.676930       -18.4202
 143   2.0000      -0.672620       -18.3029
 144   2.0000      -0.668643       -18.1947
 145   2.0000      -0.659726       -17.9521
 146   2.0000      -0.656004       -17.8508
 147   2.0000      -0.642762       -17.4904
 148   2.0000      -0.641340       -17.4518
 149   2.0000      -0.640365       -17.4252
 150   2.0000      -0.633798       -17.2465
 151   2.0000      -0.631856       -17.1937
 152   2.0000      -0.629552       -17.1310
 153   2.0000      -0.628594       -17.1049
 154   2.0000      -0.624717       -16.9994
 155   2.0000      -0.621211       -16.9040
 156   2.0000      -0.617902       -16.8140
 157   2.0000      -0.616724       -16.7819
 158   2.0000      -0.603981       -16.4352
 159   2.0000      -0.599833       -16.3223
 160   2.0000      -0.599017       -16.3001
 161   2.0000      -0.592791       -16.1307
 162   2.0000      -0.589853       -16.0507
 163   2.0000      -0.577664       -15.7190
 164   2.0000      -0.573818       -15.6144
 165   2.0000      -0.567201       -15.4343
 166   2.0000      -0.565213       -15.3802
 167   2.0000      -0.559473       -15.2240
 168   2.0000      -0.557108       -15.1597
 169   2.0000      -0.552937       -15.0462
 170   2.0000      -0.552160       -15.0250
 171   2.0000      -0.545247       -14.8369
 172   2.0000      -0.540766       -14.7150
 173   2.0000      -0.536541       -14.6000
 174   2.0000      -0.532822       -14.4988
 175   2.0000      -0.530331       -14.4310
 176   2.0000      -0.528808       -14.3896
 177   2.0000      -0.525590       -14.3020
 178   2.0000      -0.522728       -14.2241
 179   2.0000      -0.519431       -14.1344
 180   2.0000      -0.516028       -14.0418
 181   2.0000      -0.513790       -13.9809
 182   2.0000      -0.512121       -13.9355
 183   2.0000      -0.506834       -13.7916
 184   2.0000      -0.503035       -13.6883
 185   2.0000      -0.501098       -13.6356
 186   2.0000      -0.496105       -13.4997
 187   2.0000      -0.495278       -13.4772
 188   2.0000      -0.494093       -13.4449
 189   2.0000      -0.492775       -13.4091
 190   2.0000      -0.492013       -13.3883
 191   2.0000      -0.486831       -13.2473
 192   2.0000      -0.479700       -13.0533
 193   2.0000      -0.475406       -12.9364
 194   2.0000      -0.472405       -12.8548
 195   2.0000      -0.471359       -12.8263
 196   2.0000      -0.465458       -12.6658
 197   2.0000      -0.463860       -12.6223
 198   2.0000      -0.462059       -12.5733
 199   2.0000      -0.459499       -12.5036
 200   2.0000      -0.458652       -12.4805
 201   2.0000      -0.454154       -12.3582
 202   2.0000      -0.451201       -12.2778
 203   2.0000      -0.449231       -12.2242
 204   2.0000      -0.446880       -12.1602
 205   2.0000      -0.444328       -12.0908
 206   2.0000      -0.440499       -11.9866
 207   2.0000      -0.438807       -11.9405
 208   2.0000      -0.437300       -11.8995
 209   2.0000      -0.430792       -11.7224
 210   2.0000      -0.429717       -11.6932
 211   2.0000      -0.424917       -11.5626
 212   2.0000      -0.422460       -11.4957
 213   2.0000      -0.421036       -11.4570
 214   2.0000      -0.411385       -11.1944
 215   2.0000      -0.410213       -11.1625
 216   2.0000      -0.409648       -11.1471
 217   2.0000      -0.399040       -10.8584
 218   2.0000      -0.396963       -10.8019
 219   2.0000      -0.390933       -10.6378
 220   2.0000      -0.385923       -10.5015
 221   2.0000      -0.380761       -10.3610
 222   2.0000      -0.379735       -10.3331
 223   2.0000      -0.377987       -10.2855
 224   2.0000      -0.377080       -10.2609
 225   2.0000      -0.372188       -10.1277
 226   2.0000      -0.367691       -10.0054
 227   2.0000      -0.360984        -9.8229
 228   2.0000      -0.359867        -9.7925
 229   2.0000      -0.353745        -9.6259
 230   2.0000      -0.351296        -9.5593
 231   2.0000      -0.347075        -9.4444
 232   2.0000      -0.337322        -9.1790
 233   2.0000      -0.332747        -9.0545
 234   2.0000      -0.323274        -8.7967
 235   2.0000      -0.321126        -8.7383
 236   2.0000      -0.315539        -8.5863
 237   2.0000      -0.303360        -8.2548
 238   2.0000      -0.294683        -8.0187
 239   2.0000      -0.284027        -7.7288
 240   2.0000      -0.268670        -7.3109
 241   2.0000      -0.245936        -6.6923
 242   2.0000      -0.213869        -5.8197
 243   0.0000      -0.090604        -2.4655
 244   0.0000      -0.075805        -2.0627
 245   0.0000      -0.062249        -1.6939
 246   0.0000      -0.060523        -1.6469
 247   0.0000      -0.035037        -0.9534

MULLIKEN ATOMIC CHARGES
-----------------------
   0 C :    0.327557
   1 C :   -0.371834
   2 C :   -0.186127
   3 N :    0.149390
   4 C :   -0.205100
   5 N :    0.159433
   6 C :    0.031698
   7 C :   -0.000098
   8 C :   -0.065514
   9 C :    0.108376
  10 C :   -0.081955
  11 C :   -0.028075
  12 S :    0.182536
  13 C :   -0.136664
  14 C :    0.058144
  15 Br:    0.012987
  16 C :    0.166710
  17 O :   -0.215299
  18 C :   -0.130928
  19 C :    0.035146
  20 N :   -0.016290
  21 C :   -0.136671
  22 S :    0.170894
  23 C :    0.017574
  24 N :    0.277214
  25 O :   -0.247545
  26 O :   -0.263628
  27 C :    0.021406
  28 C :    0.123148
  29 C :   -0.006276
  30 C :   -0.032730
  31 C :    0.008144
  32 C :   -0.007907
  33 C :    0.034588
  34 C :    0.028077
  35 C :   -0.048783
  36 S :    0.024729
  37 C :   -0.033570
  38 C :    0.039145
  39 C :    0.045118
  40 C :   -0.033499
  41 S :    0.034248
  42 C :   -0.028630
  43 C :    0.100152
  44 O :   -0.197384
  45 C :    0.160373
  46 C :   -0.024276
  47 C :    0.019269
  48 C :   -0.061400
  49 C :    0.016643
  50 C :   -0.247091
  51 S :    0.170398
  52 C :   -0.078286
  53 C :    0.090778
  54 N :    0.288156
  55 O :   -0.234564
  56 O :   -0.277584
  57 C :    0.136554
  58 N :   -0.067230
  59 C :    0.012977
  60 C :   -0.003682
  61 H :   -0.014295
  62 H :   -0.006856
  63 H :   -0.011973
  64 H :    0.035709
  65 H :    0.186105
  66 H :    0.009303
  67 H :   -0.007247
  68 H :    0.017525
  69 H :   -0.017083
  70 H :   -0.011910
  71 H :   -0.014040
  72 H :   -0.018000
  73 H :   -0.010045
  74 H :   -0.000837
  75 H :    0.017802
  76 H :   -0.009236
  77 H :    0.023821
  78 H :   -0.001517
  79 H :    0.043383
  80 H :    0.141839
  81 H :    0.019371
  82 H :    0.018336
  83 H :    0.026905
Sum of atomic charges:   -0.0000000

LOEWDIN ATOMIC CHARGES
----------------------
   0 C :    0.083156
   1 C :   -0.159952
   2 C :   -0.016804
   3 N :   -0.062701
   4 C :   -0.022008
   5 N :   -0.044769
   6 C :   -0.017771
   7 C :   -0.053604
   8 C :    0.024355
   9 C :   -0.036430
  10 C :   -0.142741
  11 C :   -0.010703
  12 S :    0.442809
  13 C :   -0.277767
  14 C :   -0.066240
  15 Br:    0.128866
  16 C :    0.085586
  17 O :   -0.176500
  18 C :   -0.149200
  19 C :    0.108956
  20 N :    0.082961
  21 C :   -0.121675
  22 S :    0.474431
  23 C :   -0.196481
  24 N :    0.274663
  25 O :   -0.211724
  26 O :   -0.229796
  27 C :    0.009400
  28 C :   -0.081353
  29 C :   -0.027913
  30 C :   -0.033501
  31 C :   -0.055595
  32 C :   -0.131287
  33 C :   -0.038151
  34 C :   -0.031362
  35 C :   -0.189490
  36 S :    0.384397
  37 C :   -0.175254
  38 C :   -0.041510
  39 C :   -0.022584
  40 C :   -0.156977
  41 S :    0.415381
  42 C :   -0.065079
  43 C :    0.005217
  44 O :    0.015140
  45 C :    0.057775
  46 C :   -0.062041
  47 C :   -0.065200
  48 C :   -0.060148
  49 C :   -0.040903
  50 C :   -0.220778
  51 S :    0.507984
  52 C :   -0.141629
  53 C :   -0.108645
  54 N :    0.296682
  55 O :   -0.198468
  56 O :   -0.221420
  57 C :    0.004177
  58 N :    0.019945
  59 C :    0.002197
  60 C :   -0.075275
  61 H :    0.039584
  62 H :    0.040022
  63 H :    0.035553
  64 H :    0.034675
  65 H :    0.088169
  66 H :    0.047366
  67 H :    0.032442
  68 H :    0.009990
  69 H :    0.032831
  70 H :    0.033909
  71 H :    0.032298
  72 H :    0.030634
  73 H :    0.033602
  74 H :    0.039471
  75 H :    0.027252
  76 H :    0.031079
  77 H :    0.015569
  78 H :    0.032351
  79 H :    0.039622
  80 H :    0.063675
  81 H :    0.025953
  82 H :    0.020292
  83 H :    0.031014

  Mayer bond orders larger than 0.100000
B(  0-C ,  1-C ) :   1.6131 B(  0-C ,  6-C ) :   1.0003 B(  0-C , 18-C ) :   1.1107
B(  1-C ,  2-C ) :   1.1494 B(  1-C ,  4-C ) :   1.1578 B(  2-C ,  3-N ) :   2.9467
B(  4-C ,  5-N ) :   2.9325 B(  6-C ,  7-C ) :   1.2706 B(  6-C , 11-C ) :   1.4248
B(  7-C ,  8-C ) :   1.4240 B(  7-C , 16-C ) :   0.9734 B(  8-C ,  9-C ) :   1.2306
B(  8-C , 61-H ) :   1.0184 B(  9-C , 10-C ) :   1.3234 B(  9-C , 14-C ) :   1.1630
B( 10-C , 11-C ) :   1.3080 B( 10-C , 12-S ) :   1.0887 B( 11-C , 62-H ) :   0.9776
B( 12-S , 13-C ) :   1.0882 B( 13-C , 14-C ) :   1.6165 B( 13-C , 15-Br) :   1.0129
B( 14-C , 63-H ) :   0.9993 B( 16-C , 17-O ) :   2.0409 B( 16-C , 18-C ) :   0.9975
B( 17-O , 65-H ) :   0.1443 B( 18-C , 19-C ) :   1.4291 B( 19-C , 20-N ) :   1.3468
B( 19-C , 64-H ) :   0.9342 B( 20-N , 21-C ) :   1.1574 B( 20-N , 65-H ) :   0.8230
B( 21-C , 22-S ) :   1.1359 B( 21-C , 28-C ) :   1.3903 B( 22-S , 23-C ) :   1.0839
B( 23-C , 24-N ) :   0.9644 B( 23-C , 27-C ) :   1.5033 B( 24-N , 25-O ) :   1.5413
B( 24-N , 26-O ) :   1.5131 B( 25-O , 26-O ) :   0.2601 B( 27-C , 28-C ) :   1.2090
B( 27-C , 66-H ) :   1.0043 B( 28-C , 29-C ) :   1.0769 B( 29-C , 30-C ) :   1.6611
B( 29-C , 67-H ) :   0.9722 B( 30-C , 31-C ) :   1.1590 B( 30-C , 68-H ) :   0.9597
B( 31-C , 32-C ) :   1.5725 B( 31-C , 69-H ) :   0.9862 B( 32-C , 33-C ) :   1.1397
B( 32-C , 36-S ) :   1.0322 B( 33-C , 34-C ) :   1.5860 B( 33-C , 70-H ) :   0.9965
B( 34-C , 35-C ) :   1.1908 B( 34-C , 71-H ) :   0.9958 B( 35-C , 36-S ) :   1.0475
B( 35-C , 37-C ) :   1.4940 B( 37-C , 38-C ) :   1.1833 B( 37-C , 41-S ) :   1.0415
B( 38-C , 39-C ) :   1.5840 B( 38-C , 72-H ) :   0.9972 B( 39-C , 40-C ) :   1.1395
B( 39-C , 73-H ) :   0.9975 B( 40-C , 41-S ) :   1.0230 B( 40-C , 42-C ) :   1.6002
B( 42-C , 43-C ) :   1.1534 B( 42-C , 74-H ) :   0.9489 B( 43-C , 44-O ) :   1.1214
B( 43-C , 47-C ) :   1.4009 B( 44-O , 45-C ) :   1.1467 B( 45-C , 46-C ) :   1.5301
B( 45-C , 75-H ) :   1.0024 B( 46-C , 47-C ) :   1.2459 B( 46-C , 76-H ) :   1.0057
B( 47-C , 48-C ) :   1.0843 B( 48-C , 49-C ) :   1.7074 B( 48-C , 77-H ) :   0.9469
B( 49-C , 50-C ) :   1.1516 B( 49-C , 78-H ) :   0.9762 B( 50-C , 51-S ) :   1.0952
B( 50-C , 57-C ) :   1.4153 B( 51-S , 52-C ) :   1.2463 B( 52-C , 53-C ) :   1.4710
B( 52-C , 79-H ) :   0.9593 B( 53-C , 54-N ) :   0.9599 B( 53-C , 57-C ) :   1.1901
B( 54-N , 55-O ) :   1.5576 B( 54-N , 56-O ) :   1.4378 B( 55-O , 56-O ) :   0.2402
B( 57-C , 58-N ) :   1.2654 B( 58-N , 59-C ) :   1.0630 B( 58-N , 80-H ) :   0.8686
B( 59-C , 60-C ) :   1.9334 B( 59-C , 81-H ) :   0.9571 B( 60-C , 82-H ) :   0.9576
B( 60-C , 83-H ) :   0.9502

-----------------------------------------------------------------------------
         ABSORPTION SPECTRUM VIA TRANSITION ELECTRIC DIPOLE MOMENTS
-----------------------------------------------------------------------------
State   Energy  Wavelength   fosc         T2         TX        TY        TZ
        (cm-1)    (nm)                  (au**2)     (au)      (au)      (au)
-----------------------------------------------------------------------------
   0   10322.1    968.8   0.051862808   1.65410  -1.26986   0.20378   0.00629
   1   14084.2    710.0   0.194949045   4.55685  -2.04282   0.34918   0.51167
   2   15356.2    651.2   0.011887146   0.25484  -0.01078  -0.05244   0.50197
   3   16631.6    601.3   0.028372524   0.56162   0.14509   0.73305   0.05660
   4   16673.3    599.8   0.176178119   3.47862   1.60600  -0.00279  -0.94835
   5   19714.9    507.2   0.058633225   0.97910   0.71197  -0.65336  -0.21286
   6   20508.9    487.6   0.034710769   0.55718   0.28130   0.23437  -0.65048
   7   21693.7    461.0   0.145711192   2.21123  -0.62579  -0.59035   1.21289
   8   22231.0    449.8   0.293727178   4.34971   1.40763  -0.99863  -1.17091
   9   22961.9    435.5   0.361981525   5.18985  -1.27119   1.54673   1.08700
  10   23666.5    422.5   0.055084814   0.76625  -0.67211  -0.21715   0.51707
  11   25224.8    396.4   0.024390093   0.31832  -0.00017  -0.45117  -0.33877
  12   25677.7    389.4   0.184275916   2.36259   0.98034  -0.92126  -0.74351
  13   26254.4    380.9   0.017820513   0.22346  -0.41691   0.03909  -0.21936
  14   27020.7    370.1   0.054886787   0.66872   0.25595  -0.68363  -0.36859
  15   27222.9    367.3   0.077992834   0.94318   0.80192  -0.04214  -0.54619
  16   27414.5    364.8   0.343557050   4.12566   0.74865  -1.87507  -0.22201
  17   28826.1    346.9   0.106211106   1.21300   0.32052   1.04118  -0.16186
  18   29302.9    341.3   0.039367586   0.44229   0.60542  -0.13749  -0.23843
  19   29508.4    338.9   0.317003877   3.53667  -0.81642   1.61174   0.52195
  20   29995.9    333.4   0.039950762   0.43847  -0.23289   0.59271   0.18144
  21   30115.3    332.1   0.171555125   1.87539  -0.39993   1.28172   0.26954
  22   30706.5    325.7   0.084559876   0.90659   0.10500  -0.94117  -0.09879
  23   30776.7    324.9   0.105505710   1.12857  -0.43213   0.82826   0.50579
  24   31347.5    319.0   0.102161725   1.07290   0.20374  -0.99284  -0.21366
  25   31520.4    317.3   0.163660825   1.70934  -0.31662   1.23443   0.29204
  26   31845.4    314.0   0.350285873   3.62119  -0.10224  -1.89555  -0.13274
  27   32195.0    310.6   0.058040719   0.59350  -0.37750   0.54903   0.38672
  28   32763.8    305.2   0.003076571   0.03091  -0.13387   0.10216   0.05057
  29   32885.5    304.1   0.190273279   1.90480  -0.50486  -1.05738   0.72929
  30   33009.8    302.9   0.141613585   1.41233   0.08016  -1.12387   0.37793
  31   33417.4    299.2   0.001941824   0.01913  -0.09659  -0.05465  -0.08255
  32   33641.3    297.3   0.028007169   0.27408   0.23030   0.40831  -0.23308
  33   34099.9    293.3   0.001517090   0.01465  -0.07473  -0.00909  -0.09476
  34   34174.4    292.6   0.012252806   0.11803   0.15218  -0.30799   0.00412
  35   34388.7    290.8   0.018283524   0.17503   0.32583   0.00498  -0.26238
  36   34482.7    290.0   0.045653295   0.43586  -0.35199   0.54555   0.11974
  37   34563.6    289.3   0.107334131   1.02234  -0.51504   0.87001   0.01227
  38   34942.4    286.2   0.309556698   2.91651  -0.67231  -1.47369   0.54105
  39   35141.1    284.6   0.063675775   0.59653  -0.24547   0.72734  -0.08519
  40   35677.9    280.3   0.088360090   0.81533   0.21180   0.84733  -0.22914
  41   35705.3    280.1   0.013527613   0.12473  -0.32041  -0.10506   0.10501
  42   36162.9    276.5   0.012916652   0.11759  -0.30632   0.02952   0.15128
  43   36401.6    274.7   0.093627373   0.84676   0.23186  -0.88772  -0.07037
  44   36820.1    271.6   0.027574280   0.24654  -0.38513  -0.07002   0.30547
  45   37254.6    268.4   0.008541314   0.07548   0.17840  -0.14282  -0.15249
  46   37589.8    266.0   0.021108339   0.18487   0.17571   0.30567  -0.24609
  47   37655.1    265.6   0.096758551   0.84594  -0.02624   0.90863  -0.14016
  48   37805.8    264.5   0.067135768   0.58462  -0.25068   0.61450   0.37969
  49   38103.6    262.4   0.005556947   0.04801   0.19547   0.08559   0.04976
  50   38464.9    260.0   0.002377035   0.02034  -0.02508   0.00160   0.14040
  51   38620.8    258.9   0.016949236   0.14448   0.06288  -0.12635   0.35293
  52   38645.8    258.8   0.029855768   0.25433   0.30068  -0.40207  -0.04757
  53   38871.5    257.3   0.043716604   0.37025  -0.19179   0.48780   0.30905
  54   39029.8    256.2   0.001910686   0.01612   0.05497  -0.11430  -0.00537
  55   39161.5    255.4   0.014562586   0.12242  -0.00968  -0.34504  -0.05720
  56   39263.4    254.7   0.052753704   0.44232   0.14234   0.63489  -0.13775
  57   39435.9    253.6   0.031917179   0.26645  -0.43419   0.14658   0.23757
  58   39635.2    252.3   0.012385683   0.10288   0.04408  -0.28399  -0.14241
  59   39989.9    250.1   0.158570329   1.30541   0.94985   0.32661  -0.54453
  60   40116.6    249.3   0.008437353   0.06924  -0.12079  -0.18082   0.14817

FINAL SINGLE POINT ENERGY     -6993.235531995217

DIPOLE MOMENT
-------------
                                X             Y             Z
Electronic contribution:    -13.98817      73.76703      38.90073
Nuclear contribution   :     13.58417     -69.39664     -39.67739
                        -----------------------------------------
Total Dipole Moment    :     -0.40400       4.37039      -0.77666
                        -----------------------------------------
Magnitude (a.u.)       :      4.45721
Magnitude (Debye)      :     11.32932

Rotational constants in cm-1:     0.002258     0.000856     0.000773
Rotational constants in MHz :    67.682167    25.651611    23.185142

                             ****ORCA TERMINATED NORMALLY****
TOTAL RUN TIME: 0 days 0 hours 11 minutes 6 seconds 272 msec
