                         Program Version 4.2.0 -  RELEASE  -
|  1> # ORCA input file
|  2> # SCF done       -199.660277350810          0.000753307351
|  3> ! CAM-B3LYP def2-SVP def2/J RIJCOSX Grid4 TightSCF
|  4> %maxcore 5000
|  5> %tddft
|  6>     Mode sTDDFT
|  7>     Ethresh 5.0
|  8>     maxcore 5000
|  9> end
| 10>
| 11> %pal
| 12>   nprocs 6
| 13>   end
| 14> * xyz 0 1
| 15>    C       -5.02985         4.01048         0.46607
| 16>    C       -3.92375         4.05503        -0.34812
| 17>    C       -2.84360         4.94138        -0.17315
| 18>    N       -1.93929         5.64388        -0.08560
| 19>    C       -3.72916         3.20899        -1.45597
| 20>    N       -3.52424         2.53363        -2.36305
| 21>    C       -5.26245         4.82198         1.65495
| 22>    C       -6.50620         4.45283         2.23352
| 23>    C       -6.99434         5.04158         3.37420
| 24>    C       -6.22379         6.04441         3.97334
| 25>    C       -4.98717         6.40721         3.38856
| 26>    C       -4.49067         5.81052         2.23596
| 27>    S       -4.20016         7.66721         4.28916
| 28>    C       -5.52516         7.69043         5.42279
| 29>    C       -6.50682         6.80007         5.14361
| 30>   Br       -5.48675         8.88651         6.86689
| 31>    C       -7.11644         3.39505         1.41306
| 32>    O       -8.18425         2.82457         1.58937
| 33>    C       -6.17895         3.15190         0.31220
| 34>    C       -6.44350         2.25738        -0.68873
| 35>    N       -7.57281         1.53824        -0.72147
| 36>    C       -7.91893         0.70892        -1.75667
| 37>    S       -8.79681        -0.75010        -1.41596
| 38>    C       -8.64824        -1.20563        -3.08066
| 39>    N       -9.23559        -2.41032        -3.48614
| 40>    O       -9.12227        -2.73034        -4.65487
| 41>    O       -9.82025        -3.05141        -2.62910
| 42>    C       -7.96628        -0.28840        -3.83797
| 43>    C       -7.55886         0.83587        -3.09759
| 44>    C       -6.95931         2.00966        -3.71722
| 45>    C       -7.32012         3.26302        -3.41004
| 46>    C       -6.83231         4.47848        -4.03062
| 47>    C       -5.58743         4.54622        -4.67189
| 48>    C       -5.19579         5.71448        -5.28698
| 49>    C       -6.06060         6.82752        -5.27967
| 50>    C       -7.27783         6.78318        -4.61543
| 51>    C       -7.64848         5.61400        -3.98600
| 52>    C       -5.46301         7.89554        -6.04593
| 53>    C       -4.23073         7.44363        -6.54304
| 54>    C       -3.93103         6.03558        -6.06025
| 55>    C       -2.65634         6.12113        -5.18084
| 56>    C       -2.58743         5.17383        -3.99183
| 57>    C       -3.74775         5.12969        -7.29717
| 58>    C       -3.25940         3.70928        -7.04521
| 59>    C       -3.44678         8.25830        -7.31879
| 60>    C       -3.88111         9.56013        -7.62735
| 61>    C       -5.11349         9.99692        -7.11094
| 62>    C       -5.90468         9.18145        -6.33124
| 63>    C       -3.10981        10.45444        -8.44363
| 64>    C       -1.97673        10.12646        -9.11857
| 65>    C       -1.22509        11.00407        -9.91874
| 66>    C       -0.10690        10.60134       -10.60729
| 67>    C        0.73762        11.36978       -11.44235
| 68>    C        1.76577        10.66790       -12.00148
| 69>    C        1.78971         9.30479       -11.64170
| 70>    S        0.47033         8.94033       -10.55681
| 71>    C        2.66516         8.31072       -12.04408
| 72>    C        3.76492         8.39359       -12.91942
| 73>    C        4.39571         7.19965       -13.12036
| 74>    C        3.82840         6.11199       -12.41779
| 75>    S        2.46449         6.66729       -11.47233
| 76>    C        4.27160         4.80721       -12.47432
| 77>    C        3.72446         3.69324       -11.83838
| 78>    S        2.26390         3.82642       -10.89936
| 79>    C        2.13918         2.12221       -10.65723
| 80>    C        3.20903         1.45410       -11.27107
| 81>    C        4.14194         2.34017       -11.90419
| 82>    C        5.31118         1.79331       -12.47331
| 83>    S        6.65136         2.76019       -13.15006
| 84>    C        5.47738         0.43098       -12.52019
| 85>    C        4.52837        -0.43568       -11.97540
| 86>    C        3.41770         0.05043       -11.32923
| 87>    O        2.51559        -0.78301       -10.75122
| 88>    C        1.05503         1.57484        -9.90550
| 89>    C        0.09352         2.30304        -9.33053
| 90>    H       -7.94170         4.74027         3.79305
| 91>    H       -3.54298         6.12000         1.82756
| 92>    H       -7.39449         6.68036         5.73748
| 93>    H       -5.75317         2.10130        -1.50392
| 94>    H       -8.17706         1.62664         0.10382
| 95>    H       -7.80007        -0.41499        -4.89248
| 96>    H       -6.26043         1.81191        -4.51657
| 97>    H       -8.09657         3.41128        -2.66773
| 98>    H       -4.94381         3.68295        -4.64337
| 99>    H       -7.92530         7.64704        -4.59694
|100>    H       -8.59760         5.55811        -3.47156
|101>    H       -2.58858         7.14029        -4.79054
|102>    H       -1.78936         5.96444        -5.82509
|103>    H       -3.40587         5.36833        -3.30249
|104>    H       -1.65410         5.33516        -3.45582
|105>    H       -2.62936         4.13138        -4.28990
|106>    H       -3.03272         5.62176        -7.96091
|107>    H       -4.70560         5.08997        -7.82366
|108>    H       -2.29720         3.70690        -6.54119
|109>    H       -3.14138         3.20145        -8.00086
|110>    H       -3.96988         3.14270        -6.45206
|111>    H       -2.49161         7.90817        -7.67699
|112>    H       -5.44519        10.99954        -7.34121
|113>    H       -6.84928         9.53769        -5.94761
|114>    H       -3.48679        11.46619        -8.53092
|115>    H       -1.60096         9.11323        -9.06717
|116>    H       -1.53287        12.03747       -10.00464
|117>    H        0.55799        12.41789       -11.60632
|118>    H        2.50026        11.09266       -12.66243
|119>    H        4.06050         9.31978       -13.37878
|120>    H        5.25150         7.06557       -13.75861
|121>    H        5.11188         4.63561       -13.13168
|122>    H        6.80585         3.55254       -12.08747
|123>    H        6.36732         0.02538       -12.97516
|124>    H        4.69032        -1.50306       -12.03663
|125>    H        2.79103        -1.69910       -10.88487
|126>    H        1.04956         0.49991        -9.81214
|127>    H        0.07758         3.37859        -9.40170
|128>    H       -0.69605         1.84113        -8.76548
|129> *
|130>
|131>                          ****END OF INPUT****

CARTESIAN COORDINATES (ANGSTROEM)
---------------------------------
  C     -5.029850    4.010480    0.466070
  C     -3.923750    4.055030   -0.348120
  C     -2.843600    4.941380   -0.173150
  N     -1.939290    5.643880   -0.085600
  C     -3.729160    3.208990   -1.455970
  N     -3.524240    2.533630   -2.363050
  C     -5.262450    4.821980    1.654950
  C     -6.506200    4.452830    2.233520
  C     -6.994340    5.041580    3.374200
  C     -6.223790    6.044410    3.973340
  C     -4.987170    6.407210    3.388560
  C     -4.490670    5.810520    2.235960
  S     -4.200160    7.667210    4.289160
  C     -5.525160    7.690430    5.422790
  C     -6.506820    6.800070    5.143610
  Br    -5.486750    8.886510    6.866890
  C     -7.116440    3.395050    1.413060
  O     -8.184250    2.824570    1.589370
  C     -6.178950    3.151900    0.312200
  C     -6.443500    2.257380   -0.688730
  N     -7.572810    1.538240   -0.721470
  C     -7.918930    0.708920   -1.756670
  S     -8.796810   -0.750100   -1.415960
  C     -8.648240   -1.205630   -3.080660
  N     -9.235590   -2.410320   -3.486140
  O     -9.122270   -2.730340   -4.654870
  O     -9.820250   -3.051410   -2.629100
  C     -7.966280   -0.288400   -3.837970
  C     -7.558860    0.835870   -3.097590
  C     -6.959310    2.009660   -3.717220
  C     -7.320120    3.263020   -3.410040
  C     -6.832310    4.478480   -4.030620
  C     -5.587430    4.546220   -4.671890
  C     -5.195790    5.714480   -5.286980
  C     -6.060600    6.827520   -5.279670
  C     -7.277830    6.783180   -4.615430
  C     -7.648480    5.614000   -3.986000
  C     -5.463010    7.895540   -6.045930
  C     -4.230730    7.443630   -6.543040
  C     -3.931030    6.035580   -6.060250
  C     -2.656340    6.121130   -5.180840
  C     -2.587430    5.173830   -3.991830
  C     -3.747750    5.129690   -7.297170
  C     -3.259400    3.709280   -7.045210
  C     -3.446780    8.258300   -7.318790
  C     -3.881110    9.560130   -7.627350
  C     -5.113490    9.996920   -7.110940
  C     -5.904680    9.181450   -6.331240
  C     -3.109810   10.454440   -8.443630
  C     -1.976730   10.126460   -9.118570
  C     -1.225090   11.004070   -9.918740
  C     -0.106900   10.601340  -10.607290
  C      0.737620   11.369780  -11.442350
  C      1.765770   10.667900  -12.001480
  C      1.789710    9.304790  -11.641700
  S      0.470330    8.940330  -10.556810
  C      2.665160    8.310720  -12.044080
  C      3.764920    8.393590  -12.919420
  C      4.395710    7.199650  -13.120360
  C      3.828400    6.111990  -12.417790
  S      2.464490    6.667290  -11.472330
  C      4.271600    4.807210  -12.474320
  C      3.724460    3.693240  -11.838380
  S      2.263900    3.826420  -10.899360
  C      2.139180    2.122210  -10.657230
  C      3.209030    1.454100  -11.271070
  C      4.141940    2.340170  -11.904190
  C      5.311180    1.793310  -12.473310
  S      6.651360    2.760190  -13.150060
  C      5.477380    0.430980  -12.520190
  C      4.528370   -0.435680  -11.975400
  C      3.417700    0.050430  -11.329230
  O      2.515590   -0.783010  -10.751220
  C      1.055030    1.574840   -9.905500
  C      0.093520    2.303040   -9.330530
  H     -7.941700    4.740270    3.793050
  H     -3.542980    6.120000    1.827560
  H     -7.394490    6.680360    5.737480
  H     -5.753170    2.101300   -1.503920
  H     -8.177060    1.626640    0.103820
  H     -7.800070   -0.414990   -4.892480
  H     -6.260430    1.811910   -4.516570
  H     -8.096570    3.411280   -2.667730
  H     -4.943810    3.682950   -4.643370
  H     -7.925300    7.647040   -4.596940
  H     -8.597600    5.558110   -3.471560
  H     -2.588580    7.140290   -4.790540
  H     -1.789360    5.964440   -5.825090
  H     -3.405870    5.368330   -3.302490
  H     -1.654100    5.335160   -3.455820
  H     -2.629360    4.131380   -4.289900
  H     -3.032720    5.621760   -7.960910
  H     -4.705600    5.089970   -7.823660
  H     -2.297200    3.706900   -6.541190
  H     -3.141380    3.201450   -8.000860
  H     -3.969880    3.142700   -6.452060
  H     -2.491610    7.908170   -7.676990
  H     -5.445190   10.999540   -7.341210
  H     -6.849280    9.537690   -5.947610
  H     -3.486790   11.466190   -8.530920
  H     -1.600960    9.113230   -9.067170
  H     -1.532870   12.037470  -10.004640
  H      0.557990   12.417890  -11.606320
  H      2.500260   11.092660  -12.662430
  H      4.060500    9.319780  -13.378780
  H      5.251500    7.065570  -13.758610
  H      5.111880    4.635610  -13.131680
  H      6.805850    3.552540  -12.087470
  H      6.367320    0.025380  -12.975160
  H      4.690320   -1.503060  -12.036630
  H      2.791030   -1.699100  -10.884870
  H      1.049560    0.499910   -9.812140
  H      0.077580    3.378590   -9.401700
  H     -0.696050    1.841130   -8.765480

 Total Charge           Charge          ....    0
 Multiplicity           Mult            ....    1
 Number of Electrons    NEL             ....  590
 Basis Dimension        Dim             .... 1287

ORBITAL ENERGIES
----------------

  NO   OCC          E(Eh)            E(eV)
   0   2.0000    -482.889328    -13140.0867
   1   2.0000     -88.989280     -2421.5214
   2   2.0000     -88.980242     -2421.2755
   3   2.0000     -88.953183     -2420.5392
   4   2.0000     -88.937604     -2420.1152
   5   2.0000     -88.934620     -2420.0340
   6   2.0000     -88.918966     -2419.6081
   7   2.0000     -62.567022     -1702.5352
   8   2.0000     -56.400977     -1534.7486
   9   2.0000     -56.398251     -1534.6744
  10   2.0000     -56.398222     -1534.6736
  11   2.0000     -19.252851      -523.8967
  12   2.0000     -19.240123      -523.5504
  13   2.0000     -19.239734      -523.5398
  14   2.0000     -19.230516      -523.2889
  15   2.0000     -14.651611      -398.6906
  16   2.0000     -14.492777      -394.3685
  17   2.0000     -14.422917      -392.4675
  18   2.0000     -14.416487      -392.2926
  19   2.0000     -10.378240      -282.4063
  20   2.0000     -10.368547      -282.1425
  21   2.0000     -10.364777      -282.0399
  22   2.0000     -10.363341      -282.0009
  23   2.0000     -10.348092      -281.5859
  24   2.0000     -10.348011      -281.5837
  25   2.0000     -10.342643      -281.4376
  26   2.0000     -10.337951      -281.3100
  27   2.0000     -10.330329      -281.1025
  28   2.0000     -10.326051      -280.9861
  29   2.0000     -10.319889      -280.8185
  30   2.0000     -10.313492      -280.6444
  31   2.0000     -10.312512      -280.6177
  32   2.0000     -10.311049      -280.5779
  33   2.0000     -10.310921      -280.5744
  34   2.0000     -10.307770      -280.4887
  35   2.0000     -10.306916      -280.4655
  36   2.0000     -10.301380      -280.3148
  37   2.0000     -10.301106      -280.3073
  38   2.0000     -10.299712      -280.2694
  39   2.0000     -10.299570      -280.2656
  40   2.0000     -10.298254      -280.2297
  41   2.0000     -10.297556      -280.2108
  42   2.0000     -10.295926      -280.1664
  43   2.0000     -10.295796      -280.1628
  44   2.0000     -10.294724      -280.1337
  45   2.0000     -10.290554      -280.0202
  46   2.0000     -10.285807      -279.8910
  47   2.0000     -10.284745      -279.8621
  48   2.0000     -10.282002      -279.7875
  49   2.0000     -10.280497      -279.7465
  50   2.0000     -10.278919      -279.7036
  51   2.0000     -10.277084      -279.6537
  52   2.0000     -10.275906      -279.6216
  53   2.0000     -10.275571      -279.6125
  54   2.0000     -10.274970      -279.5961
  55   2.0000     -10.273513      -279.5565
  56   2.0000     -10.272018      -279.5158
  57   2.0000     -10.270707      -279.4802
  58   2.0000     -10.270365      -279.4708
  59   2.0000     -10.270250      -279.4677
  60   2.0000     -10.269612      -279.4503
  61   2.0000     -10.268409      -279.4176
  62   2.0000     -10.267552      -279.3943
  63   2.0000     -10.266694      -279.3709
  64   2.0000     -10.266450      -279.3643
  65   2.0000     -10.266182      -279.3570
  66   2.0000     -10.265649      -279.3425
  67   2.0000     -10.264717      -279.3171
  68   2.0000     -10.264660      -279.3156
  69   2.0000     -10.264573      -279.3132
  70   2.0000     -10.262253      -279.2501
  71   2.0000     -10.261769      -279.2369
  72   2.0000     -10.260651      -279.2065
  73   2.0000     -10.259708      -279.1808
  74   2.0000     -10.257430      -279.1189
  75   2.0000     -10.254206      -279.0311
  76   2.0000     -10.253331      -279.0073
  77   2.0000     -10.247489      -278.8483
  78   2.0000     -10.236709      -278.5550
  79   2.0000      -8.796449      -239.3635
  80   2.0000      -8.085042      -220.0052
  81   2.0000      -8.076193      -219.7644
  82   2.0000      -8.048279      -219.0048
  83   2.0000      -8.033705      -218.6082
  84   2.0000      -8.030969      -218.5338
  85   2.0000      -8.013959      -218.0709
  86   2.0000      -6.632751      -180.4863
  87   2.0000      -6.618178      -180.0898
  88   2.0000      -6.617975      -180.0843
  89   2.0000      -6.054568      -164.7532
  90   2.0000      -6.050210      -164.6346
  91   2.0000      -6.046655      -164.5379
  92   2.0000      -6.045875      -164.5166
  93   2.0000      -6.041584      -164.3999
  94   2.0000      -6.037451      -164.2874
  95   2.0000      -6.017239      -163.7374
  96   2.0000      -6.013139      -163.6258
  97   2.0000      -6.011028      -163.5684
  98   2.0000      -6.003392      -163.3606
  99   2.0000      -6.000680      -163.2868
 100   2.0000      -5.999262      -163.2482
 101   2.0000      -5.996731      -163.1793
 102   2.0000      -5.994773      -163.1261
 103   2.0000      -5.991841      -163.0463
 104   2.0000      -5.984283      -162.8406
 105   2.0000      -5.980518      -162.7382
 106   2.0000      -5.973777      -162.5547
 107   2.0000      -2.748661       -74.7949
 108   2.0000      -2.744517       -74.6821
 109   2.0000      -2.744366       -74.6780
 110   2.0000      -2.732783       -74.3628
 111   2.0000      -2.732767       -74.3624
 112   2.0000      -1.320778       -35.9402
 113   2.0000      -1.148212       -31.2444
 114   2.0000      -1.144555       -31.1449
 115   2.0000      -1.139831       -31.0164
 116   2.0000      -1.098942       -29.9037
 117   2.0000      -1.027770       -27.9670
 118   2.0000      -1.018150       -27.7053
 119   2.0000      -1.010084       -27.4858
 120   2.0000      -0.998925       -27.1821
 121   2.0000      -0.993524       -27.0352
 122   2.0000      -0.991052       -26.9679
 123   2.0000      -0.984154       -26.7802
 124   2.0000      -0.980874       -26.6909
 125   2.0000      -0.963795       -26.2262
 126   2.0000      -0.946264       -25.7491
 127   2.0000      -0.943554       -25.6754
 128   2.0000      -0.930181       -25.3115
 129   2.0000      -0.921753       -25.0822
 130   2.0000      -0.913260       -24.8511
 131   2.0000      -0.911127       -24.7930
 132   2.0000      -0.901309       -24.5259
 133   2.0000      -0.898184       -24.4408
 134   2.0000      -0.890992       -24.2451
 135   2.0000      -0.890658       -24.2360
 136   2.0000      -0.883423       -24.0392
 137   2.0000      -0.873955       -23.7815
 138   2.0000      -0.862355       -23.4659
 139   2.0000      -0.859257       -23.3816
 140   2.0000      -0.849967       -23.1288
 141   2.0000      -0.844326       -22.9753
 142   2.0000      -0.839936       -22.8558
 143   2.0000      -0.834275       -22.7018
 144   2.0000      -0.832855       -22.6631
 145   2.0000      -0.827378       -22.5141
 146   2.0000      -0.825059       -22.4510
 147   2.0000      -0.823547       -22.4099
 148   2.0000      -0.820285       -22.3211
 149   2.0000      -0.813076       -22.1249
 150   2.0000      -0.803512       -21.8647
 151   2.0000      -0.792819       -21.5737
 152   2.0000      -0.786496       -21.4016
 153   2.0000      -0.777021       -21.1438
 154   2.0000      -0.765921       -20.8418
 155   2.0000      -0.764489       -20.8028
 156   2.0000      -0.762113       -20.7382
 157   2.0000      -0.752650       -20.4807
 158   2.0000      -0.736923       -20.0527
 159   2.0000      -0.722175       -19.6514
 160   2.0000      -0.718469       -19.5505
 161   2.0000      -0.709748       -19.3132
 162   2.0000      -0.707292       -19.2464
 163   2.0000      -0.696457       -18.9516
 164   2.0000      -0.694170       -18.8893
 165   2.0000      -0.691527       -18.8174
 166   2.0000      -0.685682       -18.6584
 167   2.0000      -0.677188       -18.4272
 168   2.0000      -0.675663       -18.3857
 169   2.0000      -0.673707       -18.3325
 170   2.0000      -0.665811       -18.1176
 171   2.0000      -0.664620       -18.0852
 172   2.0000      -0.661904       -18.0113
 173   2.0000      -0.657566       -17.8933
 174   2.0000      -0.647402       -17.6167
 175   2.0000      -0.636772       -17.3275
 176   2.0000      -0.635079       -17.2814
 177   2.0000      -0.633405       -17.2358
 178   2.0000      -0.632549       -17.2125
 179   2.0000      -0.626511       -17.0482
 180   2.0000      -0.625532       -17.0216
 181   2.0000      -0.619818       -16.8661
 182   2.0000      -0.614713       -16.7272
 183   2.0000      -0.606455       -16.5025
 184   2.0000      -0.603967       -16.4348
 185   2.0000      -0.603571       -16.4240
 186   2.0000      -0.600306       -16.3352
 187   2.0000      -0.593596       -16.1526
 188   2.0000      -0.591070       -16.0838
 189   2.0000      -0.586050       -15.9472
 190   2.0000      -0.584636       -15.9088
 191   2.0000      -0.579295       -15.7634
 192   2.0000      -0.570911       -15.5353
 193   2.0000      -0.565291       -15.3824
 194   2.0000      -0.562142       -15.2967
 195   2.0000      -0.559849       -15.2343
 196   2.0000      -0.558921       -15.2090
 197   2.0000      -0.552091       -15.0232
 198   2.0000      -0.549162       -14.9434
 199   2.0000      -0.544386       -14.8135
 200   2.0000      -0.540614       -14.7108
 201   2.0000      -0.538717       -14.6592
 202   2.0000      -0.536231       -14.5916
 203   2.0000      -0.532915       -14.5014
 204   2.0000      -0.529395       -14.4056
 205   2.0000      -0.527102       -14.3432
 206   2.0000      -0.525616       -14.3028
 207   2.0000      -0.523641       -14.2490
 208   2.0000      -0.522873       -14.2281
 209   2.0000      -0.518876       -14.1193
 210   2.0000      -0.517459       -14.0808
 211   2.0000      -0.514678       -14.0051
 212   2.0000      -0.513215       -13.9653
 213   2.0000      -0.510259       -13.8848
 214   2.0000      -0.508104       -13.8262
 215   2.0000      -0.506631       -13.7861
 216   2.0000      -0.501694       -13.6518
 217   2.0000      -0.501293       -13.6409
 218   2.0000      -0.499289       -13.5863
 219   2.0000      -0.496027       -13.4976
 220   2.0000      -0.492119       -13.3912
 221   2.0000      -0.490535       -13.3481
 222   2.0000      -0.489266       -13.3136
 223   2.0000      -0.485406       -13.2086
 224   2.0000      -0.484509       -13.1842
 225   2.0000      -0.481231       -13.0950
 226   2.0000      -0.478406       -13.0181
 227   2.0000      -0.475536       -12.9400
 228   2.0000      -0.475034       -12.9263
 229   2.0000      -0.473616       -12.8877
 230   2.0000      -0.469899       -12.7866
 231   2.0000      -0.469345       -12.7715
 232   2.0000      -0.465100       -12.6560
 233   2.0000      -0.463617       -12.6157
 234   2.0000      -0.462045       -12.5729
 235   2.0000      -0.459469       -12.5028
 236   2.0000      -0.457742       -12.4558
 237   2.0000      -0.455919       -12.4062
 238   2.0000      -0.454372       -12.3641
 239   2.0000      -0.453297       -12.3349
 240   2.0000      -0.450058       -12.2467
 241   2.0000      -0.449058       -12.2195
 242   2.0000      -0.448272       -12.1981
 243   2.0000      -0.446956       -12.1623
 244   2.0000      -0.444020       -12.0824
 245   2.0000      -0.440465       -11.9857
 246   2.0000      -0.439184       -11.9508
 247   2.0000      -0.436953       -11.8901
 248   2.0000      -0.435302       -11.8452
 249   2.0000      -0.431490       -11.7414
 250   2.0000      -0.429788       -11.6951
 251   2.0000      -0.429415       -11.6850
 252   2.0000      -0.424483       -11.5508
 253   2.0000      -0.421112       -11.4590
 254   2.0000      -0.418484       -11.3875
 255   2.0000      -0.417493       -11.3606
 256   2.0000      -0.417208       -11.3528
 257   2.0000      -0.416401       -11.3309
 258   2.0000      -0.414297       -11.2736
 259   2.0000      -0.411466       -11.1966
 260   2.0000      -0.409683       -11.1480
 261   2.0000      -0.405714       -11.0400
 262   2.0000      -0.398401       -10.8410
 263   2.0000      -0.395924       -10.7737
 264   2.0000      -0.393344       -10.7034
 265   2.0000      -0.392720       -10.6865
 266   2.0000      -0.387279       -10.5384
 267   2.0000      -0.383181       -10.4269
 268   2.0000      -0.380481       -10.3534
 269   2.0000      -0.378960       -10.3120
 270   2.0000      -0.378602       -10.3023
 271   2.0000      -0.375107       -10.2072
 272   2.0000      -0.373382       -10.1602
 273   2.0000      -0.372431       -10.1344
 274   2.0000      -0.370015       -10.0686
 275   2.0000      -0.367860       -10.0100
 276   2.0000      -0.361389        -9.8339
 277   2.0000      -0.354042        -9.6340
 278   2.0000      -0.347082        -9.4446
 279   2.0000      -0.340245        -9.2585
 280   2.0000      -0.329908        -8.9773
 281   2.0000      -0.326203        -8.8764
 282   2.0000      -0.323676        -8.8077
 283   2.0000      -0.321936        -8.7603
 284   2.0000      -0.316777        -8.6199
 285   2.0000      -0.315391        -8.5822
 286   2.0000      -0.308034        -8.3820
 287   2.0000      -0.307460        -8.3664
 288   2.0000      -0.303343        -8.2544
 289   2.0000      -0.298172        -8.1137
 290   2.0000      -0.289550        -7.8791
 291   2.0000      -0.280513        -7.6332
 292   2.0000      -0.260357        -7.0847
 293   2.0000      -0.236282        -6.4296
 294   2.0000      -0.189618        -5.1598
 295   0.0000      -0.087787        -2.3888
 296   0.0000      -0.079229        -2.1559
 297   0.0000      -0.068397        -1.8612
 298   0.0000      -0.045770        -1.2455
 299   0.0000      -0.035572        -0.9680

MULLIKEN ATOMIC CHARGES
-----------------------
   0 C :    0.340305
   1 C :   -0.355107
   2 C :   -0.186050
   3 N :    0.152232
   4 C :   -0.169439
   5 N :    0.126657
   6 C :    0.003940
   7 C :   -0.017887
   8 C :   -0.064714
   9 C :    0.112589
  10 C :   -0.090733
  11 C :   -0.015203
  12 S :    0.190513
  13 C :   -0.124909
  14 C :    0.040639
  15 Br:    0.027071
  16 C :    0.168518
  17 O :   -0.204482
  18 C :   -0.139061
  19 C :    0.025128
  20 N :   -0.008545
  21 C :   -0.125738
  22 S :    0.201063
  23 C :   -0.008077
  24 N :    0.277023
  25 O :   -0.245114
  26 O :   -0.260508
  27 C :    0.004787
  28 C :    0.102188
  29 C :   -0.051761
  30 C :    0.013024
  31 C :    0.101165
  32 C :   -0.108798
  33 C :    0.047673
  34 C :    0.093851
  35 C :   -0.062834
  36 C :   -0.015652
  37 C :    0.088325
  38 C :    0.026276
  39 C :   -0.128262
  40 C :    0.076895
  41 C :   -0.001225
  42 C :    0.055395
  43 C :    0.038665
  44 C :   -0.089201
  45 C :    0.128037
  46 C :   -0.018419
  47 C :   -0.044372
  48 C :   -0.016429
  49 C :    0.012109
  50 C :   -0.002619
  51 C :   -0.018666
  52 C :    0.033613
  53 C :    0.026717
  54 C :   -0.042441
  55 S :    0.049567
  56 C :   -0.030503
  57 C :    0.025619
  58 C :    0.026672
  59 C :   -0.045537
  60 S :    0.056282
  61 C :   -0.027876
  62 C :   -0.141533
  63 S :    0.109022
  64 C :   -0.143301
  65 C :    0.101167
  66 C :    0.155474
  67 C :   -0.153733
  68 S :    0.012182
  69 C :    0.033240
  70 C :   -0.084155
  71 C :    0.128923
  72 O :   -0.177477
  73 C :    0.008998
  74 C :   -0.036603
  75 H :   -0.010220
  76 H :   -0.004944
  77 H :   -0.002288
  78 H :    0.059056
  79 H :    0.163660
  80 H :    0.014169
  81 H :    0.009335
  82 H :   -0.003655
  83 H :   -0.023311
  84 H :   -0.034835
  85 H :   -0.033278
  86 H :    0.008859
  87 H :   -0.000212
  88 H :    0.026927
  89 H :    0.017864
  90 H :    0.016608
  91 H :   -0.002524
  92 H :    0.003957
  93 H :    0.018086
  94 H :    0.014279
  95 H :    0.002888
  96 H :   -0.042597
  97 H :   -0.032744
  98 H :   -0.040062
  99 H :   -0.029581
 100 H :    0.006544
 101 H :   -0.020892
 102 H :   -0.015133
 103 H :   -0.015552
 104 H :   -0.019912
 105 H :   -0.012927
 106 H :   -0.017779
 107 H :    0.063635
 108 H :   -0.020677
 109 H :   -0.041969
 110 H :    0.185102
 111 H :    0.005279
 112 H :    0.020414
 113 H :    0.023855
Sum of atomic charges:   -0.0000000

LOEWDIN ATOMIC CHARGES
----------------------
   0 C :    0.084758
   1 C :   -0.152971
   2 C :   -0.019797
   3 N :   -0.056770
   4 C :   -0.007191
   5 N :   -0.061231
   6 C :   -0.019606
   7 C :   -0.050999
   8 C :    0.023561
   9 C :   -0.033205
  10 C :   -0.144370
  11 C :   -0.006038
  12 S :    0.436471
  13 C :   -0.270916
  14 C :   -0.070120
  15 Br:    0.139213
  16 C :    0.091485
  17 O :   -0.175245
  18 C :   -0.151675
  19 C :    0.130223
  20 N :    0.064556
  21 C :   -0.125436
  22 S :    0.472479
  23 C :   -0.203395
  24 N :    0.274211
  25 O :   -0.211020
  26 O :   -0.226823
  27 C :    0.003056
  28 C :   -0.079181
  29 C :   -0.040441
  30 C :   -0.003613
  31 C :   -0.038059
  32 C :   -0.013157
  33 C :    0.006261
  34 C :   -0.008442
  35 C :   -0.024087
  36 C :   -0.017308
  37 C :   -0.024008
  38 C :    0.010034
  39 C :   -0.032258
  40 C :   -0.013069
  41 C :   -0.058770
  42 C :   -0.011993
  43 C :   -0.058011
  44 C :   -0.017033
  45 C :   -0.022447
  46 C :   -0.021012
  47 C :   -0.019925
  48 C :   -0.017367
  49 C :   -0.032949
  50 C :   -0.054346
  51 C :   -0.144094
  52 C :   -0.037162
  53 C :   -0.033152
  54 C :   -0.179575
  55 S :    0.366457
  56 C :   -0.180465
  57 C :   -0.045345
  58 C :   -0.032407
  59 C :   -0.164152
  60 S :    0.367505
  61 C :   -0.080830
  62 C :   -0.178733
  63 S :    0.478397
  64 C :   -0.170844
  65 C :   -0.062056
  66 C :   -0.052185
  67 C :   -0.175670
  68 S :    0.220581
  69 C :   -0.032405
  70 C :   -0.098191
  71 C :    0.067373
  72 O :   -0.041008
  73 C :   -0.042782
  74 C :   -0.057145
  75 H :    0.041429
  76 H :    0.042052
  77 H :    0.039193
  78 H :    0.045620
  79 H :    0.087752
  80 H :    0.048237
  81 H :    0.033600
  82 H :    0.027131
  83 H :    0.024770
  84 H :    0.026584
  85 H :    0.024783
  86 H :    0.028044
  87 H :    0.021166
  88 H :    0.020070
  89 H :    0.029247
  90 H :    0.018783
  91 H :    0.021277
  92 H :    0.025481
  93 H :    0.023954
  94 H :    0.027211
  95 H :    0.019744
  96 H :    0.023070
  97 H :    0.024486
  98 H :    0.025060
  99 H :    0.025500
 100 H :    0.017788
 101 H :    0.030843
 102 H :    0.032298
 103 H :    0.031191
 104 H :    0.029785
 105 H :    0.032913
 106 H :    0.018512
 107 H :   -0.024743
 108 H :    0.028237
 109 H :    0.024465
 110 H :    0.098632
 111 H :    0.033800
 112 H :    0.013866
 113 H :    0.024032

  Mayer bond orders larger than 0.100000
B(  0-C ,  1-C ) :   1.6131 B(  0-C ,  6-C ) :   1.0033 B(  0-C , 18-C ) :   1.1112
B(  1-C ,  2-C ) :   1.1526 B(  1-C ,  4-C ) :   1.1666 B(  2-C ,  3-N ) :   2.9505
B(  4-C ,  5-N ) :   2.8738 B(  6-C ,  7-C ) :   1.2722 B(  6-C , 11-C ) :   1.4233
B(  7-C ,  8-C ) :   1.4266 B(  7-C , 16-C ) :   0.9672 B(  8-C ,  9-C ) :   1.2445
B(  8-C , 75-H ) :   1.0168 B(  9-C , 10-C ) :   1.3102 B(  9-C , 14-C ) :   1.1634
B( 10-C , 11-C ) :   1.3221 B( 10-C , 12-S ) :   1.0877 B( 11-C , 76-H ) :   0.9797
B( 12-S , 13-C ) :   1.0889 B( 13-C , 14-C ) :   1.6177 B( 13-C , 15-Br) :   1.0212
B( 14-C , 77-H ) :   0.9998 B( 16-C , 17-O ) :   2.0996 B( 16-C , 18-C ) :   0.9829
B( 17-O , 79-H ) :   0.1177 B( 18-C , 19-C ) :   1.4698 B( 19-C , 20-N ) :   1.3537
B( 19-C , 78-H ) :   0.9212 B( 20-N , 21-C ) :   1.1072 B( 20-N , 79-H ) :   0.8509
B( 21-C , 22-S ) :   1.1422 B( 21-C , 28-C ) :   1.4376 B( 22-S , 23-C ) :   1.1049
B( 23-C , 24-N ) :   0.9631 B( 23-C , 27-C ) :   1.4785 B( 24-N , 25-O ) :   1.5408
B( 24-N , 26-O ) :   1.5147 B( 25-O , 26-O ) :   0.2634 B( 27-C , 28-C ) :   1.2383
B( 27-C , 80-H ) :   1.0079 B( 28-C , 29-C ) :   1.0174 B( 29-C , 30-C ) :   1.7862
B( 29-C , 81-H ) :   0.9606 B( 30-C , 31-C ) :   1.0657 B( 30-C , 82-H ) :   0.9615
B( 31-C , 32-C ) :   1.3121 B( 31-C , 36-C ) :   1.3378 B( 32-C , 33-C ) :   1.3861
B( 32-C , 83-H ) :   0.9949 B( 33-C , 34-C ) :   1.3815 B( 33-C , 39-C ) :   0.9319
B( 34-C , 35-C ) :   1.3381 B( 34-C , 37-C ) :   0.9989 B( 35-C , 36-C ) :   1.3742
B( 35-C , 84-H ) :   0.9921 B( 36-C , 85-H ) :   0.9948 B( 37-C , 38-C ) :   1.3726
B( 37-C , 47-C ) :   1.3340 B( 38-C , 39-C ) :   0.9382 B( 38-C , 44-C ) :   1.4196
B( 39-C , 40-C ) :   0.9936 B( 39-C , 42-C ) :   1.0212 B( 40-C , 41-C ) :   1.1250
B( 40-C , 86-H ) :   0.9369 B( 40-C , 87-H ) :   0.9339 B( 41-C , 88-H ) :   0.9547
B( 41-C , 89-H ) :   0.9568 B( 41-C , 90-H ) :   0.9607 B( 42-C , 43-C ) :   1.1146
B( 42-C , 91-H ) :   0.9356 B( 42-C , 92-H ) :   0.9424 B( 43-C , 93-H ) :   0.9579
B( 43-C , 94-H ) :   0.9567 B( 43-C , 95-H ) :   0.9628 B( 44-C , 45-C ) :   1.2920
B( 44-C , 96-H ) :   0.9915 B( 45-C , 46-C ) :   1.3261 B( 45-C , 48-C ) :   1.0730
B( 46-C , 47-C ) :   1.3847 B( 46-C , 97-H ) :   0.9930 B( 47-C , 98-H ) :   0.9900
B( 48-C , 49-C ) :   1.6411 B( 48-C , 99-H ) :   0.9905 B( 49-C , 50-C ) :   1.1546
B( 49-C ,100-H ) :   0.9586 B( 50-C , 51-C ) :   1.5506 B( 50-C ,101-H ) :   0.9873
B( 51-C , 52-C ) :   1.1495 B( 51-C , 55-S ) :   1.0314 B( 52-C , 53-C ) :   1.5728
B( 52-C ,102-H ) :   0.9988 B( 53-C , 54-C ) :   1.2034 B( 53-C ,103-H ) :   0.9945
B( 54-C , 55-S ) :   1.0488 B( 54-C , 56-C ) :   1.4840 B( 56-C , 57-C ) :   1.2032
B( 56-C , 60-S ) :   1.0420 B( 57-C , 58-C ) :   1.5623 B( 57-C ,104-H ) :   0.9934
B( 58-C , 59-C ) :   1.1714 B( 58-C ,105-H ) :   1.0002 B( 59-C , 60-S ) :   1.0365
B( 59-C , 61-C ) :   1.5234 B( 61-C , 62-C ) :   1.2405 B( 61-C ,106-H ) :   0.9386
B( 62-C , 63-S ) :   1.1163 B( 62-C , 66-C ) :   1.2991 B( 63-S , 64-C ) :   1.1447
B( 64-C , 65-C ) :   1.3316 B( 64-C , 73-C ) :   1.1647 B( 65-C , 66-C ) :   1.2419
B( 65-C , 71-C ) :   1.1781 B( 66-C , 67-C ) :   1.2368 B( 67-C , 68-S ) :   1.0172
B( 67-C , 69-C ) :   1.5326 B( 68-S ,106-H ) :   0.1015 B( 68-S ,107-H ) :   0.9497
B( 69-C , 70-C ) :   1.2246 B( 69-C ,108-H ) :   0.9812 B( 70-C , 71-C ) :   1.4609
B( 70-C ,109-H ) :   0.9837 B( 71-C , 72-O ) :   1.2181 B( 72-O ,110-H ) :   0.9534
B( 73-C , 74-C ) :   1.8703 B( 73-C ,111-H ) :   0.9480 B( 74-C ,112-H ) :   0.9551
B( 74-C ,113-H ) :   0.9478

-----------------------------------------------------------------------------
         ABSORPTION SPECTRUM VIA TRANSITION ELECTRIC DIPOLE MOMENTS
-----------------------------------------------------------------------------
State   Energy  Wavelength   fosc         T2         TX        TY        TZ
        (cm-1)    (nm)                  (au**2)     (au)      (au)      (au)
-----------------------------------------------------------------------------
   0   11149.6    896.9   0.817605577  24.14119   2.88485  -3.70111  -1.45623
   1   13973.6    715.6   0.017362778   0.40906   0.02950  -0.52655   0.36184
   2   18386.9    543.9   0.003944238   0.07062   0.05784   0.23169  -0.11659
   3   18907.2    528.9   0.028890867   0.50305   0.22290   0.42003  -0.52625
   4   20745.3    482.0   0.145117029   2.30290  -0.04633  -0.21618   1.50134
   5   21844.8    457.8   1.429204408  21.53884   3.17385   2.30869  -2.47699
   6   23898.7    418.4   0.071628867   0.98671   0.78219  -0.11423  -0.60153
   7   24749.0    404.1   0.121509566   1.61632   0.48633  -0.19119  -1.15899
   8   24949.3    400.8   0.316917234   4.18180  -1.51433  -1.19528  -0.67818
   9   25738.0    388.5   0.019301610   0.24688  -0.25780  -0.27062   0.32740
  10   26700.1    374.5   0.401185318   4.94661   0.10944   2.13624  -0.60920
  11   27535.6    363.2   0.223616001   2.67353   1.07629   1.16621   0.39380
  12   28796.4    347.3   0.041978221   0.47991   0.54677   0.41637   0.08714
  13   29280.9    341.5   0.135607159   1.52466  -0.01090   1.19152  -0.32375
  14   29768.4    335.9   0.536126539   5.92908   0.03188  -1.69030  -1.75242
  15   29800.5    335.6   0.174160908   1.92399   0.00730  -1.03213  -0.92663
  16   29897.3    334.5   0.151375587   1.66686  -0.57707   0.10699   1.14996
  17   30278.4    330.3   0.141289283   1.53622  -0.16841  -1.15962   0.40389
  18   31006.0    322.5   0.005964403   0.06333   0.12830  -0.19211   0.09981
  19   31191.6    320.6   0.028715259   0.30308   0.34004   0.19845  -0.38479
  20   31492.8    317.5   0.060541630   0.63288  -0.37479   0.70157  -0.01417
  21   32402.0    308.6   0.076632532   0.77860   0.12482  -0.65699  -0.57567
  22   32596.4    306.8   0.339224877   3.42605  -0.09066  -1.22826  -1.38175
  23   32836.1    304.5   0.016069220   0.16111  -0.21175  -0.33176   0.07879
  24   33360.5    299.8   0.014335195   0.14146   0.12093  -0.22980  -0.27209
  25   33609.9    297.5   0.008829750   0.08649   0.09725   0.26138  -0.09333
  26   33659.7    297.1   0.006052041   0.05919   0.02291   0.11029  -0.21565
  27   34061.7    293.6   0.108654128   1.05016  -0.10824   1.01100   0.12780
  28   34391.6    290.8   0.204635337   1.95886   0.63605   1.05000  -0.67216
  29   34455.7    290.2   0.049465390   0.47262  -0.44690  -0.32134   0.41188
  30   34509.0    289.8   0.402952322   3.84412   1.40072  -0.09916  -1.36831
  31   34631.7    288.8   0.034163406   0.32476  -0.25573  -0.49201  -0.13146
  32   34932.5    286.3   0.125223684   1.18014  -0.65579  -0.73223   0.46251
  33   35216.9    284.0   0.003452194   0.03227  -0.16165  -0.07180  -0.03139
  34   35415.7    282.4   0.001265931   0.01177  -0.06158   0.05311   0.07180
  35   35717.9    280.0   0.039091100   0.36030  -0.41279   0.39115   0.19213
  36   35945.7    278.2   0.006477619   0.05933  -0.00658  -0.24260   0.02067
  37   36176.9    276.4   0.010719556   0.09755   0.28798  -0.08657  -0.08438
  38   36762.4    272.0   0.068668785   0.61494   0.60163   0.24067  -0.44165
  39   36910.7    270.9   0.013789359   0.12299   0.10727   0.28645  -0.17154
  40   36936.2    270.7   0.064443488   0.57438   0.26533  -0.70909  -0.03439
  41   37313.5    268.0   0.021677292   0.19126   0.32001   0.13945   0.26345
  42   37600.4    266.0   0.083159841   0.72811   0.05042   0.84359   0.11796
  43   37769.6    264.8   0.021754315   0.18962  -0.14456  -0.03516   0.40925
  44   38120.5    262.3   0.124739023   1.07726   0.76951  -0.60121  -0.35165
  45   38408.1    260.4   0.279317951   2.39415  -1.04093   0.98941   0.57593
  46   38660.3    258.7   0.043241530   0.36822  -0.11474   0.59115   0.07483
  47   38998.3    256.4   0.101624710   0.85788   0.52340   0.60513   0.46663
  48   39309.8    254.4   0.017573498   0.14717   0.33200  -0.15390  -0.11518
  49   39550.9    252.8   0.002161578   0.01799  -0.04118  -0.05158   0.11677
  50   39744.0    251.6   0.018567584   0.15380   0.18394   0.34261   0.05085
  51   39818.2    251.1   0.120723214   0.99812  -0.49576  -0.83256  -0.24329
  52   39904.1    250.6   0.093740869   0.77337  -0.76491  -0.43169  -0.04386
  53   40089.3    249.4   0.005149281   0.04229   0.14888  -0.14006  -0.02247

FINAL SINGLE POINT ENERGY     -7788.388283124757

DIPOLE MOMENT
-------------
                                X             Y             Z
Electronic contribution:    -43.21874      27.77697     179.28170
Nuclear contribution   :     43.15341     -26.17883    -178.13450
                        -----------------------------------------
Total Dipole Moment    :     -0.06533       1.59814       1.14720
                        -----------------------------------------
Magnitude (a.u.)       :      1.96835
Magnitude (Debye)      :      5.00314

Rotational constants in cm-1:     0.000756     0.000254     0.000222
Rotational constants in MHz :    22.659250     7.603770     6.654055

                             ****ORCA TERMINATED NORMALLY****
TOTAL RUN TIME: 0 days 0 hours 13 minutes 54 seconds 780 msec
