                         Program Version 4.2.0 -  RELEASE  -
|  1> # ORCA input file
|  2> # SCF done       -180.544100709280          0.000483211424
|  3> ! CAM-B3LYP def2-SVP def2/J RIJCOSX Grid4 TightSCF
|  4> %maxcore 5000
|  5> %tddft
|  6>     Mode sTDDFT
|  7>     Ethresh 5.0
|  8>     maxcore 5000
|  9> end
| 10>
| 11> %pal
| 12>   nprocs 6
| 13>   end
| 14> * xyz 0 1
| 15>    C       -8.91526        -5.17767        -2.06292
| 16>    C       -8.90188        -5.81991        -0.84826
| 17>    C       -9.81080        -6.83320        -0.48033
| 18>    N      -10.51800        -7.66022        -0.11252
| 19>    C       -8.01655        -5.57315         0.21999
| 20>    N       -7.36455        -5.42940         1.15588
| 21>    C       -9.89085        -5.42567        -3.12233
| 22>    C       -9.60496        -4.56696        -4.21052
| 23>    C      -10.35626        -4.54258        -5.35904
| 24>    C      -11.45062        -5.41048        -5.43919
| 25>    C      -11.72885        -6.26821        -4.34970
| 26>    C      -10.96546        -6.29265        -3.18842
| 27>    S      -13.12601        -7.25611        -4.65554
| 28>    C      -13.31483        -6.51061        -6.22034
| 29>    C      -12.38078        -5.57198        -6.50240
| 30>   Br      -14.72889        -7.04038        -7.33333
| 31>    C       -8.41604        -3.75589        -3.88587
| 32>    O       -7.88656        -2.94349        -4.62221
| 33>    C       -8.01814        -4.13969        -2.52715
| 34>    C       -7.00770        -3.57096        -1.78587
| 35>    C       -6.09691        -2.55995        -2.11454
| 36>    S       -5.74934        -2.02261        -3.74093
| 37>    C       -4.40604        -1.12484        -3.18160
| 38>    C       -4.22693        -1.16025        -1.82974
| 39>    C       -3.14852        -0.41701        -1.11389
| 40>    C       -5.21069        -1.96060        -1.18801
| 41>    C       -5.27600        -2.05201         0.23488
| 42>    C       -6.36349        -2.31941         1.00103
| 43>    C       -6.29947        -2.35669         2.41599
| 44>    C       -7.34191        -2.74220         3.19591
| 45>    C       -7.29099        -2.71113         4.60920
| 46>    O       -8.33459        -3.19960         5.33558
| 47>    C       -6.36147        -2.18636         5.49198
| 48>    C       -5.06328        -1.52015         5.58613
| 49>    O       -4.26906        -1.19470         4.73592
| 50>    N       -4.89727        -1.31479         6.94994
| 51>    C       -5.94894        -1.77025         7.75143
| 52>    O       -5.99032        -1.64892         8.95272
| 53>    C       -6.88469        -2.34821         6.79789
| 54>    C       -8.11094        -2.99506         6.66544
| 55>    C       -9.05232        -3.44134         7.60802
| 56>    C       -8.94716        -3.15605         8.94413
| 57>    C       -9.84806        -3.59746         9.91511
| 58>    C       -9.80594        -3.19096        11.23249
| 59>    C      -10.65366        -3.60768        12.28553
| 60>    C      -10.41210        -2.98809        13.47649
| 61>    C       -9.37133        -2.03738        13.42103
| 62>    S       -8.67533        -1.98854        11.81427
| 63>    C       -8.92880        -1.18199        14.41303
| 64>    C       -9.41603        -1.04294        15.73413
| 65>    C       -8.79511        -0.06032        16.43712
| 66>    C       -7.79371         0.65081        15.71272
| 67>    S       -7.66054        -0.02351        14.10223
| 68>    C       -7.04312         1.65214        16.26116
| 69>    C       -5.99348         2.47397        15.75312
| 70>    C       -5.67982         2.71705        14.40651
| 71>    O       -6.55038         2.18595        13.52094
| 72>    C       -6.30967         2.09179        12.13155
| 73>    C       -4.56292         3.54655        14.05002
| 74>    O       -4.34270         3.71743        12.71466
| 75>    C       -3.26614         4.52273        12.29866
| 76>    C       -3.77767         4.14531        15.00610
| 77>    C       -4.09043         3.95949        16.35906
| 78>    C       -5.20153         3.13661        16.73478
| 79>    N       -5.35498         3.07554        18.05301
| 80>    S       -4.20977         3.97651        18.74937
| 81>    N       -3.46392         4.48026        17.41160
| 82>    H      -10.10996        -3.87328        -6.16831
| 83>    H      -11.22277        -6.96575        -2.38823
| 84>    H      -12.34767        -5.01453        -7.42062
| 85>    H       -6.87521        -3.96130        -0.78515
| 86>    H       -3.80973        -0.57921        -3.88825
| 87>    H       -2.53587         0.13127        -1.82451
| 88>    H       -2.50926        -1.10646        -0.56362
| 89>    H       -3.57643         0.28836        -0.40321
| 90>    H       -4.35530        -1.81923         0.75434
| 91>    H       -7.33560        -2.47215         0.55404
| 92>    H       -5.36951        -2.06644         2.88599
| 93>    H       -8.26149        -3.10141         2.75653
| 94>    H       -4.07940        -0.86641         7.33633
| 95>    H       -9.88736        -4.01262         7.22853
| 96>    H       -8.11899        -2.54198         9.27513
| 97>    H      -10.63330        -4.28502         9.62904
| 98>    H      -11.41607        -4.35069        12.13011
| 99>    H      -10.96006        -3.18091        14.38153
|100>    H      -10.20952        -1.65784        16.11973
|101>    H       -9.02629         0.19745        17.45580
|102>    H       -7.22558         1.82969        17.31534
|103>    H       -5.35209         1.61678        11.91712
|104>    H       -6.35288         3.06972        11.65058
|105>    H       -7.11265         1.45966        11.75242
|106>    H       -3.29522         4.50039        11.21037
|107>    H       -2.30808         4.12360        12.64440
|108>    H       -3.37921         5.55470        12.64419
|109>    H       -2.93957         4.77081        14.75449
|110> *
|111>
|112>                          ****END OF INPUT****

CARTESIAN COORDINATES (ANGSTROEM)
---------------------------------
  C     -8.915260   -5.177670   -2.062920
  C     -8.901880   -5.819910   -0.848260
  C     -9.810800   -6.833200   -0.480330
  N    -10.518000   -7.660220   -0.112520
  C     -8.016550   -5.573150    0.219990
  N     -7.364550   -5.429400    1.155880
  C     -9.890850   -5.425670   -3.122330
  C     -9.604960   -4.566960   -4.210520
  C    -10.356260   -4.542580   -5.359040
  C    -11.450620   -5.410480   -5.439190
  C    -11.728850   -6.268210   -4.349700
  C    -10.965460   -6.292650   -3.188420
  S    -13.126010   -7.256110   -4.655540
  C    -13.314830   -6.510610   -6.220340
  C    -12.380780   -5.571980   -6.502400
  Br   -14.728890   -7.040380   -7.333330
  C     -8.416040   -3.755890   -3.885870
  O     -7.886560   -2.943490   -4.622210
  C     -8.018140   -4.139690   -2.527150
  C     -7.007700   -3.570960   -1.785870
  C     -6.096910   -2.559950   -2.114540
  S     -5.749340   -2.022610   -3.740930
  C     -4.406040   -1.124840   -3.181600
  C     -4.226930   -1.160250   -1.829740
  C     -3.148520   -0.417010   -1.113890
  C     -5.210690   -1.960600   -1.188010
  C     -5.276000   -2.052010    0.234880
  C     -6.363490   -2.319410    1.001030
  C     -6.299470   -2.356690    2.415990
  C     -7.341910   -2.742200    3.195910
  C     -7.290990   -2.711130    4.609200
  O     -8.334590   -3.199600    5.335580
  C     -6.361470   -2.186360    5.491980
  C     -5.063280   -1.520150    5.586130
  O     -4.269060   -1.194700    4.735920
  N     -4.897270   -1.314790    6.949940
  C     -5.948940   -1.770250    7.751430
  O     -5.990320   -1.648920    8.952720
  C     -6.884690   -2.348210    6.797890
  C     -8.110940   -2.995060    6.665440
  C     -9.052320   -3.441340    7.608020
  C     -8.947160   -3.156050    8.944130
  C     -9.848060   -3.597460    9.915110
  C     -9.805940   -3.190960   11.232490
  C    -10.653660   -3.607680   12.285530
  C    -10.412100   -2.988090   13.476490
  C     -9.371330   -2.037380   13.421030
  S     -8.675330   -1.988540   11.814270
  C     -8.928800   -1.181990   14.413030
  C     -9.416030   -1.042940   15.734130
  C     -8.795110   -0.060320   16.437120
  C     -7.793710    0.650810   15.712720
  S     -7.660540   -0.023510   14.102230
  C     -7.043120    1.652140   16.261160
  C     -5.993480    2.473970   15.753120
  C     -5.679820    2.717050   14.406510
  O     -6.550380    2.185950   13.520940
  C     -6.309670    2.091790   12.131550
  C     -4.562920    3.546550   14.050020
  O     -4.342700    3.717430   12.714660
  C     -3.266140    4.522730   12.298660
  C     -3.777670    4.145310   15.006100
  C     -4.090430    3.959490   16.359060
  C     -5.201530    3.136610   16.734780
  N     -5.354980    3.075540   18.053010
  S     -4.209770    3.976510   18.749370
  N     -3.463920    4.480260   17.411600
  H    -10.109960   -3.873280   -6.168310
  H    -11.222770   -6.965750   -2.388230
  H    -12.347670   -5.014530   -7.420620
  H     -6.875210   -3.961300   -0.785150
  H     -3.809730   -0.579210   -3.888250
  H     -2.535870    0.131270   -1.824510
  H     -2.509260   -1.106460   -0.563620
  H     -3.576430    0.288360   -0.403210
  H     -4.355300   -1.819230    0.754340
  H     -7.335600   -2.472150    0.554040
  H     -5.369510   -2.066440    2.885990
  H     -8.261490   -3.101410    2.756530
  H     -4.079400   -0.866410    7.336330
  H     -9.887360   -4.012620    7.228530
  H     -8.118990   -2.541980    9.275130
  H    -10.633300   -4.285020    9.629040
  H    -11.416070   -4.350690   12.130110
  H    -10.960060   -3.180910   14.381530
  H    -10.209520   -1.657840   16.119730
  H     -9.026290    0.197450   17.455800
  H     -7.225580    1.829690   17.315340
  H     -5.352090    1.616780   11.917120
  H     -6.352880    3.069720   11.650580
  H     -7.112650    1.459660   11.752420
  H     -3.295220    4.500390   11.210370
  H     -2.308080    4.123600   12.644400
  H     -3.379210    5.554700   12.644190
  H     -2.939570    4.770810   14.754490

 Total Charge           Charge          ....    0
 Multiplicity           Mult            ....    1
 Number of Electrons    NEL             ....  526
 Basis Dimension        Dim             .... 1116

ORBITAL ENERGIES
----------------

  NO   OCC          E(Eh)            E(eV)
   0   2.0000    -482.882531    -13139.9017
   1   2.0000     -89.005510     -2421.9631
   2   2.0000     -88.971611     -2421.0406
   3   2.0000     -88.953820     -2420.5565
   4   2.0000     -88.936981     -2420.0983
   5   2.0000     -88.936577     -2420.0873
   6   2.0000     -62.560252     -1702.3510
   7   2.0000     -56.394200     -1534.5642
   8   2.0000     -56.391490     -1534.4905
   9   2.0000     -56.391454     -1534.4895
  10   2.0000     -19.292421      -524.9735
  11   2.0000     -19.260929      -524.1165
  12   2.0000     -19.255193      -523.9604
  13   2.0000     -19.212642      -522.8026
  14   2.0000     -19.200886      -522.4827
  15   2.0000     -19.199058      -522.4329
  16   2.0000     -14.442857      -393.0101
  17   2.0000     -14.423819      -392.4921
  18   2.0000     -14.422888      -392.4667
  19   2.0000     -14.412875      -392.1943
  20   2.0000     -14.408245      -392.0683
  21   2.0000     -10.388378      -282.6821
  22   2.0000     -10.386451      -282.6297
  23   2.0000     -10.361720      -281.9567
  24   2.0000     -10.355135      -281.7775
  25   2.0000     -10.353617      -281.7362
  26   2.0000     -10.351748      -281.6854
  27   2.0000     -10.346437      -281.5409
  28   2.0000     -10.344012      -281.4749
  29   2.0000     -10.336229      -281.2631
  30   2.0000     -10.334043      -281.2036
  31   2.0000     -10.333997      -281.2024
  32   2.0000     -10.320849      -280.8446
  33   2.0000     -10.316286      -280.7204
  34   2.0000     -10.315370      -280.6955
  35   2.0000     -10.312172      -280.6085
  36   2.0000     -10.311988      -280.6035
  37   2.0000     -10.310847      -280.5724
  38   2.0000     -10.310524      -280.5636
  39   2.0000     -10.306637      -280.4579
  40   2.0000     -10.304483      -280.3992
  41   2.0000     -10.304081      -280.3883
  42   2.0000     -10.302999      -280.3589
  43   2.0000     -10.302548      -280.3466
  44   2.0000     -10.300918      -280.3022
  45   2.0000     -10.300611      -280.2939
  46   2.0000     -10.300402      -280.2882
  47   2.0000     -10.296066      -280.1702
  48   2.0000     -10.294358      -280.1237
  49   2.0000     -10.293793      -280.1084
  50   2.0000     -10.293083      -280.0890
  51   2.0000     -10.288743      -279.9709
  52   2.0000     -10.286454      -279.9086
  53   2.0000     -10.285993      -279.8961
  54   2.0000     -10.285280      -279.8767
  55   2.0000     -10.282405      -279.7985
  56   2.0000     -10.281182      -279.7652
  57   2.0000     -10.280705      -279.7522
  58   2.0000     -10.280427      -279.7446
  59   2.0000     -10.280306      -279.7414
  60   2.0000     -10.280020      -279.7336
  61   2.0000     -10.278155      -279.6828
  62   2.0000     -10.276921      -279.6492
  63   2.0000     -10.276907      -279.6489
  64   2.0000     -10.275216      -279.6029
  65   2.0000     -10.275024      -279.5976
  66   2.0000     -10.273187      -279.5476
  67   2.0000     -10.270640      -279.4783
  68   2.0000     -10.270027      -279.4617
  69   2.0000     -10.269891      -279.4579
  70   2.0000     -10.267012      -279.3796
  71   2.0000      -8.789685      -239.1795
  72   2.0000      -8.097617      -220.3473
  73   2.0000      -8.067583      -219.5301
  74   2.0000      -8.048136      -219.0009
  75   2.0000      -8.033193      -218.5943
  76   2.0000      -8.031846      -218.5576
  77   2.0000      -6.625990      -180.3023
  78   2.0000      -6.611417      -179.9058
  79   2.0000      -6.611221      -179.9005
  80   2.0000      -6.068921      -165.1437
  81   2.0000      -6.061352      -164.9378
  82   2.0000      -6.059612      -164.8904
  83   2.0000      -6.037273      -164.2825
  84   2.0000      -6.033004      -164.1664
  85   2.0000      -6.028802      -164.0521
  86   2.0000      -6.017506      -163.7447
  87   2.0000      -6.012830      -163.6174
  88   2.0000      -6.010483      -163.5536
  89   2.0000      -6.002885      -163.3468
  90   2.0000      -6.001703      -163.3146
  91   2.0000      -5.998862      -163.2373
  92   2.0000      -5.997373      -163.1968
  93   2.0000      -5.994139      -163.1088
  94   2.0000      -5.992824      -163.0730
  95   2.0000      -2.741819       -74.6087
  96   2.0000      -2.737777       -74.4987
  97   2.0000      -2.737652       -74.4953
  98   2.0000      -2.726051       -74.1796
  99   2.0000      -2.726044       -74.1794
 100   2.0000      -1.207462       -32.8567
 101   2.0000      -1.172753       -31.9122
 102   2.0000      -1.150142       -31.2970
 103   2.0000      -1.143082       -31.1048
 104   2.0000      -1.128221       -30.7005
 105   2.0000      -1.122237       -30.5376
 106   2.0000      -1.108060       -30.1519
 107   2.0000      -1.029973       -28.0270
 108   2.0000      -1.018261       -27.7083
 109   2.0000      -1.009358       -27.4660
 110   2.0000      -0.989775       -26.9331
 111   2.0000      -0.989685       -26.9307
 112   2.0000      -0.988661       -26.9028
 113   2.0000      -0.983308       -26.7572
 114   2.0000      -0.968478       -26.3536
 115   2.0000      -0.963481       -26.2176
 116   2.0000      -0.949326       -25.8325
 117   2.0000      -0.937879       -25.5210
 118   2.0000      -0.922703       -25.1080
 119   2.0000      -0.912898       -24.8412
 120   2.0000      -0.903900       -24.5964
 121   2.0000      -0.901919       -24.5425
 122   2.0000      -0.898848       -24.4589
 123   2.0000      -0.888818       -24.1860
 124   2.0000      -0.881224       -23.9793
 125   2.0000      -0.878726       -23.9113
 126   2.0000      -0.869742       -23.6669
 127   2.0000      -0.861315       -23.4376
 128   2.0000      -0.858733       -23.3673
 129   2.0000      -0.848001       -23.0753
 130   2.0000      -0.837696       -22.7949
 131   2.0000      -0.832758       -22.6605
 132   2.0000      -0.825113       -22.4525
 133   2.0000      -0.820092       -22.3158
 134   2.0000      -0.813579       -22.1386
 135   2.0000      -0.806742       -21.9526
 136   2.0000      -0.796522       -21.6745
 137   2.0000      -0.784620       -21.3506
 138   2.0000      -0.777372       -21.1534
 139   2.0000      -0.764878       -20.8134
 140   2.0000      -0.756424       -20.5833
 141   2.0000      -0.754560       -20.5326
 142   2.0000      -0.749955       -20.4073
 143   2.0000      -0.746600       -20.3160
 144   2.0000      -0.734642       -19.9906
 145   2.0000      -0.716758       -19.5040
 146   2.0000      -0.707717       -19.2580
 147   2.0000      -0.698480       -19.0066
 148   2.0000      -0.691145       -18.8070
 149   2.0000      -0.688356       -18.7311
 150   2.0000      -0.686100       -18.6697
 151   2.0000      -0.682951       -18.5840
 152   2.0000      -0.678984       -18.4761
 153   2.0000      -0.661800       -18.0085
 154   2.0000      -0.658293       -17.9131
 155   2.0000      -0.654288       -17.8041
 156   2.0000      -0.641528       -17.4569
 157   2.0000      -0.633289       -17.2327
 158   2.0000      -0.629088       -17.1184
 159   2.0000      -0.625871       -17.0308
 160   2.0000      -0.621505       -16.9120
 161   2.0000      -0.617782       -16.8107
 162   2.0000      -0.614467       -16.7205
 163   2.0000      -0.611915       -16.6511
 164   2.0000      -0.610099       -16.6016
 165   2.0000      -0.604395       -16.4464
 166   2.0000      -0.597612       -16.2618
 167   2.0000      -0.592718       -16.1287
 168   2.0000      -0.584983       -15.9182
 169   2.0000      -0.583136       -15.8679
 170   2.0000      -0.582730       -15.8569
 171   2.0000      -0.582253       -15.8439
 172   2.0000      -0.574708       -15.6386
 173   2.0000      -0.573768       -15.6130
 174   2.0000      -0.567761       -15.4496
 175   2.0000      -0.556612       -15.1462
 176   2.0000      -0.552969       -15.0471
 177   2.0000      -0.546722       -14.8771
 178   2.0000      -0.545371       -14.8403
 179   2.0000      -0.542592       -14.7647
 180   2.0000      -0.540001       -14.6942
 181   2.0000      -0.538917       -14.6647
 182   2.0000      -0.536672       -14.6036
 183   2.0000      -0.534395       -14.5416
 184   2.0000      -0.529759       -14.4155
 185   2.0000      -0.529170       -14.3994
 186   2.0000      -0.528439       -14.3796
 187   2.0000      -0.525487       -14.2992
 188   2.0000      -0.522512       -14.2183
 189   2.0000      -0.520662       -14.1679
 190   2.0000      -0.515395       -14.0246
 191   2.0000      -0.512286       -13.9400
 192   2.0000      -0.510530       -13.8922
 193   2.0000      -0.508154       -13.8276
 194   2.0000      -0.505224       -13.7479
 195   2.0000      -0.504495       -13.7280
 196   2.0000      -0.500190       -13.6108
 197   2.0000      -0.494912       -13.4673
 198   2.0000      -0.491463       -13.3734
 199   2.0000      -0.491113       -13.3639
 200   2.0000      -0.490250       -13.3404
 201   2.0000      -0.487286       -13.2597
 202   2.0000      -0.485272       -13.2049
 203   2.0000      -0.483866       -13.1667
 204   2.0000      -0.483382       -13.1535
 205   2.0000      -0.478931       -13.0324
 206   2.0000      -0.471116       -12.8197
 207   2.0000      -0.469929       -12.7874
 208   2.0000      -0.468762       -12.7556
 209   2.0000      -0.465683       -12.6719
 210   2.0000      -0.463270       -12.6062
 211   2.0000      -0.461350       -12.5540
 212   2.0000      -0.457468       -12.4483
 213   2.0000      -0.456604       -12.4248
 214   2.0000      -0.454587       -12.3699
 215   2.0000      -0.451143       -12.2762
 216   2.0000      -0.449094       -12.2205
 217   2.0000      -0.447157       -12.1678
 218   2.0000      -0.445655       -12.1269
 219   2.0000      -0.443296       -12.0627
 220   2.0000      -0.442649       -12.0451
 221   2.0000      -0.439004       -11.9459
 222   2.0000      -0.437322       -11.9001
 223   2.0000      -0.435541       -11.8517
 224   2.0000      -0.432474       -11.7682
 225   2.0000      -0.430727       -11.7207
 226   2.0000      -0.424827       -11.5601
 227   2.0000      -0.424162       -11.5420
 228   2.0000      -0.422680       -11.5017
 229   2.0000      -0.416560       -11.3352
 230   2.0000      -0.413119       -11.2415
 231   2.0000      -0.412237       -11.2175
 232   2.0000      -0.405966       -11.0469
 233   2.0000      -0.403979       -10.9928
 234   2.0000      -0.400224       -10.8906
 235   2.0000      -0.397850       -10.8261
 236   2.0000      -0.395995       -10.7756
 237   2.0000      -0.387267       -10.5381
 238   2.0000      -0.385481       -10.4895
 239   2.0000      -0.384863       -10.4726
 240   2.0000      -0.377633       -10.2759
 241   2.0000      -0.375793       -10.2258
 242   2.0000      -0.372035       -10.1236
 243   2.0000      -0.370664       -10.0863
 244   2.0000      -0.365108        -9.9351
 245   2.0000      -0.357217        -9.7204
 246   2.0000      -0.355344        -9.6694
 247   2.0000      -0.354408        -9.6439
 248   2.0000      -0.347399        -9.4532
 249   2.0000      -0.343299        -9.3416
 250   2.0000      -0.335074        -9.1178
 251   2.0000      -0.330229        -8.9860
 252   2.0000      -0.329701        -8.9716
 253   2.0000      -0.324899        -8.8410
 254   2.0000      -0.312867        -8.5135
 255   2.0000      -0.311197        -8.4681
 256   2.0000      -0.299997        -8.1633
 257   2.0000      -0.291540        -7.9332
 258   2.0000      -0.289592        -7.8802
 259   2.0000      -0.282491        -7.6870
 260   2.0000      -0.271072        -7.3762
 261   2.0000      -0.245115        -6.6699
 262   2.0000      -0.201335        -5.4786
 263   0.0000      -0.091363        -2.4861
 264   0.0000      -0.080140        -2.1807
 265   0.0000      -0.058762        -1.5990
 266   0.0000      -0.042480        -1.1559
 267   0.0000      -0.037353        -1.0164

MULLIKEN ATOMIC CHARGES
-----------------------
   0 C :    0.328110
   1 C :   -0.363050
   2 C :   -0.187456
   3 N :    0.140217
   4 C :   -0.195756
   5 N :    0.148677
   6 C :    0.007436
   7 C :   -0.009547
   8 C :   -0.073979
   9 C :    0.117979
  10 C :   -0.094041
  11 C :   -0.019558
  12 S :    0.183568
  13 C :   -0.123631
  14 C :    0.039780
  15 Br:    0.020102
  16 C :    0.152555
  17 O :   -0.174090
  18 C :   -0.106236
  19 C :   -0.037619
  20 C :   -0.133334
  21 S :    0.192529
  22 C :   -0.094816
  23 C :   -0.090520
  24 C :    0.118385
  25 C :    0.152860
  26 C :   -0.056134
  27 C :    0.041832
  28 C :   -0.005705
  29 C :    0.021323
  30 C :    0.125114
  31 O :   -0.204994
  32 C :   -0.074119
  33 C :    0.178775
  34 O :   -0.168969
  35 N :   -0.159742
  36 C :    0.175435
  37 O :   -0.167867
  38 C :   -0.080456
  39 C :    0.149963
  40 C :   -0.038900
  41 C :    0.003512
  42 C :   -0.024419
  43 C :   -0.007527
  44 C :    0.024627
  45 C :    0.036645
  46 C :   -0.059450
  47 S :    0.086528
  48 C :   -0.034366
  49 C :    0.028297
  50 C :    0.033606
  51 C :    0.009900
  52 S :    0.101749
  53 C :   -0.079355
  54 C :    0.030416
  55 C :    0.121000
  56 O :   -0.321819
  57 C :    0.212835
  58 C :    0.231678
  59 O :   -0.329085
  60 C :    0.178652
  61 C :   -0.198190
  62 C :    0.072023
  63 C :   -0.005639
  64 N :   -0.284573
  65 S :    0.473980
  66 N :   -0.267930
  67 H :   -0.011566
  68 H :   -0.007993
  69 H :   -0.004601
  70 H :    0.015187
  71 H :    0.020521
  72 H :    0.009339
  73 H :    0.036629
  74 H :    0.035109
  75 H :    0.000189
  76 H :   -0.000371
  77 H :    0.016491
  78 H :   -0.009426
  79 H :    0.130154
  80 H :   -0.016796
  81 H :    0.029637
  82 H :   -0.019183
  83 H :   -0.013557
  84 H :   -0.013258
  85 H :   -0.016396
  86 H :   -0.008786
  87 H :    0.005701
  88 H :    0.023127
  89 H :    0.026405
  90 H :    0.036594
  91 H :    0.041591
  92 H :    0.030839
  93 H :    0.031114
  94 H :   -0.033912
Sum of atomic charges:   -0.0000000

LOEWDIN ATOMIC CHARGES
----------------------
   0 C :    0.079015
   1 C :   -0.153009
   2 C :   -0.018247
   3 N :   -0.061962
   4 C :   -0.022639
   5 N :   -0.055665
   6 C :   -0.020941
   7 C :   -0.049054
   8 C :    0.019966
   9 C :   -0.033774
  10 C :   -0.145005
  11 C :   -0.010572
  12 S :    0.430593
  13 C :   -0.272597
  14 C :   -0.070553
  15 Br:    0.134077
  16 C :    0.080644
  17 O :   -0.165315
  18 C :   -0.118864
  19 C :    0.056074
  20 C :   -0.187616
  21 S :    0.504758
  22 C :   -0.169399
  23 C :   -0.065598
  24 C :   -0.045516
  25 C :   -0.017856
  26 C :   -0.025706
  27 C :    0.006202
  28 C :    0.003836
  29 C :   -0.023068
  30 C :    0.062879
  31 O :    0.011918
  32 C :   -0.096989
  33 C :    0.086592
  34 O :   -0.174628
  35 N :   -0.005480
  36 C :    0.086348
  37 O :   -0.174174
  38 C :   -0.117294
  39 C :    0.077748
  40 C :   -0.068429
  41 C :    0.010311
  42 C :   -0.078134
  43 C :   -0.126110
  44 C :   -0.046611
  45 C :   -0.020228
  46 C :   -0.191170
  47 S :    0.388117
  48 C :   -0.169478
  49 C :   -0.041710
  50 C :   -0.018112
  51 C :   -0.146442
  52 S :    0.415635
  53 C :   -0.032990
  54 C :   -0.067709
  55 C :    0.053446
  56 O :   -0.090573
  57 C :    0.075810
  58 C :    0.043891
  59 O :   -0.093147
  60 C :    0.079531
  61 C :   -0.082581
  62 C :   -0.058019
  63 C :   -0.046136
  64 N :   -0.294763
  65 S :    0.611296
  66 N :   -0.293562
  67 H :    0.040356
  68 H :    0.040643
  69 H :    0.038369
  70 H :    0.048240
  71 H :    0.024251
  72 H :    0.033427
  73 H :    0.037735
  74 H :    0.038600
  75 H :    0.035981
  76 H :    0.028543
  77 H :    0.033761
  78 H :    0.037360
  79 H :    0.090495
  80 H :    0.034673
  81 H :    0.027442
  82 H :    0.030573
  83 H :    0.032533
  84 H :    0.032057
  85 H :    0.030132
  86 H :    0.034260
  87 H :    0.040967
  88 H :    0.017576
  89 H :    0.016297
  90 H :    0.017390
  91 H :    0.030804
  92 H :    0.019319
  93 H :    0.019471
  94 H :    0.037488

  Mayer bond orders larger than 0.100000
B(  0-C ,  1-C ) :   1.5981 B(  0-C ,  6-C ) :   0.9954 B(  0-C , 18-C ) :   1.0960
B(  1-C ,  2-C ) :   1.1461 B(  1-C ,  4-C ) :   1.1533 B(  2-C ,  3-N ) :   2.9635
B(  4-C ,  5-N ) :   2.9450 B(  6-C ,  7-C ) :   1.2778 B(  6-C , 11-C ) :   1.4132
B(  7-C ,  8-C ) :   1.4275 B(  7-C , 16-C ) :   0.9505 B(  8-C ,  9-C ) :   1.2389
B(  8-C , 67-H ) :   1.0169 B(  9-C , 10-C ) :   1.3115 B(  9-C , 14-C ) :   1.1628
B( 10-C , 11-C ) :   1.3279 B( 10-C , 12-S ) :   1.0844 B( 11-C , 68-H ) :   0.9787
B( 12-S , 13-C ) :   1.0868 B( 13-C , 14-C ) :   1.6183 B( 13-C , 15-Br) :   1.0161
B( 14-C , 69-H ) :   1.0001 B( 16-C , 17-O ) :   2.1570 B( 16-C , 18-C ) :   0.9680
B( 18-C , 19-C ) :   1.5052 B( 19-C , 20-C ) :   1.2858 B( 19-C , 70-H ) :   0.9302
B( 20-C , 21-S ) :   1.1100 B( 20-C , 25-C ) :   1.3123 B( 21-S , 22-C ) :   1.1719
B( 22-C , 23-C ) :   1.5309 B( 22-C , 71-H ) :   0.9630 B( 23-C , 24-C ) :   1.0938
B( 23-C , 25-C ) :   1.2774 B( 24-C , 72-H ) :   0.9498 B( 24-C , 73-H ) :   0.9417
B( 24-C , 74-H ) :   0.9431 B( 25-C , 26-C ) :   1.1132 B( 26-C , 27-C ) :   1.6306
B( 26-C , 75-H ) :   0.9600 B( 27-C , 28-C ) :   1.1432 B( 27-C , 76-H ) :   0.9839
B( 28-C , 29-C ) :   1.5948 B( 28-C , 77-H ) :   0.9714 B( 29-C , 30-C ) :   1.1598
B( 29-C , 78-H ) :   0.9672 B( 30-C , 31-O ) :   1.1288 B( 30-C , 32-C ) :   1.4180
B( 31-O , 39-C ) :   1.1379 B( 32-C , 33-C ) :   0.8899 B( 32-C , 38-C ) :   1.2785
B( 33-C , 34-O ) :   2.1615 B( 33-C , 35-N ) :   1.1069 B( 35-N , 36-C ) :   1.0815
B( 35-N , 79-H ) :   0.9177 B( 36-C , 37-O ) :   2.1605 B( 36-C , 38-C ) :   0.9074
B( 38-C , 39-C ) :   1.3667 B( 39-C , 40-C ) :   1.1945 B( 40-C , 41-C ) :   1.5432
B( 40-C , 80-H ) :   0.9749 B( 41-C , 42-C ) :   1.2011 B( 41-C , 81-H ) :   0.9526
B( 42-C , 43-C ) :   1.5083 B( 42-C , 82-H ) :   0.9856 B( 43-C , 44-C ) :   1.1565
B( 43-C , 47-S ) :   1.0634 B( 44-C , 45-C ) :   1.5670 B( 44-C , 83-H ) :   1.0007
B( 45-C , 46-C ) :   1.2024 B( 45-C , 84-H ) :   0.9941 B( 46-C , 47-S ) :   1.0361
B( 46-C , 48-C ) :   1.4942 B( 48-C , 49-C ) :   1.1732 B( 48-C , 52-S ) :   1.0549
B( 49-C , 50-C ) :   1.5994 B( 49-C , 85-H ) :   0.9948 B( 50-C , 51-C ) :   1.1298
B( 50-C , 86-H ) :   0.9996 B( 51-C , 52-S ) :   1.0300 B( 51-C , 53-C ) :   1.5943
B( 53-C , 54-C ) :   1.1446 B( 53-C , 87-H ) :   0.9508 B( 54-C , 55-C ) :   1.4237
B( 54-C , 61-C ) :   0.1074 B( 54-C , 63-C ) :   1.1657 B( 55-C , 56-O ) :   1.1939
B( 55-C , 58-C ) :   1.1490 B( 56-O , 57-C ) :   0.9043 B( 57-C , 88-H ) :   0.9765
B( 57-C , 89-H ) :   0.9772 B( 57-C , 90-H ) :   0.9667 B( 58-C , 59-O ) :   1.1350
B( 58-C , 61-C ) :   1.3915 B( 59-O , 60-C ) :   0.9549 B( 60-C , 91-H ) :   0.9771
B( 60-C , 92-H ) :   0.9691 B( 60-C , 93-H ) :   0.9687 B( 61-C , 62-C ) :   1.1324
B( 61-C , 94-H ) :   1.0388 B( 62-C , 63-C ) :   1.1614 B( 62-C , 66-N ) :   1.5473
B( 63-C , 64-N ) :   1.5735 B( 64-N , 65-S ) :   1.2341 B( 64-N , 66-N ) :   0.1452
B( 65-S , 66-N ) :   1.2473

-----------------------------------------------------------------------------
         ABSORPTION SPECTRUM VIA TRANSITION ELECTRIC DIPOLE MOMENTS
-----------------------------------------------------------------------------
State   Energy  Wavelength   fosc         T2         TX        TY        TZ
        (cm-1)    (nm)                  (au**2)     (au)      (au)      (au)
-----------------------------------------------------------------------------
   0   12039.0    830.6   1.530877730  41.86272  -0.85492  -2.60432  -5.86083
   1   14450.3    692.0   0.027548674   0.62762   0.18066   0.76251  -0.11648
   2   19705.4    507.5   0.103673178   1.73203   1.01229   0.80156   0.25458
   3   20005.4    499.9   0.195918878   3.22407  -0.27119   0.14031   1.76942
   4   21046.3    475.1   0.138418316   2.16517  -0.00499   0.02415  -1.47125
   5   22914.8    436.4   0.611695125   8.78809   2.11014   1.52911  -1.41323
   6   24265.0    412.1   0.115080732   1.56134  -0.85385  -0.89370  -0.18323
   7   24746.5    404.1   0.289178486   3.84705  -1.28428  -1.23482   0.82031
   8   26390.2    378.9   0.574299783   7.16427   1.88593   1.62483  -0.98359
   9   26913.0    371.6   0.122903870   1.50342  -0.55229  -0.36479   1.03215
  10   27632.7    361.9   0.065031609   0.77478  -0.49036  -0.49843  -0.53468
  11   28155.4    355.2   0.278377423   3.25498  -1.05572  -0.19088  -1.45052
  12   28551.9    350.2   0.228188446   2.63108   0.87233   0.46287   1.28681
  13   29570.2    338.2   0.078161514   0.87019   0.52105   0.34129   0.69442
  14   29883.6    334.6   0.058544290   0.64495  -0.41840  -0.35993  -0.58339
  15   30219.7    330.9   0.074243731   0.80881  -0.77884  -0.40595  -0.19344
  16   30689.1    325.8   0.204728643   2.19619   1.17662   0.41632  -0.79902
  17   31152.6    321.0   0.053734905   0.56786   0.01593   0.19177  -0.72858
  18   31194.7    320.6   0.144118644   1.52095   0.65027   0.31789   0.99852
  19   31834.1    314.1   0.028437744   0.29409   0.42588   0.26197   0.20997
  20   32472.0    308.0   0.046315979   0.46957   0.29482   0.00064   0.61858
  21   32796.0    304.9   0.071513256   0.71786  -0.07508  -0.16524   0.82760
  22   33320.7    300.1   0.180368250   1.78206  -0.41461   0.20883  -1.25162
  23   33496.7    298.5   0.228052954   2.24135  -0.84936   0.14923  -1.22379
  24   34150.8    292.8   0.051446704   0.49594  -0.12548   0.14869  -0.67682
  25   34660.7    288.5   0.021459139   0.20382  -0.40709  -0.16098  -0.11039
  26   35203.1    284.1   0.050834604   0.47539  -0.65860  -0.19687   0.05372
  27   35729.3    279.9   0.057711389   0.53176  -0.52826  -0.39086   0.31611
  28   35828.8    279.1   0.086285105   0.79283  -0.40307  -0.60379  -0.51555
  29   36066.7    277.3   0.057121127   0.52139  -0.09585  -0.26298  -0.66562
  30   36147.8    276.6   0.042531106   0.38735   0.34061   0.28281   0.43744
  31   36245.8    275.9   0.002121465   0.01927   0.04262  -0.03039   0.12856
  32   37061.3    269.8   0.050717412   0.45052  -0.21165  -0.03809  -0.63582
  33   37423.4    267.2   0.019260105   0.16943  -0.05706  -0.06407   0.40258
  34   37546.9    266.3   0.023530948   0.20632   0.09515   0.11439  -0.42916
  35   37980.0    263.3   0.044895305   0.38915   0.09103   0.43930  -0.43346
  36   38178.1    261.9   0.010814007   0.09325   0.05719   0.15643   0.25594
  37   38595.4    259.1   0.129623205   1.10566   0.15008   0.09697   1.03621
  38   38968.7    256.6   0.037177115   0.31408  -0.14085  -0.17888   0.51209
  39   39101.3    255.7   0.066327994   0.55845  -0.32514  -0.29969  -0.60243
  40   39440.3    253.5   0.039852649   0.33265  -0.43190  -0.34127   0.17220
  41   39556.5    252.8   0.083569839   0.69552  -0.44648  -0.50840   0.48755
  42   40157.1    249.0   0.082518358   0.67649  -0.38191  -0.47966   0.54824

FINAL SINGLE POINT ENERGY     -7208.172738678501

DIPOLE MOMENT
-------------
                                X             Y             Z
Electronic contribution:    -94.31051     -77.18988    -154.50880
Nuclear contribution   :     94.43163      79.20493     154.06849
                        -----------------------------------------
Total Dipole Moment    :      0.12112       2.01505      -0.44031
                        -----------------------------------------
Magnitude (a.u.)       :      2.06615
Magnitude (Debye)      :      5.25174

Rotational constants in cm-1:     0.001661     0.000191     0.000175
Rotational constants in MHz :    49.804268     5.723739     5.258484

                             ****ORCA TERMINATED NORMALLY****
TOTAL RUN TIME: 0 days 0 hours 8 minutes 59 seconds 829 msec
