                         Program Version 4.2.0 -  RELEASE  -
|  1> # ORCA input file
|  2> # SCF done       -181.629640367004          0.000368412658
|  3> ! CAM-B3LYP def2-SVP def2/J RIJCOSX Grid4 TightSCF
|  4> %maxcore 5000
|  5> %tddft
|  6>     Mode sTDDFT
|  7>     Ethresh 5.0
|  8>     maxcore 5000
|  9> end
| 10>
| 11> %pal
| 12>   nprocs 6
| 13>   end
| 14> * xyz 0 1
| 15>    C       -2.75762         4.84782        -6.27905
| 16>    C       -3.41852         4.67941        -5.07895
| 17>    C       -3.02114         5.24173        -3.84923
| 18>    N       -2.78217         5.64141        -2.79872
| 19>    C       -4.52709         3.85346        -4.85221
| 20>    N       -5.42331         3.17948        -4.58544
| 21>    C       -1.49554         5.57683        -6.40885
| 22>    C       -0.95841         5.35099        -7.69982
| 23>    C        0.23898         5.88105        -8.11014
| 24>    C        0.94218         6.68312        -7.20378
| 25>    C        0.39322         6.91501        -5.92119
| 26>    C       -0.81778         6.37367        -5.50573
| 27>    S        1.41980         7.93836        -4.96276
| 28>    C        2.55810         8.03687        -6.27983
| 29>    C        2.18961         7.34086        -7.38166
| 30>   Br        4.12498         9.04699        -6.07471
| 31>    C       -1.89190         4.50245        -8.46274
| 32>    O       -1.76612         4.09186        -9.59530
| 33>    C       -3.04959         4.26966        -7.56437
| 34>    C       -4.12924         3.62858        -8.11479
| 35>    N       -5.35379         3.48230        -7.60271
| 36>    C       -6.37229         2.73068        -8.10686
| 37>    S       -6.16479         1.64973        -9.44503
| 38>    C       -7.77683         1.06219        -9.18244
| 39>    N       -8.25465         0.07175       -10.05169
| 40>    O       -9.37842        -0.35245        -9.86292
| 41>    O       -7.49871        -0.29108       -10.93566
| 42>    C       -8.42051         1.65933        -8.13278
| 43>    C       -7.63745         2.65183        -7.50952
| 44>    C       -8.07249         3.47175        -6.41577
| 45>    C       -7.69657         4.76718        -6.24210
| 46>    C       -8.03074         5.60597        -5.15750
| 47>    C       -8.15120         7.00172        -5.20707
| 48>    C       -7.92527         7.91986        -6.25024
| 49>    C       -8.12104         9.25114        -6.01899
| 50>    C       -8.53686         9.72531        -4.75222
| 51>    C       -8.77525         8.86909        -3.71812
| 52>    C       -8.61645         7.48141        -3.92616
| 53>    C       -8.77635         6.39424        -3.06847
| 54>    C       -8.39238         5.19692        -3.80457
| 55>    C       -8.29175         3.96616        -3.26846
| 56>    C       -8.99650         6.45784        -1.64765
| 57>    C       -9.98175         7.25748        -1.09256
| 58>    C      -10.14414         7.38157         0.28252
| 59>    C       -9.30413         6.73295         1.16960
| 60>    C       -8.24856         5.94062         0.64607
| 61>    C       -8.11419         5.77200        -0.75733
| 62>    N       -7.12493         4.99640        -1.23340
| 63>    C       -6.28412         4.42050        -0.41861
| 64>    C       -6.43069         4.58632         0.99249
| 65>    N       -7.39795         5.31374         1.47896
| 66>    C       -5.49570         3.94139         1.95800
| 67>    C       -5.19535         3.59773        -1.01446
| 68>    C       -9.45929         6.85892         2.60641
| 69>    O       -8.37182         6.97800         3.36595
| 70>    C       -8.75192         7.13981         4.65007
| 71>    C      -10.13878         7.11385         4.73428
| 72>    C      -10.60059         6.91136         3.40062
| 73>    C      -11.98164         6.64837         2.92335
| 74>    F      -12.01486         5.94833         1.77800
| 75>    F      -12.71617         5.93262         3.79147
| 76>    F      -12.69439         7.77620         2.68439
| 77>    O      -10.77247         7.27222         5.91121
| 78>    C      -12.10593         7.75023         5.93508
| 79>    C       -7.78766         7.29862         5.70261
| 80>    C       -6.47039         7.27913         5.51436
| 81>    H        0.62246         5.68379        -9.09873
| 82>    H       -1.19295         6.58660        -4.51878
| 83>    H        2.77239         7.29191        -8.28318
| 84>    H       -3.98390         3.24641        -9.12074
| 85>    H       -5.55724         3.86826        -6.68155
| 86>    H       -9.42537         1.40657        -7.84663
| 87>    H       -8.80628         3.03384        -5.75661
| 88>    H       -7.15883         5.25476        -7.04959
| 89>    H       -7.59323         7.57208        -7.21772
| 90>    H       -7.94690         9.96880        -6.80730
| 91>    H       -8.65948        10.78949        -4.61466
| 92>    H       -9.07594         9.23688        -2.74883
| 93>    H       -7.80006         3.16797        -3.79875
| 94>    H       -8.72154         3.72476        -2.31356
| 95>    H      -10.66477         7.77389        -1.74959
| 96>    H      -10.93312         8.01433         0.65941
| 97>    H       -4.47014         4.23590         1.74227
| 98>    H       -5.55794         2.85670         1.88101
| 99>    H       -5.75893         4.24361         2.96754
|100>    H       -5.39975         3.44228        -2.07065
|101>    H       -4.24292         4.11926        -0.91930
|102>    H       -5.11020         2.63764        -0.51039
|103>    H      -12.21819         8.25937         6.89203
|104>    H      -12.82198         6.92745         5.88405
|105>    H      -12.29710         8.45853         5.12631
|106>    H       -8.22449         7.43667         6.68076
|107>    H       -6.05179         7.13526         4.53315
|108>    H       -5.78298         7.40527         6.33131
|109> *
|110>
|111>                          ****END OF INPUT****

CARTESIAN COORDINATES (ANGSTROEM)
---------------------------------
  C     -2.757620    4.847820   -6.279050
  C     -3.418520    4.679410   -5.078950
  C     -3.021140    5.241730   -3.849230
  N     -2.782170    5.641410   -2.798720
  C     -4.527090    3.853460   -4.852210
  N     -5.423310    3.179480   -4.585440
  C     -1.495540    5.576830   -6.408850
  C     -0.958410    5.350990   -7.699820
  C      0.238980    5.881050   -8.110140
  C      0.942180    6.683120   -7.203780
  C      0.393220    6.915010   -5.921190
  C     -0.817780    6.373670   -5.505730
  S      1.419800    7.938360   -4.962760
  C      2.558100    8.036870   -6.279830
  C      2.189610    7.340860   -7.381660
  Br     4.124980    9.046990   -6.074710
  C     -1.891900    4.502450   -8.462740
  O     -1.766120    4.091860   -9.595300
  C     -3.049590    4.269660   -7.564370
  C     -4.129240    3.628580   -8.114790
  N     -5.353790    3.482300   -7.602710
  C     -6.372290    2.730680   -8.106860
  S     -6.164790    1.649730   -9.445030
  C     -7.776830    1.062190   -9.182440
  N     -8.254650    0.071750  -10.051690
  O     -9.378420   -0.352450   -9.862920
  O     -7.498710   -0.291080  -10.935660
  C     -8.420510    1.659330   -8.132780
  C     -7.637450    2.651830   -7.509520
  C     -8.072490    3.471750   -6.415770
  C     -7.696570    4.767180   -6.242100
  C     -8.030740    5.605970   -5.157500
  C     -8.151200    7.001720   -5.207070
  C     -7.925270    7.919860   -6.250240
  C     -8.121040    9.251140   -6.018990
  C     -8.536860    9.725310   -4.752220
  C     -8.775250    8.869090   -3.718120
  C     -8.616450    7.481410   -3.926160
  C     -8.776350    6.394240   -3.068470
  C     -8.392380    5.196920   -3.804570
  C     -8.291750    3.966160   -3.268460
  C     -8.996500    6.457840   -1.647650
  C     -9.981750    7.257480   -1.092560
  C    -10.144140    7.381570    0.282520
  C     -9.304130    6.732950    1.169600
  C     -8.248560    5.940620    0.646070
  C     -8.114190    5.772000   -0.757330
  N     -7.124930    4.996400   -1.233400
  C     -6.284120    4.420500   -0.418610
  C     -6.430690    4.586320    0.992490
  N     -7.397950    5.313740    1.478960
  C     -5.495700    3.941390    1.958000
  C     -5.195350    3.597730   -1.014460
  C     -9.459290    6.858920    2.606410
  O     -8.371820    6.978000    3.365950
  C     -8.751920    7.139810    4.650070
  C    -10.138780    7.113850    4.734280
  C    -10.600590    6.911360    3.400620
  C    -11.981640    6.648370    2.923350
  F    -12.014860    5.948330    1.778000
  F    -12.716170    5.932620    3.791470
  F    -12.694390    7.776200    2.684390
  O    -10.772470    7.272220    5.911210
  C    -12.105930    7.750230    5.935080
  C     -7.787660    7.298620    5.702610
  C     -6.470390    7.279130    5.514360
  H      0.622460    5.683790   -9.098730
  H     -1.192950    6.586600   -4.518780
  H      2.772390    7.291910   -8.283180
  H     -3.983900    3.246410   -9.120740
  H     -5.557240    3.868260   -6.681550
  H     -9.425370    1.406570   -7.846630
  H     -8.806280    3.033840   -5.756610
  H     -7.158830    5.254760   -7.049590
  H     -7.593230    7.572080   -7.217720
  H     -7.946900    9.968800   -6.807300
  H     -8.659480   10.789490   -4.614660
  H     -9.075940    9.236880   -2.748830
  H     -7.800060    3.167970   -3.798750
  H     -8.721540    3.724760   -2.313560
  H    -10.664770    7.773890   -1.749590
  H    -10.933120    8.014330    0.659410
  H     -4.470140    4.235900    1.742270
  H     -5.557940    2.856700    1.881010
  H     -5.758930    4.243610    2.967540
  H     -5.399750    3.442280   -2.070650
  H     -4.242920    4.119260   -0.919300
  H     -5.110200    2.637640   -0.510390
  H    -12.218190    8.259370    6.892030
  H    -12.821980    6.927450    5.884050
  H    -12.297100    8.458530    5.126310
  H     -8.224490    7.436670    6.680760
  H     -6.051790    7.135260    4.533150
  H     -5.782980    7.405270    6.331310

 Total Charge           Charge          ....    0
 Multiplicity           Mult            ....    1
 Number of Electrons    NEL             ....  498
 Basis Dimension        Dim             .... 1090

ORBITAL ENERGIES
----------------

  NO   OCC          E(Eh)            E(eV)
   0   2.0000    -482.888092    -13140.0530
   1   2.0000     -88.991129     -2421.5717
   2   2.0000     -88.978925     -2421.2396
   3   2.0000     -62.565826     -1702.5027
   4   2.0000     -56.399780     -1534.7160
   5   2.0000     -56.397057     -1534.6420
   6   2.0000     -56.397022     -1534.6410
   7   2.0000     -24.796413      -674.7447
   8   2.0000     -24.793896      -674.6762
   9   2.0000     -24.793298      -674.6599
  10   2.0000     -19.287119      -524.8292
  11   2.0000     -19.245977      -523.7097
  12   2.0000     -19.240030      -523.5478
  13   2.0000     -19.239550      -523.5348
  14   2.0000     -19.216966      -522.9202
  15   2.0000     -14.651616      -398.6907
  16   2.0000     -14.505194      -394.7064
  17   2.0000     -14.435514      -392.8103
  18   2.0000     -14.421672      -392.4336
  19   2.0000     -14.411433      -392.1550
  20   2.0000     -14.407385      -392.0449
  21   2.0000     -10.517952      -286.2080
  22   2.0000     -10.369179      -282.1597
  23   2.0000     -10.369040      -282.1559
  24   2.0000     -10.368901      -282.1521
  25   2.0000     -10.361827      -281.9597
  26   2.0000     -10.353019      -281.7200
  27   2.0000     -10.348490      -281.5967
  28   2.0000     -10.346940      -281.5545
  29   2.0000     -10.342259      -281.4272
  30   2.0000     -10.338686      -281.3300
  31   2.0000     -10.333680      -281.1937
  32   2.0000     -10.328584      -281.0551
  33   2.0000     -10.326257      -280.9917
  34   2.0000     -10.317623      -280.7568
  35   2.0000     -10.315996      -280.7125
  36   2.0000     -10.315414      -280.6967
  37   2.0000     -10.312187      -280.6089
  38   2.0000     -10.311961      -280.6027
  39   2.0000     -10.311607      -280.5931
  40   2.0000     -10.310422      -280.5608
  41   2.0000     -10.310188      -280.5545
  42   2.0000     -10.309630      -280.5393
  43   2.0000     -10.309602      -280.5385
  44   2.0000     -10.306010      -280.4408
  45   2.0000     -10.304312      -280.3946
  46   2.0000     -10.302162      -280.3361
  47   2.0000     -10.299552      -280.2651
  48   2.0000     -10.298494      -280.2363
  49   2.0000     -10.295392      -280.1519
  50   2.0000     -10.288610      -279.9673
  51   2.0000     -10.287191      -279.9287
  52   2.0000     -10.286966      -279.9226
  53   2.0000     -10.286488      -279.9096
  54   2.0000     -10.283798      -279.8364
  55   2.0000     -10.281282      -279.7679
  56   2.0000     -10.275568      -279.6124
  57   2.0000     -10.275552      -279.6120
  58   2.0000     -10.271017      -279.4886
  59   2.0000     -10.270872      -279.4846
  60   2.0000     -10.270401      -279.4718
  61   2.0000     -10.270138      -279.4647
  62   2.0000     -10.269217      -279.4396
  63   2.0000     -10.268782      -279.4278
  64   2.0000     -10.268386      -279.4170
  65   2.0000     -10.268090      -279.4089
  66   2.0000     -10.267728      -279.3991
  67   2.0000     -10.263421      -279.2819
  68   2.0000     -10.259147      -279.1656
  69   2.0000     -10.251816      -278.9661
  70   2.0000      -8.795271      -239.3315
  71   2.0000      -8.086315      -220.0398
  72   2.0000      -8.074788      -219.7261
  73   2.0000      -6.631599      -180.4550
  74   2.0000      -6.616974      -180.0570
  75   2.0000      -6.616803      -180.0524
  76   2.0000      -6.055955      -164.7909
  77   2.0000      -6.051594      -164.6722
  78   2.0000      -6.047824      -164.5697
  79   2.0000      -6.044481      -164.4787
  80   2.0000      -6.040192      -164.3620
  81   2.0000      -6.036074      -164.2499
  82   2.0000      -2.747445       -74.7618
  83   2.0000      -2.743401       -74.6517
  84   2.0000      -2.743196       -74.6461
  85   2.0000      -2.731604       -74.3307
  86   2.0000      -2.731595       -74.3305
  87   2.0000      -1.384584       -37.6764
  88   2.0000      -1.321589       -35.9623
  89   2.0000      -1.286909       -35.0186
  90   2.0000      -1.283483       -34.9254
  91   2.0000      -1.212750       -33.0006
  92   2.0000      -1.147648       -31.2291
  93   2.0000      -1.140651       -31.0387
  94   2.0000      -1.133464       -30.8431
  95   2.0000      -1.110963       -30.2308
  96   2.0000      -1.074042       -29.2262
  97   2.0000      -1.031685       -28.0736
  98   2.0000      -1.022148       -27.8141
  99   2.0000      -1.010866       -27.5071
 100   2.0000      -1.006577       -27.3904
 101   2.0000      -0.997926       -27.1550
 102   2.0000      -0.993345       -27.0303
 103   2.0000      -0.980508       -26.6810
 104   2.0000      -0.954428       -25.9713
 105   2.0000      -0.946067       -25.7438
 106   2.0000      -0.925920       -25.1956
 107   2.0000      -0.917021       -24.9534
 108   2.0000      -0.914259       -24.8783
 109   2.0000      -0.911883       -24.8136
 110   2.0000      -0.900251       -24.4971
 111   2.0000      -0.894581       -24.3428
 112   2.0000      -0.889869       -24.2146
 113   2.0000      -0.884053       -24.0563
 114   2.0000      -0.879512       -23.9327
 115   2.0000      -0.870737       -23.6940
 116   2.0000      -0.854684       -23.2571
 117   2.0000      -0.850617       -23.1465
 118   2.0000      -0.844126       -22.9698
 119   2.0000      -0.835127       -22.7250
 120   2.0000      -0.833381       -22.6775
 121   2.0000      -0.824822       -22.4446
 122   2.0000      -0.808511       -22.0007
 123   2.0000      -0.803368       -21.8608
 124   2.0000      -0.797278       -21.6950
 125   2.0000      -0.787883       -21.4394
 126   2.0000      -0.780322       -21.2336
 127   2.0000      -0.776148       -21.1201
 128   2.0000      -0.767862       -20.8946
 129   2.0000      -0.753813       -20.5123
 130   2.0000      -0.747344       -20.3363
 131   2.0000      -0.731250       -19.8983
 132   2.0000      -0.726095       -19.7580
 133   2.0000      -0.716226       -19.4895
 134   2.0000      -0.711321       -19.3560
 135   2.0000      -0.709379       -19.3032
 136   2.0000      -0.701617       -19.0920
 137   2.0000      -0.698189       -18.9987
 138   2.0000      -0.690184       -18.7809
 139   2.0000      -0.683006       -18.5855
 140   2.0000      -0.678297       -18.4574
 141   2.0000      -0.671062       -18.2605
 142   2.0000      -0.668357       -18.1869
 143   2.0000      -0.665987       -18.1224
 144   2.0000      -0.661524       -18.0010
 145   2.0000      -0.651041       -17.7157
 146   2.0000      -0.647765       -17.6266
 147   2.0000      -0.642177       -17.4745
 148   2.0000      -0.633795       -17.2464
 149   2.0000      -0.632772       -17.2186
 150   2.0000      -0.631867       -17.1940
 151   2.0000      -0.628139       -17.0925
 152   2.0000      -0.626706       -17.0535
 153   2.0000      -0.611860       -16.6495
 154   2.0000      -0.608427       -16.5561
 155   2.0000      -0.604339       -16.4449
 156   2.0000      -0.600076       -16.3289
 157   2.0000      -0.596918       -16.2430
 158   2.0000      -0.595694       -16.2097
 159   2.0000      -0.588684       -16.0189
 160   2.0000      -0.584006       -15.8916
 161   2.0000      -0.572403       -15.5759
 162   2.0000      -0.569874       -15.5071
 163   2.0000      -0.563843       -15.3429
 164   2.0000      -0.559585       -15.2271
 165   2.0000      -0.557917       -15.1817
 166   2.0000      -0.556431       -15.1413
 167   2.0000      -0.553430       -15.0596
 168   2.0000      -0.551729       -15.0133
 169   2.0000      -0.549749       -14.9594
 170   2.0000      -0.544761       -14.8237
 171   2.0000      -0.543850       -14.7989
 172   2.0000      -0.541707       -14.7406
 173   2.0000      -0.538903       -14.6643
 174   2.0000      -0.536670       -14.6035
 175   2.0000      -0.534530       -14.5453
 176   2.0000      -0.533909       -14.5284
 177   2.0000      -0.531063       -14.4509
 178   2.0000      -0.525310       -14.2944
 179   2.0000      -0.522862       -14.2278
 180   2.0000      -0.518988       -14.1224
 181   2.0000      -0.515785       -14.0352
 182   2.0000      -0.513362       -13.9693
 183   2.0000      -0.510309       -13.8862
 184   2.0000      -0.509276       -13.8581
 185   2.0000      -0.505301       -13.7499
 186   2.0000      -0.502891       -13.6844
 187   2.0000      -0.501425       -13.6445
 188   2.0000      -0.500308       -13.6141
 189   2.0000      -0.498647       -13.5689
 190   2.0000      -0.496395       -13.5076
 191   2.0000      -0.494479       -13.4554
 192   2.0000      -0.489443       -13.3184
 193   2.0000      -0.487767       -13.2728
 194   2.0000      -0.486538       -13.2394
 195   2.0000      -0.484741       -13.1905
 196   2.0000      -0.481379       -13.0990
 197   2.0000      -0.480723       -13.0811
 198   2.0000      -0.480648       -13.0791
 199   2.0000      -0.475187       -12.9305
 200   2.0000      -0.473160       -12.8753
 201   2.0000      -0.469739       -12.7823
 202   2.0000      -0.466881       -12.7045
 203   2.0000      -0.465649       -12.6709
 204   2.0000      -0.463901       -12.6234
 205   2.0000      -0.461567       -12.5599
 206   2.0000      -0.459367       -12.5000
 207   2.0000      -0.455155       -12.3854
 208   2.0000      -0.451741       -12.2925
 209   2.0000      -0.451355       -12.2820
 210   2.0000      -0.449189       -12.2231
 211   2.0000      -0.444084       -12.0841
 212   2.0000      -0.441110       -12.0032
 213   2.0000      -0.437285       -11.8991
 214   2.0000      -0.436442       -11.8762
 215   2.0000      -0.434131       -11.8133
 216   2.0000      -0.432345       -11.7647
 217   2.0000      -0.428821       -11.6688
 218   2.0000      -0.422328       -11.4921
 219   2.0000      -0.417251       -11.3540
 220   2.0000      -0.416269       -11.3273
 221   2.0000      -0.413559       -11.2535
 222   2.0000      -0.409539       -11.1441
 223   2.0000      -0.408244       -11.1089
 224   2.0000      -0.404679       -11.0119
 225   2.0000      -0.397063       -10.8046
 226   2.0000      -0.391692       -10.6585
 227   2.0000      -0.390812       -10.6345
 228   2.0000      -0.386881       -10.5276
 229   2.0000      -0.379677       -10.3315
 230   2.0000      -0.377502       -10.2723
 231   2.0000      -0.373665       -10.1679
 232   2.0000      -0.371872       -10.1192
 233   2.0000      -0.368241       -10.0204
 234   2.0000      -0.366338        -9.9686
 235   2.0000      -0.354327        -9.6417
 236   2.0000      -0.346612        -9.4318
 237   2.0000      -0.340857        -9.2752
 238   2.0000      -0.338044        -9.1987
 239   2.0000      -0.324617        -8.8333
 240   2.0000      -0.319534        -8.6950
 241   2.0000      -0.317962        -8.6522
 242   2.0000      -0.313107        -8.5201
 243   2.0000      -0.308991        -8.4081
 244   2.0000      -0.298574        -8.1246
 245   2.0000      -0.290914        -7.9162
 246   2.0000      -0.283866        -7.7244
 247   2.0000      -0.251028        -6.8308
 248   2.0000      -0.220858        -6.0098
 249   0.0000      -0.095107        -2.5880
 250   0.0000      -0.075678        -2.0593
 251   0.0000      -0.063593        -1.7305
 252   0.0000      -0.040189        -1.0936
 253   0.0000      -0.037306        -1.0151

MULLIKEN ATOMIC CHARGES
-----------------------
   0 C :    0.343869
   1 C :   -0.357281
   2 C :   -0.166819
   3 N :    0.137451
   4 C :   -0.187380
   5 N :    0.109278
   6 C :   -0.008771
   7 C :   -0.001073
   8 C :   -0.068352
   9 C :    0.114141
  10 C :   -0.092380
  11 C :   -0.020373
  12 S :    0.186575
  13 C :   -0.124439
  14 C :    0.039815
  15 Br:    0.025402
  16 C :    0.128657
  17 O :   -0.152755
  18 C :   -0.140141
  19 C :    0.038691
  20 N :    0.004437
  21 C :   -0.124898
  22 S :    0.176721
  23 C :    0.001126
  24 N :    0.275661
  25 O :   -0.245294
  26 O :   -0.259882
  27 C :    0.013357
  28 C :    0.120519
  29 C :   -0.029293
  30 C :   -0.079039
  31 C :    0.062306
  32 C :    0.042758
  33 C :   -0.025662
  34 C :    0.028702
  35 C :    0.020657
  36 C :   -0.011686
  37 C :    0.033945
  38 C :    0.037668
  39 C :   -0.031918
  40 C :    0.069381
  41 C :    0.062070
  42 C :   -0.058556
  43 C :   -0.015158
  44 C :    0.028851
  45 C :   -0.026990
  46 C :   -0.068869
  47 N :   -0.003674
  48 C :   -0.165441
  49 C :   -0.178003
  50 N :    0.040024
  51 C :    0.117454
  52 C :    0.127242
  53 C :    0.104086
  54 O :   -0.154382
  55 C :    0.065763
  56 C :    0.124749
  57 C :   -0.173611
  58 C :    0.507942
  59 F :   -0.153891
  60 F :   -0.161280
  61 F :   -0.174547
  62 O :   -0.306410
  63 C :    0.179381
  64 C :   -0.026412
  65 C :   -0.008691
  66 H :   -0.009651
  67 H :   -0.005249
  68 H :   -0.001863
  69 H :    0.042929
  70 H :    0.153575
  71 H :    0.011733
  72 H :   -0.005972
  73 H :   -0.004729
  74 H :   -0.039068
  75 H :   -0.015125
  76 H :   -0.014978
  77 H :   -0.032474
  78 H :    0.057297
  79 H :    0.031958
  80 H :   -0.015599
  81 H :   -0.019040
  82 H :    0.028089
  83 H :    0.028479
  84 H :    0.032066
  85 H :    0.020864
  86 H :    0.044781
  87 H :    0.011529
  88 H :    0.032327
  89 H :    0.038419
  90 H :    0.024584
  91 H :   -0.001029
  92 H :    0.024575
  93 H :    0.016246
Sum of atomic charges:   -0.0000000

LOEWDIN ATOMIC CHARGES
----------------------
   0 C :    0.078661
   1 C :   -0.166990
   2 C :   -0.014619
   3 N :   -0.062831
   4 C :   -0.009499
   5 N :   -0.063998
   6 C :   -0.020653
   7 C :   -0.051828
   8 C :    0.023469
   9 C :   -0.033100
  10 C :   -0.145022
  11 C :   -0.011351
  12 S :    0.432957
  13 C :   -0.271474
  14 C :   -0.069829
  15 Br:    0.137873
  16 C :    0.082992
  17 O :   -0.153891
  18 C :   -0.151960
  19 C :    0.102102
  20 N :    0.090517
  21 C :   -0.122475
  22 S :    0.465828
  23 C :   -0.200501
  24 N :    0.273396
  25 O :   -0.211265
  26 O :   -0.226355
  27 C :    0.004367
  28 C :   -0.074498
  29 C :   -0.048231
  30 C :   -0.016749
  31 C :   -0.050763
  32 C :   -0.010768
  33 C :   -0.023932
  34 C :   -0.021259
  35 C :   -0.027887
  36 C :   -0.014396
  37 C :   -0.014694
  38 C :   -0.018269
  39 C :   -0.025744
  40 C :    0.112372
  41 C :   -0.013083
  42 C :   -0.020403
  43 C :    0.000086
  44 C :   -0.053054
  45 C :   -0.001634
  46 C :   -0.010729
  47 N :   -0.032671
  48 C :    0.003979
  49 C :    0.001120
  50 N :   -0.043824
  51 C :   -0.053490
  52 C :   -0.057961
  53 C :    0.064888
  54 O :    0.058458
  55 C :   -0.011809
  56 C :    0.019886
  57 C :   -0.166904
  58 C :    0.172942
  59 F :   -0.050941
  60 F :   -0.055109
  61 F :   -0.077440
  62 O :   -0.102396
  63 C :    0.076787
  64 C :   -0.033375
  65 C :   -0.051081
  66 H :    0.041787
  67 H :    0.040660
  68 H :    0.039353
  69 H :    0.040592
  70 H :    0.092840
  71 H :    0.048083
  72 H :    0.029664
  73 H :    0.026554
  74 H :    0.023627
  75 H :    0.027917
  76 H :    0.028019
  77 H :    0.027571
  78 H :    0.032547
  79 H :    0.032548
  80 H :    0.033137
  81 H :    0.029111
  82 H :    0.039098
  83 H :    0.038133
  84 H :    0.040045
  85 H :    0.036251
  86 H :    0.045177
  87 H :    0.032531
  88 H :    0.026141
  89 H :    0.016415
  90 H :    0.015038
  91 H :    0.038129
  92 H :    0.023980
  93 H :    0.023107

  Mayer bond orders larger than 0.100000
B(  0-C ,  1-C ) :   1.5565 B(  0-C ,  6-C ) :   1.0138 B(  0-C , 18-C ) :   1.0733
B(  1-C ,  2-C ) :   1.1476 B(  1-C ,  4-C ) :   1.1916 B(  2-C ,  3-N ) :   2.9225
B(  4-C ,  5-N ) :   2.8462 B(  6-C ,  7-C ) :   1.2741 B(  6-C , 11-C ) :   1.4153
B(  7-C ,  8-C ) :   1.4356 B(  7-C , 16-C ) :   0.9301 B(  8-C ,  9-C ) :   1.2398
B(  8-C , 66-H ) :   1.0173 B(  9-C , 10-C ) :   1.3123 B(  9-C , 14-C ) :   1.1649
B( 10-C , 11-C ) :   1.3268 B( 10-C , 12-S ) :   1.0867 B( 11-C , 67-H ) :   0.9783
B( 12-S , 13-C ) :   1.0879 B( 13-C , 14-C ) :   1.6176 B( 13-C , 15-Br) :   1.0191
B( 14-C , 68-H ) :   0.9998 B( 16-C , 17-O ) :   2.2465 B( 16-C , 18-C ) :   0.9762
B( 18-C , 19-C ) :   1.5189 B( 19-C , 20-N ) :   1.3210 B( 19-C , 69-H ) :   0.9126
B( 20-N , 21-C ) :   1.1601 B( 20-N , 70-H ) :   0.8672 B( 21-C , 22-S ) :   1.1276
B( 21-C , 28-C ) :   1.3909 B( 22-S , 23-C ) :   1.0852 B( 23-C , 24-N ) :   0.9630
B( 23-C , 27-C ) :   1.4960 B( 24-N , 25-O ) :   1.5408 B( 24-N , 26-O ) :   1.5159
B( 25-O , 26-O ) :   0.2619 B( 27-C , 28-C ) :   1.2142 B( 27-C , 71-H ) :   1.0088
B( 28-C , 29-C ) :   1.0855 B( 29-C , 30-C ) :   1.6140 B( 29-C , 72-H ) :   0.9640
B( 30-C , 31-C ) :   1.2005 B( 30-C , 73-H ) :   0.9444 B( 31-C , 32-C ) :   1.3621
B( 31-C , 39-C ) :   1.0398 B( 32-C , 33-C ) :   1.1869 B( 32-C , 37-C ) :   1.1450
B( 33-C , 34-C ) :   1.5706 B( 33-C , 74-H ) :   0.9900 B( 34-C , 35-C ) :   1.1797
B( 34-C , 75-H ) :   0.9831 B( 35-C , 36-C ) :   1.5744 B( 35-C , 76-H ) :   0.9839
B( 36-C , 37-C ) :   1.1659 B( 36-C , 77-H ) :   0.9910 B( 37-C , 38-C ) :   1.4694
B( 38-C , 39-C ) :   1.0979 B( 38-C , 41-C ) :   0.9861 B( 39-C , 40-C ) :   1.8214
B( 40-C , 78-H ) :   0.9133 B( 40-C , 79-H ) :   0.9099 B( 41-C , 42-C ) :   1.4245
B( 41-C , 44-C ) :   0.1245 B( 41-C , 46-C ) :   1.2347 B( 42-C , 43-C ) :   1.2444
B( 42-C , 80-H ) :   1.0043 B( 43-C , 44-C ) :   1.4453 B( 43-C , 81-H ) :   0.9936
B( 44-C , 45-C ) :   1.2297 B( 44-C , 53-C ) :   0.9927 B( 45-C , 46-C ) :   1.2752
B( 45-C , 50-N ) :   1.4704 B( 46-C , 47-N ) :   1.4197 B( 47-N , 48-C ) :   1.6747
B( 48-C , 49-C ) :   1.1596 B( 48-C , 52-C ) :   1.0947 B( 49-C , 50-N ) :   1.7078
B( 49-C , 51-C ) :   1.0909 B( 51-C , 82-H ) :   0.9413 B( 51-C , 83-H ) :   0.9427
B( 51-C , 84-H ) :   0.9431 B( 52-C , 85-H ) :   0.9369 B( 52-C , 86-H ) :   0.9286
B( 52-C , 87-H ) :   0.9335 B( 53-C , 54-O ) :   1.2276 B( 53-C , 55-C ) :   0.1217
B( 53-C , 57-C ) :   1.4796 B( 54-O , 55-C ) :   1.1243 B( 55-C , 56-C ) :   1.4446
B( 55-C , 64-C ) :   1.1333 B( 56-C , 57-C ) :   1.1984 B( 56-C , 62-O ) :   1.2168
B( 57-C , 58-C ) :   0.9521 B( 58-C , 59-F ) :   1.1609 B( 58-C , 60-F ) :   1.1537
B( 58-C , 61-F ) :   1.1284 B( 62-O , 63-C ) :   0.9318 B( 63-C , 88-H ) :   0.9784
B( 63-C , 89-H ) :   0.9723 B( 63-C , 90-H ) :   0.9629 B( 64-C , 65-C ) :   1.9068
B( 64-C , 91-H ) :   0.9574 B( 65-C , 92-H ) :   0.9550 B( 65-C , 93-H ) :   0.9470

-----------------------------------------------------------------------------
         ABSORPTION SPECTRUM VIA TRANSITION ELECTRIC DIPOLE MOMENTS
-----------------------------------------------------------------------------
State   Energy  Wavelength   fosc         T2         TX        TY        TZ
        (cm-1)    (nm)                  (au**2)     (au)      (au)      (au)
-----------------------------------------------------------------------------
   0   11626.9    860.1   0.225562067   6.38674  -1.85712   0.65285   1.58481
   1   14460.6    691.5   0.116641635   2.65547  -0.60516  -0.70244  -1.34009
   2   20048.8    498.8   0.043445680   0.71340   0.74760   0.14994  -0.36335
   3   21546.2    464.1   0.206215799   3.15084  -0.44921   0.20111   1.70546
   4   22304.6    448.3   0.351237514   5.18421  -1.06474  -0.63453  -1.90995
   5   23834.7    419.6   0.328241753   4.53377  -1.53457  -1.21876  -0.83277
   6   25457.3    392.8   0.105005255   1.35792   0.11661  -0.34592  -1.10664
   7   25974.6    385.0   0.003644020   0.04619  -0.03446   0.13948  -0.15982
   8   26432.9    378.3   0.189799186   2.36388   0.54696  -0.66875   1.27180
   9   27932.8    358.0   0.091600056   1.07958   0.65537   0.66441   0.45676
  10   28115.3    355.7   0.143650460   1.68206  -0.86922  -0.07090   0.95994
  11   28709.2    348.3   0.110310246   1.26494   0.97001   0.31852  -0.47178
  12   29230.9    342.1   0.047192747   0.53151  -0.01303  -0.11814  -0.71929
  13   29695.0    336.8   0.036227099   0.40163   0.13786  -0.41502  -0.45868
  14   30032.3    333.0   0.391666160   4.29341  -1.54409  -1.15352  -0.76065
  15   30474.4    328.1   0.284416415   3.07252   0.51076   1.66975   0.15354
  16   31069.2    321.9   0.007225467   0.07656  -0.02721  -0.25369   0.10707
  17   31394.6    318.5   0.257542226   2.70066   1.31304  -0.28954  -0.94486
  18   31903.4    313.4   0.028457484   0.29365  -0.03599  -0.47735   0.25396
  19   31957.9    312.9   0.014923491   0.15373   0.18650  -0.23818  -0.24944
  20   32613.1    306.6   0.330352981   3.33474  -0.28520  -1.65295  -0.72191
  21   32762.7    305.2   0.095331298   0.95793  -0.68590  -0.69212  -0.09187
  22   32850.0    304.4   0.021571713   0.21618  -0.45699   0.08523   0.00890
  23   33521.2    298.3   0.040299762   0.39578  -0.44491  -0.04435   0.44257
  24   33955.9    294.5   0.206808341   2.00507  -0.22872  -0.00375   1.39741
  25   34137.7    292.9   0.198262291   1.91197  -1.16593  -0.72498   0.16431
  26   34355.1    291.1   0.025724208   0.24651   0.15987   0.26445   0.38860
  27   34594.8    289.1   0.065275305   0.62117   0.01303  -0.77386   0.14883
  28   34883.4    286.7   0.134103932   1.26560  -0.10116  -0.67426   0.89484
  29   35482.2    281.8   0.139637602   1.29559   0.62682  -0.66492  -0.67865
  30   35922.9    278.4   0.005811195   0.05326   0.13922   0.07453  -0.16828
  31   36468.0    274.2   0.159601266   1.44079   0.91569   0.77499  -0.04098
  32   36728.3    272.3   0.010922237   0.09790   0.13285   0.26133   0.10935
  33   36830.9    271.5   0.031788272   0.28414   0.22435   0.39504  -0.27883
  34   37024.8    270.1   0.054952192   0.48862  -0.15476   0.58189   0.35506
  35   37550.5    266.3   0.033461341   0.29336   0.15172  -0.50231   0.13426
  36   37767.7    264.8   0.055402997   0.48294   0.52755  -0.45109   0.03385
  37   38363.5    260.7   0.010610157   0.09105   0.15580   0.25828   0.00829
  38   38559.3    259.3   0.030084121   0.25685   0.08102  -0.09121   0.49190
  39   38821.0    257.6   0.026903941   0.22815  -0.01203   0.47653   0.03048
  40   38828.1    257.5   0.020697088   0.17548   0.17587   0.30518  -0.22676
  41   39534.3    252.9   0.026976518   0.22464   0.09076   0.21499   0.41253
  42   39626.7    252.4   0.015357235   0.12759  -0.04047  -0.10040   0.34039
  43   40132.9    249.2   0.156396699   1.28293   0.06529   0.88982   0.69777

FINAL SINGLE POINT ENERGY     -6254.595844698614

DIPOLE MOMENT
-------------
                                X             Y             Z
Electronic contribution:    105.88543      31.16735     -51.57111
Nuclear contribution   :   -104.55869     -29.47584      52.27229
                        -----------------------------------------
Total Dipole Moment    :      1.32675       1.69151       0.70118
                        -----------------------------------------
Magnitude (a.u.)       :      2.26122
Magnitude (Debye)      :      5.74756

Rotational constants in cm-1:     0.001033     0.000474     0.000358
Rotational constants in MHz :    30.969070    14.223485    10.727828

                             ****ORCA TERMINATED NORMALLY****
TOTAL RUN TIME: 0 days 0 hours 10 minutes 46 seconds 421 msec
