                         Program Version 4.2.0 -  RELEASE  -
|  1> # ORCA input file
|  2> # SCF done       -193.193919581592          0.000521881119
|  3> ! CAM-B3LYP def2-SVP def2/J RIJCOSX Grid4 TightSCF
|  4> %maxcore 5000
|  5> %tddft
|  6>     Mode sTDDFT
|  7>     Ethresh 5.0
|  8>     maxcore 5000
|  9> end
| 10>
| 11> %pal
| 12>   nprocs 6
| 13>   end
| 14> * xyz 0 1
| 15>    C       -3.67449        -0.06689         2.77147
| 16>    C       -2.56327        -0.87419         2.78948
| 17>    C       -2.29610        -1.82958         3.79187
| 18>    N       -2.01953        -2.62432         4.57314
| 19>    C       -1.53574        -0.87976         1.82474
| 20>    N       -0.66163        -0.94165         1.08093
| 21>    C       -4.73426        -0.07487         3.77669
| 22>    C       -5.71752         0.87626         3.40730
| 23>    C       -6.84584         1.10823         4.15468
| 24>    C       -7.01324         0.36563         5.32869
| 25>    C       -6.02615        -0.58086         5.69193
| 26>    C       -4.88507        -0.81559         4.93332
| 27>    S       -6.42822        -1.38511         7.17818
| 28>    C       -7.89703        -0.45259         7.29004
| 29>    C       -8.07892         0.41739         6.26795
| 30>   Br       -9.05091        -0.71394         8.74506
| 31>    C       -5.30880         1.52460         2.14951
| 32>    O       -5.92594         2.38757         1.54707
| 33>    C       -4.02439         0.92766         1.77924
| 34>    C       -3.26323         1.26581         0.68198
| 35>    C       -3.48286         2.20519        -0.32367
| 36>    S       -4.86501         3.24872        -0.48202
| 37>    C       -4.23995         4.00235        -1.90448
| 38>    C       -2.98233         3.46370        -2.26848
| 39>    C       -2.55598         2.44125        -1.37974
| 40>    C       -1.33351         1.78991        -1.60320
| 41>    C       -0.57573         2.16115        -2.68368
| 42>    F        0.59241         1.55104        -2.91600
| 43>    C       -1.00044         3.17653        -3.56302
| 44>    F       -0.22436         3.50369        -4.60595
| 45>    C       -2.18898         3.82680        -3.36694
| 46>    C       -4.92684         5.03019        -2.57587
| 47>    C       -6.17376         5.47002        -2.25056
| 48>    C       -6.81307         6.52463        -2.95746
| 49>    N       -6.14550         7.17193        -3.91924
| 50>    N       -6.63912         8.14242        -4.59257
| 51>    C       -7.88982         8.61084        -4.43232
| 52>    C       -8.71530         7.99542        -3.44531
| 53>    C       -8.15035         6.92632        -2.67570
| 54>    N       -9.00434         6.44616        -1.77906
| 55>    S      -10.38898         7.25734        -1.89004
| 56>    N       -9.96355         8.25856        -3.08356
| 57>    C       -8.22152         9.69071        -5.27845
| 58>    C       -9.40265        10.36540        -5.46001
| 59>    C       -9.53752        11.44510        -6.37723
| 60>    C      -10.79062        11.96539        -6.45671
| 61>    C      -11.71732        11.31474        -5.61054
| 62>    S      -10.94120        10.04940        -4.68863
| 63>    C      -13.07261        11.57686        -5.49155
| 64>    C      -13.82149        12.57943        -6.14561
| 65>    C      -15.14964        12.56006        -5.83836
| 66>    C      -15.51544        11.53865        -4.93128
| 67>    S      -14.10872        10.60957        -4.47040
| 68>    C      -16.79361        11.25477        -4.49384
| 69>    C      -17.09487        10.22290        -3.60884
| 70>    C      -18.33674         9.78777        -3.20597
| 71>    C      -19.65853        10.04151        -3.71323
| 72>    C      -20.00230        10.37979        -5.00167
| 73>    C      -21.32864        10.57209        -5.43575
| 74>    N      -22.38613        10.76431        -5.84048
| 75>    C      -19.09331        10.46327        -6.07478
| 76>    N      -18.41128        10.49836        -6.99841
| 77>    C      -20.60771         9.64786        -2.67204
| 78>    C      -19.89905         8.97926        -1.64218
| 79>    C      -18.45731         8.98574        -1.96564
| 80>    O      -17.55355         8.48027        -1.33607
| 81>    C      -20.52394         8.44867        -0.54083
| 82>    C      -21.91253         8.59418        -0.44440
| 83>    C      -22.60818         9.27698        -1.46950
| 84>    C      -21.97672         9.80706        -2.58916
| 85>    S      -24.31316         9.35217        -1.14479
| 86>    C      -24.07264         8.47238         0.34148
| 87>    C      -22.78263         8.14068         0.58480
| 88>   Br      -25.54696         8.07692         1.43154
| 89>    H       -7.57576         1.83967         3.84531
| 90>    H       -4.16351        -1.54731         5.25546
| 91>    H       -8.92876         1.06914         6.17893
| 92>    H       -2.33143         0.72942         0.57394
| 93>    H       -0.96719         1.00525        -0.96020
| 94>    H       -2.49509         4.59859        -4.05349
| 95>    H       -4.43807         5.50850        -3.41326
| 96>    H       -6.73291         5.02117        -1.44132
| 97>    H       -7.38741        10.01403        -5.88959
| 98>    H       -8.69567        11.79371        -6.94879
| 99>    H      -11.06942        12.77932        -7.10112
|100>    H      -13.36710        13.28397        -6.81831
|101>    H      -15.88097        13.23540        -6.24469
|102>    H      -17.58320        11.89214        -4.86447
|103>    H      -16.26085         9.73676        -3.11050
|104>    H      -19.96101         7.93615         0.22334
|105>    H      -22.54928        10.32240        -3.34234
|106>    H      -22.45589         7.59869         1.45339
|107> *
|108>
|109>                          ****END OF INPUT****

CARTESIAN COORDINATES (ANGSTROEM)
---------------------------------
  C     -3.674490   -0.066890    2.771470
  C     -2.563270   -0.874190    2.789480
  C     -2.296100   -1.829580    3.791870
  N     -2.019530   -2.624320    4.573140
  C     -1.535740   -0.879760    1.824740
  N     -0.661630   -0.941650    1.080930
  C     -4.734260   -0.074870    3.776690
  C     -5.717520    0.876260    3.407300
  C     -6.845840    1.108230    4.154680
  C     -7.013240    0.365630    5.328690
  C     -6.026150   -0.580860    5.691930
  C     -4.885070   -0.815590    4.933320
  S     -6.428220   -1.385110    7.178180
  C     -7.897030   -0.452590    7.290040
  C     -8.078920    0.417390    6.267950
  Br    -9.050910   -0.713940    8.745060
  C     -5.308800    1.524600    2.149510
  O     -5.925940    2.387570    1.547070
  C     -4.024390    0.927660    1.779240
  C     -3.263230    1.265810    0.681980
  C     -3.482860    2.205190   -0.323670
  S     -4.865010    3.248720   -0.482020
  C     -4.239950    4.002350   -1.904480
  C     -2.982330    3.463700   -2.268480
  C     -2.555980    2.441250   -1.379740
  C     -1.333510    1.789910   -1.603200
  C     -0.575730    2.161150   -2.683680
  F      0.592410    1.551040   -2.916000
  C     -1.000440    3.176530   -3.563020
  F     -0.224360    3.503690   -4.605950
  C     -2.188980    3.826800   -3.366940
  C     -4.926840    5.030190   -2.575870
  C     -6.173760    5.470020   -2.250560
  C     -6.813070    6.524630   -2.957460
  N     -6.145500    7.171930   -3.919240
  N     -6.639120    8.142420   -4.592570
  C     -7.889820    8.610840   -4.432320
  C     -8.715300    7.995420   -3.445310
  C     -8.150350    6.926320   -2.675700
  N     -9.004340    6.446160   -1.779060
  S    -10.388980    7.257340   -1.890040
  N     -9.963550    8.258560   -3.083560
  C     -8.221520    9.690710   -5.278450
  C     -9.402650   10.365400   -5.460010
  C     -9.537520   11.445100   -6.377230
  C    -10.790620   11.965390   -6.456710
  C    -11.717320   11.314740   -5.610540
  S    -10.941200   10.049400   -4.688630
  C    -13.072610   11.576860   -5.491550
  C    -13.821490   12.579430   -6.145610
  C    -15.149640   12.560060   -5.838360
  C    -15.515440   11.538650   -4.931280
  S    -14.108720   10.609570   -4.470400
  C    -16.793610   11.254770   -4.493840
  C    -17.094870   10.222900   -3.608840
  C    -18.336740    9.787770   -3.205970
  C    -19.658530   10.041510   -3.713230
  C    -20.002300   10.379790   -5.001670
  C    -21.328640   10.572090   -5.435750
  N    -22.386130   10.764310   -5.840480
  C    -19.093310   10.463270   -6.074780
  N    -18.411280   10.498360   -6.998410
  C    -20.607710    9.647860   -2.672040
  C    -19.899050    8.979260   -1.642180
  C    -18.457310    8.985740   -1.965640
  O    -17.553550    8.480270   -1.336070
  C    -20.523940    8.448670   -0.540830
  C    -21.912530    8.594180   -0.444400
  C    -22.608180    9.276980   -1.469500
  C    -21.976720    9.807060   -2.589160
  S    -24.313160    9.352170   -1.144790
  C    -24.072640    8.472380    0.341480
  C    -22.782630    8.140680    0.584800
  Br   -25.546960    8.076920    1.431540
  H     -7.575760    1.839670    3.845310
  H     -4.163510   -1.547310    5.255460
  H     -8.928760    1.069140    6.178930
  H     -2.331430    0.729420    0.573940
  H     -0.967190    1.005250   -0.960200
  H     -2.495090    4.598590   -4.053490
  H     -4.438070    5.508500   -3.413260
  H     -6.732910    5.021170   -1.441320
  H     -7.387410   10.014030   -5.889590
  H     -8.695670   11.793710   -6.948790
  H    -11.069420   12.779320   -7.101120
  H    -13.367100   13.283970   -6.818310
  H    -15.880970   13.235400   -6.244690
  H    -17.583200   11.892140   -4.864470
  H    -16.260850    9.736760   -3.110500
  H    -19.961010    7.936150    0.223340
  H    -22.549280   10.322400   -3.342340
  H    -22.455890    7.598690    1.453390

 Total Charge           Charge          ....    0
 Multiplicity           Mult            ....    1
 Number of Electrons    NEL             ....  598
 Basis Dimension        Dim             .... 1186

ORBITAL ENERGIES
----------------

  NO   OCC          E(Eh)            E(eV)
   0   2.0000    -482.886289    -13140.0039
   1   2.0000    -482.883006    -13139.9146
   2   2.0000     -89.052228     -2423.2343
   3   2.0000     -88.981944     -2421.3218
   4   2.0000     -88.976146     -2421.1640
   5   2.0000     -88.972093     -2421.0537
   6   2.0000     -88.969589     -2420.9856
   7   2.0000     -88.968222     -2420.9484
   8   2.0000     -62.563995     -1702.4529
   9   2.0000     -62.560748     -1702.3645
  10   2.0000     -56.397945     -1534.6661
  11   2.0000     -56.395231     -1534.5922
  12   2.0000     -56.395198     -1534.5914
  13   2.0000     -56.394691     -1534.5776
  14   2.0000     -56.391986     -1534.5040
  15   2.0000     -56.391949     -1534.5029
  16   2.0000     -24.794601      -674.6954
  17   2.0000     -24.793928      -674.6771
  18   2.0000     -19.222023      -523.0578
  19   2.0000     -19.208206      -522.6819
  20   2.0000     -14.468003      -393.6944
  21   2.0000     -14.466059      -393.6415
  22   2.0000     -14.451717      -393.2512
  23   2.0000     -14.450424      -393.2160
  24   2.0000     -14.419310      -392.3694
  25   2.0000     -14.412876      -392.1943
  26   2.0000     -14.410142      -392.1199
  27   2.0000     -14.408387      -392.0721
  28   2.0000     -10.380048      -282.4555
  29   2.0000     -10.377181      -282.3775
  30   2.0000     -10.369721      -282.1745
  31   2.0000     -10.359397      -281.8935
  32   2.0000     -10.358863      -281.8790
  33   2.0000     -10.355288      -281.7817
  34   2.0000     -10.352941      -281.7178
  35   2.0000     -10.348890      -281.6076
  36   2.0000     -10.342776      -281.4412
  37   2.0000     -10.341358      -281.4027
  38   2.0000     -10.339762      -281.3592
  39   2.0000     -10.338631      -281.3284
  40   2.0000     -10.337196      -281.2894
  41   2.0000     -10.336853      -281.2801
  42   2.0000     -10.336249      -281.2636
  43   2.0000     -10.335592      -281.2458
  44   2.0000     -10.334541      -281.2171
  45   2.0000     -10.334002      -281.2025
  46   2.0000     -10.327301      -281.0202
  47   2.0000     -10.325600      -280.9739
  48   2.0000     -10.324366      -280.9403
  49   2.0000     -10.322903      -280.9005
  50   2.0000     -10.322475      -280.8888
  51   2.0000     -10.321665      -280.8668
  52   2.0000     -10.316479      -280.7257
  53   2.0000     -10.313393      -280.6417
  54   2.0000     -10.313299      -280.6391
  55   2.0000     -10.312227      -280.6100
  56   2.0000     -10.311676      -280.5950
  57   2.0000     -10.310384      -280.5598
  58   2.0000     -10.309928      -280.5474
  59   2.0000     -10.309570      -280.5377
  60   2.0000     -10.308023      -280.4956
  61   2.0000     -10.307804      -280.4896
  62   2.0000     -10.306585      -280.4564
  63   2.0000     -10.305658      -280.4312
  64   2.0000     -10.305393      -280.4240
  65   2.0000     -10.304055      -280.3876
  66   2.0000     -10.303935      -280.3843
  67   2.0000     -10.303665      -280.3770
  68   2.0000     -10.303218      -280.3648
  69   2.0000     -10.301889      -280.3287
  70   2.0000     -10.301450      -280.3167
  71   2.0000     -10.300903      -280.3018
  72   2.0000     -10.300655      -280.2951
  73   2.0000     -10.297939      -280.2212
  74   2.0000     -10.297357      -280.2053
  75   2.0000     -10.297024      -280.1963
  76   2.0000     -10.296522      -280.1826
  77   2.0000     -10.293812      -280.1089
  78   2.0000     -10.293650      -280.1045
  79   2.0000     -10.292773      -280.0806
  80   2.0000     -10.288798      -279.9724
  81   2.0000     -10.287712      -279.9429
  82   2.0000      -8.793422      -239.2812
  83   2.0000      -8.790192      -239.1933
  84   2.0000      -8.143733      -221.6022
  85   2.0000      -8.074813      -219.7268
  86   2.0000      -8.072101      -219.6530
  87   2.0000      -8.068151      -219.5455
  88   2.0000      -8.065910      -219.4846
  89   2.0000      -8.063248      -219.4121
  90   2.0000      -6.629720      -180.4038
  91   2.0000      -6.626485      -180.3158
  92   2.0000      -6.615167      -180.0078
  93   2.0000      -6.614949      -180.0019
  94   2.0000      -6.611912      -179.9193
  95   2.0000      -6.611752      -179.9149
  96   2.0000      -6.114919      -166.3954
  97   2.0000      -6.107150      -166.1840
  98   2.0000      -6.106148      -166.1567
  99   2.0000      -6.043874      -164.4622
 100   2.0000      -6.041792      -164.4055
 101   2.0000      -6.039379      -164.3399
 102   2.0000      -6.037838      -164.2979
 103   2.0000      -6.037774      -164.2962
 104   2.0000      -6.037498      -164.2887
 105   2.0000      -6.035517      -164.2348
 106   2.0000      -6.033576      -164.1820
 107   2.0000      -6.033344      -164.1756
 108   2.0000      -6.033035      -164.1672
 109   2.0000      -6.031480      -164.1249
 110   2.0000      -6.029349      -164.0669
 111   2.0000      -6.028722      -164.0499
 112   2.0000      -6.027036      -164.0040
 113   2.0000      -6.024190      -163.9265
 114   2.0000      -2.745592       -74.7113
 115   2.0000      -2.742340       -74.6229
 116   2.0000      -2.741472       -74.5992
 117   2.0000      -2.741390       -74.5970
 118   2.0000      -2.738299       -74.5129
 119   2.0000      -2.738115       -74.5079
 120   2.0000      -2.729781       -74.2811
 121   2.0000      -2.729763       -74.2806
 122   2.0000      -2.726571       -74.1938
 123   2.0000      -2.726550       -74.1932
 124   2.0000      -1.317585       -35.8533
 125   2.0000      -1.302367       -35.4392
 126   2.0000      -1.155838       -31.4520
 127   2.0000      -1.136894       -30.9365
 128   2.0000      -1.129125       -30.7251
 129   2.0000      -1.122678       -30.5496
 130   2.0000      -1.023586       -27.8532
 131   2.0000      -1.020618       -27.7724
 132   2.0000      -1.018347       -27.7106
 133   2.0000      -1.018165       -27.7057
 134   2.0000      -1.014154       -27.5965
 135   2.0000      -1.010062       -27.4852
 136   2.0000      -1.008092       -27.4316
 137   2.0000      -0.996409       -27.1137
 138   2.0000      -0.995304       -27.0836
 139   2.0000      -0.989929       -26.9373
 140   2.0000      -0.988087       -26.8872
 141   2.0000      -0.984248       -26.7827
 142   2.0000      -0.959715       -26.1152
 143   2.0000      -0.953169       -25.9371
 144   2.0000      -0.943534       -25.6749
 145   2.0000      -0.939892       -25.5758
 146   2.0000      -0.936012       -25.4702
 147   2.0000      -0.920055       -25.0360
 148   2.0000      -0.917867       -24.9764
 149   2.0000      -0.908993       -24.7350
 150   2.0000      -0.903831       -24.5945
 151   2.0000      -0.895858       -24.3775
 152   2.0000      -0.888428       -24.1754
 153   2.0000      -0.886178       -24.1141
 154   2.0000      -0.881672       -23.9915
 155   2.0000      -0.877893       -23.8887
 156   2.0000      -0.871225       -23.7072
 157   2.0000      -0.865363       -23.5477
 158   2.0000      -0.857480       -23.3332
 159   2.0000      -0.847388       -23.0586
 160   2.0000      -0.846783       -23.0421
 161   2.0000      -0.840602       -22.8740
 162   2.0000      -0.829932       -22.5836
 163   2.0000      -0.825530       -22.4638
 164   2.0000      -0.821454       -22.3529
 165   2.0000      -0.802669       -21.8417
 166   2.0000      -0.792604       -21.5678
 167   2.0000      -0.772971       -21.0336
 168   2.0000      -0.768010       -20.8986
 169   2.0000      -0.761757       -20.7285
 170   2.0000      -0.756187       -20.5769
 171   2.0000      -0.753189       -20.4953
 172   2.0000      -0.747209       -20.3326
 173   2.0000      -0.740268       -20.1437
 174   2.0000      -0.727960       -19.8088
 175   2.0000      -0.715395       -19.4669
 176   2.0000      -0.707527       -19.2528
 177   2.0000      -0.697270       -18.9737
 178   2.0000      -0.694090       -18.8872
 179   2.0000      -0.692606       -18.8468
 180   2.0000      -0.687418       -18.7056
 181   2.0000      -0.683646       -18.6030
 182   2.0000      -0.677814       -18.4443
 183   2.0000      -0.667293       -18.1580
 184   2.0000      -0.665702       -18.1147
 185   2.0000      -0.659028       -17.9331
 186   2.0000      -0.656776       -17.8718
 187   2.0000      -0.654931       -17.8216
 188   2.0000      -0.643742       -17.5171
 189   2.0000      -0.639318       -17.3967
 190   2.0000      -0.630761       -17.1639
 191   2.0000      -0.628426       -17.1003
 192   2.0000      -0.626337       -17.0435
 193   2.0000      -0.625904       -17.0317
 194   2.0000      -0.620817       -16.8933
 195   2.0000      -0.618620       -16.8335
 196   2.0000      -0.617985       -16.8162
 197   2.0000      -0.609087       -16.5741
 198   2.0000      -0.600848       -16.3499
 199   2.0000      -0.597167       -16.2497
 200   2.0000      -0.594237       -16.1700
 201   2.0000      -0.591436       -16.0938
 202   2.0000      -0.585224       -15.9248
 203   2.0000      -0.583174       -15.8690
 204   2.0000      -0.582344       -15.8464
 205   2.0000      -0.581101       -15.8126
 206   2.0000      -0.567588       -15.4449
 207   2.0000      -0.564555       -15.3623
 208   2.0000      -0.559027       -15.2119
 209   2.0000      -0.550429       -14.9779
 210   2.0000      -0.545922       -14.8553
 211   2.0000      -0.543469       -14.7885
 212   2.0000      -0.543258       -14.7828
 213   2.0000      -0.543158       -14.7801
 214   2.0000      -0.541262       -14.7285
 215   2.0000      -0.537967       -14.6388
 216   2.0000      -0.535114       -14.5612
 217   2.0000      -0.533255       -14.5106
 218   2.0000      -0.531354       -14.4589
 219   2.0000      -0.528728       -14.3874
 220   2.0000      -0.524478       -14.2718
 221   2.0000      -0.522306       -14.2127
 222   2.0000      -0.521472       -14.1900
 223   2.0000      -0.520363       -14.1598
 224   2.0000      -0.518855       -14.1188
 225   2.0000      -0.515246       -14.0205
 226   2.0000      -0.513547       -13.9743
 227   2.0000      -0.512733       -13.9522
 228   2.0000      -0.510815       -13.9000
 229   2.0000      -0.507437       -13.8081
 230   2.0000      -0.503814       -13.7095
 231   2.0000      -0.500402       -13.6166
 232   2.0000      -0.498966       -13.5776
 233   2.0000      -0.496363       -13.5067
 234   2.0000      -0.495595       -13.4858
 235   2.0000      -0.493976       -13.4418
 236   2.0000      -0.491872       -13.3845
 237   2.0000      -0.490854       -13.3568
 238   2.0000      -0.487914       -13.2768
 239   2.0000      -0.486615       -13.2415
 240   2.0000      -0.484943       -13.1960
 241   2.0000      -0.480663       -13.0795
 242   2.0000      -0.473743       -12.8912
 243   2.0000      -0.470273       -12.7968
 244   2.0000      -0.468208       -12.7406
 245   2.0000      -0.461455       -12.5568
 246   2.0000      -0.460693       -12.5361
 247   2.0000      -0.459180       -12.4949
 248   2.0000      -0.455150       -12.3853
 249   2.0000      -0.453728       -12.3466
 250   2.0000      -0.451816       -12.2945
 251   2.0000      -0.449969       -12.2443
 252   2.0000      -0.446567       -12.1517
 253   2.0000      -0.444274       -12.0893
 254   2.0000      -0.442463       -12.0400
 255   2.0000      -0.442275       -12.0349
 256   2.0000      -0.440081       -11.9752
 257   2.0000      -0.439660       -11.9638
 258   2.0000      -0.437401       -11.9023
 259   2.0000      -0.435356       -11.8466
 260   2.0000      -0.433016       -11.7830
 261   2.0000      -0.431303       -11.7364
 262   2.0000      -0.429788       -11.6951
 263   2.0000      -0.427625       -11.6363
 264   2.0000      -0.427185       -11.6243
 265   2.0000      -0.425813       -11.5870
 266   2.0000      -0.420044       -11.4300
 267   2.0000      -0.415845       -11.3157
 268   2.0000      -0.414430       -11.2772
 269   2.0000      -0.408563       -11.1176
 270   2.0000      -0.407213       -11.0808
 271   2.0000      -0.405556       -11.0357
 272   2.0000      -0.404551       -11.0084
 273   2.0000      -0.403581       -10.9820
 274   2.0000      -0.388885       -10.5821
 275   2.0000      -0.387646       -10.5484
 276   2.0000      -0.385811       -10.4985
 277   2.0000      -0.382432       -10.4065
 278   2.0000      -0.375675       -10.2226
 279   2.0000      -0.375451       -10.2165
 280   2.0000      -0.372587       -10.1386
 281   2.0000      -0.372291       -10.1306
 282   2.0000      -0.366957        -9.9854
 283   2.0000      -0.357912        -9.7393
 284   2.0000      -0.354391        -9.6435
 285   2.0000      -0.344782        -9.3820
 286   2.0000      -0.338887        -9.2216
 287   2.0000      -0.337355        -9.1799
 288   2.0000      -0.334375        -9.0988
 289   2.0000      -0.327654        -8.9159
 290   2.0000      -0.323853        -8.8125
 291   2.0000      -0.315969        -8.5980
 292   2.0000      -0.311402        -8.4737
 293   2.0000      -0.307400        -8.3648
 294   2.0000      -0.301153        -8.1948
 295   2.0000      -0.294310        -8.0086
 296   2.0000      -0.290073        -7.8933
 297   2.0000      -0.261403        -7.1131
 298   2.0000      -0.232726        -6.3328
 299   0.0000      -0.133385        -3.6296
 300   0.0000      -0.102642        -2.7930
 301   0.0000      -0.081790        -2.2256
 302   0.0000      -0.065102        -1.7715
 303   0.0000      -0.061860        -1.6833

MULLIKEN ATOMIC CHARGES
-----------------------
   0 C :    0.323843
   1 C :   -0.361486
   2 C :   -0.186358
   3 N :    0.146248
   4 C :   -0.182962
   5 N :    0.147174
   6 C :    0.010797
   7 C :   -0.004979
   8 C :   -0.076111
   9 C :    0.119248
  10 C :   -0.092679
  11 C :   -0.022148
  12 S :    0.187641
  13 C :   -0.124258
  14 C :    0.037597
  15 Br:    0.023324
  16 C :    0.152495
  17 O :   -0.188977
  18 C :   -0.094176
  19 C :   -0.031728
  20 C :   -0.072291
  21 S :    0.220679
  22 C :   -0.038423
  23 C :    0.130016
  24 C :    0.125701
  25 C :   -0.116368
  26 C :    0.230444
  27 F :   -0.163589
  28 C :    0.224490
  29 F :   -0.172861
  30 C :   -0.112938
  31 C :    0.007288
  32 C :   -0.041332
  33 C :   -0.035542
  34 N :   -0.061639
  35 N :   -0.066300
  36 C :   -0.042244
  37 C :    0.099340
  38 C :    0.056064
  39 N :   -0.257682
  40 S :    0.549346
  41 N :   -0.301652
  42 C :   -0.051733
  43 C :    0.008670
  44 C :    0.040493
  45 C :    0.037976
  46 C :   -0.018735
  47 S :    0.133495
  48 C :   -0.060836
  49 C :    0.039964
  50 C :    0.044953
  51 C :   -0.019130
  52 S :    0.112513
  53 C :    0.001404
  54 C :    0.021040
  55 C :   -0.122197
  56 C :    0.284216
  57 C :   -0.342290
  58 C :   -0.180617
  59 N :    0.142343
  60 C :   -0.219692
  61 N :    0.161806
  62 C :    0.005753
  63 C :   -0.004687
  64 C :    0.137897
  65 O :   -0.152588
  66 C :   -0.074893
  67 C :    0.114194
  68 C :   -0.089609
  69 C :   -0.024409
  70 S :    0.183044
  71 C :   -0.124690
  72 C :    0.038207
  73 Br:    0.019590
  74 H :   -0.011654
  75 H :   -0.006816
  76 H :   -0.003071
  77 H :   -0.016911
  78 H :    0.015144
  79 H :    0.000203
  80 H :    0.015866
  81 H :    0.015579
  82 H :   -0.001778
  83 H :    0.002141
  84 H :   -0.004013
  85 H :   -0.001319
  86 H :    0.005839
  87 H :    0.013601
  88 H :    0.015051
  89 H :   -0.012293
  90 H :   -0.005214
  91 H :   -0.004823
Sum of atomic charges:   -0.0000000

LOEWDIN ATOMIC CHARGES
----------------------
   0 C :    0.077215
   1 C :   -0.150070
   2 C :   -0.018874
   3 N :   -0.057301
   4 C :   -0.016449
   5 N :   -0.061030
   6 C :   -0.019806
   7 C :   -0.049908
   8 C :    0.020255
   9 C :   -0.033686
  10 C :   -0.144673
  11 C :   -0.009615
  12 S :    0.434247
  13 C :   -0.272189
  14 C :   -0.071024
  15 Br:    0.136492
  16 C :    0.082513
  17 O :   -0.175579
  18 C :   -0.112456
  19 C :    0.046365
  20 C :   -0.189776
  21 S :    0.560929
  22 C :   -0.152291
  23 C :   -0.046865
  24 C :   -0.017651
  25 C :   -0.038381
  26 C :    0.074601
  27 F :   -0.043867
  28 C :    0.061776
  29 F :   -0.051467
  30 C :   -0.031171
  31 C :   -0.003987
  32 C :   -0.012486
  33 C :   -0.022651
  34 N :   -0.046053
  35 N :   -0.049205
  36 C :   -0.023975
  37 C :   -0.054904
  38 C :   -0.057536
  39 N :   -0.269990
  40 S :    0.671421
  41 N :   -0.284633
  42 C :   -0.039394
  43 C :   -0.134421
  44 C :   -0.014179
  45 C :   -0.026014
  46 C :   -0.165289
  47 S :    0.438445
  48 C :   -0.177425
  49 C :   -0.008866
  50 C :   -0.026126
  51 C :   -0.103884
  52 S :    0.404253
  53 C :   -0.059610
  54 C :    0.049420
  55 C :   -0.098896
  56 C :    0.068189
  57 C :   -0.148993
  58 C :   -0.020158
  59 N :   -0.059257
  60 C :   -0.024301
  61 N :   -0.059079
  62 C :   -0.016582
  63 C :   -0.051848
  64 C :    0.079127
  65 O :   -0.153873
  66 C :    0.019845
  67 C :   -0.035517
  68 C :   -0.144303
  69 C :   -0.014803
  70 S :    0.430211
  71 C :   -0.273801
  72 C :   -0.070459
  73 Br:    0.133460
  74 H :    0.040279
  75 H :    0.041177
  76 H :    0.038609
  77 H :    0.046944
  78 H :    0.047444
  79 H :    0.045041
  80 H :    0.039805
  81 H :    0.034375
  82 H :    0.047778
  83 H :    0.039226
  84 H :    0.034964
  85 H :    0.037123
  86 H :    0.041902
  87 H :    0.039471
  88 H :    0.035150
  89 H :    0.040084
  90 H :    0.040338
  91 H :    0.038151

  Mayer bond orders larger than 0.100000
B(  0-C ,  1-C ) :   1.6020 B(  0-C ,  6-C ) :   0.9955 B(  0-C , 18-C ) :   1.1004
B(  1-C ,  2-C ) :   1.1482 B(  1-C ,  4-C ) :   1.1516 B(  2-C ,  3-N ) :   2.9644
B(  4-C ,  5-N ) :   2.9722 B(  6-C ,  7-C ) :   1.2749 B(  6-C , 11-C ) :   1.4192
B(  7-C ,  8-C ) :   1.4241 B(  7-C , 16-C ) :   0.9584 B(  8-C ,  9-C ) :   1.2394
B(  8-C , 74-H ) :   1.0176 B(  9-C , 10-C ) :   1.3106 B(  9-C , 14-C ) :   1.1636
B( 10-C , 11-C ) :   1.3232 B( 10-C , 12-S ) :   1.0871 B( 11-C , 75-H ) :   0.9798
B( 12-S , 13-C ) :   1.0878 B( 13-C , 14-C ) :   1.6170 B( 13-C , 15-Br) :   1.0186
B( 14-C , 76-H ) :   0.9999 B( 16-C , 17-O ) :   2.1212 B( 16-C , 18-C ) :   0.9816
B( 18-C , 19-C ) :   1.4699 B( 19-C , 20-C ) :   1.3342 B( 19-C , 77-H ) :   0.9299
B( 20-C , 21-S ) :   1.1062 B( 20-C , 24-C ) :   1.2229 B( 21-S , 22-C ) :   1.1581
B( 22-C , 23-C ) :   1.2463 B( 22-C , 31-C ) :   1.1722 B( 23-C , 24-C ) :   1.2509
B( 23-C , 30-C ) :   1.1923 B( 24-C , 25-C ) :   1.2025 B( 25-C , 26-C ) :   1.4634
B( 25-C , 30-C ) :   0.1124 B( 25-C , 78-H ) :   0.9884 B( 26-C , 27-F ) :   1.1558
B( 26-C , 28-C ) :   1.1803 B( 28-C , 29-F ) :   1.1337 B( 28-C , 30-C ) :   1.4750
B( 30-C , 79-H ) :   1.0003 B( 31-C , 32-C ) :   1.5769 B( 31-C , 80-H ) :   0.9737
B( 32-C , 33-C ) :   1.1879 B( 32-C , 81-H ) :   0.9800 B( 33-C , 34-N ) :   1.5747
B( 33-C , 36-C ) :   0.1110 B( 33-C , 38-C ) :   1.0843 B( 34-N , 35-N ) :   1.2886
B( 35-N , 36-C ) :   1.5513 B( 36-C , 37-C ) :   1.0887 B( 36-C , 42-C ) :   1.2076
B( 37-C , 38-C ) :   1.1977 B( 37-C , 41-N ) :   1.5012 B( 38-C , 39-N ) :   1.5672
B( 39-N , 40-S ) :   1.2746 B( 39-N , 41-N ) :   0.1397 B( 40-S , 41-N ) :   1.2542
B( 42-C , 43-C ) :   1.5004 B( 42-C , 82-H ) :   0.9554 B( 43-C , 44-C ) :   1.1375
B( 43-C , 47-S ) :   1.0536 B( 44-C , 45-C ) :   1.5873 B( 44-C , 83-H ) :   1.0036
B( 45-C , 46-C ) :   1.1814 B( 45-C , 84-H ) :   0.9946 B( 46-C , 47-S ) :   1.0408
B( 46-C , 48-C ) :   1.4782 B( 48-C , 49-C ) :   1.2072 B( 48-C , 52-S ) :   1.0509
B( 49-C , 50-C ) :   1.5566 B( 49-C , 85-H ) :   0.9947 B( 50-C , 51-C ) :   1.1707
B( 50-C , 86-H ) :   1.0002 B( 51-C , 52-S ) :   1.0763 B( 51-C , 53-C ) :   1.5185
B( 53-C , 54-C ) :   1.2008 B( 53-C , 87-H ) :   0.9609 B( 54-C , 55-C ) :   1.5514
B( 54-C , 88-H ) :   0.9403 B( 55-C , 56-C ) :   1.0801 B( 55-C , 64-C ) :   0.9582
B( 56-C , 57-C ) :   1.6062 B( 56-C , 62-C ) :   1.0053 B( 57-C , 58-C ) :   1.1335
B( 57-C , 60-C ) :   1.1662 B( 58-C , 59-N ) :   2.9779 B( 60-C , 61-N ) :   3.0126
B( 62-C , 63-C ) :   1.2751 B( 62-C , 69-C ) :   1.4204 B( 63-C , 64-C ) :   0.9220
B( 63-C , 66-C ) :   1.4299 B( 64-C , 65-O ) :   2.2498 B( 66-C , 67-C ) :   1.2453
B( 66-C , 89-H ) :   1.0165 B( 67-C , 68-C ) :   1.3137 B( 67-C , 72-C ) :   1.1632
B( 68-C , 69-C ) :   1.3205 B( 68-C , 70-S ) :   1.0850 B( 69-C , 90-H ) :   0.9817
B( 70-S , 71-C ) :   1.0863 B( 71-C , 72-C ) :   1.6194 B( 71-C , 73-Br) :   1.0161
B( 72-C , 91-H ) :   0.9999

-----------------------------------------------------------------------------
         ABSORPTION SPECTRUM VIA TRANSITION ELECTRIC DIPOLE MOMENTS
-----------------------------------------------------------------------------
State   Energy  Wavelength   fosc         T2         TX        TY        TZ
        (cm-1)    (nm)                  (au**2)     (au)      (au)      (au)
-----------------------------------------------------------------------------
   0    8899.4   1123.7   1.520278282  56.23900   6.34127  -3.51635   1.91380
   1   15513.7    644.6   0.616916928  13.09141  -1.13336  -2.39346   2.46541
   2   16065.4    622.5   0.485240510   9.94356   2.18389   1.50989  -1.70130
   3   16747.5    597.1   0.003271039   0.06430   0.10917  -0.16337   0.16029
   4   19043.9    525.1   0.071350669   1.23344  -0.80168   0.28637  -0.71326
   5   22446.5    445.5   0.011591386   0.17001   0.30696   0.27381   0.02847
   6   22624.4    442.0   0.052954590   0.77055   0.26204  -0.74544  -0.38238
   7   23259.8    429.9   0.027383238   0.38757  -0.40688  -0.40686   0.23767
   8   23780.5    420.5   0.007180095   0.09940  -0.26081  -0.09165   0.15158
   9   23922.5    418.0   0.187673036   2.58268  -1.03427  -0.50674   1.12080
  10   24525.4    407.7   0.067330456   0.90380  -0.68036   0.18075   0.63893
  11   25963.1    385.2   0.000609487   0.00773   0.02022   0.06919   0.05032
  12   26427.8    378.4   0.007412998   0.09234   0.29242  -0.07795  -0.02755
  13   26763.7    373.6   0.150129118   1.84669  -0.88940  -0.49923   0.89801
  14   27019.7    370.1   0.118159473   1.43967  -0.46812   0.98589  -0.49854
  15   27081.2    369.3   0.011721286   0.14249   0.09753  -0.34525  -0.11738
  16   27392.8    365.1   0.108017504   1.29817   0.84375   0.22115  -0.73305
  17   27445.3    364.4   0.022992722   0.27580  -0.41721   0.17220   0.26848
  18   28337.7    352.9   0.063986595   0.74336   0.77359  -0.22603  -0.30631
  19   28908.2    345.9   0.053456839   0.60878  -0.22349  -0.57221   0.48104
  20   29093.4    343.7   0.017864233   0.20215  -0.29259  -0.00108   0.34138
  21   30074.0    332.5   0.002397127   0.02624   0.13870   0.05500  -0.06307
  22   30207.8    331.0   0.157599912   1.71756  -1.16283  -0.25592   0.54762
  23   30587.8    326.9   0.118444853   1.27480  -0.70725  -0.03977   0.87922
  24   30705.6    325.7   0.402209085   4.31230  -1.52860   0.16253   1.39616
  25   30781.9    324.9   0.044725963   0.47834   0.60106  -0.33994   0.03882
  26   31217.8    320.3   0.152313697   1.60625  -0.79198  -0.29001   0.94600
  27   31641.4    316.0   0.407074250   4.23539   1.15201   0.61907  -1.58903
  28   32028.8    312.2   0.096972038   0.99674  -0.78570  -0.17479   0.59065
  29   32337.6    309.2   0.043848135   0.44639   0.40499  -0.50019   0.17939
  30   32392.8    308.7   0.165092224   1.67785  -0.69485  -0.27228   1.05872
  31   32514.8    307.6   0.000872318   0.00883  -0.08873   0.00971   0.02941
  32   32735.8    305.5   0.001618753   0.01628  -0.05067   0.11532  -0.02033
  33   33039.1    302.7   0.019922538   0.19851  -0.07274  -0.14280   0.41573
  34   33459.3    298.9   0.037707133   0.37101  -0.45373  -0.04130   0.40426
  35   33548.6    298.1   0.056733101   0.55672  -0.58854   0.43894  -0.13296
  36   34137.0    292.9   0.024025695   0.23170   0.41135  -0.17040  -0.18291
  37   34342.8    291.2   0.017390070   0.16670   0.22316   0.19637  -0.27990
  38   34650.7    288.6   0.066025179   0.62730   0.49077   0.00397  -0.62163
  39   35207.0    284.0   0.027882426   0.26072  -0.41736   0.29253   0.03096
  40   35417.5    282.3   0.264948535   2.46274   0.02131  -0.73527   1.38624
  41   35761.2    279.6   0.111814614   1.02935  -0.80240   0.51651   0.34455
  42   35937.8    278.3   0.243722971   2.23265  -1.27367   0.16295   0.76412
  43   36170.4    276.5   0.010691635   0.09731  -0.27693   0.06182   0.12961
  44   36575.7    273.4   0.001520072   0.01368  -0.09352   0.01975  -0.06742
  45   36982.5    270.4   0.010608616   0.09444   0.28344  -0.06763  -0.09759
  46   37367.0    267.6   0.014054479   0.12382   0.26203   0.06551  -0.22555
  47   37454.3    267.0   0.004673343   0.04108  -0.16238   0.11946   0.02096
  48   37566.1    266.2   0.003382305   0.02964   0.01039  -0.12631   0.11652
  49   37712.8    265.2   0.018813749   0.16423  -0.36795  -0.05282   0.16141
  50   38214.8    261.7   0.004016954   0.03461  -0.16470  -0.06492   0.05713
  51   38257.9    261.4   0.194302624   1.67199   0.47868  -0.84217   0.85651
  52   38505.9    259.7   0.062007000   0.53014  -0.41588  -0.17052   0.57280
  53   38645.2    258.8   0.081452508   0.69388  -0.26844   0.41854  -0.66832
  54   38823.9    257.6   0.031833979   0.26994   0.34312  -0.17350  -0.34944
  55   39213.1    255.0   0.095858587   0.80478  -0.57308   0.43408  -0.53660
  56   39383.3    253.9   0.013101367   0.10952  -0.00826   0.23696   0.23086
  57   39630.2    252.3   0.010869735   0.09030   0.12958   0.06556  -0.26307
  58   39685.2    252.0   0.063130165   0.52370   0.54697   0.13619  -0.45384
  59   39802.3    251.2   0.017065331   0.14115  -0.32494  -0.03016  -0.18616
  60   39864.0    250.9   0.002911667   0.02405   0.12596   0.07091  -0.05615
  61   40088.7    249.4   0.139146852   1.14269   0.98011  -0.42399  -0.04805
  62   40280.8    248.3   0.105563331   0.86276   0.46714   0.30690  -0.74186

FINAL SINGLE POINT ENERGY    -10389.338056098914

DIPOLE MOMENT
-------------
                                X             Y             Z
Electronic contribution:   -101.54698     -62.79196     124.72034
Nuclear contribution   :    100.48565      65.68588    -123.97041
                        -----------------------------------------
Total Dipole Moment    :     -1.06133       2.89392       0.74994
                        -----------------------------------------
Magnitude (a.u.)       :      3.17232
Magnitude (Debye)      :      8.06340

Rotational constants in cm-1:     0.000563     0.000188     0.000143
Rotational constants in MHz :    16.888011     5.633874     4.290350

                             ****ORCA TERMINATED NORMALLY****
TOTAL RUN TIME: 0 days 0 hours 9 minutes 56 seconds 481 msec
