                         Program Version 4.2.0 -  RELEASE  -
|  1> # ORCA input file
|  2> # SCF done       -177.217957355146          0.000619578100
|  3> ! CAM-B3LYP def2-SVP def2/J RIJCOSX Grid4 TightSCF
|  4> %maxcore 5000
|  5> %tddft
|  6>     Mode sTDDFT
|  7>     Ethresh 5.0
|  8>     maxcore 5000
|  9> end
| 10>
| 11> %pal
| 12>   nprocs 6
| 13>   end
| 14> * xyz 0 1
| 15>    C       -2.98515         3.16661         5.38804
| 16>    C       -1.84877         2.40921         5.57382
| 17>    C       -1.27703         2.15658         6.83525
| 18>    N       -0.80065         1.85523         7.83668
| 19>    C       -1.13456         1.72775         4.57387
| 20>    N       -0.49029         1.15224         3.81313
| 21>    C       -3.63451         3.94613         6.43522
| 22>    C       -4.82183         4.50710         5.91198
| 23>    C       -5.66218         5.29336         6.65965
| 24>    C       -5.30956         5.54588         7.99046
| 25>    C       -4.10774         4.99998         8.49547
| 26>    C       -3.26002         4.19954         7.74081
| 27>    S       -3.84595         5.45871        10.15034
| 28>    C       -5.35715         6.32559        10.15683
| 29>    C       -6.01040         6.30032         8.97097
| 30>   Br       -5.92490         7.16454        11.73652
| 31>    C       -4.97331         4.10668         4.49409
| 32>    O       -5.87318         4.44715         3.75914
| 33>    C       -3.80122         3.25043         4.20107
| 34>    C       -3.58797         2.47098         3.08727
| 35>    C       -4.41116         2.26295         1.96306
| 36>    O       -5.48938         3.02827         1.67789
| 37>    C       -6.00044         2.62051         0.52344
| 38>    C       -5.29981         1.57039         0.01182
| 39>    C       -4.26900         1.29851         0.94792
| 40>    N       -3.34823         0.29676         0.77221
| 41>    C       -2.66230        -0.48084         1.65458
| 42>    C       -2.85188        -0.69949         2.98561
| 43>    C       -1.97547        -1.48643         3.79090
| 44>    C       -2.26726        -1.47190         5.11415
| 45>    C       -3.39192        -0.67683         5.44807
| 46>    S       -4.14695        -0.05626         3.99044
| 47>    C       -3.82274        -0.31726         6.70591
| 48>    C       -3.30169        -0.75353         7.94551
| 49>    C       -3.86611        -0.14468         9.02119
| 50>    C       -4.86312         0.81083         8.69972
| 51>    S       -5.07689         0.88653         6.96189
| 52>    C       -5.53197         1.57826         9.62044
| 53>    C       -6.52748         2.53693         9.39863
| 54>    S       -7.30404         2.72812         7.84983
| 55>    C       -8.44626         3.83103         8.52468
| 56>    C       -8.26969         4.05720         9.85073
| 57>    C       -9.12584         4.96918        10.66131
| 58>    C       -7.14070         3.34901        10.37401
| 59>    C       -6.70808         3.51257        11.71632
| 60>    C       -5.43503         3.35774        12.18180
| 61>    C       -5.05679         3.53347        13.53126
| 62>    C       -5.91172         3.45173        14.59489
| 63>    C       -5.49467         3.67770        15.91193
| 64>    C       -6.23590         3.61319        17.06425
| 65>    C       -7.64624         3.47047        17.32445
| 66>    C       -8.70698         3.84000        16.53101
| 67>    C      -10.05556         3.73364        16.93077
| 68>    N      -11.17392         3.66937        17.18485
| 69>    C       -8.64578         4.43779        15.25803
| 70>    N       -8.71535         4.93116        14.22146
| 71>    C       -7.78179         3.00364        18.70660
| 72>    C       -6.51402         3.05910        19.33604
| 73>    C       -5.51137         3.51734        18.35358
| 74>    O       -4.33243         3.72446        18.54313
| 75>    C       -6.31447         2.67832        20.63954
| 76>    C       -7.41860         2.20428        21.35646
| 77>    C       -8.67828         2.14139        20.71756
| 78>    C       -8.88152         2.53762        19.40050
| 79>    S       -9.89999         1.50237        21.77622
| 80>    C       -8.71580         1.33103        23.04475
| 81>    C       -7.47073         1.73234        22.69709
| 82>   Br       -9.23479         0.63264        24.70702
| 83>    H       -6.56463         5.70115         6.23225
| 84>    H       -2.35601         3.80758         8.17596
| 85>    H       -6.95156         6.78760         8.79418
| 86>    H       -2.65156         1.93622         3.03007
| 87>    H       -6.86278         3.14166         0.15616
| 88>    H       -5.49202         1.04275        -0.89975
| 89>    H       -3.23002         0.03423        -0.19788
| 90>    H       -1.84748        -1.02672         1.19640
| 91>    H       -1.13206        -1.99302         3.35898
| 92>    H       -1.68273        -1.96564         5.86823
| 93>    H       -2.52497        -1.49327         8.00673
| 94>    H       -3.59206        -0.33855        10.04288
| 95>    H       -5.27505         1.39079        10.65414
| 96>    H       -9.19885         4.24660         7.88345
| 97>    H       -9.92602         5.37891        10.05062
| 98>    H       -8.53993         5.78951        11.07173
| 99>    H       -9.56574         4.43507        11.50198
|100>    H       -7.45440         3.89630        12.40074
|101>    H       -4.63060         3.18348        11.48028
|102>    H       -4.01001         3.73105        13.72637
|103>    H       -6.93399         3.16163        14.41553
|104>    H       -4.43524         3.85286        16.07253
|105>    H       -5.33597         2.73457        21.09008
|106>    H       -9.86014         2.45833        18.95751
|107>    H       -6.62163         1.69496        23.35491
|108> *
|109>
|110>                          ****END OF INPUT****

CARTESIAN COORDINATES (ANGSTROEM)
---------------------------------
  C     -2.985150    3.166610    5.388040
  C     -1.848770    2.409210    5.573820
  C     -1.277030    2.156580    6.835250
  N     -0.800650    1.855230    7.836680
  C     -1.134560    1.727750    4.573870
  N     -0.490290    1.152240    3.813130
  C     -3.634510    3.946130    6.435220
  C     -4.821830    4.507100    5.911980
  C     -5.662180    5.293360    6.659650
  C     -5.309560    5.545880    7.990460
  C     -4.107740    4.999980    8.495470
  C     -3.260020    4.199540    7.740810
  S     -3.845950    5.458710   10.150340
  C     -5.357150    6.325590   10.156830
  C     -6.010400    6.300320    8.970970
  Br    -5.924900    7.164540   11.736520
  C     -4.973310    4.106680    4.494090
  O     -5.873180    4.447150    3.759140
  C     -3.801220    3.250430    4.201070
  C     -3.587970    2.470980    3.087270
  C     -4.411160    2.262950    1.963060
  O     -5.489380    3.028270    1.677890
  C     -6.000440    2.620510    0.523440
  C     -5.299810    1.570390    0.011820
  C     -4.269000    1.298510    0.947920
  N     -3.348230    0.296760    0.772210
  C     -2.662300   -0.480840    1.654580
  C     -2.851880   -0.699490    2.985610
  C     -1.975470   -1.486430    3.790900
  C     -2.267260   -1.471900    5.114150
  C     -3.391920   -0.676830    5.448070
  S     -4.146950   -0.056260    3.990440
  C     -3.822740   -0.317260    6.705910
  C     -3.301690   -0.753530    7.945510
  C     -3.866110   -0.144680    9.021190
  C     -4.863120    0.810830    8.699720
  S     -5.076890    0.886530    6.961890
  C     -5.531970    1.578260    9.620440
  C     -6.527480    2.536930    9.398630
  S     -7.304040    2.728120    7.849830
  C     -8.446260    3.831030    8.524680
  C     -8.269690    4.057200    9.850730
  C     -9.125840    4.969180   10.661310
  C     -7.140700    3.349010   10.374010
  C     -6.708080    3.512570   11.716320
  C     -5.435030    3.357740   12.181800
  C     -5.056790    3.533470   13.531260
  C     -5.911720    3.451730   14.594890
  C     -5.494670    3.677700   15.911930
  C     -6.235900    3.613190   17.064250
  C     -7.646240    3.470470   17.324450
  C     -8.706980    3.840000   16.531010
  C    -10.055560    3.733640   16.930770
  N    -11.173920    3.669370   17.184850
  C     -8.645780    4.437790   15.258030
  N     -8.715350    4.931160   14.221460
  C     -7.781790    3.003640   18.706600
  C     -6.514020    3.059100   19.336040
  C     -5.511370    3.517340   18.353580
  O     -4.332430    3.724460   18.543130
  C     -6.314470    2.678320   20.639540
  C     -7.418600    2.204280   21.356460
  C     -8.678280    2.141390   20.717560
  C     -8.881520    2.537620   19.400500
  S     -9.899990    1.502370   21.776220
  C     -8.715800    1.331030   23.044750
  C     -7.470730    1.732340   22.697090
  Br    -9.234790    0.632640   24.707020
  H     -6.564630    5.701150    6.232250
  H     -2.356010    3.807580    8.175960
  H     -6.951560    6.787600    8.794180
  H     -2.651560    1.936220    3.030070
  H     -6.862780    3.141660    0.156160
  H     -5.492020    1.042750   -0.899750
  H     -3.230020    0.034230   -0.197880
  H     -1.847480   -1.026720    1.196400
  H     -1.132060   -1.993020    3.358980
  H     -1.682730   -1.965640    5.868230
  H     -2.524970   -1.493270    8.006730
  H     -3.592060   -0.338550   10.042880
  H     -5.275050    1.390790   10.654140
  H     -9.198850    4.246600    7.883450
  H     -9.926020    5.378910   10.050620
  H     -8.539930    5.789510   11.071730
  H     -9.565740    4.435070   11.501980
  H     -7.454400    3.896300   12.400740
  H     -4.630600    3.183480   11.480280
  H     -4.010010    3.731050   13.726370
  H     -6.933990    3.161630   14.415530
  H     -4.435240    3.852860   16.072530
  H     -5.335970    2.734570   21.090080
  H     -9.860140    2.458330   18.957510
  H     -6.621630    1.694960   23.354910

 Total Charge           Charge          ....    0
 Multiplicity           Mult            ....    1
 Number of Electrons    NEL             ....  552
 Basis Dimension        Dim             .... 1133

ORBITAL ENERGIES
----------------

  NO   OCC          E(Eh)            E(eV)
   0   2.0000    -482.879198    -13139.8110
   1   2.0000    -482.876423    -13139.7355
   2   2.0000     -88.967597     -2420.9314
   3   2.0000     -88.964601     -2420.8499
   4   2.0000     -88.958465     -2420.6829
   5   2.0000     -88.950767     -2420.4734
   6   2.0000     -88.949336     -2420.4345
   7   2.0000     -62.556902     -1702.2598
   8   2.0000     -62.553601     -1702.1700
   9   2.0000     -56.390843     -1534.4728
  10   2.0000     -56.388145     -1534.3994
  11   2.0000     -56.388107     -1534.3984
  12   2.0000     -56.387611     -1534.3849
  13   2.0000     -56.384855     -1534.3099
  14   2.0000     -56.384782     -1534.3079
  15   2.0000     -19.299429      -525.1642
  16   2.0000     -19.200834      -522.4813
  17   2.0000     -19.194217      -522.3012
  18   2.0000     -14.486839      -394.2069
  19   2.0000     -14.410327      -392.1249
  20   2.0000     -14.407276      -392.0419
  21   2.0000     -14.405050      -391.9813
  22   2.0000     -14.402855      -391.9216
  23   2.0000     -10.351279      -281.6726
  24   2.0000     -10.351094      -281.6676
  25   2.0000     -10.350744      -281.6581
  26   2.0000     -10.348379      -281.5937
  27   2.0000     -10.347267      -281.5635
  28   2.0000     -10.346292      -281.5369
  29   2.0000     -10.345181      -281.5067
  30   2.0000     -10.340126      -281.3691
  31   2.0000     -10.332605      -281.1645
  32   2.0000     -10.331217      -281.1267
  33   2.0000     -10.326499      -280.9983
  34   2.0000     -10.323892      -280.9274
  35   2.0000     -10.316499      -280.7262
  36   2.0000     -10.316417      -280.7240
  37   2.0000     -10.315921      -280.7105
  38   2.0000     -10.315451      -280.6977
  39   2.0000     -10.311962      -280.6028
  40   2.0000     -10.311610      -280.5932
  41   2.0000     -10.311280      -280.5842
  42   2.0000     -10.309095      -280.5247
  43   2.0000     -10.308896      -280.5193
  44   2.0000     -10.308291      -280.5028
  45   2.0000     -10.307512      -280.4816
  46   2.0000     -10.305115      -280.4164
  47   2.0000     -10.300485      -280.2904
  48   2.0000     -10.298578      -280.2386
  49   2.0000     -10.298302      -280.2310
  50   2.0000     -10.295963      -280.1674
  51   2.0000     -10.293921      -280.1118
  52   2.0000     -10.292998      -280.0867
  53   2.0000     -10.292001      -280.0596
  54   2.0000     -10.291381      -280.0427
  55   2.0000     -10.291355      -280.0420
  56   2.0000     -10.290761      -280.0258
  57   2.0000     -10.290016      -280.0056
  58   2.0000     -10.289152      -279.9821
  59   2.0000     -10.285786      -279.8905
  60   2.0000     -10.285126      -279.8725
  61   2.0000     -10.284539      -279.8565
  62   2.0000     -10.283707      -279.8339
  63   2.0000     -10.282209      -279.7931
  64   2.0000     -10.281580      -279.7760
  65   2.0000     -10.281461      -279.7728
  66   2.0000     -10.280728      -279.7528
  67   2.0000     -10.280181      -279.7379
  68   2.0000     -10.279273      -279.7132
  69   2.0000     -10.278827      -279.7011
  70   2.0000     -10.273918      -279.5675
  71   2.0000     -10.273631      -279.5597
  72   2.0000     -10.272799      -279.5371
  73   2.0000     -10.272406      -279.5264
  74   2.0000     -10.269625      -279.4507
  75   2.0000     -10.253906      -279.0230
  76   2.0000      -8.786328      -239.0881
  77   2.0000      -8.782835      -238.9931
  78   2.0000      -8.063583      -219.4212
  79   2.0000      -8.059965      -219.3228
  80   2.0000      -8.053353      -219.1429
  81   2.0000      -8.045591      -218.9317
  82   2.0000      -8.044449      -218.9006
  83   2.0000      -6.622568      -180.2092
  84   2.0000      -6.619045      -180.1134
  85   2.0000      -6.608079      -179.8150
  86   2.0000      -6.607911      -179.8104
  87   2.0000      -6.604589      -179.7200
  88   2.0000      -6.604431      -179.7157
  89   2.0000      -6.033272      -164.1737
  90   2.0000      -6.029705      -164.0766
  91   2.0000      -6.029017      -164.0579
  92   2.0000      -6.025501      -163.9622
  93   2.0000      -6.024803      -163.9432
  94   2.0000      -6.023074      -163.8962
  95   2.0000      -6.021150      -163.8438
  96   2.0000      -6.018883      -163.7821
  97   2.0000      -6.014934      -163.6747
  98   2.0000      -6.014578      -163.6650
  99   2.0000      -6.014221      -163.6553
 100   2.0000      -6.010624      -163.5574
 101   2.0000      -6.010181      -163.5453
 102   2.0000      -6.007864      -163.4823
 103   2.0000      -6.005471      -163.4172
 104   2.0000      -2.738477       -74.5177
 105   2.0000      -2.734944       -74.4216
 106   2.0000      -2.734362       -74.4058
 107   2.0000      -2.734242       -74.4025
 108   2.0000      -2.730873       -74.3108
 109   2.0000      -2.730754       -74.3076
 110   2.0000      -2.722718       -74.0889
 111   2.0000      -2.722708       -74.0887
 112   2.0000      -2.719272       -73.9952
 113   2.0000      -2.719235       -73.9941
 114   2.0000      -1.228006       -33.4157
 115   2.0000      -1.115481       -30.3538
 116   2.0000      -1.110786       -30.2260
 117   2.0000      -1.080136       -29.3920
 118   2.0000      -1.013784       -27.5865
 119   2.0000      -1.010776       -27.5046
 120   2.0000      -1.005749       -27.3678
 121   2.0000      -1.003308       -27.3014
 122   2.0000      -0.996093       -27.1051
 123   2.0000      -0.986615       -26.8472
 124   2.0000      -0.985014       -26.8036
 125   2.0000      -0.981906       -26.7190
 126   2.0000      -0.979209       -26.6456
 127   2.0000      -0.975973       -26.5576
 128   2.0000      -0.969748       -26.3882
 129   2.0000      -0.934957       -25.4415
 130   2.0000      -0.932618       -25.3778
 131   2.0000      -0.920181       -25.0394
 132   2.0000      -0.918618       -24.9969
 133   2.0000      -0.905796       -24.6480
 134   2.0000      -0.899583       -24.4789
 135   2.0000      -0.895372       -24.3643
 136   2.0000      -0.892363       -24.2824
 137   2.0000      -0.889036       -24.1919
 138   2.0000      -0.876906       -23.8618
 139   2.0000      -0.872247       -23.7350
 140   2.0000      -0.868209       -23.6252
 141   2.0000      -0.866063       -23.5668
 142   2.0000      -0.864204       -23.5162
 143   2.0000      -0.847698       -23.0670
 144   2.0000      -0.841837       -22.9075
 145   2.0000      -0.830323       -22.5942
 146   2.0000      -0.824490       -22.4355
 147   2.0000      -0.821132       -22.3441
 148   2.0000      -0.820162       -22.3177
 149   2.0000      -0.814913       -22.1749
 150   2.0000      -0.800680       -21.7876
 151   2.0000      -0.785002       -21.3610
 152   2.0000      -0.765786       -20.8381
 153   2.0000      -0.758833       -20.6489
 154   2.0000      -0.754520       -20.5315
 155   2.0000      -0.745527       -20.2868
 156   2.0000      -0.744631       -20.2624
 157   2.0000      -0.736705       -20.0468
 158   2.0000      -0.726390       -19.7661
 159   2.0000      -0.715421       -19.4676
 160   2.0000      -0.702939       -19.1280
 161   2.0000      -0.694226       -18.8909
 162   2.0000      -0.691389       -18.8137
 163   2.0000      -0.678710       -18.4686
 164   2.0000      -0.677450       -18.4344
 165   2.0000      -0.677182       -18.4271
 166   2.0000      -0.666004       -18.1229
 167   2.0000      -0.661558       -18.0019
 168   2.0000      -0.656184       -17.8557
 169   2.0000      -0.647527       -17.6201
 170   2.0000      -0.645911       -17.5761
 171   2.0000      -0.641560       -17.4577
 172   2.0000      -0.635390       -17.2898
 173   2.0000      -0.631330       -17.1794
 174   2.0000      -0.626914       -17.0592
 175   2.0000      -0.614250       -16.7146
 176   2.0000      -0.613209       -16.6863
 177   2.0000      -0.608152       -16.5487
 178   2.0000      -0.604789       -16.4572
 179   2.0000      -0.601866       -16.3776
 180   2.0000      -0.595067       -16.1926
 181   2.0000      -0.591711       -16.1013
 182   2.0000      -0.587082       -15.9753
 183   2.0000      -0.585422       -15.9301
 184   2.0000      -0.580792       -15.8042
 185   2.0000      -0.575204       -15.6521
 186   2.0000      -0.573169       -15.5967
 187   2.0000      -0.564459       -15.3597
 188   2.0000      -0.556868       -15.1532
 189   2.0000      -0.552575       -15.0363
 190   2.0000      -0.547532       -14.8991
 191   2.0000      -0.538853       -14.6629
 192   2.0000      -0.536799       -14.6070
 193   2.0000      -0.533134       -14.5073
 194   2.0000      -0.530603       -14.4384
 195   2.0000      -0.530190       -14.4272
 196   2.0000      -0.527291       -14.3483
 197   2.0000      -0.524561       -14.2740
 198   2.0000      -0.522802       -14.2262
 199   2.0000      -0.519673       -14.1410
 200   2.0000      -0.517888       -14.0924
 201   2.0000      -0.516191       -14.0463
 202   2.0000      -0.511326       -13.9139
 203   2.0000      -0.508872       -13.8471
 204   2.0000      -0.504403       -13.7255
 205   2.0000      -0.502063       -13.6618
 206   2.0000      -0.501041       -13.6340
 207   2.0000      -0.498146       -13.5552
 208   2.0000      -0.496278       -13.5044
 209   2.0000      -0.493116       -13.4184
 210   2.0000      -0.490363       -13.3435
 211   2.0000      -0.488700       -13.2982
 212   2.0000      -0.486048       -13.2260
 213   2.0000      -0.485028       -13.1983
 214   2.0000      -0.484210       -13.1760
 215   2.0000      -0.483806       -13.1650
 216   2.0000      -0.480005       -13.0616
 217   2.0000      -0.478489       -13.0204
 218   2.0000      -0.476157       -12.9569
 219   2.0000      -0.469675       -12.7805
 220   2.0000      -0.466107       -12.6834
 221   2.0000      -0.464975       -12.6526
 222   2.0000      -0.462837       -12.5944
 223   2.0000      -0.461759       -12.5651
 224   2.0000      -0.455280       -12.3888
 225   2.0000      -0.450442       -12.2572
 226   2.0000      -0.449889       -12.2421
 227   2.0000      -0.448263       -12.1979
 228   2.0000      -0.445909       -12.1338
 229   2.0000      -0.444471       -12.0947
 230   2.0000      -0.442848       -12.0505
 231   2.0000      -0.442144       -12.0313
 232   2.0000      -0.439720       -11.9654
 233   2.0000      -0.437214       -11.8972
 234   2.0000      -0.436537       -11.8788
 235   2.0000      -0.434343       -11.8191
 236   2.0000      -0.434083       -11.8120
 237   2.0000      -0.432039       -11.7564
 238   2.0000      -0.431159       -11.7324
 239   2.0000      -0.429369       -11.6837
 240   2.0000      -0.427613       -11.6359
 241   2.0000      -0.423524       -11.5247
 242   2.0000      -0.418310       -11.3828
 243   2.0000      -0.416282       -11.3276
 244   2.0000      -0.414235       -11.2719
 245   2.0000      -0.412856       -11.2344
 246   2.0000      -0.409977       -11.1561
 247   2.0000      -0.406276       -11.0553
 248   2.0000      -0.399917       -10.8823
 249   2.0000      -0.398965       -10.8564
 250   2.0000      -0.397242       -10.8095
 251   2.0000      -0.393476       -10.7070
 252   2.0000      -0.390295       -10.6205
 253   2.0000      -0.380521       -10.3545
 254   2.0000      -0.379144       -10.3170
 255   2.0000      -0.374715       -10.1965
 256   2.0000      -0.368665       -10.0319
 257   2.0000      -0.366252        -9.9662
 258   2.0000      -0.363230        -9.8840
 259   2.0000      -0.361439        -9.8353
 260   2.0000      -0.347378        -9.4526
 261   2.0000      -0.341436        -9.2909
 262   2.0000      -0.335381        -9.1262
 263   2.0000      -0.328063        -8.9270
 264   2.0000      -0.324691        -8.8353
 265   2.0000      -0.319319        -8.6891
 266   2.0000      -0.315481        -8.5847
 267   2.0000      -0.312818        -8.5122
 268   2.0000      -0.306481        -8.3398
 269   2.0000      -0.299720        -8.1558
 270   2.0000      -0.290642        -7.9088
 271   2.0000      -0.286369        -7.7925
 272   2.0000      -0.279291        -7.5999
 273   2.0000      -0.270750        -7.3675
 274   2.0000      -0.256950        -6.9920
 275   2.0000      -0.208266        -5.6672
 276   0.0000      -0.093180        -2.5356
 277   0.0000      -0.079845        -2.1727
 278   0.0000      -0.063070        -1.7162
 279   0.0000      -0.047440        -1.2909
 280   0.0000      -0.037802        -1.0286

MULLIKEN ATOMIC CHARGES
-----------------------
   0 C :    0.321255
   1 C :   -0.386446
   2 C :   -0.182414
   3 N :    0.133566
   4 C :   -0.171483
   5 N :    0.120147
   6 C :    0.033400
   7 C :   -0.016749
   8 C :   -0.074829
   9 C :    0.108457
  10 C :   -0.077069
  11 C :   -0.033773
  12 S :    0.154727
  13 C :   -0.135168
  14 C :    0.077943
  15 Br:    0.031411
  16 C :    0.122684
  17 O :   -0.139049
  18 C :   -0.083444
  19 C :   -0.079793
  20 C :    0.095136
  21 O :   -0.137009
  22 C :    0.183417
  23 C :   -0.062955
  24 C :    0.067093
  25 N :   -0.001321
  26 C :    0.030992
  27 C :   -0.089168
  28 C :    0.086141
  29 C :    0.017552
  30 C :   -0.067045
  31 S :    0.087100
  32 C :   -0.038519
  33 C :    0.050715
  34 C :    0.032652
  35 C :   -0.030823
  36 S :    0.065301
  37 C :   -0.031107
  38 C :   -0.117043
  39 S :    0.106748
  40 C :   -0.143384
  41 C :   -0.054580
  42 C :    0.139004
  43 C :    0.103480
  44 C :   -0.016156
  45 C :   -0.022643
  46 C :    0.036791
  47 C :    0.002574
  48 C :    0.025507
  49 C :   -0.127349
  50 C :    0.313881
  51 C :   -0.354206
  52 C :   -0.193703
  53 N :    0.141045
  54 C :   -0.182170
  55 N :    0.148928
  56 C :    0.002535
  57 C :    0.001414
  58 C :    0.133192
  59 O :   -0.153800
  60 C :   -0.079015
  61 C :    0.117497
  62 C :   -0.088765
  63 C :   -0.026883
  64 S :    0.180423
  65 C :   -0.124540
  66 C :    0.038194
  67 Br:    0.017612
  68 H :   -0.022697
  69 H :   -0.015186
  70 H :   -0.011482
  71 H :    0.021253
  72 H :    0.027678
  73 H :   -0.018730
  74 H :    0.144464
  75 H :    0.016765
  76 H :   -0.008356
  77 H :   -0.010874
  78 H :   -0.009502
  79 H :   -0.011176
  80 H :   -0.004299
  81 H :    0.013748
  82 H :    0.000118
  83 H :    0.024852
  84 H :    0.040094
  85 H :    0.005730
  86 H :    0.008776
  87 H :    0.002395
  88 H :    0.011904
  89 H :    0.011663
  90 H :   -0.012918
  91 H :   -0.005523
  92 H :   -0.004807
Sum of atomic charges:   -0.0000000

LOEWDIN ATOMIC CHARGES
----------------------
   0 C :    0.077239
   1 C :   -0.163738
   2 C :   -0.016450
   3 N :   -0.074286
   4 C :   -0.018147
   5 N :   -0.076750
   6 C :   -0.023574
   7 C :   -0.052547
   8 C :    0.015013
   9 C :   -0.036165
  10 C :   -0.144452
  11 C :   -0.015142
  12 S :    0.437722
  13 C :   -0.273344
  14 C :   -0.062380
  15 Br:    0.148822
  16 C :    0.071389
  17 O :   -0.146244
  18 C :   -0.114579
  19 C :    0.028885
  20 C :   -0.023898
  21 O :    0.056040
  22 C :    0.083302
  23 C :   -0.097697
  24 C :    0.001165
  25 N :    0.050929
  26 C :    0.001714
  27 C :   -0.198388
  28 C :   -0.004274
  29 C :   -0.049127
  30 C :   -0.170250
  31 S :    0.435041
  32 C :   -0.185938
  33 C :   -0.022584
  34 C :   -0.030811
  35 C :   -0.142966
  36 S :    0.376887
  37 C :   -0.083986
  38 C :   -0.147251
  39 S :    0.443993
  40 C :   -0.203083
  41 C :   -0.042016
  42 C :   -0.045274
  43 C :   -0.076730
  44 C :    0.033741
  45 C :   -0.068361
  46 C :    0.039896
  47 C :   -0.047339
  48 C :    0.069276
  49 C :   -0.113220
  50 C :    0.075734
  51 C :   -0.154591
  52 C :   -0.019590
  53 N :   -0.062930
  54 C :   -0.008486
  55 N :   -0.067363
  56 C :   -0.017474
  57 C :   -0.050385
  58 C :    0.080328
  59 O :   -0.153578
  60 C :    0.019448
  61 C :   -0.035165
  62 C :   -0.144915
  63 C :   -0.014153
  64 S :    0.428039
  65 C :   -0.273841
  66 C :   -0.070556
  67 Br:    0.131789
  68 H :    0.035178
  69 H :    0.037819
  70 H :    0.036367
  71 H :    0.044211
  72 H :    0.033195
  73 H :    0.031763
  74 H :    0.100928
  75 H :    0.039333
  76 H :    0.035557
  77 H :    0.034081
  78 H :    0.034540
  79 H :    0.034836
  80 H :    0.040666
  81 H :    0.020058
  82 H :    0.030335
  83 H :    0.030170
  84 H :    0.040595
  85 H :    0.034804
  86 H :    0.017415
  87 H :    0.034425
  88 H :    0.030236
  89 H :    0.042836
  90 H :    0.040088
  91 H :    0.040076
  92 H :    0.038116

  Mayer bond orders larger than 0.100000
B(  0-C ,  1-C ) :   1.5670 B(  0-C ,  6-C ) :   0.9922 B(  0-C , 18-C ) :   1.1344
B(  1-C ,  2-C ) :   1.1551 B(  1-C ,  4-C ) :   1.1626 B(  2-C ,  3-N ) :   2.9480
B(  4-C ,  5-N ) :   2.9051 B(  6-C ,  7-C ) :   1.2807 B(  6-C , 11-C ) :   1.4062
B(  7-C ,  8-C ) :   1.4185 B(  7-C , 16-C ) :   0.9329 B(  8-C ,  9-C ) :   1.2280
B(  8-C , 68-H ) :   1.0241 B(  9-C , 10-C ) :   1.3185 B(  9-C , 14-C ) :   1.1682
B( 10-C , 11-C ) :   1.3226 B( 10-C , 12-S ) :   1.0793 B( 11-C , 69-H ) :   0.9809
B( 12-S , 13-C ) :   1.0831 B( 13-C , 14-C ) :   1.6190 B( 13-C , 15-Br) :   1.0222
B( 14-C , 70-H ) :   0.9952 B( 16-C , 17-O ) :   2.2732 B( 16-C , 18-C ) :   0.9287
B( 18-C , 19-C ) :   1.4927 B( 19-C , 20-C ) :   1.2427 B( 19-C , 31-S ) :   0.1028
B( 19-C , 71-H ) :   0.9116 B( 20-C , 21-O ) :   1.1497 B( 20-C , 24-C ) :   1.3351
B( 21-O , 22-C ) :   1.1998 B( 22-C , 23-C ) :   1.4909 B( 22-C , 72-H ) :   1.0064
B( 23-C , 24-C ) :   1.2436 B( 23-C , 73-H ) :   1.0126 B( 24-C , 25-N ) :   1.1450
B( 25-N , 26-C ) :   1.1722 B( 25-N , 74-H ) :   0.9155 B( 26-C , 27-C ) :   1.6350
B( 26-C , 75-H ) :   0.9485 B( 27-C , 28-C ) :   1.1181 B( 27-C , 31-S ) :   1.0243
B( 28-C , 29-C ) :   1.6260 B( 28-C , 76-H ) :   0.9959 B( 29-C , 30-C ) :   1.1696
B( 29-C , 77-H ) :   0.9943 B( 30-C , 31-S ) :   1.0357 B( 30-C , 32-C ) :   1.5220
B( 32-C , 33-C ) :   1.1860 B( 32-C , 36-S ) :   1.0334 B( 33-C , 34-C ) :   1.5810
B( 33-C , 78-H ) :   0.9937 B( 34-C , 35-C ) :   1.1492 B( 34-C , 79-H ) :   1.0004
B( 35-C , 36-S ) :   1.0427 B( 35-C , 37-C ) :   1.5468 B( 37-C , 38-C ) :   1.2164
B( 37-C , 80-H ) :   0.9559 B( 38-C , 39-S ) :   1.1404 B( 38-C , 43-C ) :   1.3516
B( 39-S , 40-C ) :   1.1113 B( 40-C , 41-C ) :   1.5912 B( 40-C , 81-H ) :   0.9666
B( 41-C , 42-C ) :   1.1054 B( 41-C , 43-C ) :   1.2142 B( 42-C , 82-H ) :   0.9453
B( 42-C , 83-H ) :   0.9347 B( 42-C , 84-H ) :   0.9315 B( 43-C , 44-C ) :   1.1823
B( 44-C , 45-C ) :   1.5997 B( 44-C , 85-H ) :   0.9383 B( 45-C , 46-C ) :   1.1777
B( 45-C , 86-H ) :   0.9521 B( 46-C , 47-C ) :   1.5819 B( 46-C , 87-H ) :   0.9756
B( 47-C , 48-C ) :   1.2045 B( 47-C , 88-H ) :   0.9554 B( 48-C , 49-C ) :   1.5277
B( 48-C , 89-H ) :   0.9535 B( 49-C , 50-C ) :   1.0715 B( 49-C , 58-C ) :   0.9591
B( 50-C , 51-C ) :   1.5988 B( 50-C , 56-C ) :   1.0014 B( 51-C , 52-C ) :   1.1337
B( 51-C , 54-C ) :   1.1714 B( 52-C , 53-N ) :   2.9801 B( 54-C , 55-N ) :   2.9437
B( 56-C , 57-C ) :   1.2782 B( 56-C , 63-C ) :   1.4170 B( 57-C , 58-C ) :   0.9212
B( 57-C , 60-C ) :   1.4301 B( 58-C , 59-O ) :   2.2479 B( 60-C , 61-C ) :   1.2433
B( 60-C , 90-H ) :   1.0173 B( 61-C , 62-C ) :   1.3161 B( 61-C , 66-C ) :   1.1600
B( 62-C , 63-C ) :   1.3233 B( 62-C , 64-S ) :   1.0824 B( 63-C , 91-H ) :   0.9807
B( 64-S , 65-C ) :   1.0864 B( 65-C , 66-C ) :   1.6199 B( 65-C , 67-Br) :   1.0160
B( 66-C , 92-H ) :   1.0010

-----------------------------------------------------------------------------
         ABSORPTION SPECTRUM VIA TRANSITION ELECTRIC DIPOLE MOMENTS
-----------------------------------------------------------------------------
State   Energy  Wavelength   fosc         T2         TX        TY        TZ
        (cm-1)    (nm)                  (au**2)     (au)      (au)      (au)
-----------------------------------------------------------------------------
   0    9927.5   1007.3   0.313770630  10.40512   1.34709   0.09370  -2.92945
   1   11850.9    843.8   0.775870242  21.55321  -1.15228   1.30953   4.30239
   2   17489.0    571.8   0.022488660   0.42332  -0.00158  -0.53980  -0.36323
   3   20152.5    496.2   0.079015218   1.29080  -0.04157   0.07518  -1.13288
   4   21105.2    473.8   0.522168622   8.14510  -0.75724   1.00969   2.55973
   5   22674.2    441.0   0.211573434   3.07188  -0.58754  -1.29457  -1.02506
   6   23569.3    424.3   0.035995464   0.50278   0.30222  -0.57383  -0.28663
   7   23770.6    420.7   0.049761595   0.68917  -0.61824   0.40064   0.38268
   8   25522.1    391.8   0.028619385   0.36916  -0.43119  -0.22500   0.36416
   9   25793.4    387.7   0.078459545   1.00141  -0.31635   0.74327  -0.59067
  10   26965.0    370.9   0.281005571   3.43075  -0.74264   0.55200   1.60453
  11   27304.3    366.2   0.078615645   0.94788   0.47289  -0.34191   0.77933
  12   27618.4    362.1   0.173851879   2.07232   0.11343   0.83323   1.16841
  13   27773.8    360.1   0.004996637   0.05923   0.09995  -0.21776  -0.04264
  14   27957.7    357.7   0.072729033   0.85641  -0.12807   0.32276  -0.85781
  15   28612.2    349.5   0.107006981   1.23122   0.01681   0.37223   1.04517
  16   29230.9    342.1   0.100528256   1.13220   0.45317  -0.06313   0.96065
  17   29455.0    339.5   0.314730054   3.51767   0.21156   0.10587  -1.86057
  18   29738.0    336.3   0.069251756   0.76665  -0.04202   0.43833  -0.75680
  19   29981.5    333.5   0.157705565   1.73169  -0.28325   0.05011  -1.28411
  20   30401.5    328.9   0.387497043   4.19613  -1.31012   1.36782   0.78025
  21   30466.3    328.2   0.009175816   0.09915   0.06002  -0.04352   0.30603
  22   30590.3    326.9   0.028015331   0.30150  -0.32355   0.30206   0.32492
  23   30836.3    324.3   0.070598113   0.75371  -0.31798   0.04269  -0.80671
  24   31377.2    318.7   0.060492440   0.63469  -0.15158   0.53907   0.56667
  25   31712.7    315.3   0.011820181   0.12271   0.06123   0.29637  -0.17641
  26   31863.8    313.8   0.116670204   1.20542  -0.54992   0.63549  -0.70651
  27   32322.3    309.4   0.026822674   0.27320  -0.23808  -0.26396  -0.38320
  28   32441.1    308.3   0.093998839   0.95390   0.74230  -0.41118  -0.48356
  29   32549.5    307.2   0.083890608   0.84849  -0.12168   0.24850  -0.87859
  30   33083.8    302.3   0.066508186   0.66181  -0.17778   0.00537   0.79384
  31   33169.5    301.5   0.240018568   2.38222   0.89555  -0.63512  -1.08482
  32   33689.5    296.8   0.873730415   8.53804   0.72681  -0.88918   2.68685
  33   34077.7    293.4   0.128843472   1.24471   0.09426  -0.82839   0.74134
  34   34385.1    290.8   0.028691454   0.27470  -0.17018  -0.49340  -0.04792
  35   34866.7    286.8   0.027925978   0.26368   0.15325   0.18547   0.45364
  36   35328.0    283.1   0.018132568   0.16897   0.30869   0.03651  -0.26897
  37   35496.2    281.7   0.035578919   0.32998   0.42248  -0.22415   0.31819
  38   35709.9    280.0   0.128427532   1.18398  -0.48674   0.40599  -0.88445
  39   35847.9    279.0   0.011835505   0.10869  -0.29781   0.07299   0.12114
  40   36263.9    275.8   0.017822646   0.16180   0.08754   0.20297   0.33606
  41   36453.0    274.3   0.057192448   0.51651  -0.41355   0.07161  -0.58340
  42   36948.6    270.6   0.081203787   0.72353  -0.65620   0.40711   0.35664
  43   37084.7    269.7   0.002098854   0.01863   0.02960   0.13167  -0.02047
  44   37215.6    268.7   0.016399117   0.14507  -0.12707  -0.28955  -0.21232
  45   37335.5    267.8   0.033412781   0.29462  -0.42574   0.20353   0.26823
  46   37709.1    265.2   0.034100578   0.29771   0.13036   0.33055  -0.41407
  47   37916.9    263.7   0.129994612   1.12867  -0.90025   0.53642  -0.17458
  48   38224.5    261.6   0.013216973   0.11383  -0.12736  -0.29496   0.10300
  49   38444.0    260.1   0.104191095   0.89223  -0.75694   0.54923  -0.13276
  50   38624.6    258.9   0.025950564   0.22119   0.44229  -0.15989   0.00094
  51   38784.3    257.8   0.064529992   0.54775  -0.66685  -0.13269  -0.29232
  52   39099.4    255.8   0.023179349   0.19517  -0.44038   0.03043   0.01741
  53   39358.4    254.1   0.095031868   0.79489  -0.41389   0.07594  -0.78602
  54   39705.6    251.9   0.051097671   0.42367  -0.50009  -0.41660  -0.00456
  55   40012.2    249.9   0.010938009   0.09000   0.27302  -0.08151  -0.09387
  56   40283.5    248.2   0.039141656   0.31988  -0.03724   0.40646  -0.39152

FINAL SINGLE POINT ENERGY     -9669.012626569440

DIPOLE MOMENT
-------------
                                X             Y             Z
Electronic contribution:    -40.48493      26.27684     167.58467
Nuclear contribution   :     40.97332     -28.14104    -171.34022
                        -----------------------------------------
Total Dipole Moment    :      0.48839      -1.86420      -3.75555
                        -----------------------------------------
Magnitude (a.u.)       :      4.22112
Magnitude (Debye)      :     10.72925

Rotational constants in cm-1:     0.002074     0.000279     0.000267
Rotational constants in MHz :    62.185661     8.375525     8.012366

                             ****ORCA TERMINATED NORMALLY****
TOTAL RUN TIME: 0 days 0 hours 12 minutes 25 seconds 234 msec
