                         Program Version 4.2.0 -  RELEASE  -
|  1> # ORCA input file
|  2> # SCF done       -200.270920562689          0.000428761505
|  3> ! CAM-B3LYP def2-SVP def2/J RIJCOSX Grid4 TightSCF
|  4> %maxcore 5000
|  5> %tddft
|  6>     Mode sTDDFT
|  7>     Ethresh 5.0
|  8>     maxcore 5000
|  9> end
| 10>
| 11> %pal
| 12>   nprocs 6
| 13>   end
| 14> * xyz 0 1
| 15>    C       -7.42590         3.45409         5.49487
| 16>    C       -7.76596         3.37857         6.82638
| 17>    C       -7.38720         2.32342         7.67928
| 18>    N       -7.11301         1.49524         8.42679
| 19>    C       -8.53160         4.32488         7.53466
| 20>    N       -9.14722         5.04987         8.18104
| 21>    C       -6.62970         2.45744         4.77926
| 22>    C       -6.48967         2.87528         3.43374
| 23>    C       -5.79024         2.15415         2.49895
| 24>    C       -5.19548         0.95660         2.91264
| 25>    C       -5.33969         0.54592         4.25736
| 26>    C       -6.04987         1.27785         5.20306
| 27>    S       -4.52534        -0.96032         4.55626
| 28>    C       -4.00956        -1.01522         2.89179
| 29>    C       -4.42425         0.03776         2.14894
| 30>   Br       -2.97058        -2.45748         2.29083
| 31>    C       -7.19600         4.15811         3.25621
| 32>    O       -7.27495         4.79280         2.21478
| 33>    C       -7.76499         4.49543         4.55602
| 34>    C       -8.50350         5.62944         4.85049
| 35>    C       -8.86791         6.70358         4.05422
| 36>    S       -8.46767         6.92226         2.37167
| 37>    C       -9.26107         8.45936         2.29340
| 38>    C       -9.83641         8.81178         3.54127
| 39>    C       -9.62131         7.81882         4.53310
| 40>    C      -10.13323         8.00524         5.82093
| 41>    C      -10.84245         9.15993         6.10110
| 42>    C      -11.37307         9.37030         7.39548
| 43>    N      -11.81398         9.56431         8.43528
| 44>    C      -11.05533        10.14619         5.11560
| 45>    C      -10.55859         9.97393         3.85186
| 46>    C       -9.27201         9.23071         1.12398
| 47>    C       -8.77906         8.77332        -0.07174
| 48>    C       -8.64546         9.45591        -1.28578
| 49>    S       -8.28957         8.49819        -2.69799
| 50>    C       -8.20015         9.87280        -3.74983
| 51>    C       -8.49286        11.05359        -3.03444
| 52>    C       -8.71281        10.82551        -1.63946
| 53>    C       -8.91755        11.92479        -0.79603
| 54>    C       -8.99941        13.19430        -1.33347
| 55>    C       -9.20938        14.30069        -0.48052
| 56>    N       -9.38239        15.19882         0.21112
| 57>    C       -8.90164        13.40268        -2.72741
| 58>    C       -8.64554        12.35080        -3.56029
| 59>    C       -7.82528         9.67500        -5.09244
| 60>    C       -7.22236        10.60245        -5.89294
| 61>    C       -6.87556        10.35269        -7.24272
| 62>    C       -6.07206        11.18346        -8.00665
| 63>    O       -5.79286        10.92001        -9.32988
| 64>    C       -6.31989         9.77068        -9.83424
| 65>    C       -7.11867         8.89870        -9.04072
| 66>    C       -7.54088         7.80559        -9.72306
| 67>    S       -6.96883         7.82584       -11.34964
| 68>    C       -6.15244         9.32323       -11.10386
| 69>    O       -7.41183         9.17772        -7.74217
| 70>    C       -5.42681        12.34742        -7.50415
| 71>    C       -4.57369        13.10618        -8.23886
| 72>    C       -3.84202        14.24746        -7.77675
| 73>    C       -2.90861        14.81948        -8.62143
| 74>    C       -2.12033        15.90483        -8.19954
| 75>    C       -1.11261        16.62588        -8.83003
| 76>    C       -0.56458        16.46337       -10.20682
| 77>    C        0.20433        15.13655       -10.35082
| 78>    N        1.43696        15.19683        -9.58142
| 79>    C       -1.65393        16.57653       -11.28763
| 80>    N       -1.03367        16.67636       -12.59912
| 81>    C       -0.63547        17.59421        -7.87227
| 82>    C        0.35082        18.50727        -7.94884
| 83>    C        0.67277        19.41004        -6.80861
| 84>    C       -0.16861        19.20221        -5.59368
| 85>    C       -1.14082        18.27611        -5.52467
| 86>    C       -1.41485        17.44372        -6.63798
| 87>    C       -2.31155        16.41906        -6.84670
| 88>    C       -3.29642        15.84015        -6.01218
| 89>    C       -4.03173        14.79556        -6.46239
| 90>    C        0.62947        20.83587        -7.32649
| 91>    C       -0.32756        21.69976        -7.05162
| 92>    H       -5.70240         2.50114         1.48132
| 93>    H       -6.12877         0.91952         6.21555
| 94>    H       -4.19686         0.16372         1.10609
| 95>    H       -8.84958         5.70660         5.87142
| 96>    H       -9.98955         7.27100         6.59940
| 97>    H      -11.61388        11.03304         5.37409
| 98>    H      -10.72510        10.72829         3.09872
| 99>    H       -9.71878        10.20992         1.19190
|100>    H       -8.47034         7.73416        -0.09918
|101>    H       -8.99651        11.79973         0.27074
|102>    H       -9.02631        14.40128        -3.11804
|103>    H       -8.59137        12.50774        -4.62514
|104>    H       -7.95218         8.67394        -5.48209
|105>    H       -6.94823        11.55699        -5.48071
|106>    H       -8.14888         7.00011        -9.36860
|107>    H       -5.60316         9.78260       -11.89854
|108>    H       -5.61208        12.59313        -6.47344
|109>    H       -4.39205        12.81237        -9.26418
|110>    H       -2.77163        14.40406        -9.60888
|111>    H        0.15279        17.27129       -10.38914
|112>    H        0.36327        14.95858       -11.42569
|113>    H       -0.39712        14.32006        -9.94665
|114>    H        2.08526        15.84932       -10.01049
|115>    H        1.88495        14.28788        -9.56059
|116>    H       -2.30134        17.43559       -11.04264
|117>    H       -2.27512        15.67966       -11.28928
|118>    H       -0.51727        17.54666       -12.67909
|119>    H       -1.73986        16.67007       -13.32650
|120>    H        0.94520        18.63511        -8.84332
|121>    H        1.72181        19.21760        -6.52886
|122>    H        0.05698        19.84108        -4.75296
|123>    H       -1.71969        18.14933        -4.62115
|124>    H       -3.44899        16.23732        -5.01914
|125>    H       -4.78309        14.36059        -5.82244
|126>    H        1.44432        21.10416        -7.98583
|127>    H       -1.15428        21.44950        -6.40858
|128>    H       -0.31705        22.69725        -7.45692
|129> *
|130>
|131>                          ****END OF INPUT****

CARTESIAN COORDINATES (ANGSTROEM)
---------------------------------
  C     -7.425900    3.454090    5.494870
  C     -7.765960    3.378570    6.826380
  C     -7.387200    2.323420    7.679280
  N     -7.113010    1.495240    8.426790
  C     -8.531600    4.324880    7.534660
  N     -9.147220    5.049870    8.181040
  C     -6.629700    2.457440    4.779260
  C     -6.489670    2.875280    3.433740
  C     -5.790240    2.154150    2.498950
  C     -5.195480    0.956600    2.912640
  C     -5.339690    0.545920    4.257360
  C     -6.049870    1.277850    5.203060
  S     -4.525340   -0.960320    4.556260
  C     -4.009560   -1.015220    2.891790
  C     -4.424250    0.037760    2.148940
  Br    -2.970580   -2.457480    2.290830
  C     -7.196000    4.158110    3.256210
  O     -7.274950    4.792800    2.214780
  C     -7.764990    4.495430    4.556020
  C     -8.503500    5.629440    4.850490
  C     -8.867910    6.703580    4.054220
  S     -8.467670    6.922260    2.371670
  C     -9.261070    8.459360    2.293400
  C     -9.836410    8.811780    3.541270
  C     -9.621310    7.818820    4.533100
  C    -10.133230    8.005240    5.820930
  C    -10.842450    9.159930    6.101100
  C    -11.373070    9.370300    7.395480
  N    -11.813980    9.564310    8.435280
  C    -11.055330   10.146190    5.115600
  C    -10.558590    9.973930    3.851860
  C     -9.272010    9.230710    1.123980
  C     -8.779060    8.773320   -0.071740
  C     -8.645460    9.455910   -1.285780
  S     -8.289570    8.498190   -2.697990
  C     -8.200150    9.872800   -3.749830
  C     -8.492860   11.053590   -3.034440
  C     -8.712810   10.825510   -1.639460
  C     -8.917550   11.924790   -0.796030
  C     -8.999410   13.194300   -1.333470
  C     -9.209380   14.300690   -0.480520
  N     -9.382390   15.198820    0.211120
  C     -8.901640   13.402680   -2.727410
  C     -8.645540   12.350800   -3.560290
  C     -7.825280    9.675000   -5.092440
  C     -7.222360   10.602450   -5.892940
  C     -6.875560   10.352690   -7.242720
  C     -6.072060   11.183460   -8.006650
  O     -5.792860   10.920010   -9.329880
  C     -6.319890    9.770680   -9.834240
  C     -7.118670    8.898700   -9.040720
  C     -7.540880    7.805590   -9.723060
  S     -6.968830    7.825840  -11.349640
  C     -6.152440    9.323230  -11.103860
  O     -7.411830    9.177720   -7.742170
  C     -5.426810   12.347420   -7.504150
  C     -4.573690   13.106180   -8.238860
  C     -3.842020   14.247460   -7.776750
  C     -2.908610   14.819480   -8.621430
  C     -2.120330   15.904830   -8.199540
  C     -1.112610   16.625880   -8.830030
  C     -0.564580   16.463370  -10.206820
  C      0.204330   15.136550  -10.350820
  N      1.436960   15.196830   -9.581420
  C     -1.653930   16.576530  -11.287630
  N     -1.033670   16.676360  -12.599120
  C     -0.635470   17.594210   -7.872270
  C      0.350820   18.507270   -7.948840
  C      0.672770   19.410040   -6.808610
  C     -0.168610   19.202210   -5.593680
  C     -1.140820   18.276110   -5.524670
  C     -1.414850   17.443720   -6.637980
  C     -2.311550   16.419060   -6.846700
  C     -3.296420   15.840150   -6.012180
  C     -4.031730   14.795560   -6.462390
  C      0.629470   20.835870   -7.326490
  C     -0.327560   21.699760   -7.051620
  H     -5.702400    2.501140    1.481320
  H     -6.128770    0.919520    6.215550
  H     -4.196860    0.163720    1.106090
  H     -8.849580    5.706600    5.871420
  H     -9.989550    7.271000    6.599400
  H    -11.613880   11.033040    5.374090
  H    -10.725100   10.728290    3.098720
  H     -9.718780   10.209920    1.191900
  H     -8.470340    7.734160   -0.099180
  H     -8.996510   11.799730    0.270740
  H     -9.026310   14.401280   -3.118040
  H     -8.591370   12.507740   -4.625140
  H     -7.952180    8.673940   -5.482090
  H     -6.948230   11.556990   -5.480710
  H     -8.148880    7.000110   -9.368600
  H     -5.603160    9.782600  -11.898540
  H     -5.612080   12.593130   -6.473440
  H     -4.392050   12.812370   -9.264180
  H     -2.771630   14.404060   -9.608880
  H      0.152790   17.271290  -10.389140
  H      0.363270   14.958580  -11.425690
  H     -0.397120   14.320060   -9.946650
  H      2.085260   15.849320  -10.010490
  H      1.884950   14.287880   -9.560590
  H     -2.301340   17.435590  -11.042640
  H     -2.275120   15.679660  -11.289280
  H     -0.517270   17.546660  -12.679090
  H     -1.739860   16.670070  -13.326500
  H      0.945200   18.635110   -8.843320
  H      1.721810   19.217600   -6.528860
  H      0.056980   19.841080   -4.752960
  H     -1.719690   18.149330   -4.621150
  H     -3.448990   16.237320   -5.019140
  H     -4.783090   14.360590   -5.822440
  H      1.444320   21.104160   -7.985830
  H     -1.154280   21.449500   -6.408580
  H     -0.317050   22.697250   -7.456920

 Total Charge           Charge          ....    0
 Multiplicity           Mult            ....    1
 Number of Electrons    NEL             ....  580
 Basis Dimension        Dim             .... 1297

ORBITAL ENERGIES
----------------

  NO   OCC          E(Eh)            E(eV)
   0   2.0000    -482.880621    -13139.8497
   1   2.0000     -88.985443     -2421.4170
   2   2.0000     -88.974128     -2421.1091
   3   2.0000     -88.969052     -2420.9710
   4   2.0000     -88.964338     -2420.8427
   5   2.0000     -62.558346     -1702.2991
   6   2.0000     -56.392290     -1534.5122
   7   2.0000     -56.389588     -1534.4387
   8   2.0000     -56.389549     -1534.4376
   9   2.0000     -19.286572      -524.8143
  10   2.0000     -19.281407      -524.6738
  11   2.0000     -19.211896      -522.7823
  12   2.0000     -14.411219      -392.1492
  13   2.0000     -14.408495      -392.0751
  14   2.0000     -14.402681      -391.9169
  15   2.0000     -14.399055      -391.8182
  16   2.0000     -14.385587      -391.4517
  17   2.0000     -14.375149      -391.1677
  18   2.0000     -10.362116      -281.9675
  19   2.0000     -10.359845      -281.9057
  20   2.0000     -10.352967      -281.7185
  21   2.0000     -10.352614      -281.7089
  22   2.0000     -10.348117      -281.5866
  23   2.0000     -10.347557      -281.5713
  24   2.0000     -10.332917      -281.1730
  25   2.0000     -10.330789      -281.1151
  26   2.0000     -10.327961      -281.0381
  27   2.0000     -10.326412      -280.9960
  28   2.0000     -10.325319      -280.9662
  29   2.0000     -10.324716      -280.9498
  30   2.0000     -10.317933      -280.7652
  31   2.0000     -10.317725      -280.7596
  32   2.0000     -10.314746      -280.6785
  33   2.0000     -10.312334      -280.6129
  34   2.0000     -10.312307      -280.6121
  35   2.0000     -10.312103      -280.6066
  36   2.0000     -10.311369      -280.5866
  37   2.0000     -10.310691      -280.5682
  38   2.0000     -10.309945      -280.5479
  39   2.0000     -10.307944      -280.4934
  40   2.0000     -10.306851      -280.4637
  41   2.0000     -10.304666      -280.4042
  42   2.0000     -10.303402      -280.3698
  43   2.0000     -10.302936      -280.3571
  44   2.0000     -10.302528      -280.3460
  45   2.0000     -10.301704      -280.3236
  46   2.0000     -10.301664      -280.3225
  47   2.0000     -10.300402      -280.2882
  48   2.0000     -10.299950      -280.2759
  49   2.0000     -10.299102      -280.2528
  50   2.0000     -10.298897      -280.2472
  51   2.0000     -10.298611      -280.2394
  52   2.0000     -10.298562      -280.2381
  53   2.0000     -10.297743      -280.2158
  54   2.0000     -10.297311      -280.2041
  55   2.0000     -10.296865      -280.1919
  56   2.0000     -10.295833      -280.1639
  57   2.0000     -10.294022      -280.1146
  58   2.0000     -10.293807      -280.1087
  59   2.0000     -10.293469      -280.0995
  60   2.0000     -10.290977      -280.0317
  61   2.0000     -10.286859      -279.9197
  62   2.0000     -10.286054      -279.8978
  63   2.0000     -10.285003      -279.8692
  64   2.0000     -10.284133      -279.8455
  65   2.0000     -10.283855      -279.8379
  66   2.0000     -10.283525      -279.8289
  67   2.0000     -10.279961      -279.7320
  68   2.0000     -10.275118      -279.6002
  69   2.0000     -10.274738      -279.5898
  70   2.0000     -10.271436      -279.5000
  71   2.0000     -10.271069      -279.4900
  72   2.0000     -10.270419      -279.4723
  73   2.0000     -10.268730      -279.4263
  74   2.0000     -10.268348      -279.4160
  75   2.0000     -10.267825      -279.4017
  76   2.0000     -10.266851      -279.3752
  77   2.0000     -10.263532      -279.2849
  78   2.0000     -10.262085      -279.2455
  79   2.0000     -10.260953      -279.2147
  80   2.0000     -10.260338      -279.1980
  81   2.0000      -8.787780      -239.1276
  82   2.0000      -8.080832      -219.8906
  83   2.0000      -8.067115      -219.5174
  84   2.0000      -8.065057      -219.4614
  85   2.0000      -8.060172      -219.3284
  86   2.0000      -6.624065      -180.2500
  87   2.0000      -6.609507      -179.8538
  88   2.0000      -6.609340      -179.8493
  89   2.0000      -6.049705      -164.6208
  90   2.0000      -6.045661      -164.5108
  91   2.0000      -6.043709      -164.4577
  92   2.0000      -6.036334      -164.2570
  93   2.0000      -6.034736      -164.2135
  94   2.0000      -6.031731      -164.1317
  95   2.0000      -6.030474      -164.0975
  96   2.0000      -6.029853      -164.0806
  97   2.0000      -6.029669      -164.0756
  98   2.0000      -6.026281      -163.9834
  99   2.0000      -6.025501      -163.9622
 100   2.0000      -6.021838      -163.8626
 101   2.0000      -2.739902       -74.5565
 102   2.0000      -2.735850       -74.4463
 103   2.0000      -2.735753       -74.4436
 104   2.0000      -2.724160       -74.1282
 105   2.0000      -2.724154       -74.1280
 106   2.0000      -1.210435       -32.9376
 107   2.0000      -1.173323       -31.9277
 108   2.0000      -1.126282       -30.6477
 109   2.0000      -1.020565       -27.7710
 110   2.0000      -1.015029       -27.6203
 111   2.0000      -1.011719       -27.5303
 112   2.0000      -1.004824       -27.3427
 113   2.0000      -0.997655       -27.1476
 114   2.0000      -0.993968       -27.0473
 115   2.0000      -0.985773       -26.8242
 116   2.0000      -0.984997       -26.8031
 117   2.0000      -0.983268       -26.7561
 118   2.0000      -0.980620       -26.6840
 119   2.0000      -0.968425       -26.3522
 120   2.0000      -0.959571       -26.1113
 121   2.0000      -0.950830       -25.8734
 122   2.0000      -0.950569       -25.8663
 123   2.0000      -0.946942       -25.7676
 124   2.0000      -0.939196       -25.5568
 125   2.0000      -0.934890       -25.4397
 126   2.0000      -0.925848       -25.1936
 127   2.0000      -0.916600       -24.9420
 128   2.0000      -0.905415       -24.6376
 129   2.0000      -0.900462       -24.5028
 130   2.0000      -0.889858       -24.2143
 131   2.0000      -0.880016       -23.9465
 132   2.0000      -0.877994       -23.8914
 133   2.0000      -0.874573       -23.7983
 134   2.0000      -0.872272       -23.7357
 135   2.0000      -0.868164       -23.6239
 136   2.0000      -0.858451       -23.3596
 137   2.0000      -0.853914       -23.2362
 138   2.0000      -0.850161       -23.1340
 139   2.0000      -0.845086       -22.9959
 140   2.0000      -0.838531       -22.8176
 141   2.0000      -0.833760       -22.6878
 142   2.0000      -0.828019       -22.5315
 143   2.0000      -0.824111       -22.4252
 144   2.0000      -0.821984       -22.3673
 145   2.0000      -0.816014       -22.2049
 146   2.0000      -0.796355       -21.6699
 147   2.0000      -0.787386       -21.4259
 148   2.0000      -0.770342       -20.9621
 149   2.0000      -0.758591       -20.6423
 150   2.0000      -0.756199       -20.5772
 151   2.0000      -0.752635       -20.4802
 152   2.0000      -0.748764       -20.3749
 153   2.0000      -0.739499       -20.1228
 154   2.0000      -0.733390       -19.9566
 155   2.0000      -0.731085       -19.8938
 156   2.0000      -0.721427       -19.6310
 157   2.0000      -0.712760       -19.3952
 158   2.0000      -0.709308       -19.3013
 159   2.0000      -0.700697       -19.0669
 160   2.0000      -0.692522       -18.8445
 161   2.0000      -0.687555       -18.7093
 162   2.0000      -0.685994       -18.6669
 163   2.0000      -0.684604       -18.6290
 164   2.0000      -0.682126       -18.5616
 165   2.0000      -0.679765       -18.4973
 166   2.0000      -0.670741       -18.2518
 167   2.0000      -0.661183       -17.9917
 168   2.0000      -0.657826       -17.9004
 169   2.0000      -0.655994       -17.8505
 170   2.0000      -0.649101       -17.6629
 171   2.0000      -0.646155       -17.5828
 172   2.0000      -0.638897       -17.3853
 173   2.0000      -0.628374       -17.0989
 174   2.0000      -0.620156       -16.8753
 175   2.0000      -0.617866       -16.8130
 176   2.0000      -0.613236       -16.6870
 177   2.0000      -0.604779       -16.4569
 178   2.0000      -0.599782       -16.3209
 179   2.0000      -0.597522       -16.2594
 180   2.0000      -0.596543       -16.2328
 181   2.0000      -0.594374       -16.1737
 182   2.0000      -0.588915       -16.0252
 183   2.0000      -0.586805       -15.9678
 184   2.0000      -0.581692       -15.8286
 185   2.0000      -0.575641       -15.6640
 186   2.0000      -0.574314       -15.6279
 187   2.0000      -0.573264       -15.5993
 188   2.0000      -0.572115       -15.5680
 189   2.0000      -0.568516       -15.4701
 190   2.0000      -0.564171       -15.3519
 191   2.0000      -0.560359       -15.2481
 192   2.0000      -0.556517       -15.1436
 193   2.0000      -0.550494       -14.9797
 194   2.0000      -0.547378       -14.8949
 195   2.0000      -0.542415       -14.7599
 196   2.0000      -0.539867       -14.6905
 197   2.0000      -0.536773       -14.6063
 198   2.0000      -0.535326       -14.5670
 199   2.0000      -0.534498       -14.5444
 200   2.0000      -0.532904       -14.5011
 201   2.0000      -0.532643       -14.4940
 202   2.0000      -0.526267       -14.3204
 203   2.0000      -0.525907       -14.3106
 204   2.0000      -0.524944       -14.2844
 205   2.0000      -0.522062       -14.2060
 206   2.0000      -0.517982       -14.0950
 207   2.0000      -0.517550       -14.0832
 208   2.0000      -0.516172       -14.0457
 209   2.0000      -0.515893       -14.0382
 210   2.0000      -0.513815       -13.9816
 211   2.0000      -0.511958       -13.9311
 212   2.0000      -0.510100       -13.8805
 213   2.0000      -0.508725       -13.8431
 214   2.0000      -0.504946       -13.7403
 215   2.0000      -0.504372       -13.7247
 216   2.0000      -0.502604       -13.6765
 217   2.0000      -0.501214       -13.6387
 218   2.0000      -0.495533       -13.4841
 219   2.0000      -0.489859       -13.3297
 220   2.0000      -0.488830       -13.3017
 221   2.0000      -0.486697       -13.2437
 222   2.0000      -0.486534       -13.2393
 223   2.0000      -0.484330       -13.1793
 224   2.0000      -0.482916       -13.1408
 225   2.0000      -0.479084       -13.0365
 226   2.0000      -0.476597       -12.9689
 227   2.0000      -0.472100       -12.8465
 228   2.0000      -0.469603       -12.7785
 229   2.0000      -0.467190       -12.7129
 230   2.0000      -0.466638       -12.6979
 231   2.0000      -0.465260       -12.6604
 232   2.0000      -0.460278       -12.5248
 233   2.0000      -0.457731       -12.4555
 234   2.0000      -0.454563       -12.3693
 235   2.0000      -0.451976       -12.2989
 236   2.0000      -0.447967       -12.1898
 237   2.0000      -0.447499       -12.1771
 238   2.0000      -0.444322       -12.0906
 239   2.0000      -0.442132       -12.0310
 240   2.0000      -0.440720       -11.9926
 241   2.0000      -0.439859       -11.9692
 242   2.0000      -0.439202       -11.9513
 243   2.0000      -0.438829       -11.9411
 244   2.0000      -0.437291       -11.8993
 245   2.0000      -0.434871       -11.8334
 246   2.0000      -0.434384       -11.8202
 247   2.0000      -0.433488       -11.7958
 248   2.0000      -0.431434       -11.7399
 249   2.0000      -0.427128       -11.6227
 250   2.0000      -0.424686       -11.5563
 251   2.0000      -0.421964       -11.4822
 252   2.0000      -0.421388       -11.4665
 253   2.0000      -0.419033       -11.4025
 254   2.0000      -0.418499       -11.3879
 255   2.0000      -0.417291       -11.3551
 256   2.0000      -0.417204       -11.3527
 257   2.0000      -0.414433       -11.2773
 258   2.0000      -0.407513       -11.0890
 259   2.0000      -0.406346       -11.0572
 260   2.0000      -0.405311       -11.0291
 261   2.0000      -0.401819       -10.9340
 262   2.0000      -0.399575       -10.8730
 263   2.0000      -0.396709       -10.7950
 264   2.0000      -0.394634       -10.7385
 265   2.0000      -0.389036       -10.5862
 266   2.0000      -0.387683       -10.5494
 267   2.0000      -0.380550       -10.3553
 268   2.0000      -0.370211       -10.0740
 269   2.0000      -0.368040       -10.0149
 270   2.0000      -0.367543       -10.0014
 271   2.0000      -0.363027        -9.8785
 272   2.0000      -0.350386        -9.5345
 273   2.0000      -0.345744        -9.4082
 274   2.0000      -0.336770        -9.1640
 275   2.0000      -0.334518        -9.1027
 276   2.0000      -0.329732        -8.9725
 277   2.0000      -0.328001        -8.9254
 278   2.0000      -0.325367        -8.8537
 279   2.0000      -0.322830        -8.7847
 280   2.0000      -0.316162        -8.6032
 281   2.0000      -0.312883        -8.5140
 282   2.0000      -0.308837        -8.4039
 283   2.0000      -0.294206        -8.0057
 284   2.0000      -0.290053        -7.8927
 285   2.0000      -0.288998        -7.8640
 286   2.0000      -0.285439        -7.7672
 287   2.0000      -0.257936        -7.0188
 288   2.0000      -0.231842        -6.3087
 289   2.0000      -0.216998        -5.9048
 290   0.0000      -0.113595        -3.0911
 291   0.0000      -0.077394        -2.1060
 292   0.0000      -0.065663        -1.7868
 293   0.0000      -0.055164        -1.5011
 294   0.0000      -0.036365        -0.9895

MULLIKEN ATOMIC CHARGES
-----------------------
   0 C :    0.327937
   1 C :   -0.365862
   2 C :   -0.185204
   3 N :    0.139038
   4 C :   -0.182646
   5 N :    0.141920
   6 C :    0.008537
   7 C :   -0.003549
   8 C :   -0.079314
   9 C :    0.117908
  10 C :   -0.093191
  11 C :   -0.021877
  12 S :    0.183665
  13 C :   -0.124026
  14 C :    0.037729
  15 Br:    0.017212
  16 C :    0.150821
  17 O :   -0.199257
  18 C :   -0.106200
  19 C :   -0.031328
  20 C :   -0.072625
  21 S :    0.198876
  22 C :   -0.041856
  23 C :    0.109669
  24 C :    0.136822
  25 C :   -0.049621
  26 C :   -0.091504
  27 C :   -0.133781
  28 N :    0.114724
  29 C :    0.041738
  30 C :   -0.028756
  31 C :   -0.051744
  32 C :    0.067746
  33 C :   -0.130901
  34 S :    0.188225
  35 C :   -0.095053
  36 C :    0.098948
  37 C :    0.136178
  38 C :   -0.049088
  39 C :   -0.090386
  40 C :   -0.142254
  41 N :    0.107895
  42 C :    0.037916
  43 C :   -0.031649
  44 C :    0.036086
  45 C :   -0.064525
  46 C :    0.146557
  47 C :    0.205699
  48 O :   -0.249026
  49 C :    0.213042
  50 C :    0.226401
  51 C :   -0.176467
  52 S :    0.114354
  53 C :   -0.170698
  54 O :   -0.260252
  55 C :   -0.069349
  56 C :    0.014745
  57 C :    0.128443
  58 C :   -0.098999
  59 C :    0.044027
  60 C :    0.032584
  61 C :   -0.072380
  62 C :    0.152344
  63 N :   -0.224547
  64 C :    0.141322
  65 N :   -0.217083
  66 C :    0.103012
  67 C :   -0.112378
  68 C :    0.165271
  69 C :   -0.070976
  70 C :    0.023534
  71 C :    0.008108
  72 C :    0.023440
  73 C :    0.005545
  74 C :   -0.013704
  75 C :   -0.093213
  76 C :    0.005682
  77 H :   -0.016605
  78 H :   -0.008282
  79 H :   -0.006691
  80 H :   -0.020271
  81 H :    0.018739
  82 H :   -0.001165
  83 H :   -0.014343
  84 H :   -0.013562
  85 H :    0.008365
  86 H :   -0.012300
  87 H :   -0.002314
  88 H :   -0.007682
  89 H :    0.007092
  90 H :   -0.001356
  91 H :    0.025334
  92 H :    0.025880
  93 H :   -0.016003
  94 H :   -0.008089
  95 H :   -0.036411
  96 H :   -0.047442
  97 H :   -0.002375
  98 H :   -0.016417
  99 H :    0.080324
 100 H :    0.090250
 101 H :   -0.001477
 102 H :   -0.015125
 103 H :    0.087842
 104 H :    0.092068
 105 H :   -0.015513
 106 H :    0.039865
 107 H :   -0.006901
 108 H :   -0.037909
 109 H :   -0.038671
 110 H :   -0.042022
 111 H :    0.002892
 112 H :    0.029087
 113 H :    0.022753
Sum of atomic charges:   -0.0000000

LOEWDIN ATOMIC CHARGES
----------------------
   0 C :    0.076844
   1 C :   -0.156465
   2 C :   -0.018770
   3 N :   -0.063929
   4 C :   -0.017639
   5 N :   -0.064305
   6 C :   -0.018474
   7 C :   -0.049037
   8 C :    0.017422
   9 C :   -0.035794
  10 C :   -0.145535
  11 C :   -0.011139
  12 S :    0.430799
  13 C :   -0.273947
  14 C :   -0.071442
  15 Br:    0.131649
  16 C :    0.081290
  17 O :   -0.185708
  18 C :   -0.123488
  19 C :    0.042579
  20 C :   -0.192805
  21 S :    0.544709
  22 C :   -0.136230
  23 C :   -0.048416
  24 C :   -0.014340
  25 C :    0.021112
  26 C :   -0.054368
  27 C :   -0.027714
  28 N :   -0.045470
  29 C :   -0.001228
  30 C :   -0.001805
  31 C :   -0.068117
  32 C :   -0.013746
  33 C :   -0.185159
  34 S :    0.498190
  35 C :   -0.148563
  36 C :   -0.043692
  37 C :   -0.032335
  38 C :    0.018845
  39 C :   -0.062465
  40 C :   -0.030431
  41 N :   -0.052148
  42 C :   -0.005521
  43 C :   -0.003397
  44 C :   -0.055286
  45 C :   -0.019724
  46 C :    0.008894
  47 C :    0.051047
  48 O :   -0.044482
  49 C :   -0.010153
  50 C :   -0.007856
  51 C :   -0.210904
  52 S :    0.440191
  53 C :   -0.208478
  54 O :   -0.057565
  55 C :   -0.062956
  56 C :    0.014420
  57 C :   -0.034698
  58 C :   -0.001494
  59 C :   -0.025737
  60 C :   -0.012365
  61 C :   -0.040475
  62 C :    0.025869
  63 N :   -0.122083
  64 C :    0.027010
  65 N :   -0.117232
  66 C :   -0.015406
  67 C :    0.077479
  68 C :   -0.032636
  69 C :   -0.030240
  70 C :   -0.017771
  71 C :   -0.034745
  72 C :   -0.030579
  73 C :   -0.003313
  74 C :   -0.033092
  75 C :   -0.014724
  76 C :   -0.042595
  77 H :    0.038467
  78 H :    0.040781
  79 H :    0.037391
  80 H :    0.046493
  81 H :    0.044903
  82 H :    0.041074
  83 H :    0.033023
  84 H :    0.028864
  85 H :    0.028498
  86 H :    0.036548
  87 H :    0.040263
  88 H :    0.035106
  89 H :    0.034363
  90 H :    0.032453
  91 H :    0.029484
  92 H :    0.029714
  93 H :    0.027619
  94 H :    0.031305
  95 H :    0.020891
  96 H :    0.015844
  97 H :   -0.000230
  98 H :    0.014659
  99 H :    0.047200
 100 H :    0.054307
 101 H :    0.004488
 102 H :    0.015452
 103 H :    0.050694
 104 H :    0.055556
 105 H :    0.025934
 106 H :    0.061440
 107 H :    0.025521
 108 H :    0.028950
 109 H :    0.027320
 110 H :    0.020995
 111 H :    0.023759
 112 H :    0.026280
 113 H :    0.026458

  Mayer bond orders larger than 0.100000
B(  0-C ,  1-C ) :   1.5863 B(  0-C ,  6-C ) :   0.9876 B(  0-C , 18-C ) :   1.1188
B(  1-C ,  2-C ) :   1.1509 B(  1-C ,  4-C ) :   1.1541 B(  2-C ,  3-N ) :   2.9602
B(  4-C ,  5-N ) :   2.9683 B(  6-C ,  7-C ) :   1.2786 B(  6-C , 11-C ) :   1.4231
B(  7-C ,  8-C ) :   1.4266 B(  7-C , 16-C ) :   0.9561 B(  8-C ,  9-C ) :   1.2356
B(  8-C , 77-H ) :   1.0176 B(  9-C , 10-C ) :   1.3179 B(  9-C , 14-C ) :   1.1615
B( 10-C , 11-C ) :   1.3172 B( 10-C , 12-S ) :   1.0849 B( 11-C , 78-H ) :   0.9797
B( 12-S , 13-C ) :   1.0876 B( 13-C , 14-C ) :   1.6193 B( 13-C , 15-Br) :   1.0146
B( 14-C , 79-H ) :   0.9998 B( 16-C , 17-O ) :   2.1102 B( 16-C , 18-C ) :   0.9938
B( 18-C , 19-C ) :   1.4200 B( 19-C , 20-C ) :   1.3841 B( 19-C , 80-H ) :   0.9282
B( 20-C , 21-S ) :   1.0822 B( 20-C , 24-C ) :   1.1817 B( 21-S , 22-C ) :   1.1567
B( 22-C , 23-C ) :   1.2063 B( 22-C , 31-C ) :   1.2643 B( 23-C , 24-C ) :   1.2554
B( 23-C , 30-C ) :   1.2433 B( 24-C , 25-C ) :   1.2459 B( 25-C , 26-C ) :   1.4782
B( 25-C , 81-H ) :   0.9837 B( 26-C , 27-C ) :   1.0595 B( 26-C , 29-C ) :   1.2618
B( 27-C , 28-N ) :   3.0502 B( 29-C , 30-C ) :   1.4985 B( 29-C , 82-H ) :   0.9879
B( 30-C , 83-H ) :   0.9920 B( 31-C , 32-C ) :   1.5343 B( 31-C , 84-H ) :   0.9663
B( 32-C , 33-C ) :   1.2405 B( 32-C , 85-H ) :   0.9444 B( 33-C , 34-S ) :   1.1307
B( 33-C , 37-C ) :   1.2608 B( 34-S , 35-C ) :   1.1821 B( 35-C , 36-C ) :   1.2957
B( 35-C , 44-C ) :   1.1466 B( 36-C , 37-C ) :   1.2291 B( 36-C , 43-C ) :   1.2202
B( 37-C , 38-C ) :   1.2192 B( 38-C , 39-C ) :   1.5030 B( 38-C , 86-H ) :   0.9941
B( 39-C , 40-C ) :   1.0567 B( 39-C , 42-C ) :   1.2362 B( 40-C , 41-N ) :   3.0490
B( 42-C , 43-C ) :   1.5169 B( 42-C , 87-H ) :   0.9914 B( 43-C , 88-H ) :   0.9884
B( 44-C , 45-C ) :   1.6107 B( 44-C , 89-H ) :   0.9573 B( 45-C , 46-C ) :   1.2244
B( 45-C , 90-H ) :   0.9495 B( 46-C , 47-C ) :   1.4069 B( 46-C , 54-O ) :   1.0583
B( 47-C , 48-O ) :   1.0784 B( 47-C , 55-C ) :   1.1880 B( 48-O , 49-C ) :   1.0454
B( 49-C , 50-C ) :   1.2032 B( 49-C , 53-C ) :   1.5701 B( 50-C , 51-C ) :   1.5693
B( 50-C , 54-O ) :   1.0527 B( 51-C , 52-S ) :   1.1427 B( 51-C , 91-H ) :   0.9732
B( 52-S , 53-C ) :   1.1464 B( 53-C , 92-H ) :   0.9730 B( 55-C , 56-C ) :   1.6324
B( 55-C , 93-H ) :   0.9485 B( 56-C , 57-C ) :   1.0729 B( 56-C , 94-H ) :   0.9915
B( 57-C , 58-C ) :   1.4962 B( 57-C , 74-C ) :   1.1128 B( 58-C , 59-C ) :   1.1136
B( 58-C , 95-H ) :   0.9958 B( 59-C , 60-C ) :   1.4793 B( 59-C , 72-C ) :   1.1172
B( 60-C , 61-C ) :   1.0000 B( 60-C , 66-C ) :   1.1209 B( 61-C , 62-C ) :   1.0364
B( 61-C , 64-C ) :   1.0374 B( 61-C , 96-H ) :   0.8922 B( 62-C , 63-N ) :   1.0755
B( 62-C , 97-H ) :   0.9364 B( 62-C , 98-H ) :   0.9359 B( 63-N , 99-H ) :   0.9739
B( 63-N ,100-H ) :   0.9699 B( 64-C , 65-N ) :   1.0726 B( 64-C ,101-H ) :   0.9479
B( 64-C ,102-H ) :   0.9302 B( 65-N ,103-H ) :   0.9718 B( 65-N ,104-H ) :   0.9678
B( 66-C , 67-C ) :   1.6809 B( 66-C , 71-C ) :   1.0519 B( 67-C , 68-C ) :   0.9714
B( 67-C ,105-H ) :   0.9603 B( 68-C , 69-C ) :   1.0031 B( 68-C , 75-C ) :   0.9500
B( 68-C ,106-H ) :   0.8541 B( 69-C , 70-C ) :   1.7161 B( 69-C ,107-H ) :   0.9717
B( 70-C , 71-C ) :   1.1233 B( 70-C ,108-H ) :   0.9900 B( 71-C , 72-C ) :   1.4522
B( 72-C , 73-C ) :   1.1392 B( 73-C , 74-C ) :   1.6256 B( 73-C ,109-H ) :   0.9873
B( 74-C ,110-H ) :   0.9814 B( 75-C , 76-C ) :   2.0457 B( 75-C ,111-H ) :   0.9652
B( 76-C ,112-H ) :   0.9374 B( 76-C ,113-H ) :   0.9546

-----------------------------------------------------------------------------
         ABSORPTION SPECTRUM VIA TRANSITION ELECTRIC DIPOLE MOMENTS
-----------------------------------------------------------------------------
State   Energy  Wavelength   fosc         T2         TX        TY        TZ
        (cm-1)    (nm)                  (au**2)     (au)      (au)      (au)
-----------------------------------------------------------------------------
   0   10307.7    970.1   1.463053512  46.72768  -1.23172  -4.10602   5.32458
   1   13788.6    725.2   0.139852115   3.33906  -1.05494   1.21522  -0.86568
   2   15923.4    628.0   0.082900567   1.71395   0.47956  -0.42703   1.14088
   3   18520.7    539.9   0.372559322   6.62238  -2.14498   0.96758   1.04174
   4   19237.7    519.8   0.040685994   0.69625   0.77752   0.24485  -0.17822
   5   22023.5    454.1   0.124388270   1.85938   0.97022   0.79175  -0.53961
   6   22307.9    448.3   0.006536237   0.09646   0.08382   0.29172  -0.06583
   7   23383.8    427.6   0.318184756   4.47961   1.23078   1.72048  -0.06887
   8   24062.2    415.6   0.079393520   1.08624  -0.19560   0.70589   0.74142
   9   25266.0    395.8   0.301553539   3.92919  -1.10730   1.00369   1.30218
  10   25387.0    393.9   0.025924164   0.33618   0.07996  -0.57271  -0.04222
  11   26369.5    379.2   0.002296601   0.02867  -0.06804  -0.15221  -0.02957
  12   26791.5    373.3   0.050842984   0.62476   0.52562   0.58963  -0.02854
  13   27150.3    368.3   0.065534980   0.79465   0.59399  -0.60398  -0.27755
  14   27385.1    365.2   0.093682467   1.12621  -0.52524  -0.88854  -0.24663
  15   27889.7    358.6   0.114223694   1.34830  -0.84616  -0.76536   0.21573
  16   28600.5    349.6   0.060526547   0.69670   0.13873  -0.75451  -0.32890
  17   28834.3    346.8   0.143803211   1.64186   0.29502   0.80823   0.94952
  18   29396.8    340.2   0.132493394   1.48378  -0.58821  -0.97203  -0.43925
  19   29711.2    336.6   0.093795588   1.03929   0.65734   0.65082  -0.42851
  20   30452.9    328.4   0.007563855   0.08177   0.11031   0.05956   0.25701
  21   30910.6    323.5   0.043450199   0.46276   0.33296  -0.07274  -0.58873
  22   31376.4    318.7   0.045117478   0.47339   0.10007   0.37893  -0.56550
  23   31463.7    317.8   0.008277733   0.08661  -0.09872  -0.00046   0.27725
  24   32029.6    312.2   0.763042598   7.84283   1.54207  -1.43833  -1.84284
  25   32247.3    310.1   0.077780591   0.79406  -0.07174   0.07425   0.88510
  26   32339.9    309.2   0.033268603   0.33867  -0.30603  -0.45339  -0.19861
  27   32657.2    306.2   0.000069426   0.00070  -0.02385   0.00476  -0.01041
  28   32903.3    303.9   0.096199715   0.96252  -0.08007   0.82348   0.52726
  29   33294.6    300.3   0.080688245   0.79783   0.30657  -0.75923  -0.35695
  30   33443.0    299.0   0.086580154   0.85229   0.46474  -0.72602  -0.33046
  31   33802.4    295.8   0.011987269   0.11675  -0.12480  -0.26940  -0.16911
  32   34054.8    293.6   0.023344416   0.22567   0.19803  -0.39849  -0.16632
  33   34517.3    289.7   0.188144241   1.79445   0.47339   1.13669   0.52753
  34   34809.3    287.3   0.295517007   2.79487  -0.94824  -1.35537  -0.24226
  35   35305.6    283.2   0.115428854   1.07633  -0.41576   0.26742   0.91212
  36   35578.3    281.1   0.303872087   2.81178   0.90790   1.40148   0.15284
  37   35641.7    280.6   0.018312206   0.16914  -0.16570   0.26863  -0.26368
  38   35912.2    278.5   0.154934350   1.42030   0.33401   0.95045   0.63670
  39   36542.7    273.7   0.037330450   0.33631  -0.54748  -0.14767   0.12151
  40   36779.0    271.9   0.002327916   0.02084  -0.09643   0.10392  -0.02720
  41   36854.1    271.3   0.023258210   0.20776   0.13348   0.14180  -0.41211
  42   37228.6    268.6   0.145016155   1.28237   0.09546   1.11229   0.18991
  43   37404.5    267.3   0.135612865   1.19358  -0.08745  -0.05436  -1.08765
  44   37473.5    266.9   0.039469772   0.34675   0.02646  -0.56011   0.17980
  45   37586.5    266.1   0.077803601   0.68146   0.10588  -0.11073   0.81117
  46   37942.0    263.6   0.077733533   0.67447  -0.16587   0.32715   0.73480
  47   38018.8    263.0   0.058869548   0.50976  -0.44305  -0.21829   0.51557
  48   38409.7    260.4   0.042651725   0.36557  -0.04095  -0.50053  -0.33669
  49   38896.7    257.1   0.002521389   0.02134  -0.11364   0.06377   0.06603
  50   38962.7    256.7   0.067800223   0.57287  -0.39101   0.48288   0.43221
  51   39103.2    255.7   0.069133779   0.58204   0.41985   0.63025  -0.09249
  52   39325.0    254.3   0.073028374   0.61136  -0.48164  -0.49371   0.36828
  53   39570.0    252.7   0.024659269   0.20516  -0.27411  -0.35060  -0.08428
  54   39866.8    250.8   0.258887916   2.13784  -0.82996  -1.17446  -0.26395
  55   39920.0    250.5   0.028825987   0.23772  -0.03234   0.38144   0.30196
  56   40068.6    249.6   0.035912708   0.29507   0.34181  -0.14907   0.39498

FINAL SINGLE POINT ENERGY     -7139.410230291717

DIPOLE MOMENT
-------------
                                X             Y             Z
Electronic contribution:    -30.06458    -251.14398     148.63403
Nuclear contribution   :     32.94294     253.42627    -156.77289
                        -----------------------------------------
Total Dipole Moment    :      2.87837       2.28229      -8.13887
                        -----------------------------------------
Magnitude (a.u.)       :      8.92945
Magnitude (Debye)      :     22.69685

Rotational constants in cm-1:     0.000708     0.000202     0.000183
Rotational constants in MHz :    21.225031     6.059270     5.481342

                             ****ORCA TERMINATED NORMALLY****
TOTAL RUN TIME: 0 days 0 hours 12 minutes 33 seconds 774 msec
