                         Program Version 4.2.0 -  RELEASE  -
|  1> # ORCA input file
|  2> # SCF done       -191.246876834153          0.000586660383
|  3> ! CAM-B3LYP def2-SVP def2/J RIJCOSX Grid4 TightSCF
|  4> %maxcore 5000
|  5> %tddft
|  6>     Mode sTDDFT
|  7>     Ethresh 5.0
|  8>     maxcore 5000
|  9> end
| 10>
| 11> %pal
| 12>   nprocs 6
| 13>   end
| 14> * xyz 0 1
| 15>    C      -12.48144         1.95380        -8.05320
| 16>    C      -12.01534         0.77033        -8.57529
| 17>    C      -12.63751         0.07402        -9.63006
| 18>    N      -13.09788        -0.54319       -10.48278
| 19>    C      -10.87135         0.07232        -8.13987
| 20>    N       -9.95909        -0.56388        -7.85123
| 21>    C      -13.67642         2.65760        -8.52039
| 22>    C      -13.85313         3.81655        -7.72918
| 23>    C      -14.87988         4.70556        -7.92837
| 24>    C      -15.78560         4.43504        -8.95893
| 25>    C      -15.61108         3.26901        -9.73791
| 26>    C      -14.56591         2.37317        -9.53950
| 27>    S      -16.85395         3.11682       -10.94375
| 28>    C      -17.58321         4.59505       -10.38125
| 29>    C      -16.92785         5.18362        -9.35502
| 30>   Br      -19.17142         5.20419       -11.16257
| 31>    C      -12.77935         3.88585        -6.71447
| 32>    O      -12.67625         4.74570        -5.86121
| 33>    C      -11.91330         2.71566        -6.96589
| 34>    C      -10.75217         2.43714        -6.27519
| 35>    C      -10.25834         3.23029        -5.23381
| 36>    C       -9.09934         2.96895        -4.54775
| 37>    C       -8.67228         3.81648        -3.51326
| 38>    O       -9.41993         4.90091        -3.19319
| 39>    C       -8.83141         5.56795        -2.16960
| 40>    C       -7.65578         4.89436        -1.81605
| 41>    C       -7.55218         3.78191        -2.66742
| 42>    O       -6.57885         2.85619        -2.68258
| 43>    O       -6.73724         5.18466        -0.86027
| 44>    C       -9.52423         6.71653        -1.74419
| 45>    C       -9.26286         7.59186        -0.73182
| 46>    C      -10.10618         8.69328        -0.44259
| 47>    C       -9.82311         9.54869         0.65634
| 48>    C      -10.67501        10.64654         1.02979
| 49>    N      -10.35981        11.41615         2.06826
| 50>    C       -9.25953        11.16195         2.75519
| 51>    C       -8.42005        10.07050         2.39431
| 52>    N       -8.71197         9.29950         1.37014
| 53>    C       -7.24573         9.79605         3.13966
| 54>    N       -6.30218         9.59337         3.75706
| 55>    C       -8.93137        11.98903         3.85400
| 56>    N       -8.64301        12.64287         4.75068
| 57>    C      -11.89510        10.94238         0.32383
| 58>    C      -12.13863        10.11056        -0.80422
| 59>    C      -11.27235         9.02312        -1.18357
| 60>    N      -11.71442         8.41451        -2.28104
| 61>    S      -13.06673         9.11549        -2.79701
| 62>    N      -13.15786        10.23751        -1.63882
| 63>    C      -12.71016        11.97300         0.77749
| 64>    C      -13.97486        12.39203         0.36954
| 65>    C      -14.67281        13.45472         0.97760
| 66>    C      -15.93819        13.66959         0.48655
| 67>    C      -16.28427        12.76531        -0.52142
| 68>    S      -14.96507        11.67787        -0.86967
| 69>    C      -17.46789        12.61256        -1.25141
| 70>    C      -18.63312        13.39070        -1.28207
| 71>    C      -19.58365        12.91883        -2.15202
| 72>    C      -19.21980        11.73776        -2.83050
| 73>    S      -17.60931        11.25883        -2.33228
| 74>    C      -19.99237        11.05003        -3.74831
| 75>    C      -19.71030         9.83603        -4.38686
| 76>    C      -20.57572         9.22742        -5.34372
| 77>    C      -20.02636         8.01311        -5.74397
| 78>    C      -20.47644         7.03192        -6.63576
| 79>    C      -19.70797         5.89203        -6.77819
| 80>    C      -19.89208         4.72986        -7.55674
| 81>    C      -18.82756         3.84605        -7.31148
| 82>    C      -17.96289         4.44686        -6.37879
| 83>    C      -18.47097         5.71346        -6.03188
| 84>    C      -18.00451         6.68852        -5.16907
| 85>    C      -18.77770         7.84311        -5.01737
| 86>    C      -18.59966         8.96440        -4.21021
| 87>    C      -18.60751         2.54497        -7.89712
| 88>    C      -19.36497         1.98703        -8.83800
| 89>    H      -14.98260         5.58387        -7.31035
| 90>    H      -14.47494         1.50275       -10.16706
| 91>    H      -17.23819         6.10112        -8.88900
| 92>    H      -10.17682         1.56294        -6.55094
| 93>    H      -10.82413         4.10576        -4.95142
| 94>    H       -8.48150         2.11211        -4.77317
| 95>    H       -5.93420         3.07655        -1.99623
| 96>    H       -6.98195         5.99523        -0.40103
| 97>    H      -10.41110         6.89543        -2.33628
| 98>    H       -8.41096         7.48782        -0.07380
| 99>    H      -12.30007        12.52112         1.61823
|100>    H      -14.22987        14.03446         1.76849
|101>    H      -16.60311        14.43576         0.84422
|102>    H      -18.74655        14.27614        -0.68283
|103>    H      -20.53786        13.38916        -2.31349
|104>    H      -20.94519        11.50613        -3.99090
|105>    H      -21.50233         9.64850        -5.68915
|106>    H      -21.39854         7.15998        -7.18423
|107>    H      -20.71760         4.55912        -8.22179
|108>    H      -17.05987         4.00757        -5.99473
|109>    H      -17.08210         6.56148        -4.62067
|110>    H      -17.76733         9.12079        -3.55200
|111>    H      -17.73721         2.01777        -7.52463
|112>    H      -20.23285         2.47953        -9.24251
|113>    H      -19.13736         1.01537        -9.24034
|114> *
|115>
|116>                          ****END OF INPUT****

CARTESIAN COORDINATES (ANGSTROEM)
---------------------------------
  C    -12.481440    1.953800   -8.053200
  C    -12.015340    0.770330   -8.575290
  C    -12.637510    0.074020   -9.630060
  N    -13.097880   -0.543190  -10.482780
  C    -10.871350    0.072320   -8.139870
  N     -9.959090   -0.563880   -7.851230
  C    -13.676420    2.657600   -8.520390
  C    -13.853130    3.816550   -7.729180
  C    -14.879880    4.705560   -7.928370
  C    -15.785600    4.435040   -8.958930
  C    -15.611080    3.269010   -9.737910
  C    -14.565910    2.373170   -9.539500
  S    -16.853950    3.116820  -10.943750
  C    -17.583210    4.595050  -10.381250
  C    -16.927850    5.183620   -9.355020
  Br   -19.171420    5.204190  -11.162570
  C    -12.779350    3.885850   -6.714470
  O    -12.676250    4.745700   -5.861210
  C    -11.913300    2.715660   -6.965890
  C    -10.752170    2.437140   -6.275190
  C    -10.258340    3.230290   -5.233810
  C     -9.099340    2.968950   -4.547750
  C     -8.672280    3.816480   -3.513260
  O     -9.419930    4.900910   -3.193190
  C     -8.831410    5.567950   -2.169600
  C     -7.655780    4.894360   -1.816050
  C     -7.552180    3.781910   -2.667420
  O     -6.578850    2.856190   -2.682580
  O     -6.737240    5.184660   -0.860270
  C     -9.524230    6.716530   -1.744190
  C     -9.262860    7.591860   -0.731820
  C    -10.106180    8.693280   -0.442590
  C     -9.823110    9.548690    0.656340
  C    -10.675010   10.646540    1.029790
  N    -10.359810   11.416150    2.068260
  C     -9.259530   11.161950    2.755190
  C     -8.420050   10.070500    2.394310
  N     -8.711970    9.299500    1.370140
  C     -7.245730    9.796050    3.139660
  N     -6.302180    9.593370    3.757060
  C     -8.931370   11.989030    3.854000
  N     -8.643010   12.642870    4.750680
  C    -11.895100   10.942380    0.323830
  C    -12.138630   10.110560   -0.804220
  C    -11.272350    9.023120   -1.183570
  N    -11.714420    8.414510   -2.281040
  S    -13.066730    9.115490   -2.797010
  N    -13.157860   10.237510   -1.638820
  C    -12.710160   11.973000    0.777490
  C    -13.974860   12.392030    0.369540
  C    -14.672810   13.454720    0.977600
  C    -15.938190   13.669590    0.486550
  C    -16.284270   12.765310   -0.521420
  S    -14.965070   11.677870   -0.869670
  C    -17.467890   12.612560   -1.251410
  C    -18.633120   13.390700   -1.282070
  C    -19.583650   12.918830   -2.152020
  C    -19.219800   11.737760   -2.830500
  S    -17.609310   11.258830   -2.332280
  C    -19.992370   11.050030   -3.748310
  C    -19.710300    9.836030   -4.386860
  C    -20.575720    9.227420   -5.343720
  C    -20.026360    8.013110   -5.743970
  C    -20.476440    7.031920   -6.635760
  C    -19.707970    5.892030   -6.778190
  C    -19.892080    4.729860   -7.556740
  C    -18.827560    3.846050   -7.311480
  C    -17.962890    4.446860   -6.378790
  C    -18.470970    5.713460   -6.031880
  C    -18.004510    6.688520   -5.169070
  C    -18.777700    7.843110   -5.017370
  C    -18.599660    8.964400   -4.210210
  C    -18.607510    2.544970   -7.897120
  C    -19.364970    1.987030   -8.838000
  H    -14.982600    5.583870   -7.310350
  H    -14.474940    1.502750  -10.167060
  H    -17.238190    6.101120   -8.889000
  H    -10.176820    1.562940   -6.550940
  H    -10.824130    4.105760   -4.951420
  H     -8.481500    2.112110   -4.773170
  H     -5.934200    3.076550   -1.996230
  H     -6.981950    5.995230   -0.401030
  H    -10.411100    6.895430   -2.336280
  H     -8.410960    7.487820   -0.073800
  H    -12.300070   12.521120    1.618230
  H    -14.229870   14.034460    1.768490
  H    -16.603110   14.435760    0.844220
  H    -18.746550   14.276140   -0.682830
  H    -20.537860   13.389160   -2.313490
  H    -20.945190   11.506130   -3.990900
  H    -21.502330    9.648500   -5.689150
  H    -21.398540    7.159980   -7.184230
  H    -20.717600    4.559120   -8.221790
  H    -17.059870    4.007570   -5.994730
  H    -17.082100    6.561480   -4.620670
  H    -17.767330    9.120790   -3.552000
  H    -17.737210    2.017770   -7.524630
  H    -20.232850    2.479530   -9.242510
  H    -19.137360    1.015370   -9.240340

 Total Charge           Charge          ....    0
 Multiplicity           Mult            ....    1
 Number of Electrons    NEL             ....  554
 Basis Dimension        Dim             .... 1195

ORBITAL ENERGIES
----------------

  NO   OCC          E(Eh)            E(eV)
   0   2.0000    -482.890329    -13140.1139
   1   2.0000     -89.023341     -2422.4483
   2   2.0000     -88.975043     -2421.1340
   3   2.0000     -88.971164     -2421.0285
   4   2.0000     -88.962481     -2420.7922
   5   2.0000     -62.567789     -1702.5561
   6   2.0000     -56.401679     -1534.7677
   7   2.0000     -56.399078     -1534.6969
   8   2.0000     -56.399041     -1534.6959
   9   2.0000     -19.281169      -524.6673
  10   2.0000     -19.264854      -524.2233
  11   2.0000     -19.263183      -524.1779
  12   2.0000     -19.199990      -522.4583
  13   2.0000     -14.445644      -393.0860
  14   2.0000     -14.444308      -393.0496
  15   2.0000     -14.438946      -392.9037
  16   2.0000     -14.431131      -392.6910
  17   2.0000     -14.416728      -392.2991
  18   2.0000     -14.408659      -392.0795
  19   2.0000     -14.399310      -391.8251
  20   2.0000     -14.399188      -391.8218
  21   2.0000     -10.364052      -282.0202
  22   2.0000     -10.355025      -281.7746
  23   2.0000     -10.353611      -281.7361
  24   2.0000     -10.350643      -281.6553
  25   2.0000     -10.347261      -281.5633
  26   2.0000     -10.343851      -281.4705
  27   2.0000     -10.338620      -281.3282
  28   2.0000     -10.337018      -281.2846
  29   2.0000     -10.335216      -281.2355
  30   2.0000     -10.332974      -281.1745
  31   2.0000     -10.332863      -281.1715
  32   2.0000     -10.332126      -281.1514
  33   2.0000     -10.331619      -281.1376
  34   2.0000     -10.327584      -281.0278
  35   2.0000     -10.326822      -281.0071
  36   2.0000     -10.326673      -281.0030
  37   2.0000     -10.326335      -280.9939
  38   2.0000     -10.324735      -280.9503
  39   2.0000     -10.324462      -280.9429
  40   2.0000     -10.321810      -280.8707
  41   2.0000     -10.319471      -280.8071
  42   2.0000     -10.316437      -280.7245
  43   2.0000     -10.314202      -280.6637
  44   2.0000     -10.314118      -280.6614
  45   2.0000     -10.312631      -280.6210
  46   2.0000     -10.311298      -280.5847
  47   2.0000     -10.310610      -280.5660
  48   2.0000     -10.310390      -280.5600
  49   2.0000     -10.308622      -280.5119
  50   2.0000     -10.305576      -280.4290
  51   2.0000     -10.304499      -280.3997
  52   2.0000     -10.303759      -280.3795
  53   2.0000     -10.303056      -280.3604
  54   2.0000     -10.301383      -280.3149
  55   2.0000     -10.300512      -280.2912
  56   2.0000     -10.300168      -280.2818
  57   2.0000     -10.298681      -280.2414
  58   2.0000     -10.297214      -280.2014
  59   2.0000     -10.295315      -280.1498
  60   2.0000     -10.295232      -280.1475
  61   2.0000     -10.294881      -280.1380
  62   2.0000     -10.294622      -280.1309
  63   2.0000     -10.294255      -280.1209
  64   2.0000     -10.293875      -280.1106
  65   2.0000     -10.293778      -280.1079
  66   2.0000     -10.292778      -280.0807
  67   2.0000     -10.292281      -280.0672
  68   2.0000     -10.291224      -280.0385
  69   2.0000     -10.290594      -280.0213
  70   2.0000     -10.283835      -279.8374
  71   2.0000     -10.282631      -279.8046
  72   2.0000     -10.280034      -279.7340
  73   2.0000     -10.278947      -279.7044
  74   2.0000     -10.274987      -279.5966
  75   2.0000     -10.272815      -279.5375
  76   2.0000     -10.263188      -279.2755
  77   2.0000     -10.258997      -279.1615
  78   2.0000      -8.797133      -239.3822
  79   2.0000      -8.114981      -220.8199
  80   2.0000      -8.070899      -219.6203
  81   2.0000      -8.066664      -219.5051
  82   2.0000      -8.056538      -219.2295
  83   2.0000      -6.633114      -180.4962
  84   2.0000      -6.619091      -180.1146
  85   2.0000      -6.618797      -180.1066
  86   2.0000      -6.086496      -165.6220
  87   2.0000      -6.078749      -165.4112
  88   2.0000      -6.076819      -165.3586
  89   2.0000      -6.040447      -164.3689
  90   2.0000      -6.036429      -164.2596
  91   2.0000      -6.036288      -164.2557
  92   2.0000      -6.032356      -164.1488
  93   2.0000      -6.032154      -164.1432
  94   2.0000      -6.027849      -164.0261
  95   2.0000      -6.026206      -163.9814
  96   2.0000      -6.021624      -163.8567
  97   2.0000      -6.018179      -163.7630
  98   2.0000      -2.749084       -74.8064
  99   2.0000      -2.745146       -74.6992
 100   2.0000      -2.744905       -74.6927
 101   2.0000      -2.733764       -74.3895
 102   2.0000      -2.733742       -74.3889
 103   2.0000      -1.207296       -32.8522
 104   2.0000      -1.163216       -31.6527
 105   2.0000      -1.145952       -31.1829
 106   2.0000      -1.126958       -30.6661
 107   2.0000      -1.114149       -30.3175
 108   2.0000      -1.100140       -29.9363
 109   2.0000      -1.027002       -27.9461
 110   2.0000      -1.019994       -27.7554
 111   2.0000      -1.016344       -27.6561
 112   2.0000      -1.014572       -27.6079
 113   2.0000      -1.000147       -27.2154
 114   2.0000      -0.998154       -27.1611
 115   2.0000      -0.995515       -27.0893
 116   2.0000      -0.989639       -26.9295
 117   2.0000      -0.986284       -26.8381
 118   2.0000      -0.980379       -26.6775
 119   2.0000      -0.978568       -26.6282
 120   2.0000      -0.977129       -26.5890
 121   2.0000      -0.959951       -26.1216
 122   2.0000      -0.936248       -25.4766
 123   2.0000      -0.929983       -25.3061
 124   2.0000      -0.917546       -24.9677
 125   2.0000      -0.907831       -24.7033
 126   2.0000      -0.902039       -24.5457
 127   2.0000      -0.897594       -24.4248
 128   2.0000      -0.894678       -24.3454
 129   2.0000      -0.892321       -24.2813
 130   2.0000      -0.888447       -24.1759
 131   2.0000      -0.884410       -24.0660
 132   2.0000      -0.879124       -23.9222
 133   2.0000      -0.875100       -23.8127
 134   2.0000      -0.867462       -23.6048
 135   2.0000      -0.864310       -23.5191
 136   2.0000      -0.854298       -23.2466
 137   2.0000      -0.839495       -22.8438
 138   2.0000      -0.838460       -22.8157
 139   2.0000      -0.828000       -22.5310
 140   2.0000      -0.823037       -22.3960
 141   2.0000      -0.822040       -22.3689
 142   2.0000      -0.813031       -22.1237
 143   2.0000      -0.799799       -21.7636
 144   2.0000      -0.788000       -21.4426
 145   2.0000      -0.777330       -21.1522
 146   2.0000      -0.774840       -21.0845
 147   2.0000      -0.765900       -20.8412
 148   2.0000      -0.750647       -20.4261
 149   2.0000      -0.744480       -20.2583
 150   2.0000      -0.736780       -20.0488
 151   2.0000      -0.722849       -19.6697
 152   2.0000      -0.718584       -19.5537
 153   2.0000      -0.709722       -19.3125
 154   2.0000      -0.703869       -19.1532
 155   2.0000      -0.697062       -18.9680
 156   2.0000      -0.695381       -18.9223
 157   2.0000      -0.691059       -18.8047
 158   2.0000      -0.687396       -18.7050
 159   2.0000      -0.680813       -18.5259
 160   2.0000      -0.674966       -18.3668
 161   2.0000      -0.672408       -18.2972
 162   2.0000      -0.668987       -18.2041
 163   2.0000      -0.663749       -18.0615
 164   2.0000      -0.654621       -17.8132
 165   2.0000      -0.654048       -17.7976
 166   2.0000      -0.648249       -17.6398
 167   2.0000      -0.647007       -17.6059
 168   2.0000      -0.642587       -17.4857
 169   2.0000      -0.639219       -17.3940
 170   2.0000      -0.630651       -17.1609
 171   2.0000      -0.627721       -17.0812
 172   2.0000      -0.617274       -16.7969
 173   2.0000      -0.615223       -16.7411
 174   2.0000      -0.612703       -16.6725
 175   2.0000      -0.608816       -16.5667
 176   2.0000      -0.607184       -16.5223
 177   2.0000      -0.601359       -16.3638
 178   2.0000      -0.598187       -16.2775
 179   2.0000      -0.589122       -16.0308
 180   2.0000      -0.585653       -15.9364
 181   2.0000      -0.582146       -15.8410
 182   2.0000      -0.577233       -15.7073
 183   2.0000      -0.567019       -15.4294
 184   2.0000      -0.565579       -15.3902
 185   2.0000      -0.562154       -15.2970
 186   2.0000      -0.557955       -15.1827
 187   2.0000      -0.555245       -15.1090
 188   2.0000      -0.554105       -15.0780
 189   2.0000      -0.548666       -14.9300
 190   2.0000      -0.542602       -14.7650
 191   2.0000      -0.542106       -14.7514
 192   2.0000      -0.538738       -14.6598
 193   2.0000      -0.533453       -14.5160
 194   2.0000      -0.531623       -14.4662
 195   2.0000      -0.531092       -14.4518
 196   2.0000      -0.527545       -14.3552
 197   2.0000      -0.524962       -14.2849
 198   2.0000      -0.522671       -14.2226
 199   2.0000      -0.517938       -14.0938
 200   2.0000      -0.516736       -14.0611
 201   2.0000      -0.514802       -14.0085
 202   2.0000      -0.512172       -13.9369
 203   2.0000      -0.506141       -13.7728
 204   2.0000      -0.504961       -13.7407
 205   2.0000      -0.502300       -13.6683
 206   2.0000      -0.501777       -13.6540
 207   2.0000      -0.500180       -13.6106
 208   2.0000      -0.496679       -13.5153
 209   2.0000      -0.492274       -13.3955
 210   2.0000      -0.490469       -13.3463
 211   2.0000      -0.489733       -13.3263
 212   2.0000      -0.488627       -13.2962
 213   2.0000      -0.485465       -13.2102
 214   2.0000      -0.484074       -13.1723
 215   2.0000      -0.481984       -13.1154
 216   2.0000      -0.481161       -13.0931
 217   2.0000      -0.479600       -13.0506
 218   2.0000      -0.477091       -12.9823
 219   2.0000      -0.475203       -12.9309
 220   2.0000      -0.472052       -12.8452
 221   2.0000      -0.470119       -12.7926
 222   2.0000      -0.467756       -12.7283
 223   2.0000      -0.466112       -12.6835
 224   2.0000      -0.465111       -12.6563
 225   2.0000      -0.463892       -12.6231
 226   2.0000      -0.460182       -12.5222
 227   2.0000      -0.457531       -12.4501
 228   2.0000      -0.452204       -12.3051
 229   2.0000      -0.447700       -12.1825
 230   2.0000      -0.445551       -12.1241
 231   2.0000      -0.443394       -12.0654
 232   2.0000      -0.443130       -12.0582
 233   2.0000      -0.440213       -11.9788
 234   2.0000      -0.438321       -11.9273
 235   2.0000      -0.436433       -11.8760
 236   2.0000      -0.434779       -11.8309
 237   2.0000      -0.434170       -11.8144
 238   2.0000      -0.432796       -11.7770
 239   2.0000      -0.429712       -11.6931
 240   2.0000      -0.428996       -11.6736
 241   2.0000      -0.426221       -11.5981
 242   2.0000      -0.425254       -11.5718
 243   2.0000      -0.420953       -11.4547
 244   2.0000      -0.419407       -11.4126
 245   2.0000      -0.416692       -11.3388
 246   2.0000      -0.411855       -11.2072
 247   2.0000      -0.409249       -11.1362
 248   2.0000      -0.409166       -11.1340
 249   2.0000      -0.401113       -10.9148
 250   2.0000      -0.400017       -10.8850
 251   2.0000      -0.395551       -10.7635
 252   2.0000      -0.392698       -10.6858
 253   2.0000      -0.392621       -10.6838
 254   2.0000      -0.391216       -10.6455
 255   2.0000      -0.384890       -10.4734
 256   2.0000      -0.378917       -10.3109
 257   2.0000      -0.378223       -10.2920
 258   2.0000      -0.373493       -10.1633
 259   2.0000      -0.363551        -9.8927
 260   2.0000      -0.356783        -9.7086
 261   2.0000      -0.354021        -9.6334
 262   2.0000      -0.347263        -9.4495
 263   2.0000      -0.342337        -9.3155
 264   2.0000      -0.336472        -9.1559
 265   2.0000      -0.334329        -9.0975
 266   2.0000      -0.331722        -9.0266
 267   2.0000      -0.320129        -8.7111
 268   2.0000      -0.319252        -8.6873
 269   2.0000      -0.311346        -8.4722
 270   2.0000      -0.304095        -8.2748
 271   2.0000      -0.296550        -8.0695
 272   2.0000      -0.292272        -7.9531
 273   2.0000      -0.283160        -7.7052
 274   2.0000      -0.265947        -7.2368
 275   2.0000      -0.243408        -6.6235
 276   2.0000      -0.203539        -5.5386
 277   0.0000      -0.129160        -3.5146
 278   0.0000      -0.124603        -3.3906
 279   0.0000      -0.082577        -2.2470
 280   0.0000      -0.073339        -1.9957
 281   0.0000      -0.050919        -1.3856

MULLIKEN ATOMIC CHARGES
-----------------------
   0 C :    0.327453
   1 C :   -0.371468
   2 C :   -0.184018
   3 N :    0.132694
   4 C :   -0.191367
   5 N :    0.139138
   6 C :    0.022026
   7 C :   -0.006346
   8 C :   -0.103317
   9 C :    0.102273
  10 C :   -0.090881
  11 C :   -0.034584
  12 S :    0.183218
  13 C :   -0.143517
  14 C :    0.085671
  15 Br:    0.004001
  16 C :    0.132269
  17 O :   -0.165729
  18 C :   -0.094311
  19 C :   -0.013286
  20 C :   -0.020864
  21 C :    0.000130
  22 C :    0.074879
  23 O :   -0.203331
  24 C :    0.155948
  25 C :    0.041513
  26 C :    0.109678
  27 O :   -0.157376
  28 O :   -0.199106
  29 C :   -0.015678
  30 C :   -0.070841
  31 C :    0.022708
  32 C :   -0.036751
  33 C :   -0.063238
  34 N :    0.049082
  35 C :   -0.150747
  36 C :   -0.124057
  37 N :    0.022380
  38 C :   -0.223124
  39 N :    0.230077
  40 C :   -0.223901
  41 N :    0.219018
  42 C :    0.114656
  43 C :    0.050852
  44 C :    0.030745
  45 N :   -0.304642
  46 S :    0.506231
  47 N :   -0.340201
  48 C :   -0.122044
  49 C :    0.019705
  50 C :    0.012318
  51 C :    0.045500
  52 C :   -0.041263
  53 S :    0.133201
  54 C :   -0.007912
  55 C :    0.014439
  56 C :    0.055725
  57 C :   -0.051367
  58 S :    0.074196
  59 C :    0.035334
  60 C :    0.028911
  61 C :   -0.013713
  62 C :    0.051485
  63 C :    0.020587
  64 C :    0.039659
  65 C :    0.004105
  66 C :    0.060164
  67 C :   -0.003050
  68 C :    0.038010
  69 C :    0.018799
  70 C :    0.033078
  71 C :   -0.013664
  72 C :    0.001756
  73 C :   -0.003185
  74 H :   -0.027576
  75 H :   -0.009409
  76 H :   -0.009039
  77 H :    0.003358
  78 H :    0.034044
  79 H :    0.018235
  80 H :    0.200111
  81 H :    0.199167
  82 H :    0.024317
  83 H :   -0.052676
  84 H :    0.004505
  85 H :   -0.002706
  86 H :   -0.012661
  87 H :   -0.006104
  88 H :   -0.002311
  89 H :   -0.008164
  90 H :   -0.015896
  91 H :   -0.014002
  92 H :   -0.012583
  93 H :    0.002952
  94 H :   -0.004693
  95 H :    0.000030
  96 H :   -0.006027
  97 H :    0.012105
  98 H :    0.030287
Sum of atomic charges:   -0.0000000

LOEWDIN ATOMIC CHARGES
----------------------
   0 C :    0.072917
   1 C :   -0.157611
   2 C :   -0.018605
   3 N :   -0.071967
   4 C :   -0.020885
   5 N :   -0.064128
   6 C :   -0.016216
   7 C :   -0.047929
   8 C :    0.006463
   9 C :   -0.041065
  10 C :   -0.146432
  11 C :   -0.014822
  12 S :    0.435295
  13 C :   -0.277211
  14 C :   -0.065332
  15 Br:    0.130359
  16 C :    0.078684
  17 O :   -0.159759
  18 C :   -0.121592
  19 C :    0.065424
  20 C :   -0.053312
  21 C :    0.030314
  22 C :   -0.013381
  23 O :    0.015532
  24 C :    0.026061
  25 C :   -0.029824
  26 C :    0.022308
  27 O :   -0.030733
  28 O :   -0.057039
  29 C :   -0.062303
  30 C :   -0.011351
  31 C :   -0.090023
  32 C :    0.007613
  33 C :   -0.013492
  34 N :   -0.004107
  35 C :   -0.060208
  36 C :   -0.024952
  37 N :   -0.028455
  38 C :   -0.033664
  39 N :   -0.016775
  40 C :   -0.040010
  41 N :   -0.029950
  42 C :   -0.028409
  43 C :   -0.040343
  44 C :   -0.025396
  45 N :   -0.287593
  46 S :    0.618354
  47 N :   -0.292303
  48 C :   -0.035688
  49 C :   -0.129103
  50 C :   -0.043260
  51 C :   -0.021125
  52 C :   -0.218099
  53 S :    0.468677
  54 C :   -0.134259
  55 C :   -0.055216
  56 C :    0.000184
  57 C :   -0.180297
  58 S :    0.417988
  59 C :    0.013302
  60 C :   -0.086414
  61 C :    0.052028
  62 C :   -0.074500
  63 C :    0.097329
  64 C :   -0.069573
  65 C :    0.067493
  66 C :   -0.055642
  67 C :    0.066891
  68 C :   -0.073275
  69 C :    0.095253
  70 C :   -0.068509
  71 C :    0.034015
  72 C :   -0.030915
  73 C :   -0.034034
  74 H :    0.033293
  75 H :    0.040161
  76 H :    0.035672
  77 H :    0.039422
  78 H :    0.032721
  79 H :    0.045713
  80 H :    0.108916
  81 H :    0.100808
  82 H :    0.038435
  83 H :    0.015450
  84 H :    0.042140
  85 H :    0.035997
  86 H :    0.031868
  87 H :    0.035710
  88 H :    0.037576
  89 H :    0.041486
  90 H :    0.028867
  91 H :    0.039968
  92 H :    0.028320
  93 H :    0.034381
  94 H :    0.043029
  95 H :    0.015497
  96 H :    0.032714
  97 H :    0.017820
  98 H :    0.028639

  Mayer bond orders larger than 0.100000
B(  0-C ,  1-C ) :   1.5896 B(  0-C ,  6-C ) :   0.9834 B(  0-C , 18-C ) :   1.1144
B(  1-C ,  2-C ) :   1.1484 B(  1-C ,  4-C ) :   1.1531 B(  2-C ,  3-N ) :   2.9591
B(  4-C ,  5-N ) :   2.9606 B(  6-C ,  7-C ) :   1.2846 B(  6-C , 11-C ) :   1.4153
B(  7-C ,  8-C ) :   1.4201 B(  7-C , 16-C ) :   0.9350 B(  8-C ,  9-C ) :   1.2274
B(  8-C , 74-H ) :   1.0192 B(  9-C , 10-C ) :   1.3236 B(  9-C , 14-C ) :   1.1641
B( 10-C , 11-C ) :   1.3152 B( 10-C , 12-S ) :   1.0845 B( 11-C , 75-H ) :   0.9802
B( 12-S , 13-C ) :   1.0873 B( 13-C , 14-C ) :   1.6094 B( 13-C , 15-Br) :   1.0097
B( 14-C , 76-H ) :   0.9987 B( 16-C , 17-O ) :   2.1820 B( 16-C , 18-C ) :   0.9745
B( 18-C , 19-C ) :   1.4231 B( 19-C , 20-C ) :   1.2489 B( 19-C , 77-H ) :   0.9621
B( 20-C , 21-C ) :   1.4117 B( 20-C , 78-H ) :   0.9838 B( 21-C , 22-C ) :   1.2556
B( 21-C , 79-H ) :   0.9841 B( 22-C , 23-O ) :   1.1031 B( 22-C , 24-C ) :   0.1031
B( 22-C , 26-C ) :   1.2809 B( 23-O , 24-C ) :   1.1399 B( 24-C , 25-C ) :   1.2716
B( 24-C , 29-C ) :   1.1741 B( 25-C , 26-C ) :   1.2727 B( 25-C , 28-O ) :   1.2292
B( 26-C , 27-O ) :   1.3049 B( 27-O , 80-H ) :   0.9483 B( 28-O , 81-H ) :   0.9601
B( 29-C , 30-C ) :   1.5135 B( 29-C , 82-H ) :   0.9193 B( 30-C , 31-C ) :   1.2828
B( 30-C , 83-H ) :   0.9398 B( 31-C , 32-C ) :   1.2136 B( 31-C , 44-C ) :   1.1466
B( 32-C , 33-C ) :   1.1295 B( 32-C , 37-N ) :   1.4439 B( 33-C , 34-N ) :   1.5535
B( 33-C , 42-C ) :   1.1094 B( 34-N , 35-C ) :   1.6378 B( 35-C , 36-C ) :   1.2649
B( 35-C , 40-C ) :   1.1633 B( 36-C , 37-N ) :   1.7038 B( 36-C , 38-C ) :   1.1528
B( 38-C , 39-N ) :   3.0541 B( 40-C , 41-N ) :   3.0425 B( 42-C , 43-C ) :   1.1069
B( 42-C , 48-C ) :   1.4335 B( 43-C , 44-C ) :   1.1227 B( 43-C , 47-N ) :   1.5025
B( 44-C , 45-N ) :   1.5261 B( 45-N , 46-S ) :   1.2158 B( 45-N , 47-N ) :   0.1230
B( 46-S , 47-N ) :   1.2182 B( 48-C , 49-C ) :   1.2943 B( 48-C , 84-H ) :   0.9447
B( 49-C , 50-C ) :   1.2563 B( 49-C , 53-S ) :   1.1160 B( 50-C , 51-C ) :   1.4610
B( 50-C , 85-H ) :   1.0027 B( 51-C , 52-C ) :   1.2862 B( 51-C , 86-H ) :   0.9959
B( 52-C , 53-S ) :   1.0341 B( 52-C , 54-C ) :   1.3405 B( 54-C , 55-C ) :   1.2707
B( 54-C , 58-S ) :   1.1100 B( 55-C , 56-C ) :   1.4955 B( 55-C , 87-H ) :   0.9973
B( 56-C , 57-C ) :   1.2086 B( 56-C , 88-H ) :   0.9991 B( 57-C , 58-S ) :   1.0301
B( 57-C , 59-C ) :   1.4716 B( 59-C , 60-C ) :   1.2093 B( 59-C , 89-H ) :   0.9712
B( 60-C , 61-C ) :   1.2267 B( 60-C , 71-C ) :   1.2375 B( 61-C , 62-C ) :   1.3116
B( 61-C , 90-H ) :   1.0172 B( 62-C , 63-C ) :   1.2098 B( 62-C , 70-C ) :   1.1460
B( 63-C , 64-C ) :   1.3345 B( 63-C , 91-H ) :   1.0056 B( 64-C , 65-C ) :   1.2112
B( 64-C , 68-C ) :   1.1209 B( 65-C , 66-C ) :   1.3272 B( 65-C , 92-H ) :   1.0117
B( 66-C , 67-C ) :   1.3102 B( 66-C , 72-C ) :   1.0806 B( 67-C , 68-C ) :   1.2010
B( 67-C , 93-H ) :   1.0160 B( 68-C , 69-C ) :   1.3259 B( 69-C , 70-C ) :   1.2179
B( 69-C , 94-H ) :   1.0071 B( 70-C , 71-C ) :   1.3340 B( 71-C , 95-H ) :   0.9897
B( 72-C , 73-C ) :   1.9391 B( 72-C , 96-H ) :   0.9652 B( 73-C , 97-H ) :   0.9537
B( 73-C , 98-H ) :   0.9461

-----------------------------------------------------------------------------
         ABSORPTION SPECTRUM VIA TRANSITION ELECTRIC DIPOLE MOMENTS
-----------------------------------------------------------------------------
State   Energy  Wavelength   fosc         T2         TX        TY        TZ
        (cm-1)    (nm)                  (au**2)     (au)      (au)      (au)
-----------------------------------------------------------------------------
   0    3072.8   3254.3   0.011602218   1.24301   1.07057  -0.22923   0.21057
   1    4199.0   2381.5   0.169900797  13.32065  -3.40026   1.26888  -0.38579
   2    9076.1   1101.8   0.003773085   0.13686  -0.29029  -0.04812  -0.22422
   3   12640.3    791.1   0.007964842   0.20744   0.33561  -0.00327  -0.30789
   4   13698.3    730.0   0.658279835  15.82044   1.30143   2.31452   2.96137
   5   14789.0    676.2   1.416325298  31.52832  -2.45296  -3.23387  -3.87987
   6   15392.5    649.7   0.092734167   1.98338   0.75130   0.69424   0.96797
   7   18147.8    551.0   0.129633306   2.35163   0.42167  -1.39547  -0.47590
   8   18566.2    538.6   0.007159600   0.12695  -0.24595   0.24363   0.08429
   9   20244.6    494.0   0.023146226   0.37640  -0.06292  -0.39191  -0.46781
  10   20868.1    479.2   0.053761800   0.84814  -0.14114   0.83723   0.35674
  11   21587.7    463.2   0.056064473   0.85498   0.51344   0.54712   0.54040
  12   21944.0    455.7   0.092292064   1.38460   0.67739  -0.94146  -0.19849
  13   22199.2    450.5   0.381426682   5.65653  -1.70089  -0.48383  -1.59041
  14   22442.1    445.6   0.089813140   1.31750   0.07955  -0.83763  -0.78073
  15   22513.9    444.2   0.036194664   0.52926  -0.22332  -0.37412  -0.58261
  16   23385.4    427.6   0.138719779   1.95285   0.50409  -1.20614  -0.49393
  17   23784.2    420.4   0.230430249   3.18953   0.69945  -1.54936  -0.54753
  18   24418.9    409.5   0.027020690   0.36429  -0.04603  -0.46072  -0.38718
  19   25204.1    396.8   1.010335397  13.19685   1.52623  -3.09311  -1.14025
  20   25422.2    393.4   0.047076996   0.60964   0.03796   0.65866   0.41757
  21   26242.1    381.1   0.157932769   1.98129  -0.89153   1.05962   0.25232
  22   26828.5    372.7   0.000082179   0.00101  -0.02426  -0.00963   0.01809
  23   26926.8    371.4   0.014969136   0.18302   0.32867  -0.17782   0.20826
  24   27322.1    366.0   0.121631281   1.46557  -0.96739  -0.11588  -0.71855
  25   27502.7    363.6   0.052309742   0.62616  -0.06557   0.62883   0.47585
  26   27859.9    358.9   0.099038613   1.17031  -0.34471   0.90971   0.47320
  27   28050.3    356.5   0.000684697   0.00804   0.07615  -0.03225   0.03461
  28   28123.2    355.6   0.012446299   0.14570   0.15864  -0.28889  -0.19254
  29   28716.1    348.2   0.003295202   0.03778   0.07834  -0.14748   0.09944
  30   28871.7    346.4   0.058382232   0.66571   0.49659  -0.62735   0.15980
  31   29116.9    343.4   0.359000104   4.05906   1.10179  -1.62241  -0.46140
  32   29407.8    340.0   0.013765916   0.15411   0.25928  -0.23791   0.17400
  33   29498.8    339.0   0.007603710   0.08486  -0.16751  -0.20743  -0.11735
  34   29759.6    336.0   0.154507888   1.70922   1.07172  -0.34708   0.66345
  35   30409.6    328.8   0.004740114   0.05132  -0.13221   0.09538  -0.15729
  36   31002.0    322.6   0.058422679   0.62039   0.09459   0.57688   0.52788
  37   31186.8    320.6   0.002105836   0.02223   0.10710   0.01109   0.10313
  38   31254.4    320.0   0.016376841   0.17250   0.14707   0.16027   0.35381
  39   31280.5    319.7   0.419981835   4.42010  -1.72596   0.52107  -1.08150
  40   31476.3    317.7   0.114839163   1.20111   0.53660   0.40945   0.86344
  41   31838.8    314.1   0.001421487   0.01470  -0.09291   0.07771   0.00520
  42   31981.9    312.7   0.021632941   0.22268   0.11036  -0.43557  -0.14416
  43   32101.6    311.5   0.004066277   0.04170   0.15445  -0.13318   0.01049
  44   32268.5    309.9   0.105615019   1.07751  -0.84763   0.58811  -0.11476
  45   32592.6    306.8   0.075444674   0.76205  -0.71314   0.38060  -0.32959
  46   32764.2    305.2   0.100037846   1.00517   0.83172  -0.37282   0.41763
  47   33049.6    302.6   0.254316677   2.53328  -0.43810  -0.99991  -1.15825
  48   33217.4    301.0   0.176099414   1.74529   0.37033  -1.05060  -0.71020
  49   33582.6    297.8   0.010658417   0.10449   0.10886   0.18835   0.23908
  50   33630.6    297.3   0.089897267   0.88001   0.83907  -0.25260   0.33491
  51   34082.1    293.4   0.301462456   2.91194   1.23305  -1.16895   0.15835
  52   34443.8    290.3   0.024287043   0.23213   0.41948  -0.23627  -0.01861
  53   34679.7    288.4   0.015118578   0.14352   0.26301  -0.18450   0.20076
  54   34756.2    287.7   0.006497601   0.06155   0.08142  -0.17857  -0.15175
  55   34937.4    286.2   0.039037702   0.36785   0.43740  -0.06000   0.41585
  56   35271.1    283.5   0.049441805   0.46148  -0.51917   0.43512  -0.05116
  57   35415.0    282.4   0.001257514   0.01169   0.02453  -0.02791  -0.10153
  58   35453.6    282.1   0.006538494   0.06071   0.04615  -0.19873  -0.13817
  59   35561.2    281.2   0.008773007   0.08122  -0.06514  -0.27744   0.00047
  60   35831.3    279.1   0.011114599   0.10212  -0.28303  -0.09808  -0.11132
  61   35984.0    277.9   0.007686404   0.07032   0.18685   0.15867   0.10115
  62   36126.1    276.8   0.001549913   0.01412  -0.04030  -0.11177   0.00295
  63   36280.0    275.6   0.100947988   0.91602  -0.26512   0.82212   0.41212
  64   36905.3    271.0   0.031271558   0.27896  -0.37552   0.37058  -0.02477
  65   37062.3    269.8   0.019281044   0.17127  -0.00076  -0.40750  -0.07216
  66   37220.6    268.7   0.033649369   0.29762  -0.28167  -0.23162  -0.40575
  67   37343.4    267.8   0.008892069   0.07839  -0.14514   0.23286   0.05567
  68   37713.7    265.2   0.154036779   1.34462  -0.55943   1.00425   0.15213
  69   37912.6    263.8   0.025401118   0.22057   0.11762   0.23574   0.38879
  70   38148.5    262.1   0.119420115   1.03057   0.35939  -0.86183  -0.39832
  71   38193.3    261.8   0.023486867   0.20245   0.16168  -0.40372  -0.11542
  72   38250.2    261.4   0.012991904   0.11182   0.09903   0.19369   0.25397
  73   38291.7    261.2   0.152371221   1.31001  -0.47783  -0.57265  -0.86820
  74   38467.8    260.0   0.015189002   0.12999  -0.12147  -0.24255  -0.23749
  75   38622.4    258.9   0.058709279   0.50043   0.52754   0.06834   0.46633
  76   38992.6    256.5   0.028210063   0.23818  -0.34079   0.16295  -0.30900
  77   39170.7    255.3   0.004219353   0.03546   0.16627   0.03363   0.08176
  78   39267.2    254.7   0.011791052   0.09885  -0.21496   0.19363  -0.12309
  79   39389.0    253.9   0.009490133   0.07932  -0.08506  -0.15991  -0.21567
  80   39631.1    252.3   0.046464958   0.38598   0.04638   0.50395   0.36037
  81   39708.7    251.8   0.017000419   0.14094   0.16484   0.29568   0.16231
  82   39867.1    250.8   0.044921672   0.37095  -0.26794  -0.36411  -0.40815
  83   40168.5    249.0   0.020472167   0.16779  -0.11767   0.29427   0.25951
  84   40297.7    248.2   0.014070043   0.11495  -0.08636   0.29775   0.13723

FINAL SINGLE POINT ENERGY     -7088.338754255979

DIPOLE MOMENT
-------------
                                X             Y             Z
Electronic contribution:    -25.34246     -10.22530     -61.33847
Nuclear contribution   :     18.18626      13.41693      60.12818
                        -----------------------------------------
Total Dipole Moment    :     -7.15620       3.19163      -1.21029
                        -----------------------------------------
Magnitude (a.u.)       :      7.92859
Magnitude (Debye)      :     20.15287

Rotational constants in cm-1:     0.000832     0.000458     0.000302
Rotational constants in MHz :    24.944097    13.719876     9.063770

                             ****ORCA TERMINATED NORMALLY****
TOTAL RUN TIME: 0 days 0 hours 16 minutes 16 seconds 375 msec
