                         Program Version 4.2.0 -  RELEASE  -
|  1> # ORCA input file
|  2> # SCF done       -166.877142930483          0.000353482655
|  3> ! CAM-B3LYP def2-SVP def2/J RIJCOSX Grid4 TightSCF
|  4> %maxcore 5000
|  5> %tddft
|  6>     Mode sTDDFT
|  7>     Ethresh 5.0
|  8>     maxcore 5000
|  9> end
| 10>
| 11> %pal
| 12>   nprocs 6
| 13>   end
| 14> * xyz 0 1
| 15>    C       -1.59944         0.38527         3.27207
| 16>    C       -0.66981         1.29007         3.72087
| 17>    C        0.66820         0.96741         4.01796
| 18>    N        1.77051         0.77525         4.27971
| 19>    C       -0.91886         2.65073         3.99679
| 20>    N       -1.03480         3.75791         4.28031
| 21>    C       -1.37389        -1.04991         3.14001
| 22>    C       -2.61344        -1.67433         2.86058
| 23>    C       -2.75266        -3.03775         2.77947
| 24>    C       -1.60559        -3.82217         2.94522
| 25>    C       -0.35704        -3.18621         3.13582
| 26>    C       -0.22202        -1.80693         3.25088
| 27>    S        0.94031        -4.34065         3.21992
| 28>    C       -0.20347        -5.64197         3.03561
| 29>    C       -1.48786        -5.23809         2.90646
| 30>   Br        0.41465        -7.40922         2.99376
| 31>    C       -3.63754        -0.63375         2.64188
| 32>    O       -4.75348        -0.81969         2.19424
| 33>    C       -2.98353         0.65119         2.93933
| 34>    C       -3.51836         1.90277         2.76140
| 35>    C       -4.83938         2.27788         2.44608
| 36>    S       -5.03117         3.74948         1.50802
| 37>    C       -6.70637         3.44897         1.31930
| 38>    C       -7.13164         2.32523         1.96175
| 39>    C       -8.54493         1.84938         1.97820
| 40>    C       -6.07676         1.66542         2.65089
| 41>    C       -6.28798         0.54751         3.52831
| 42>    C       -5.71980         0.42811         4.74815
| 43>    C       -5.80814        -0.74303         5.55693
| 44>    C       -5.86873        -1.98157         5.00863
| 45>    C       -5.85374        -3.19374         5.73328
| 46>    S       -5.34634        -4.66923         4.94854
| 47>    C       -5.49890        -5.63452         6.39180
| 48>    C       -5.97645        -4.83282         7.43131
| 49>    C       -6.13779        -3.47158         7.05765
| 50>    S       -6.68423        -2.55613         8.42160
| 51>    C       -6.64379        -4.05430         9.34645
| 52>    N       -6.27031        -5.10649         8.72843
| 53>    C       -5.01820        -6.94819         6.42327
| 54>    C       -5.23030        -7.86316         7.42349
| 55>    C       -4.45240        -9.02231         7.56808
| 56>    C       -3.13398        -9.11237         7.17134
| 57>    C       -2.25737       -10.21203         7.32387
| 58>    C       -0.94679        -9.93136         7.06061
| 59>    C       -0.71831        -8.58668         6.70526
| 60>    S       -2.22762        -7.71512         6.61085
| 61>    C        0.47312        -7.91153         6.50424
| 62>    C        1.78404        -8.41148         6.37914
| 63>    C        2.72585        -7.43984         6.22011
| 64>    C        2.21088        -6.11688         6.23432
| 65>    S        0.46861        -6.16282         6.41639
| 66>    C        2.96659        -4.97417         6.17565
| 67>    C        2.53276        -3.63650         6.26406
| 68>    S        3.74500        -2.36301         6.39086
| 69>    C        2.60162        -1.09295         6.52252
| 70>    C        1.32566        -1.59932         6.45947
| 71>    C        1.29115        -3.02454         6.31053
| 72>    O        0.01209        -3.45525         6.20309
| 73>    C       -0.75875        -2.33692         6.28295
| 74>    N       -2.14512        -2.47724         6.13264
| 75>    O       -2.80315        -1.44500         6.13350
| 76>    O       -2.61051        -3.59322         5.99131
| 77>    C       -0.03074        -1.18545         6.44989
| 78>    H       -3.71294        -3.49284         2.59635
| 79>    H        0.74929        -1.36709         3.40869
| 80>    H       -2.32224        -5.90489         2.79134
| 81>    H       -2.81962         2.73263         2.75971
| 82>    H       -7.29876         4.13028         0.73934
| 83>    H       -9.18032         2.51825         1.40387
| 84>    H       -8.91526         1.80041         3.00122
| 85>    H       -8.60705         0.85012         1.54897
| 86>    H       -7.00689        -0.18819         3.19756
| 87>    H       -5.14529         1.25385         5.14913
| 88>    H       -5.70356        -0.63131         6.62689
| 89>    H       -5.82550        -2.07712         3.93238
| 90>    H       -6.92558        -4.04262        10.38096
| 91>    H       -4.43485        -7.24538         5.56182
| 92>    H       -6.01829        -7.67901         8.14046
| 93>    H       -4.85769        -9.85766         8.12339
| 94>    H       -2.61736       -11.17335         7.64676
| 95>    H       -0.14233       -10.63752         7.16357
| 96>    H        1.99355        -9.46587         6.39338
| 97>    H        3.77878        -7.62494         6.10316
| 98>    H        4.03740        -5.10593         6.09807
| 99>    H        2.92226        -0.07586         6.59699
|100>    H       -0.42768        -0.19630         6.54391
|101> *
|102>
|103>                          ****END OF INPUT****

CARTESIAN COORDINATES (ANGSTROEM)
---------------------------------
  C     -1.599440    0.385270    3.272070
  C     -0.669810    1.290070    3.720870
  C      0.668200    0.967410    4.017960
  N      1.770510    0.775250    4.279710
  C     -0.918860    2.650730    3.996790
  N     -1.034800    3.757910    4.280310
  C     -1.373890   -1.049910    3.140010
  C     -2.613440   -1.674330    2.860580
  C     -2.752660   -3.037750    2.779470
  C     -1.605590   -3.822170    2.945220
  C     -0.357040   -3.186210    3.135820
  C     -0.222020   -1.806930    3.250880
  S      0.940310   -4.340650    3.219920
  C     -0.203470   -5.641970    3.035610
  C     -1.487860   -5.238090    2.906460
  Br     0.414650   -7.409220    2.993760
  C     -3.637540   -0.633750    2.641880
  O     -4.753480   -0.819690    2.194240
  C     -2.983530    0.651190    2.939330
  C     -3.518360    1.902770    2.761400
  C     -4.839380    2.277880    2.446080
  S     -5.031170    3.749480    1.508020
  C     -6.706370    3.448970    1.319300
  C     -7.131640    2.325230    1.961750
  C     -8.544930    1.849380    1.978200
  C     -6.076760    1.665420    2.650890
  C     -6.287980    0.547510    3.528310
  C     -5.719800    0.428110    4.748150
  C     -5.808140   -0.743030    5.556930
  C     -5.868730   -1.981570    5.008630
  C     -5.853740   -3.193740    5.733280
  S     -5.346340   -4.669230    4.948540
  C     -5.498900   -5.634520    6.391800
  C     -5.976450   -4.832820    7.431310
  C     -6.137790   -3.471580    7.057650
  S     -6.684230   -2.556130    8.421600
  C     -6.643790   -4.054300    9.346450
  N     -6.270310   -5.106490    8.728430
  C     -5.018200   -6.948190    6.423270
  C     -5.230300   -7.863160    7.423490
  C     -4.452400   -9.022310    7.568080
  C     -3.133980   -9.112370    7.171340
  C     -2.257370  -10.212030    7.323870
  C     -0.946790   -9.931360    7.060610
  C     -0.718310   -8.586680    6.705260
  S     -2.227620   -7.715120    6.610850
  C      0.473120   -7.911530    6.504240
  C      1.784040   -8.411480    6.379140
  C      2.725850   -7.439840    6.220110
  C      2.210880   -6.116880    6.234320
  S      0.468610   -6.162820    6.416390
  C      2.966590   -4.974170    6.175650
  C      2.532760   -3.636500    6.264060
  S      3.745000   -2.363010    6.390860
  C      2.601620   -1.092950    6.522520
  C      1.325660   -1.599320    6.459470
  C      1.291150   -3.024540    6.310530
  O      0.012090   -3.455250    6.203090
  C     -0.758750   -2.336920    6.282950
  N     -2.145120   -2.477240    6.132640
  O     -2.803150   -1.445000    6.133500
  O     -2.610510   -3.593220    5.991310
  C     -0.030740   -1.185450    6.449890
  H     -3.712940   -3.492840    2.596350
  H      0.749290   -1.367090    3.408690
  H     -2.322240   -5.904890    2.791340
  H     -2.819620    2.732630    2.759710
  H     -7.298760    4.130280    0.739340
  H     -9.180320    2.518250    1.403870
  H     -8.915260    1.800410    3.001220
  H     -8.607050    0.850120    1.548970
  H     -7.006890   -0.188190    3.197560
  H     -5.145290    1.253850    5.149130
  H     -5.703560   -0.631310    6.626890
  H     -5.825500   -2.077120    3.932380
  H     -6.925580   -4.042620   10.380960
  H     -4.434850   -7.245380    5.561820
  H     -6.018290   -7.679010    8.140460
  H     -4.857690   -9.857660    8.123390
  H     -2.617360  -11.173350    7.646760
  H     -0.142330  -10.637520    7.163570
  H      1.993550   -9.465870    6.393380
  H      3.778780   -7.624940    6.103160
  H      4.037400   -5.105930    6.098070
  H      2.922260   -0.075860    6.596990
  H     -0.427680   -0.196300    6.543910

 Total Charge           Charge          ....    0
 Multiplicity           Mult            ....    1
 Number of Electrons    NEL             ....  512
 Basis Dimension        Dim             .... 1043

ORBITAL ENERGIES
----------------

  NO   OCC          E(Eh)            E(eV)
   0   2.0000    -482.874182    -13139.6745
   1   2.0000     -88.969268     -2420.9769
   2   2.0000     -88.964418     -2420.8449
   3   2.0000     -88.956781     -2420.6371
   4   2.0000     -88.953238     -2420.5407
   5   2.0000     -88.951352     -2420.4894
   6   2.0000     -88.935027     -2420.0451
   7   2.0000     -88.934328     -2420.0261
   8   2.0000     -62.551587     -1702.1152
   9   2.0000     -56.385519     -1534.3280
  10   2.0000     -56.382894     -1534.2565
  11   2.0000     -56.382779     -1534.2534
  12   2.0000     -19.304307      -525.2969
  13   2.0000     -19.246809      -523.7323
  14   2.0000     -19.243598      -523.6449
  15   2.0000     -19.207321      -522.6578
  16   2.0000     -14.655156      -398.7871
  17   2.0000     -14.413544      -392.2125
  18   2.0000     -14.409244      -392.0955
  19   2.0000     -14.408614      -392.0783
  20   2.0000     -10.383785      -282.5572
  21   2.0000     -10.355195      -281.7792
  22   2.0000     -10.346965      -281.5552
  23   2.0000     -10.343126      -281.4508
  24   2.0000     -10.335087      -281.2320
  25   2.0000     -10.333481      -281.1883
  26   2.0000     -10.330064      -281.0953
  27   2.0000     -10.318085      -280.7694
  28   2.0000     -10.317026      -280.7405
  29   2.0000     -10.314406      -280.6693
  30   2.0000     -10.313346      -280.6404
  31   2.0000     -10.312904      -280.6284
  32   2.0000     -10.309185      -280.5272
  33   2.0000     -10.305274      -280.4207
  34   2.0000     -10.304276      -280.3936
  35   2.0000     -10.304038      -280.3871
  36   2.0000     -10.300667      -280.2954
  37   2.0000     -10.299750      -280.2705
  38   2.0000     -10.299364      -280.2599
  39   2.0000     -10.298211      -280.2286
  40   2.0000     -10.297737      -280.2157
  41   2.0000     -10.297394      -280.2063
  42   2.0000     -10.296749      -280.1888
  43   2.0000     -10.296648      -280.1860
  44   2.0000     -10.296481      -280.1815
  45   2.0000     -10.296256      -280.1754
  46   2.0000     -10.293207      -280.0924
  47   2.0000     -10.291554      -280.0474
  48   2.0000     -10.289505      -279.9917
  49   2.0000     -10.288935      -279.9762
  50   2.0000     -10.287602      -279.9399
  51   2.0000     -10.284977      -279.8685
  52   2.0000     -10.283553      -279.8297
  53   2.0000     -10.282409      -279.7986
  54   2.0000     -10.282150      -279.7915
  55   2.0000     -10.281441      -279.7722
  56   2.0000     -10.280967      -279.7593
  57   2.0000     -10.278897      -279.7030
  58   2.0000     -10.278019      -279.6791
  59   2.0000     -10.271515      -279.5021
  60   2.0000     -10.270757      -279.4815
  61   2.0000     -10.270327      -279.4698
  62   2.0000     -10.269019      -279.4342
  63   2.0000     -10.267593      -279.3954
  64   2.0000     -10.265566      -279.3403
  65   2.0000     -10.264601      -279.3140
  66   2.0000     -10.263195      -279.2757
  67   2.0000      -8.780925      -238.9411
  68   2.0000      -8.064189      -219.4378
  69   2.0000      -8.059493      -219.3099
  70   2.0000      -8.052899      -219.1305
  71   2.0000      -8.049157      -219.0287
  72   2.0000      -8.046141      -218.9466
  73   2.0000      -8.030667      -218.5256
  74   2.0000      -8.030161      -218.5118
  75   2.0000      -6.617182      -180.0627
  76   2.0000      -6.602663      -179.6676
  77   2.0000      -6.602509      -179.6634
  78   2.0000      -6.033475      -164.1792
  79   2.0000      -6.029288      -164.0653
  80   2.0000      -6.029191      -164.0626
  81   2.0000      -6.026609      -163.9924
  82   2.0000      -6.024955      -163.9474
  83   2.0000      -6.022163      -163.8714
  84   2.0000      -6.020743      -163.8327
  85   2.0000      -6.018655      -163.7759
  86   2.0000      -6.017971      -163.7573
  87   2.0000      -6.015460      -163.6890
  88   2.0000      -6.015025      -163.6771
  89   2.0000      -6.014545      -163.6641
  90   2.0000      -6.011417      -163.5790
  91   2.0000      -6.010688      -163.5591
  92   2.0000      -6.008269      -163.4933
  93   2.0000      -6.000438      -163.2802
  94   2.0000      -5.999891      -163.2653
  95   2.0000      -5.996302      -163.1677
  96   2.0000      -5.995727      -163.1520
  97   2.0000      -5.991520      -163.0376
  98   2.0000      -5.991172      -163.0281
  99   2.0000      -2.733034       -74.3696
 100   2.0000      -2.729021       -74.2604
 101   2.0000      -2.728867       -74.2562
 102   2.0000      -2.717347       -73.9428
 103   2.0000      -2.717318       -73.9420
 104   2.0000      -1.324209       -36.0336
 105   2.0000      -1.224121       -33.3100
 106   2.0000      -1.139447       -31.0059
 107   2.0000      -1.121287       -30.5118
 108   2.0000      -1.060695       -28.8630
 109   2.0000      -1.015717       -27.6391
 110   2.0000      -1.006045       -27.3759
 111   2.0000      -0.992434       -27.0055
 112   2.0000      -0.991075       -26.9685
 113   2.0000      -0.989411       -26.9232
 114   2.0000      -0.986048       -26.8317
 115   2.0000      -0.980426       -26.6788
 116   2.0000      -0.968540       -26.3553
 117   2.0000      -0.964986       -26.2586
 118   2.0000      -0.934833       -25.4381
 119   2.0000      -0.932870       -25.3847
 120   2.0000      -0.912829       -24.8393
 121   2.0000      -0.900812       -24.5124
 122   2.0000      -0.900055       -24.4917
 123   2.0000      -0.896208       -24.3871
 124   2.0000      -0.895028       -24.3550
 125   2.0000      -0.885000       -24.0821
 126   2.0000      -0.875798       -23.8317
 127   2.0000      -0.872032       -23.7292
 128   2.0000      -0.868955       -23.6455
 129   2.0000      -0.862108       -23.4592
 130   2.0000      -0.848482       -23.0884
 131   2.0000      -0.838666       -22.8213
 132   2.0000      -0.828873       -22.5548
 133   2.0000      -0.819531       -22.3006
 134   2.0000      -0.818115       -22.2621
 135   2.0000      -0.814721       -22.1697
 136   2.0000      -0.812284       -22.1034
 137   2.0000      -0.801866       -21.8199
 138   2.0000      -0.790243       -21.5036
 139   2.0000      -0.781410       -21.2633
 140   2.0000      -0.772293       -21.0152
 141   2.0000      -0.753312       -20.4987
 142   2.0000      -0.750703       -20.4277
 143   2.0000      -0.743005       -20.2182
 144   2.0000      -0.729492       -19.8505
 145   2.0000      -0.709678       -19.3113
 146   2.0000      -0.703649       -19.1473
 147   2.0000      -0.698249       -19.0003
 148   2.0000      -0.694738       -18.9048
 149   2.0000      -0.684915       -18.6375
 150   2.0000      -0.683227       -18.5916
 151   2.0000      -0.671955       -18.2848
 152   2.0000      -0.666074       -18.1248
 153   2.0000      -0.662070       -18.0158
 154   2.0000      -0.652841       -17.7647
 155   2.0000      -0.649301       -17.6684
 156   2.0000      -0.648521       -17.6472
 157   2.0000      -0.641456       -17.4549
 158   2.0000      -0.639506       -17.4018
 159   2.0000      -0.628091       -17.0912
 160   2.0000      -0.625804       -17.0290
 161   2.0000      -0.621780       -16.9195
 162   2.0000      -0.617416       -16.8008
 163   2.0000      -0.613465       -16.6932
 164   2.0000      -0.611660       -16.6441
 165   2.0000      -0.608967       -16.5708
 166   2.0000      -0.604971       -16.4621
 167   2.0000      -0.589167       -16.0321
 168   2.0000      -0.588464       -16.0129
 169   2.0000      -0.584605       -15.9079
 170   2.0000      -0.575423       -15.6581
 171   2.0000      -0.570341       -15.5198
 172   2.0000      -0.565604       -15.3909
 173   2.0000      -0.564654       -15.3650
 174   2.0000      -0.555305       -15.1106
 175   2.0000      -0.547517       -14.8987
 176   2.0000      -0.546886       -14.8815
 177   2.0000      -0.543811       -14.7979
 178   2.0000      -0.536338       -14.5945
 179   2.0000      -0.535143       -14.5620
 180   2.0000      -0.530259       -14.4291
 181   2.0000      -0.529514       -14.4088
 182   2.0000      -0.524062       -14.2605
 183   2.0000      -0.522904       -14.2289
 184   2.0000      -0.518192       -14.1007
 185   2.0000      -0.516224       -14.0472
 186   2.0000      -0.514359       -13.9964
 187   2.0000      -0.513562       -13.9747
 188   2.0000      -0.510112       -13.8809
 189   2.0000      -0.508505       -13.8371
 190   2.0000      -0.504938       -13.7401
 191   2.0000      -0.503918       -13.7123
 192   2.0000      -0.498676       -13.5697
 193   2.0000      -0.497978       -13.5507
 194   2.0000      -0.492059       -13.3896
 195   2.0000      -0.490576       -13.3493
 196   2.0000      -0.486258       -13.2318
 197   2.0000      -0.485729       -13.2173
 198   2.0000      -0.482782       -13.1372
 199   2.0000      -0.475895       -12.9497
 200   2.0000      -0.471257       -12.8235
 201   2.0000      -0.469382       -12.7725
 202   2.0000      -0.466776       -12.7016
 203   2.0000      -0.462162       -12.5761
 204   2.0000      -0.459593       -12.5062
 205   2.0000      -0.457788       -12.4571
 206   2.0000      -0.454520       -12.3681
 207   2.0000      -0.452524       -12.3138
 208   2.0000      -0.451244       -12.2790
 209   2.0000      -0.449056       -12.2194
 210   2.0000      -0.446576       -12.1520
 211   2.0000      -0.445002       -12.1091
 212   2.0000      -0.440586       -11.9889
 213   2.0000      -0.438751       -11.9390
 214   2.0000      -0.438227       -11.9248
 215   2.0000      -0.433894       -11.8069
 216   2.0000      -0.430478       -11.7139
 217   2.0000      -0.429386       -11.6842
 218   2.0000      -0.426768       -11.6129
 219   2.0000      -0.426537       -11.6067
 220   2.0000      -0.424347       -11.5471
 221   2.0000      -0.420318       -11.4374
 222   2.0000      -0.418981       -11.4010
 223   2.0000      -0.417259       -11.3542
 224   2.0000      -0.412885       -11.2352
 225   2.0000      -0.409368       -11.1395
 226   2.0000      -0.406909       -11.0726
 227   2.0000      -0.405187       -11.0257
 228   2.0000      -0.401297       -10.9198
 229   2.0000      -0.400350       -10.8941
 230   2.0000      -0.389111       -10.5883
 231   2.0000      -0.384823       -10.4716
 232   2.0000      -0.382954       -10.4207
 233   2.0000      -0.379441       -10.3251
 234   2.0000      -0.376945       -10.2572
 235   2.0000      -0.371556       -10.1105
 236   2.0000      -0.368021       -10.0144
 237   2.0000      -0.363610        -9.8943
 238   2.0000      -0.362313        -9.8590
 239   2.0000      -0.350558        -9.5392
 240   2.0000      -0.344337        -9.3699
 241   2.0000      -0.342316        -9.3149
 242   2.0000      -0.338295        -9.2055
 243   2.0000      -0.330281        -8.9874
 244   2.0000      -0.323563        -8.8046
 245   2.0000      -0.318683        -8.6718
 246   2.0000      -0.315691        -8.5904
 247   2.0000      -0.315245        -8.5783
 248   2.0000      -0.302857        -8.2412
 249   2.0000      -0.300553        -8.1785
 250   2.0000      -0.292061        -7.9474
 251   2.0000      -0.283479        -7.7139
 252   2.0000      -0.280705        -7.6384
 253   2.0000      -0.268067        -7.2945
 254   2.0000      -0.235931        -6.4200
 255   2.0000      -0.195772        -5.3272
 256   0.0000      -0.088523        -2.4088
 257   0.0000      -0.076080        -2.0702
 258   0.0000      -0.065323        -1.7775
 259   0.0000      -0.055050        -1.4980
 260   0.0000      -0.028443        -0.7740

MULLIKEN ATOMIC CHARGES
-----------------------
   0 C :    0.324891
   1 C :   -0.382888
   2 C :   -0.197008
   3 N :    0.148107
   4 C :   -0.208342
   5 N :    0.160863
   6 C :   -0.013340
   7 C :    0.013841
   8 C :   -0.083171
   9 C :    0.125739
  10 C :   -0.105333
  11 C :   -0.036687
  12 S :    0.176127
  13 C :   -0.109473
  14 C :    0.050644
  15 Br:    0.021914
  16 C :    0.164682
  17 O :   -0.164524
  18 C :   -0.059781
  19 C :    0.005032
  20 C :   -0.189630
  21 S :    0.131071
  22 C :   -0.105096
  23 C :   -0.091848
  24 C :    0.119462
  25 C :    0.156221
  26 C :   -0.004190
  27 C :   -0.002448
  28 C :    0.003247
  29 C :    0.034161
  30 C :   -0.173512
  31 S :    0.142155
  32 C :   -0.134613
  33 C :    0.071302
  34 C :   -0.004033
  35 S :    0.089280
  36 C :    0.013192
  37 N :   -0.049738
  38 C :   -0.009050
  39 C :    0.010494
  40 C :    0.014097
  41 C :   -0.047515
  42 C :    0.036331
  43 C :    0.030361
  44 C :   -0.047215
  45 S :    0.070188
  46 C :   -0.042776
  47 C :    0.033005
  48 C :    0.033201
  49 C :   -0.040765
  50 S :    0.090768
  51 C :    0.050283
  52 C :   -0.240573
  53 S :    0.144918
  54 C :   -0.091980
  55 C :    0.100813
  56 C :    0.199139
  57 O :   -0.206215
  58 C :    0.247795
  59 N :    0.282429
  60 O :   -0.254029
  61 O :   -0.220679
  62 C :   -0.065049
  63 H :   -0.020744
  64 H :   -0.004572
  65 H :   -0.009653
  66 H :    0.020550
  67 H :    0.024680
  68 H :    0.008119
  69 H :    0.034792
  70 H :    0.035388
  71 H :   -0.000855
  72 H :    0.004557
  73 H :   -0.010500
  74 H :   -0.003370
  75 H :    0.039270
  76 H :   -0.000141
  77 H :    0.012901
  78 H :   -0.012132
  79 H :   -0.014287
  80 H :   -0.016654
  81 H :   -0.017443
  82 H :   -0.016534
  83 H :   -0.024215
  84 H :    0.041579
  85 H :    0.015010
Sum of atomic charges:   -0.0000000

LOEWDIN ATOMIC CHARGES
----------------------
   0 C :    0.086568
   1 C :   -0.158925
   2 C :   -0.012984
   3 N :   -0.067592
   4 C :   -0.028178
   5 N :   -0.057937
   6 C :   -0.032008
   7 C :   -0.045247
   8 C :    0.016271
   9 C :   -0.028130
  10 C :   -0.153831
  11 C :   -0.017127
  12 S :    0.440878
  13 C :   -0.268450
  14 C :   -0.065365
  15 Br:    0.143744
  16 C :    0.088247
  17 O :   -0.135247
  18 C :   -0.099109
  19 C :    0.054176
  20 C :   -0.182934
  21 S :    0.442721
  22 C :   -0.167043
  23 C :   -0.057548
  24 C :   -0.042721
  25 C :   -0.009353
  26 C :   -0.014970
  27 C :   -0.016385
  28 C :   -0.028760
  29 C :   -0.032772
  30 C :   -0.187558
  31 S :    0.465468
  32 C :   -0.169631
  33 C :   -0.065122
  34 C :   -0.199156
  35 S :    0.377329
  36 C :   -0.100112
  37 N :   -0.082210
  38 C :   -0.059626
  39 C :   -0.023973
  40 C :   -0.054668
  41 C :   -0.144482
  42 C :   -0.035202
  43 C :   -0.036156
  44 C :   -0.182419
  45 S :    0.401339
  46 C :   -0.186485
  47 C :   -0.035795
  48 C :   -0.037916
  49 C :   -0.149278
  50 S :    0.399662
  51 C :   -0.091567
  52 C :   -0.205712
  53 S :    0.478393
  54 C :   -0.165622
  55 C :   -0.086631
  56 C :    0.002223
  57 O :   -0.002679
  58 C :    0.017859
  59 N :    0.280978
  60 O :   -0.214545
  61 O :   -0.187737
  62 C :    0.000755
  63 H :    0.031661
  64 H :    0.038450
  65 H :    0.037049
  66 H :    0.043767
  67 H :    0.025654
  68 H :    0.032451
  69 H :    0.039353
  70 H :    0.039141
  71 H :    0.031078
  72 H :    0.030487
  73 H :    0.019883
  74 H :    0.025630
  75 H :    0.018641
  76 H :    0.018426
  77 H :    0.034097
  78 H :    0.031647
  79 H :    0.031936
  80 H :    0.030071
  81 H :    0.030441
  82 H :    0.030927
  83 H :    0.032292
  84 H :    0.031664
  85 H :    0.045543

  Mayer bond orders larger than 0.100000
B(  0-C ,  1-C ) :   1.6065 B(  0-C ,  6-C ) :   0.9980 B(  0-C , 18-C ) :   1.0897
B(  1-C ,  2-C ) :   1.1596 B(  1-C ,  4-C ) :   1.1392 B(  2-C ,  3-N ) :   2.9467
B(  4-C ,  5-N ) :   2.9936 B(  6-C ,  7-C ) :   1.2794 B(  6-C , 11-C ) :   1.4004
B(  7-C ,  8-C ) :   1.4165 B(  7-C , 16-C ) :   0.9392 B(  8-C ,  9-C ) :   1.2373
B(  8-C , 63-H ) :   1.0134 B(  9-C , 10-C ) :   1.3122 B(  9-C , 14-C ) :   1.1640
B( 10-C , 11-C ) :   1.3146 B( 10-C , 12-S ) :   1.0803 B( 11-C , 64-H ) :   0.9887
B( 12-S , 13-C ) :   1.0837 B( 13-C , 14-C ) :   1.6163 B( 13-C , 15-Br) :   1.0199
B( 14-C , 65-H ) :   0.9989 B( 16-C , 17-O ) :   2.1298 B( 16-C , 18-C ) :   0.9782
B( 18-C , 19-C ) :   1.5544 B( 19-C , 20-C ) :   1.2188 B( 19-C , 66-H ) :   0.9245
B( 20-C , 21-S ) :   1.1032 B( 20-C , 25-C ) :   1.4013 B( 21-S , 22-C ) :   1.1713
B( 22-C , 23-C ) :   1.5494 B( 22-C , 67-H ) :   0.9663 B( 23-C , 24-C ) :   1.0980
B( 23-C , 25-C ) :   1.2685 B( 24-C , 68-H ) :   0.9501 B( 24-C , 69-H ) :   0.9418
B( 24-C , 70-H ) :   0.9441 B( 25-C , 26-C ) :   1.0951 B( 26-C , 27-C ) :   1.7494
B( 26-C , 71-H ) :   0.9286 B( 27-C , 28-C ) :   1.1236 B( 27-C , 72-H ) :   0.9664
B( 28-C , 29-C ) :   1.6919 B( 28-C , 73-H ) :   0.9667 B( 29-C , 30-C ) :   1.1487
B( 29-C , 74-H ) :   0.9414 B( 30-C , 31-S ) :   1.1278 B( 30-C , 34-C ) :   1.4815
B( 31-S , 32-C ) :   1.1276 B( 32-C , 33-C ) :   1.3782 B( 32-C , 38-C ) :   1.2112
B( 33-C , 34-C ) :   1.2721 B( 33-C , 37-N ) :   1.2989 B( 34-C , 35-S ) :   1.0491
B( 35-S , 36-C ) :   1.0845 B( 35-S , 37-N ) :   0.1065 B( 36-C , 37-N ) :   1.7786
B( 36-C , 75-H ) :   0.9630 B( 38-C , 39-C ) :   1.5937 B( 38-C , 76-H ) :   0.9248
B( 39-C , 40-C ) :   1.1961 B( 39-C , 77-H ) :   0.9619 B( 40-C , 41-C ) :   1.5493
B( 40-C , 78-H ) :   0.9669 B( 41-C , 42-C ) :   1.1635 B( 41-C , 45-S ) :   1.0393
B( 42-C , 43-C ) :   1.5717 B( 42-C , 79-H ) :   0.9966 B( 43-C , 44-C ) :   1.1998
B( 43-C , 80-H ) :   0.9960 B( 44-C , 45-S ) :   1.0502 B( 44-C , 46-C ) :   1.4793
B( 46-C , 47-C ) :   1.1936 B( 46-C , 50-S ) :   1.0368 B( 47-C , 48-C ) :   1.5784
B( 47-C , 81-H ) :   0.9957 B( 48-C , 49-C ) :   1.1436 B( 48-C , 82-H ) :   0.9997
B( 49-C , 50-S ) :   1.0465 B( 49-C , 51-C ) :   1.5934 B( 51-C , 52-C ) :   1.1538
B( 51-C , 83-H ) :   0.9423 B( 52-C , 53-S ) :   1.1298 B( 52-C , 54-C ) :   0.1056
B( 52-C , 56-C ) :   1.4253 B( 53-S , 54-C ) :   1.1896 B( 54-C , 55-C ) :   1.4419
B( 54-C , 84-H ) :   0.9654 B( 55-C , 56-C ) :   1.2311 B( 55-C , 62-C ) :   1.0642
B( 56-C , 57-O ) :   1.0726 B( 57-O , 58-C ) :   1.1119 B( 58-C , 59-N ) :   0.9307
B( 58-C , 62-C ) :   1.5456 B( 59-N , 60-O ) :   1.5003 B( 59-N , 61-O ) :   1.4962
B( 60-O , 61-O ) :   0.2654 B( 62-C , 85-H ) :   1.0279

-----------------------------------------------------------------------------
         ABSORPTION SPECTRUM VIA TRANSITION ELECTRIC DIPOLE MOMENTS
-----------------------------------------------------------------------------
State   Energy  Wavelength   fosc         T2         TX        TY        TZ
        (cm-1)    (nm)                  (au**2)     (au)      (au)      (au)
-----------------------------------------------------------------------------
   0    9252.1   1080.8   0.103580846   3.68564  -1.77572   0.52162  -0.51027
   1   10743.9    930.8   0.037974376   1.16361  -0.66659  -0.83585   0.14359
   2   12852.5    778.1   0.295750348   7.57555  -2.75015   0.10377   0.03851
   3   16250.4    615.4   0.316017615   6.40209  -1.63186  -1.55337   1.15159
   4   17241.8    580.0   0.119197855   2.27594   0.76890   1.14556  -0.61027
   5   18945.9    527.8   0.024952051   0.43358   0.01540  -0.65819  -0.01128
   6   19726.2    506.9   0.002427446   0.04051  -0.16839   0.10224  -0.04126
   7   22525.4    443.9   0.383185891   5.60031  -1.35651  -1.86636   0.52621
   8   23260.9    429.9   1.135433307  16.06980   1.82434  -3.46200   0.86956
   9   23616.1    423.4   0.259731053   3.62069   0.25124   1.87107   0.23803
  10   25393.9    393.8   0.030975947   0.40158  -0.59585  -0.18564  -0.10991
  11   25597.3    390.7   0.057786436   0.74320  -0.07601   0.83091   0.21683
  12   26158.8    382.3   0.129458649   1.62926  -0.33056   1.16056  -0.41603
  13   26330.9    379.8   0.044560113   0.55713   0.03648  -0.73250  -0.13871
  14   26798.0    373.2   0.031007897   0.38093   0.41519  -0.38147   0.25105
  15   27008.7    370.3   0.018109487   0.22074   0.24770  -0.34438  -0.20195
  16   27804.6    359.7   0.118569238   1.40388  -0.10035   1.12808   0.34819
  17   28169.9    355.0   0.065012891   0.75978   0.37728  -0.78572  -0.00942
  18   28830.8    346.9   0.122519768   1.39902  -1.02565   0.58737   0.04548
  19   29130.9    343.3   0.115100917   1.30077  -0.40424   0.97339  -0.43573
  20   29312.2    341.2   0.019004846   0.21345   0.27926   0.30426  -0.20709
  21   29468.0    339.4   0.136664962   1.52680  -0.46863  -1.04692  -0.45952
  22   29771.7    335.9   0.012078932   0.13357   0.05666   0.35935   0.03504
  23   30243.5    330.6   0.055652425   0.60580  -0.76611   0.12421  -0.05868
  24   30335.3    329.6   0.110935583   1.20392  -0.20793   0.84152  -0.67271
  25   30472.0    328.2   0.122898713   1.32777   0.08312   1.06055  -0.44281
  26   30763.8    325.1   0.022482828   0.24060  -0.48651  -0.05878   0.02120
  27   31322.6    319.3   0.062591928   0.65786   0.27449   0.72978  -0.22348
  28   31371.2    318.8   0.012292812   0.12900   0.09046  -0.25499   0.23622
  29   31628.5    316.2   0.065395565   0.68068   0.05341  -0.80731  -0.16152
  30   31857.5    313.9   0.051923331   0.53657   0.10560   0.59754   0.41032
  31   32154.9    311.0   0.197125594   2.01824   0.42094   1.33951  -0.21624
  32   32489.6    307.8   0.143663699   1.45572   0.37372  -1.08781  -0.36432
  33   32886.7    304.1   0.023603543   0.23628  -0.47901   0.03173   0.07632
  34   33160.6    301.6   0.030029054   0.29812   0.12716   0.39490   0.35497
  35   33414.0    299.3   0.006383184   0.06289  -0.04156  -0.00062  -0.24731
  36   33675.5    297.0   0.067772438   0.66254  -0.59657   0.53796  -0.13131
  37   33945.6    294.6   0.070829556   0.68692   0.62659  -0.50547   0.19697
  38   34197.3    292.4   0.012767367   0.12291   0.28679  -0.19279  -0.05910
  39   34332.0    291.3   0.031581331   0.30284   0.36210   0.41425  -0.01076
  40   34592.3    289.1   0.044314538   0.42174  -0.31242   0.17907   0.54043
  41   34749.1    287.8   0.127234216   1.20541   0.54157  -0.84387   0.44721
  42   35318.6    283.1   0.091354190   0.85153   0.86877   0.29513  -0.09831
  43   35335.8    283.0   0.036624886   0.34122   0.07459  -0.55715   0.15886
  44   35686.9    280.2   0.012731046   0.11744  -0.32315  -0.11318  -0.01436
  45   35813.6    279.2   0.135625149   1.24672   1.11320   0.07908   0.03522
  46   36070.4    277.2   0.013149875   0.12002   0.22542  -0.15533  -0.21231
  47   36271.5    275.7   0.185971914   1.68794  -1.24800  -0.31617  -0.17459
  48   36427.5    274.5   0.033007198   0.29830   0.54205  -0.03993  -0.05377
  49   36603.1    273.2   0.038568256   0.34689  -0.58676  -0.03598   0.03616
  50   36935.9    270.7   0.061102624   0.54461   0.31317   0.66470  -0.06867
  51   37061.6    269.8   0.087388858   0.77626   0.82281   0.30494   0.07911
  52   37284.3    268.2   0.077435289   0.68374  -0.82011   0.09729  -0.04107
  53   37576.6    266.1   0.043517923   0.38126   0.58850   0.16578  -0.08627
  54   37625.8    265.8   0.009966285   0.08720   0.07016   0.27148  -0.09262
  55   37797.9    264.6   0.022529221   0.19622  -0.20631   0.38396  -0.07898
  56   37850.7    264.2   0.013254953   0.11529   0.03365   0.27794  -0.19210
  57   38153.0    262.1   0.015746646   0.13587   0.31604  -0.18292   0.05029
  58   38259.9    261.4   0.107562615   0.92554   0.39128  -0.74268   0.46997
  59   38517.8    259.6   0.018811660   0.16078   0.11957  -0.22180   0.31192
  60   38698.1    258.4   0.010951345   0.09317   0.09738   0.02848  -0.28787
  61   38923.8    256.9   0.043559462   0.36842  -0.26316   0.51603  -0.18132
  62   39076.5    255.9   0.021686493   0.18270  -0.34752   0.05198  -0.24337
  63   39131.4    255.5   0.023646508   0.19894  -0.43622  -0.06105   0.07015
  64   39590.4    252.6   0.028513491   0.23710   0.45126  -0.17032   0.06676
  65   39655.8    252.2   0.028502810   0.23662  -0.39117   0.25474  -0.13681
  66   39812.0    251.2   0.024219272   0.20027   0.39439   0.15973   0.13862
  67   40033.6    249.8   0.028019476   0.23042   0.19052   0.43562   0.06597
  68   40181.1    248.9   0.006076168   0.04978  -0.05741  -0.20859   0.05455

FINAL SINGLE POINT ENERGY     -7682.007857014713

DIPOLE MOMENT
-------------
                                X             Y             Z
Electronic contribution:     51.07718     -41.43281     -20.11230
Nuclear contribution   :    -51.39755      40.07315      20.13067
                        -----------------------------------------
Total Dipole Moment    :     -0.32036      -1.35966       0.01837
                        -----------------------------------------
Magnitude (a.u.)       :      1.39702
Magnitude (Debye)      :      3.55093

Rotational constants in cm-1:     0.001500     0.000868     0.000671
Rotational constants in MHz :    44.978517    26.020912    20.101405

                             ****ORCA TERMINATED NORMALLY****
TOTAL RUN TIME: 0 days 0 hours 16 minutes 51 seconds 477 msec
