                         Program Version 4.2.0 -  RELEASE  -
|  1> # ORCA input file
|  2> # SCF done       -144.116628039066          0.000507140802
|  3> ! CAM-B3LYP def2-SVP def2/J RIJCOSX Grid4 TightSCF
|  4> %maxcore 5000
|  5> %tddft
|  6>     Mode sTDDFT
|  7>     Ethresh 5.0
|  8>     maxcore 5000
|  9> end
| 10>
| 11> %pal
| 12>   nprocs 6
| 13>   end
| 14> * xyz 0 1
| 15>    C       -2.26272         1.43297        -1.95725
| 16>    C       -2.68662         0.12772        -2.04778
| 17>    C       -1.86664        -0.95414        -2.42837
| 18>    N       -1.26362        -1.88472        -2.72799
| 19>    C       -3.98923        -0.34552        -1.80697
| 20>    N       -5.00873        -0.85971        -1.66513
| 21>    C       -0.91650         1.90652        -2.26384
| 22>    C       -0.87843         3.31167        -2.08787
| 23>    C        0.25433         4.05404        -2.31132
| 24>    C        1.40648         3.37827        -2.72975
| 25>    C        1.35878         1.97508        -2.90167
| 26>    C        0.21207         1.22324        -2.67464
| 27>    S        2.89035         1.34248        -3.42577
| 28>    C        3.56387         2.95050        -3.40794
| 29>    C        2.68967         3.91257        -3.02871
| 30>   Br        5.35772         3.20794        -3.89245
| 31>    C       -2.21112         3.78565        -1.65398
| 32>    O       -2.52609         4.93460        -1.41881
| 33>    C       -3.05481         2.57503        -1.57450
| 34>    C       -4.37837         2.55076        -1.19821
| 35>    C       -5.16371         3.65688        -0.86085
| 36>    C       -6.49591         3.47904        -0.56325
| 37>    C       -7.40583         4.48101        -0.23911
| 38>    C       -8.74191         4.20209        -0.01006
| 39>    C       -9.77667         5.08387         0.37212
| 40>    C      -10.99157         4.47871         0.54093
| 41>    C      -10.96760         3.09338         0.28800
| 42>    S       -9.36848         2.57823        -0.17408
| 43>    C      -11.97411         2.14352         0.40043
| 44>    C      -13.30262         2.26804         0.85151
| 45>    C      -13.96437         1.07466         0.94139
| 46>    C      -13.19288        -0.04463         0.55791
| 47>    S      -11.60627         0.48137         0.03357
| 48>    C      -13.49548        -1.38708         0.65891
| 49>    C      -12.55813        -2.36692         0.32422
| 50>    C      -12.64408        -3.69819         0.63930
| 51>    C      -11.65229        -4.65871         0.37483
| 52>    C      -10.33877        -4.54762        -0.01284
| 53>    C       -9.37007        -3.47747        -0.08488
| 54>    C       -9.31899        -2.34788         0.69912
| 55>    C       -8.39470        -1.29552         0.55148
| 56>    N       -7.72896        -0.36310         0.46478
| 57>    C      -10.18714        -2.12410         1.78441
| 58>    N      -10.84909        -1.91823         2.70019
| 59>    C       -8.29604        -3.91414        -0.97531
| 60>    C       -8.48036        -5.29077        -1.26333
| 61>    C       -9.71658        -5.76008        -0.61577
| 62>    O      -10.16814        -6.88394        -0.60193
| 63>    C       -7.59883        -6.01107        -2.03083
| 64>    C       -6.48702        -5.33970        -2.54984
| 65>    C       -6.31491        -3.96282        -2.26493
| 66>    C       -7.20204        -3.23524        -1.47870
| 67>    S       -4.87735        -3.33471        -3.01096
| 68>    C       -4.53584        -4.90566        -3.68280
| 69>    C       -5.44560        -5.85748        -3.36608
| 70>   Br       -3.00869        -5.13738        -4.74130
| 71>    H        0.25340         5.12359        -2.17057
| 72>    H        0.22565         0.15597        -2.82056
| 73>    H        2.93743         4.95626        -2.96263
| 74>    H       -4.87641         1.58969        -1.16590
| 75>    H       -4.72137         4.64195        -0.85805
| 76>    H       -6.87908         2.46386        -0.58869
| 77>    H       -7.07226         5.50657        -0.15969
| 78>    H       -9.59593         6.13342         0.52363
| 79>    H      -11.88887         4.99081         0.83937
| 80>    H      -13.72829         3.21930         1.11672
| 81>    H      -14.97658         0.96711         1.28907
| 82>    H      -14.44260        -1.67281         1.09412
| 83>    H      -11.68714        -2.02509        -0.22005
| 84>    H      -13.55345        -4.05751         1.10286
| 85>    H      -11.98243        -5.69387         0.42186
| 86>    H       -7.75904        -7.06049        -2.22208
| 87>    H       -7.01800        -2.19007        -1.29111
| 88>    H       -5.38769        -6.87962        -3.69271
| 89> *
| 90>
| 91>                          ****END OF INPUT****

CARTESIAN COORDINATES (ANGSTROEM)
---------------------------------
  C     -2.262720    1.432970   -1.957250
  C     -2.686620    0.127720   -2.047780
  C     -1.866640   -0.954140   -2.428370
  N     -1.263620   -1.884720   -2.727990
  C     -3.989230   -0.345520   -1.806970
  N     -5.008730   -0.859710   -1.665130
  C     -0.916500    1.906520   -2.263840
  C     -0.878430    3.311670   -2.087870
  C      0.254330    4.054040   -2.311320
  C      1.406480    3.378270   -2.729750
  C      1.358780    1.975080   -2.901670
  C      0.212070    1.223240   -2.674640
  S      2.890350    1.342480   -3.425770
  C      3.563870    2.950500   -3.407940
  C      2.689670    3.912570   -3.028710
  Br     5.357720    3.207940   -3.892450
  C     -2.211120    3.785650   -1.653980
  O     -2.526090    4.934600   -1.418810
  C     -3.054810    2.575030   -1.574500
  C     -4.378370    2.550760   -1.198210
  C     -5.163710    3.656880   -0.860850
  C     -6.495910    3.479040   -0.563250
  C     -7.405830    4.481010   -0.239110
  C     -8.741910    4.202090   -0.010060
  C     -9.776670    5.083870    0.372120
  C    -10.991570    4.478710    0.540930
  C    -10.967600    3.093380    0.288000
  S     -9.368480    2.578230   -0.174080
  C    -11.974110    2.143520    0.400430
  C    -13.302620    2.268040    0.851510
  C    -13.964370    1.074660    0.941390
  C    -13.192880   -0.044630    0.557910
  S    -11.606270    0.481370    0.033570
  C    -13.495480   -1.387080    0.658910
  C    -12.558130   -2.366920    0.324220
  C    -12.644080   -3.698190    0.639300
  C    -11.652290   -4.658710    0.374830
  C    -10.338770   -4.547620   -0.012840
  C     -9.370070   -3.477470   -0.084880
  C     -9.318990   -2.347880    0.699120
  C     -8.394700   -1.295520    0.551480
  N     -7.728960   -0.363100    0.464780
  C    -10.187140   -2.124100    1.784410
  N    -10.849090   -1.918230    2.700190
  C     -8.296040   -3.914140   -0.975310
  C     -8.480360   -5.290770   -1.263330
  C     -9.716580   -5.760080   -0.615770
  O    -10.168140   -6.883940   -0.601930
  C     -7.598830   -6.011070   -2.030830
  C     -6.487020   -5.339700   -2.549840
  C     -6.314910   -3.962820   -2.264930
  C     -7.202040   -3.235240   -1.478700
  S     -4.877350   -3.334710   -3.010960
  C     -4.535840   -4.905660   -3.682800
  C     -5.445600   -5.857480   -3.366080
  Br    -3.008690   -5.137380   -4.741300
  H      0.253400    5.123590   -2.170570
  H      0.225650    0.155970   -2.820560
  H      2.937430    4.956260   -2.962630
  H     -4.876410    1.589690   -1.165900
  H     -4.721370    4.641950   -0.858050
  H     -6.879080    2.463860   -0.588690
  H     -7.072260    5.506570   -0.159690
  H     -9.595930    6.133420    0.523630
  H    -11.888870    4.990810    0.839370
  H    -13.728290    3.219300    1.116720
  H    -14.976580    0.967110    1.289070
  H    -14.442600   -1.672810    1.094120
  H    -11.687140   -2.025090   -0.220050
  H    -13.553450   -4.057510    1.102860
  H    -11.982430   -5.693870    0.421860
  H     -7.759040   -7.060490   -2.222080
  H     -7.018000   -2.190070   -1.291110
  H     -5.387690   -6.879620   -3.692710

 Total Charge           Charge          ....    0
 Multiplicity           Mult            ....    1
 Number of Electrons    NEL             ....  460
 Basis Dimension        Dim             ....  926

ORBITAL ENERGIES
----------------

  NO   OCC          E(Eh)            E(eV)
   0   2.0000    -482.881128    -13139.8635
   1   2.0000    -482.866625    -13139.4689
   2   2.0000     -88.969743     -2420.9898
   3   2.0000     -88.964360     -2420.8433
   4   2.0000     -88.960719     -2420.7442
   5   2.0000     -88.955270     -2420.5960
   6   2.0000     -62.558817     -1702.3119
   7   2.0000     -62.544316     -1701.9174
   8   2.0000     -56.392763     -1534.5251
   9   2.0000     -56.390058     -1534.4515
  10   2.0000     -56.390022     -1534.4505
  11   2.0000     -56.378241     -1534.1299
  12   2.0000     -56.375563     -1534.0571
  13   2.0000     -56.375521     -1534.0559
  14   2.0000     -19.206067      -522.6237
  15   2.0000     -19.202206      -522.5186
  16   2.0000     -14.414754      -392.2454
  17   2.0000     -14.408286      -392.0694
  18   2.0000     -14.407258      -392.0414
  19   2.0000     -14.406085      -392.0095
  20   2.0000     -10.356494      -281.8145
  21   2.0000     -10.353321      -281.7282
  22   2.0000     -10.352222      -281.6983
  23   2.0000     -10.337993      -281.3111
  24   2.0000     -10.333949      -281.2010
  25   2.0000     -10.332831      -281.1706
  26   2.0000     -10.332108      -281.1509
  27   2.0000     -10.330715      -281.1131
  28   2.0000     -10.330082      -281.0958
  29   2.0000     -10.329742      -281.0866
  30   2.0000     -10.329447      -281.0785
  31   2.0000     -10.329077      -281.0685
  32   2.0000     -10.319787      -280.8157
  33   2.0000     -10.318673      -280.7854
  34   2.0000     -10.310990      -280.5763
  35   2.0000     -10.310125      -280.5528
  36   2.0000     -10.309923      -280.5473
  37   2.0000     -10.309795      -280.5438
  38   2.0000     -10.308619      -280.5118
  39   2.0000     -10.307451      -280.4800
  40   2.0000     -10.305883      -280.4373
  41   2.0000     -10.303720      -280.3785
  42   2.0000     -10.302331      -280.3407
  43   2.0000     -10.301698      -280.3235
  44   2.0000     -10.301682      -280.3230
  45   2.0000     -10.300815      -280.2994
  46   2.0000     -10.299949      -280.2758
  47   2.0000     -10.298428      -280.2345
  48   2.0000     -10.298346      -280.2322
  49   2.0000     -10.297140      -280.1994
  50   2.0000     -10.293441      -280.0988
  51   2.0000     -10.292798      -280.0813
  52   2.0000     -10.291804      -280.0542
  53   2.0000     -10.291268      -280.0396
  54   2.0000     -10.290619      -280.0220
  55   2.0000     -10.288066      -279.9525
  56   2.0000     -10.287633      -279.9407
  57   2.0000     -10.285923      -279.8942
  58   2.0000     -10.285572      -279.8846
  59   2.0000     -10.283898      -279.8391
  60   2.0000     -10.282584      -279.8033
  61   2.0000     -10.277955      -279.6774
  62   2.0000     -10.277393      -279.6621
  63   2.0000     -10.276787      -279.6456
  64   2.0000      -8.788224      -239.1397
  65   2.0000      -8.773771      -238.7464
  66   2.0000      -8.065726      -219.4796
  67   2.0000      -8.060422      -219.3352
  68   2.0000      -8.057089      -219.2445
  69   2.0000      -8.050257      -219.0586
  70   2.0000      -6.624493      -180.2616
  71   2.0000      -6.610018      -179.8677
  72   2.0000      -6.609972      -179.8665
  73   2.0000      -6.609778      -179.8612
  74   2.0000      -6.595580      -179.4749
  75   2.0000      -6.595293      -179.4670
  76   2.0000      -6.035435      -164.2325
  77   2.0000      -6.031138      -164.1156
  78   2.0000      -6.030076      -164.0867
  79   2.0000      -6.026949      -164.0016
  80   2.0000      -6.026701      -163.9949
  81   2.0000      -6.026012      -163.9761
  82   2.0000      -6.022556      -163.8821
  83   2.0000      -6.021510      -163.8536
  84   2.0000      -6.020070      -163.8144
  85   2.0000      -6.018183      -163.7631
  86   2.0000      -6.015499      -163.6900
  87   2.0000      -6.011574      -163.5832
  88   2.0000      -2.740377       -74.5695
  89   2.0000      -2.736282       -74.4580
  90   2.0000      -2.736163       -74.4548
  91   2.0000      -2.725903       -74.1756
  92   2.0000      -2.724605       -74.1403
  93   2.0000      -2.724593       -74.1400
  94   2.0000      -2.721916       -74.0671
  95   2.0000      -2.721625       -74.0592
  96   2.0000      -2.710175       -73.7476
  97   2.0000      -2.710168       -73.7474
  98   2.0000      -1.119644       -30.4671
  99   2.0000      -1.117111       -30.3981
 100   2.0000      -1.017450       -27.6862
 101   2.0000      -1.016192       -27.6520
 102   2.0000      -1.009916       -27.4812
 103   2.0000      -1.008735       -27.4491
 104   2.0000      -0.999233       -27.1905
 105   2.0000      -0.994404       -27.0591
 106   2.0000      -0.989304       -26.9203
 107   2.0000      -0.985561       -26.8185
 108   2.0000      -0.981456       -26.7068
 109   2.0000      -0.975814       -26.5532
 110   2.0000      -0.938002       -25.5243
 111   2.0000      -0.934623       -25.4324
 112   2.0000      -0.926178       -25.2026
 113   2.0000      -0.920323       -25.0433
 114   2.0000      -0.901650       -24.5351
 115   2.0000      -0.898834       -24.4585
 116   2.0000      -0.893970       -24.3262
 117   2.0000      -0.886418       -24.1207
 118   2.0000      -0.879042       -23.9200
 119   2.0000      -0.874251       -23.7896
 120   2.0000      -0.868834       -23.6422
 121   2.0000      -0.863823       -23.5058
 122   2.0000      -0.858657       -23.3652
 123   2.0000      -0.838338       -22.8123
 124   2.0000      -0.834753       -22.7148
 125   2.0000      -0.822813       -22.3899
 126   2.0000      -0.815949       -22.2031
 127   2.0000      -0.811880       -22.0924
 128   2.0000      -0.792084       -21.5537
 129   2.0000      -0.773098       -21.0371
 130   2.0000      -0.756125       -20.5752
 131   2.0000      -0.751429       -20.4474
 132   2.0000      -0.744108       -20.2482
 133   2.0000      -0.729909       -19.8618
 134   2.0000      -0.714067       -19.4308
 135   2.0000      -0.697148       -18.9704
 136   2.0000      -0.693654       -18.8753
 137   2.0000      -0.684122       -18.6159
 138   2.0000      -0.678824       -18.4717
 139   2.0000      -0.673595       -18.3295
 140   2.0000      -0.670584       -18.2475
 141   2.0000      -0.656736       -17.8707
 142   2.0000      -0.652855       -17.7651
 143   2.0000      -0.649911       -17.6850
 144   2.0000      -0.644567       -17.5396
 145   2.0000      -0.641185       -17.4475
 146   2.0000      -0.630123       -17.1465
 147   2.0000      -0.626154       -17.0385
 148   2.0000      -0.619947       -16.8696
 149   2.0000      -0.615697       -16.7540
 150   2.0000      -0.609262       -16.5789
 151   2.0000      -0.597371       -16.2553
 152   2.0000      -0.589528       -16.0419
 153   2.0000      -0.586828       -15.9684
 154   2.0000      -0.582129       -15.8405
 155   2.0000      -0.574237       -15.6258
 156   2.0000      -0.566976       -15.4282
 157   2.0000      -0.559400       -15.2220
 158   2.0000      -0.550610       -14.9829
 159   2.0000      -0.543968       -14.8021
 160   2.0000      -0.537597       -14.6287
 161   2.0000      -0.533464       -14.5163
 162   2.0000      -0.531532       -14.4637
 163   2.0000      -0.531123       -14.4526
 164   2.0000      -0.525943       -14.3116
 165   2.0000      -0.523692       -14.2504
 166   2.0000      -0.519687       -14.1414
 167   2.0000      -0.518410       -14.1067
 168   2.0000      -0.516754       -14.0616
 169   2.0000      -0.514799       -14.0084
 170   2.0000      -0.505369       -13.7518
 171   2.0000      -0.504975       -13.7411
 172   2.0000      -0.502625       -13.6771
 173   2.0000      -0.499982       -13.6052
 174   2.0000      -0.498708       -13.5705
 175   2.0000      -0.495285       -13.4774
 176   2.0000      -0.489041       -13.3075
 177   2.0000      -0.488268       -13.2865
 178   2.0000      -0.487441       -13.2639
 179   2.0000      -0.485279       -13.2051
 180   2.0000      -0.483155       -13.1473
 181   2.0000      -0.482016       -13.1163
 182   2.0000      -0.477781       -13.0011
 183   2.0000      -0.468060       -12.7365
 184   2.0000      -0.466990       -12.7074
 185   2.0000      -0.465143       -12.6572
 186   2.0000      -0.462469       -12.5844
 187   2.0000      -0.458615       -12.4795
 188   2.0000      -0.451865       -12.2959
 189   2.0000      -0.451224       -12.2784
 190   2.0000      -0.449075       -12.2200
 191   2.0000      -0.448748       -12.2111
 192   2.0000      -0.444084       -12.0841
 193   2.0000      -0.442119       -12.0307
 194   2.0000      -0.441132       -12.0038
 195   2.0000      -0.437356       -11.9011
 196   2.0000      -0.436674       -11.8825
 197   2.0000      -0.433952       -11.8084
 198   2.0000      -0.432861       -11.7787
 199   2.0000      -0.430374       -11.7111
 200   2.0000      -0.429778       -11.6948
 201   2.0000      -0.424188       -11.5427
 202   2.0000      -0.422456       -11.4956
 203   2.0000      -0.417905       -11.3718
 204   2.0000      -0.410860       -11.1801
 205   2.0000      -0.409038       -11.1305
 206   2.0000      -0.408482       -11.1154
 207   2.0000      -0.405754       -11.0411
 208   2.0000      -0.399837       -10.8801
 209   2.0000      -0.395127       -10.7519
 210   2.0000      -0.392796       -10.6885
 211   2.0000      -0.382795       -10.4164
 212   2.0000      -0.378622       -10.3028
 213   2.0000      -0.370575       -10.0838
 214   2.0000      -0.369485       -10.0542
 215   2.0000      -0.364018        -9.9054
 216   2.0000      -0.355364        -9.6700
 217   2.0000      -0.354944        -9.6585
 218   2.0000      -0.348527        -9.4839
 219   2.0000      -0.341907        -9.3038
 220   2.0000      -0.333500        -9.0750
 221   2.0000      -0.326275        -8.8784
 222   2.0000      -0.323784        -8.8106
 223   2.0000      -0.308973        -8.4076
 224   2.0000      -0.308059        -8.3827
 225   2.0000      -0.297523        -8.0960
 226   2.0000      -0.288257        -7.8439
 227   2.0000      -0.277498        -7.5511
 228   2.0000      -0.276307        -7.5187
 229   2.0000      -0.226399        -6.1606
 230   0.0000      -0.122539        -3.3345
 231   0.0000      -0.082403        -2.2423
 232   0.0000      -0.063405        -1.7253
 233   0.0000      -0.050620        -1.3774
 234   0.0000      -0.033879        -0.9219

MULLIKEN ATOMIC CHARGES
-----------------------
   0 C :    0.339975
   1 C :   -0.362400
   2 C :   -0.206623
   3 N :    0.149762
   4 C :   -0.151220
   5 N :    0.118687
   6 C :    0.011000
   7 C :   -0.011038
   8 C :   -0.076416
   9 C :    0.120063
  10 C :   -0.092346
  11 C :   -0.026309
  12 S :    0.182764
  13 C :   -0.122254
  14 C :    0.035522
  15 Br:    0.018583
  16 C :    0.139032
  17 O :   -0.157260
  18 C :   -0.070421
  19 C :   -0.046985
  20 C :   -0.001851
  21 C :    0.027916
  22 C :    0.000990
  23 C :   -0.012232
  24 C :    0.033508
  25 C :    0.040437
  26 C :   -0.043528
  27 S :    0.117430
  28 C :   -0.032677
  29 C :    0.032918
  30 C :    0.047293
  31 C :   -0.017037
  32 S :    0.087401
  33 C :    0.021859
  34 C :    0.020348
  35 C :    0.011998
  36 C :    0.037368
  37 C :   -0.114782
  38 C :    0.276173
  39 C :   -0.365705
  40 C :   -0.157644
  41 N :    0.150525
  42 C :   -0.226702
  43 N :    0.169493
  44 C :    0.016660
  45 C :    0.002114
  46 C :    0.128116
  47 O :   -0.154844
  48 C :   -0.075849
  49 C :    0.108876
  50 C :   -0.075868
  51 C :   -0.040838
  52 S :    0.182448
  53 C :   -0.112483
  54 C :    0.036359
  55 Br:    0.021141
  56 H :   -0.012652
  57 H :   -0.007583
  58 H :   -0.004257
  59 H :    0.015701
  60 H :    0.019842
  61 H :    0.042982
  62 H :   -0.003467
  63 H :   -0.001718
  64 H :   -0.004492
  65 H :   -0.004348
  66 H :   -0.001478
  67 H :   -0.003967
  68 H :    0.034465
  69 H :   -0.003639
  70 H :    0.024909
  71 H :   -0.013932
  72 H :    0.002633
  73 H :   -0.010450
Sum of atomic charges:    0.0000000

LOEWDIN ATOMIC CHARGES
----------------------
   0 C :    0.079206
   1 C :   -0.157138
   2 C :   -0.021840
   3 N :   -0.064760
   4 C :    0.001934
   5 N :   -0.080589
   6 C :   -0.019952
   7 C :   -0.048245
   8 C :    0.018560
   9 C :   -0.033710
  10 C :   -0.145527
  11 C :   -0.011539
  12 S :    0.429607
  13 C :   -0.273056
  14 C :   -0.070837
  15 Br:    0.133089
  16 C :    0.081891
  17 O :   -0.152694
  18 C :   -0.107678
  19 C :    0.063189
  20 C :   -0.030979
  21 C :    0.025108
  22 C :   -0.058803
  23 C :   -0.117226
  24 C :   -0.033233
  25 C :   -0.014944
  26 C :   -0.177087
  27 S :    0.427706
  28 C :   -0.163301
  29 C :   -0.021677
  30 C :   -0.022027
  31 C :   -0.123584
  32 S :    0.413501
  33 C :   -0.036983
  34 C :    0.021027
  35 C :   -0.035512
  36 C :    0.054517
  37 C :   -0.090205
  38 C :    0.068303
  39 C :   -0.156062
  40 C :   -0.018261
  41 N :   -0.065492
  42 C :   -0.022818
  43 N :   -0.051356
  44 C :   -0.024282
  45 C :   -0.055917
  46 C :    0.082329
  47 O :   -0.149845
  48 C :    0.018280
  49 C :   -0.033343
  50 C :   -0.138524
  51 C :   -0.007699
  52 S :    0.461099
  53 C :   -0.273785
  54 C :   -0.077442
  55 Br:    0.136445
  56 H :    0.039831
  57 H :    0.040604
  58 H :    0.038283
  59 H :    0.043745
  60 H :    0.034318
  61 H :    0.032534
  62 H :    0.037784
  63 H :    0.037585
  64 H :    0.035824
  65 H :    0.036120
  66 H :    0.038355
  67 H :    0.038114
  68 H :    0.025356
  69 H :    0.034576
  70 H :    0.046184
  71 H :    0.039364
  72 H :    0.038122
  73 H :    0.035460

  Mayer bond orders larger than 0.100000
B(  0-C ,  1-C ) :   1.5748 B(  0-C ,  6-C ) :   0.9941 B(  0-C , 18-C ) :   1.1101
B(  1-C ,  2-C ) :   1.1523 B(  1-C ,  4-C ) :   1.1545 B(  2-C ,  3-N ) :   2.9638
B(  4-C ,  5-N ) :   2.8844 B(  6-C ,  7-C ) :   1.2753 B(  6-C , 11-C ) :   1.4161
B(  7-C ,  8-C ) :   1.4292 B(  7-C , 16-C ) :   0.9345 B(  8-C ,  9-C ) :   1.2405
B(  8-C , 56-H ) :   1.0165 B(  9-C , 10-C ) :   1.3129 B(  9-C , 14-C ) :   1.1616
B( 10-C , 11-C ) :   1.3239 B( 10-C , 12-S ) :   1.0842 B( 11-C , 57-H ) :   0.9802
B( 12-S , 13-C ) :   1.0861 B( 13-C , 14-C ) :   1.6186 B( 13-C , 15-Br) :   1.0158
B( 14-C , 58-H ) :   1.0004 B( 16-C , 17-O ) :   2.2076 B( 16-C , 18-C ) :   0.9564
B( 18-C , 19-C ) :   1.4473 B( 19-C , 20-C ) :   1.2334 B( 19-C , 59-H ) :   0.9613
B( 20-C , 21-C ) :   1.4617 B( 20-C , 60-H ) :   0.9955 B( 21-C , 22-C ) :   1.2059
B( 21-C , 61-H ) :   0.9708 B( 22-C , 23-C ) :   1.4742 B( 22-C , 62-H ) :   0.9894
B( 23-C , 24-C ) :   1.1705 B( 23-C , 27-S ) :   1.0770 B( 24-C , 25-C ) :   1.5542
B( 24-C , 63-H ) :   1.0002 B( 25-C , 26-C ) :   1.2149 B( 25-C , 64-H ) :   0.9953
B( 26-C , 27-S ) :   1.0703 B( 26-C , 28-C ) :   1.4473 B( 28-C , 29-C ) :   1.2122
B( 28-C , 32-S ) :   1.0799 B( 29-C , 30-C ) :   1.5622 B( 29-C , 65-H ) :   0.9950
B( 30-C , 31-C ) :   1.1695 B( 30-C , 66-H ) :   0.9974 B( 31-C , 32-S ) :   1.0535
B( 31-C , 33-C ) :   1.5077 B( 33-C , 34-C ) :   1.2219 B( 33-C , 67-H ) :   0.9864
B( 34-C , 35-C ) :   1.5440 B( 34-C , 68-H ) :   0.9510 B( 35-C , 36-C ) :   1.2181
B( 35-C , 69-H ) :   0.9711 B( 36-C , 37-C ) :   1.5961 B( 36-C , 70-H ) :   0.9269
B( 37-C , 38-C ) :   1.0511 B( 37-C , 46-C ) :   0.9505 B( 38-C , 39-C ) :   1.5935
B( 38-C , 44-C ) :   1.0303 B( 39-C , 40-C ) :   1.1260 B( 39-C , 42-C ) :   1.1885
B( 40-C , 41-N ) :   2.9722 B( 42-C , 43-N ) :   2.9883 B( 44-C , 45-C ) :   1.2621
B( 44-C , 51-C ) :   1.3851 B( 45-C , 46-C ) :   0.9288 B( 45-C , 48-C ) :   1.4301
B( 46-C , 47-O ) :   2.2412 B( 48-C , 49-C ) :   1.2462 B( 48-C , 71-H ) :   1.0162
B( 49-C , 50-C ) :   1.2963 B( 49-C , 54-C ) :   1.1681 B( 50-C , 51-C ) :   1.3447
B( 50-C , 52-S ) :   1.0921 B( 51-C , 72-H ) :   0.9796 B( 52-S , 53-C ) :   1.0881
B( 53-C , 54-C ) :   1.6080 B( 53-C , 55-Br) :   1.0211 B( 54-C , 73-H ) :   1.0003

-----------------------------------------------------------------------------
         ABSORPTION SPECTRUM VIA TRANSITION ELECTRIC DIPOLE MOMENTS
-----------------------------------------------------------------------------
State   Energy  Wavelength   fosc         T2         TX        TY        TZ
        (cm-1)    (nm)                  (au**2)     (au)      (au)      (au)
-----------------------------------------------------------------------------
   0    8743.3   1143.7   0.528265012  19.89084   3.39359   2.79834  -0.73733
   1   15988.7    625.4   0.335950139   6.91730  -2.48241   0.70535   0.50738
   2   19190.6    521.1   0.357588277   6.13438  -2.20516   1.12110   0.12164
   3   20074.1    498.2   0.524869293   8.60776   2.67371  -0.91463  -0.78896
   4   21673.1    461.4   0.372391594   5.65658  -0.73012   2.20825   0.49710
   5   23571.9    424.2   0.088915038   1.24181   0.41476  -1.03238  -0.06303
   6   23904.4    418.3   0.049427939   0.68072  -0.44285   0.60692   0.34096
   7   24348.2    410.7   0.403300292   5.45302   2.27131   0.28574  -0.46099
   8   25559.0    391.3   0.039693231   0.51127   0.70774  -0.09299  -0.04144
   9   26634.5    375.5   0.032601313   0.40296  -0.00245  -0.58709  -0.24142
  10   26791.9    373.2   0.003951095   0.04855   0.09950  -0.15949  -0.11494
  11   27486.9    363.8   0.083399473   0.99888  -0.63855  -0.72213   0.26392
  12   27621.5    362.0   0.128270139   1.52881  -0.52389   0.70710   0.86854
  13   27647.1    361.7   0.225609847   2.68648   1.30081  -0.72288  -0.68688
  14   28090.1    356.0   0.074613160   0.87446   0.88978   0.12769  -0.25775
  15   28648.2    349.1   0.100362806   1.15332   0.45385   0.97011   0.07889
  16   30258.7    330.5   0.121341720   1.32019   1.00765   0.06616  -0.54814
  17   31204.7    320.5   0.282451021   2.97988   1.60077   0.26594  -0.58880
  18   31408.4    318.4   0.034925977   0.36608   0.36996   0.42861   0.21331
  19   31661.0    315.8   0.216355681   2.24967  -0.35565  -1.33065  -0.59375
  20   31785.8    314.6   0.015647799   0.16207   0.15988   0.34485   0.13260
  21   32210.4    310.5   0.397970595   4.06753  -1.64936   0.48217   1.05577
  22   32550.7    307.2   0.179886738   1.81934  -1.17550  -0.54806   0.37035
  23   32823.2    304.7   0.009350494   0.09378  -0.14841   0.14642   0.22432
  24   33264.0    300.6   0.008819250   0.08728  -0.20078   0.21660  -0.00754
  25   33921.5    294.8   0.050887304   0.49387   0.28321  -0.56165  -0.31338
  26   34311.7    291.4   0.013720082   0.13164   0.27069  -0.15541  -0.18496
  27   34496.8    289.9   0.028183633   0.26896   0.38740  -0.22130  -0.26440
  28   34664.7    288.5   0.005606186   0.05324   0.12190   0.17757  -0.08277
  29   34989.2    285.8   0.081289733   0.76485   0.52580   0.69875  -0.01154
  30   35866.6    278.8   0.232045182   2.12990  -0.28835  -1.43064   0.00565
  31   36149.5    276.6   0.121804844   1.10927   0.20391   0.94812   0.41081
  32   36532.9    273.7   0.174344456   1.57108  -0.41953  -1.16176  -0.21307
  33   37088.4    269.6   0.017824307   0.15822   0.03253   0.39287   0.05300
  34   37541.9    266.4   0.078255463   0.68624   0.30951   0.76826  -0.01447
  35   37918.8    263.7   0.020563175   0.17853  -0.16282   0.31748   0.22633
  36   38152.1    262.1   0.005490496   0.04738   0.19433   0.04712  -0.08597
  37   38260.2    261.4   0.117316077   1.00945   0.87931   0.22703  -0.42979
  38   38360.6    260.7   0.078284038   0.67184   0.56905   0.56454  -0.17121
  39   38879.2    257.2   0.007046369   0.05967  -0.14950  -0.14761   0.12461
  40   39013.6    256.3   0.023630125   0.19940   0.32315  -0.11691  -0.28514
  41   39345.2    254.2   0.012668861   0.10600  -0.05036  -0.32084  -0.02305
  42   39605.4    252.5   0.015130977   0.12577   0.20622   0.27863  -0.07493
  43   39788.3    251.3   0.104972696   0.86855   0.63784   0.63203  -0.24950
  44   39913.1    250.5   0.004103594   0.03385  -0.18036  -0.03396  -0.01276

FINAL SINGLE POINT ENERGY     -8794.423373651933

DIPOLE MOMENT
-------------
                                X             Y             Z
Electronic contribution:    161.56495     -24.13609     -66.66524
Nuclear contribution   :   -163.70992      26.86821      66.43410
                        -----------------------------------------
Total Dipole Moment    :     -2.14497       2.73212      -0.23114
                        -----------------------------------------
Magnitude (a.u.)       :      3.48121
Magnitude (Debye)      :      8.84852

Rotational constants in cm-1:     0.001498     0.000521     0.000396
Rotational constants in MHz :    44.920490    15.622850    11.858214

                             ****ORCA TERMINATED NORMALLY****
TOTAL RUN TIME: 0 days 0 hours 7 minutes 21 seconds 102 msec
