                         Program Version 4.2.0 -  RELEASE  -
|  1> # ORCA input file
|  2> # SCF done       -155.219032360783          0.000543922108
|  3> ! CAM-B3LYP def2-SVP def2/J RIJCOSX Grid4 TightSCF
|  4> %maxcore 5000
|  5> %tddft
|  6>     Mode sTDDFT
|  7>     Ethresh 5.0
|  8>     maxcore 5000
|  9> end
| 10>
| 11> %pal
| 12>   nprocs 6
| 13>   end
| 14> * xyz 0 1
| 15>    C       -1.89926         1.25781        -1.78677
| 16>    C       -2.15556        -0.09082        -1.90821
| 17>    C       -1.16663        -1.06478        -2.14364
| 18>    N       -0.41411        -1.91197        -2.33623
| 19>    C       -3.41835        -0.70609        -1.81685
| 20>    N       -4.40020        -1.30249        -1.75833
| 21>    C       -0.57329         1.86885        -1.88107
| 22>    C       -0.70557         3.26568        -1.69328
| 23>    C        0.36476         4.12369        -1.72535
| 24>    C        1.63249         3.57736        -1.95710
| 25>    C        1.75534         2.18219        -2.14569
| 26>    C        0.67020         1.31328        -2.11106
| 27>    S        3.40814         1.71779        -2.42117
| 28>    C        3.90268         3.38384        -2.28023
| 29>    C        2.88598         4.24435        -2.03960
| 30>   Br        5.71603         3.83006        -2.46568
| 31>    C       -2.13203         3.59352        -1.47679
| 32>    O       -2.58895         4.70449        -1.28322
| 33>    C       -2.84980         2.30922        -1.54873
| 34>    C       -4.22018         2.16884        -1.41951
| 35>    C       -5.11288         3.21036        -1.20901
| 36>    C       -6.48062         3.01963        -1.11070
| 37>    C       -7.46128         4.01778        -0.92598
| 38>    C       -8.74159         3.54216        -0.88825
| 39>    C       -8.82919         2.14422        -1.03528
| 40>    S       -7.23534         1.44725        -1.22194
| 41>    C       -9.96428         1.34902        -1.05913
| 42>    C      -11.31343         1.75688        -0.95507
| 43>    C      -12.19886         0.72878        -1.05644
| 44>    C      -11.59884        -0.54647        -1.23014
| 45>    S       -9.85414        -0.37803        -1.25223
| 46>    C      -12.30292        -1.70760        -1.42752
| 47>    C      -11.83170        -3.02125        -1.58926
| 48>    S      -12.95287        -4.22307        -2.22698
| 49>    C      -11.75482        -5.46725        -2.16022
| 50>    C      -10.56010        -4.97678        -1.66463
| 51>    C      -10.59970        -3.61320        -1.31842
| 52>    O       -9.57775        -2.96781        -0.74259
| 53>    S       -9.12700        -6.00121        -1.40419
| 54>    N      -11.94847        -6.76110        -2.52119
| 55>    C      -13.03838        -7.35515        -3.07524
| 56>    S      -14.43213        -6.44812        -3.55481
| 57>    C      -15.16664        -7.91731        -4.11876
| 58>    N      -16.44193        -7.82304        -4.67592
| 59>    O      -16.96752        -8.84714        -5.07520
| 60>    O      -16.93686        -6.70739        -4.72319
| 61>    C      -14.38127        -9.02485        -3.93982
| 62>    C      -13.14611        -8.73066        -3.33454
| 63>    C      -12.13199        -9.69509        -2.99571
| 64>    C      -12.22866       -11.02289        -3.19731
| 65>    C      -11.20118       -11.94621        -2.81691
| 66>    C      -11.25313       -13.27842        -2.97759
| 67>    C      -12.41205       -14.01224        -3.57559
| 68>    C      -10.10080       -14.14998        -2.55503
| 69>    N      -10.55649       -15.16101        -1.62743
| 70>    C       -9.86685       -16.34212        -1.46862
| 71>    C       -9.90784       -17.10817        -0.38518
| 72>    H        0.23017         5.18385        -1.57791
| 73>    H        0.81872         0.25713        -2.26120
| 74>    H        3.01159         5.30560        -1.92500
| 75>    H       -4.64145         1.17367        -1.49652
| 76>    H       -4.73479         4.21896        -1.12702
| 77>    H       -7.19245         5.05472        -0.83118
| 78>    H       -9.61246         4.15937        -0.75872
| 79>    H      -11.59164         2.78576        -0.81579
| 80>    H      -13.26796         0.83941        -1.01140
| 81>    H      -13.37758        -1.59896        -1.51110
| 82>    H       -8.84046        -3.58191        -0.59264
| 83>    H       -8.39821        -5.50695        -2.40983
| 84>    H      -11.14458        -7.36159        -2.35301
| 85>    H      -14.70549       -10.00327        -4.24113
| 86>    H      -11.23057        -9.31781        -2.52818
| 87>    H      -13.11138       -11.43164        -3.66234
| 88>    H      -10.31716       -11.51044        -2.36664
| 89>    H      -13.36243       -13.61988        -3.22243
| 90>    H      -12.35190       -15.06571        -3.31476
| 91>    H      -12.39211       -13.92469        -4.66245
| 92>    H       -9.29178       -13.53129        -2.13498
| 93>    H       -9.70484       -14.66764        -3.43656
| 94>    H      -10.95222       -14.79088        -0.77394
| 95>    H       -9.31454       -16.64794        -2.34784
| 96>    H      -10.45380       -16.81550         0.49549
| 97>    H       -9.41061       -18.05852        -0.35602
| 98> *
| 99>
|100>                          ****END OF INPUT****

CARTESIAN COORDINATES (ANGSTROEM)
---------------------------------
  C     -1.899260    1.257810   -1.786770
  C     -2.155560   -0.090820   -1.908210
  C     -1.166630   -1.064780   -2.143640
  N     -0.414110   -1.911970   -2.336230
  C     -3.418350   -0.706090   -1.816850
  N     -4.400200   -1.302490   -1.758330
  C     -0.573290    1.868850   -1.881070
  C     -0.705570    3.265680   -1.693280
  C      0.364760    4.123690   -1.725350
  C      1.632490    3.577360   -1.957100
  C      1.755340    2.182190   -2.145690
  C      0.670200    1.313280   -2.111060
  S      3.408140    1.717790   -2.421170
  C      3.902680    3.383840   -2.280230
  C      2.885980    4.244350   -2.039600
  Br     5.716030    3.830060   -2.465680
  C     -2.132030    3.593520   -1.476790
  O     -2.588950    4.704490   -1.283220
  C     -2.849800    2.309220   -1.548730
  C     -4.220180    2.168840   -1.419510
  C     -5.112880    3.210360   -1.209010
  C     -6.480620    3.019630   -1.110700
  C     -7.461280    4.017780   -0.925980
  C     -8.741590    3.542160   -0.888250
  C     -8.829190    2.144220   -1.035280
  S     -7.235340    1.447250   -1.221940
  C     -9.964280    1.349020   -1.059130
  C    -11.313430    1.756880   -0.955070
  C    -12.198860    0.728780   -1.056440
  C    -11.598840   -0.546470   -1.230140
  S     -9.854140   -0.378030   -1.252230
  C    -12.302920   -1.707600   -1.427520
  C    -11.831700   -3.021250   -1.589260
  S    -12.952870   -4.223070   -2.226980
  C    -11.754820   -5.467250   -2.160220
  C    -10.560100   -4.976780   -1.664630
  C    -10.599700   -3.613200   -1.318420
  O     -9.577750   -2.967810   -0.742590
  S     -9.127000   -6.001210   -1.404190
  N    -11.948470   -6.761100   -2.521190
  C    -13.038380   -7.355150   -3.075240
  S    -14.432130   -6.448120   -3.554810
  C    -15.166640   -7.917310   -4.118760
  N    -16.441930   -7.823040   -4.675920
  O    -16.967520   -8.847140   -5.075200
  O    -16.936860   -6.707390   -4.723190
  C    -14.381270   -9.024850   -3.939820
  C    -13.146110   -8.730660   -3.334540
  C    -12.131990   -9.695090   -2.995710
  C    -12.228660  -11.022890   -3.197310
  C    -11.201180  -11.946210   -2.816910
  C    -11.253130  -13.278420   -2.977590
  C    -12.412050  -14.012240   -3.575590
  C    -10.100800  -14.149980   -2.555030
  N    -10.556490  -15.161010   -1.627430
  C     -9.866850  -16.342120   -1.468620
  C     -9.907840  -17.108170   -0.385180
  H      0.230170    5.183850   -1.577910
  H      0.818720    0.257130   -2.261200
  H      3.011590    5.305600   -1.925000
  H     -4.641450    1.173670   -1.496520
  H     -4.734790    4.218960   -1.127020
  H     -7.192450    5.054720   -0.831180
  H     -9.612460    4.159370   -0.758720
  H    -11.591640    2.785760   -0.815790
  H    -13.267960    0.839410   -1.011400
  H    -13.377580   -1.598960   -1.511100
  H     -8.840460   -3.581910   -0.592640
  H     -8.398210   -5.506950   -2.409830
  H    -11.144580   -7.361590   -2.353010
  H    -14.705490  -10.003270   -4.241130
  H    -11.230570   -9.317810   -2.528180
  H    -13.111380  -11.431640   -3.662340
  H    -10.317160  -11.510440   -2.366640
  H    -13.362430  -13.619880   -3.222430
  H    -12.351900  -15.065710   -3.314760
  H    -12.392110  -13.924690   -4.662450
  H     -9.291780  -13.531290   -2.134980
  H     -9.704840  -14.667640   -3.436560
  H    -10.952220  -14.790880   -0.773940
  H     -9.314540  -16.647940   -2.347840
  H    -10.453800  -16.815500    0.495490
  H     -9.410610  -18.058520   -0.356020

 Total Charge           Charge          ....    0
 Multiplicity           Mult            ....    1
 Number of Electrons    NEL             ....  470
 Basis Dimension        Dim             ....  970

ORBITAL ENERGIES
----------------

  NO   OCC          E(Eh)            E(eV)
   0   2.0000    -482.873344    -13139.6517
   1   2.0000     -88.994961     -2421.6760
   2   2.0000     -88.992559     -2421.6107
   3   2.0000     -88.976029     -2421.1608
   4   2.0000     -88.960012     -2420.7250
   5   2.0000     -88.956761     -2420.6365
   6   2.0000     -88.951754     -2420.5003
   7   2.0000     -62.551052     -1702.1006
   8   2.0000     -56.384984     -1534.3134
   9   2.0000     -56.382303     -1534.2405
  10   2.0000     -56.382262     -1534.2393
  11   2.0000     -19.282241      -524.6965
  12   2.0000     -19.239584      -523.5357
  13   2.0000     -19.239393      -523.5305
  14   2.0000     -19.191608      -522.2302
  15   2.0000     -14.651553      -398.6890
  16   2.0000     -14.506960      -394.7544
  17   2.0000     -14.414373      -392.2350
  18   2.0000     -14.395694      -391.7268
  19   2.0000     -14.391826      -391.6215
  20   2.0000     -10.388463      -282.6844
  21   2.0000     -10.380134      -282.4578
  22   2.0000     -10.375199      -282.3235
  23   2.0000     -10.346910      -281.5537
  24   2.0000     -10.343684      -281.4659
  25   2.0000     -10.341874      -281.4167
  26   2.0000     -10.328620      -281.0560
  27   2.0000     -10.327152      -281.0161
  28   2.0000     -10.321036      -280.8497
  29   2.0000     -10.319164      -280.7987
  30   2.0000     -10.318859      -280.7904
  31   2.0000     -10.317328      -280.7488
  32   2.0000     -10.316593      -280.7288
  33   2.0000     -10.314782      -280.6795
  34   2.0000     -10.313189      -280.6361
  35   2.0000     -10.311486      -280.5898
  36   2.0000     -10.308014      -280.4953
  37   2.0000     -10.307881      -280.4917
  38   2.0000     -10.307465      -280.4804
  39   2.0000     -10.303248      -280.3656
  40   2.0000     -10.300716      -280.2967
  41   2.0000     -10.298578      -280.2386
  42   2.0000     -10.297603      -280.2120
  43   2.0000     -10.297058      -280.1972
  44   2.0000     -10.295365      -280.1511
  45   2.0000     -10.293610      -280.1034
  46   2.0000     -10.289428      -279.9896
  47   2.0000     -10.289362      -279.9878
  48   2.0000     -10.288746      -279.9710
  49   2.0000     -10.287461      -279.9360
  50   2.0000     -10.286611      -279.9129
  51   2.0000     -10.285864      -279.8926
  52   2.0000     -10.282927      -279.8127
  53   2.0000     -10.282228      -279.7936
  54   2.0000     -10.281703      -279.7794
  55   2.0000     -10.274998      -279.5969
  56   2.0000     -10.271000      -279.4881
  57   2.0000     -10.266265      -279.3593
  58   2.0000     -10.265560      -279.3401
  59   2.0000     -10.262612      -279.2599
  60   2.0000     -10.233289      -278.4620
  61   2.0000      -8.780467      -238.9287
  62   2.0000      -8.090168      -220.1447
  63   2.0000      -8.087824      -220.0809
  64   2.0000      -8.069941      -219.5942
  65   2.0000      -8.056003      -219.2150
  66   2.0000      -8.052596      -219.1223
  67   2.0000      -8.047752      -218.9905
  68   2.0000      -6.616691      -180.0493
  69   2.0000      -6.602215      -179.6554
  70   2.0000      -6.602077      -179.6516
  71   2.0000      -6.059883      -164.8978
  72   2.0000      -6.057540      -164.8340
  73   2.0000      -6.055431      -164.7766
  74   2.0000      -6.053398      -164.7213
  75   2.0000      -6.051565      -164.6715
  76   2.0000      -6.048982      -164.6012
  77   2.0000      -6.040110      -164.3597
  78   2.0000      -6.036140      -164.2517
  79   2.0000      -6.030454      -164.0970
  80   2.0000      -6.025696      -163.9675
  81   2.0000      -6.022340      -163.8762
  82   2.0000      -6.021449      -163.8520
  83   2.0000      -6.018019      -163.7586
  84   2.0000      -6.017300      -163.7390
  85   2.0000      -6.017212      -163.7367
  86   2.0000      -6.013609      -163.6386
  87   2.0000      -6.013295      -163.6301
  88   2.0000      -6.009022      -163.5138
  89   2.0000      -2.732576       -74.3572
  90   2.0000      -2.728526       -74.2470
  91   2.0000      -2.728383       -74.2431
  92   2.0000      -2.716898       -73.9305
  93   2.0000      -2.716882       -73.9301
  94   2.0000      -1.319974       -35.9183
  95   2.0000      -1.182530       -32.1783
  96   2.0000      -1.138989       -30.9935
  97   2.0000      -1.116546       -30.3828
  98   2.0000      -1.104932       -30.0667
  99   2.0000      -1.021788       -27.8043
 100   2.0000      -1.017683       -27.6926
 101   2.0000      -1.006507       -27.3884
 102   2.0000      -1.003753       -27.3135
 103   2.0000      -0.998604       -27.1734
 104   2.0000      -0.993452       -27.0332
 105   2.0000      -0.981929       -26.7196
 106   2.0000      -0.973238       -26.4832
 107   2.0000      -0.967926       -26.3386
 108   2.0000      -0.933235       -25.3946
 109   2.0000      -0.927273       -25.2324
 110   2.0000      -0.924188       -25.1484
 111   2.0000      -0.908591       -24.7240
 112   2.0000      -0.903550       -24.5868
 113   2.0000      -0.890696       -24.2371
 114   2.0000      -0.887397       -24.1473
 115   2.0000      -0.887311       -24.1450
 116   2.0000      -0.867838       -23.6151
 117   2.0000      -0.865594       -23.5540
 118   2.0000      -0.856552       -23.3080
 119   2.0000      -0.855611       -23.2824
 120   2.0000      -0.845826       -23.0161
 121   2.0000      -0.831963       -22.6389
 122   2.0000      -0.830634       -22.6027
 123   2.0000      -0.823656       -22.4128
 124   2.0000      -0.819069       -22.2880
 125   2.0000      -0.811261       -22.0755
 126   2.0000      -0.799228       -21.7481
 127   2.0000      -0.784941       -21.3593
 128   2.0000      -0.772896       -21.0316
 129   2.0000      -0.760856       -20.7039
 130   2.0000      -0.749507       -20.3951
 131   2.0000      -0.737813       -20.0769
 132   2.0000      -0.731443       -19.9036
 133   2.0000      -0.718787       -19.5592
 134   2.0000      -0.715935       -19.4816
 135   2.0000      -0.697306       -18.9747
 136   2.0000      -0.679435       -18.4884
 137   2.0000      -0.677473       -18.4350
 138   2.0000      -0.675163       -18.3721
 139   2.0000      -0.669368       -18.2144
 140   2.0000      -0.667441       -18.1620
 141   2.0000      -0.656823       -17.8731
 142   2.0000      -0.654084       -17.7985
 143   2.0000      -0.646055       -17.5801
 144   2.0000      -0.641268       -17.4498
 145   2.0000      -0.638433       -17.3726
 146   2.0000      -0.634364       -17.2619
 147   2.0000      -0.632766       -17.2184
 148   2.0000      -0.626414       -17.0456
 149   2.0000      -0.623664       -16.9708
 150   2.0000      -0.611754       -16.6467
 151   2.0000      -0.610275       -16.6064
 152   2.0000      -0.603723       -16.4281
 153   2.0000      -0.596309       -16.2264
 154   2.0000      -0.588539       -16.0150
 155   2.0000      -0.580627       -15.7997
 156   2.0000      -0.579266       -15.7626
 157   2.0000      -0.576542       -15.6885
 158   2.0000      -0.575246       -15.6532
 159   2.0000      -0.572310       -15.5733
 160   2.0000      -0.566163       -15.4061
 161   2.0000      -0.561624       -15.2826
 162   2.0000      -0.558677       -15.2024
 163   2.0000      -0.553909       -15.0726
 164   2.0000      -0.544405       -14.8140
 165   2.0000      -0.536827       -14.6078
 166   2.0000      -0.535146       -14.5621
 167   2.0000      -0.529820       -14.4171
 168   2.0000      -0.525013       -14.2863
 169   2.0000      -0.522915       -14.2292
 170   2.0000      -0.518465       -14.1081
 171   2.0000      -0.518077       -14.0976
 172   2.0000      -0.511668       -13.9232
 173   2.0000      -0.509110       -13.8536
 174   2.0000      -0.505894       -13.7661
 175   2.0000      -0.504675       -13.7329
 176   2.0000      -0.501367       -13.6429
 177   2.0000      -0.500070       -13.6076
 178   2.0000      -0.496627       -13.5139
 179   2.0000      -0.491497       -13.3743
 180   2.0000      -0.490395       -13.3443
 181   2.0000      -0.488611       -13.2958
 182   2.0000      -0.485596       -13.2137
 183   2.0000      -0.481417       -13.1000
 184   2.0000      -0.478594       -13.0232
 185   2.0000      -0.475497       -12.9389
 186   2.0000      -0.474929       -12.9235
 187   2.0000      -0.473251       -12.8778
 188   2.0000      -0.471487       -12.8298
 189   2.0000      -0.470979       -12.8160
 190   2.0000      -0.467862       -12.7312
 191   2.0000      -0.462504       -12.5854
 192   2.0000      -0.454873       -12.3777
 193   2.0000      -0.452561       -12.3148
 194   2.0000      -0.449552       -12.2329
 195   2.0000      -0.442923       -12.0525
 196   2.0000      -0.441578       -12.0159
 197   2.0000      -0.440713       -11.9924
 198   2.0000      -0.437477       -11.9044
 199   2.0000      -0.436458       -11.8766
 200   2.0000      -0.432670       -11.7735
 201   2.0000      -0.429965       -11.7000
 202   2.0000      -0.427616       -11.6360
 203   2.0000      -0.424916       -11.5626
 204   2.0000      -0.424100       -11.5403
 205   2.0000      -0.422278       -11.4908
 206   2.0000      -0.421555       -11.4711
 207   2.0000      -0.411228       -11.1901
 208   2.0000      -0.406935       -11.0733
 209   2.0000      -0.403748       -10.9865
 210   2.0000      -0.400620       -10.9014
 211   2.0000      -0.395103       -10.7513
 212   2.0000      -0.394363       -10.7312
 213   2.0000      -0.387366       -10.5408
 214   2.0000      -0.387229       -10.5370
 215   2.0000      -0.380501       -10.3539
 216   2.0000      -0.379643       -10.3306
 217   2.0000      -0.373774       -10.1709
 218   2.0000      -0.368437       -10.0257
 219   2.0000      -0.367727       -10.0064
 220   2.0000      -0.362986        -9.8773
 221   2.0000      -0.361887        -9.8474
 222   2.0000      -0.352385        -9.5889
 223   2.0000      -0.344358        -9.3705
 224   2.0000      -0.340568        -9.2673
 225   2.0000      -0.329190        -8.9577
 226   2.0000      -0.324489        -8.8298
 227   2.0000      -0.312586        -8.5059
 228   2.0000      -0.312255        -8.4969
 229   2.0000      -0.297985        -8.1086
 230   2.0000      -0.285209        -7.7609
 231   2.0000      -0.276173        -7.5151
 232   2.0000      -0.266214        -7.2441
 233   2.0000      -0.261576        -7.1178
 234   2.0000      -0.216935        -5.9031
 235   0.0000      -0.101814        -2.7705
 236   0.0000      -0.062584        -1.7030
 237   0.0000      -0.050336        -1.3697
 238   0.0000      -0.037352        -1.0164
 239   0.0000      -0.026423        -0.7190

MULLIKEN ATOMIC CHARGES
-----------------------
   0 C :    0.331375
   1 C :   -0.373071
   2 C :   -0.191447
   3 N :    0.129482
   4 C :   -0.189500
   5 N :    0.114423
   6 C :    0.014599
   7 C :   -0.009841
   8 C :   -0.079668
   9 C :    0.118447
  10 C :   -0.093557
  11 C :   -0.028370
  12 S :    0.174993
  13 C :   -0.122332
  14 C :    0.033908
  15 Br:    0.010195
  16 C :    0.133392
  17 O :   -0.168608
  18 C :   -0.096336
  19 C :   -0.039535
  20 C :   -0.030580
  21 C :    0.008917
  22 C :    0.018291
  23 C :    0.044941
  24 C :   -0.066225
  25 S :    0.101941
  26 C :   -0.022469
  27 C :    0.023578
  28 C :    0.044009
  29 C :   -0.043613
  30 S :    0.134521
  31 C :    0.042937
  32 C :   -0.185929
  33 S :    0.128864
  34 C :   -0.081275
  35 C :   -0.131462
  36 C :    0.177246
  37 O :   -0.156209
  38 S :    0.011056
  39 N :   -0.002119
  40 C :   -0.105490
  41 S :    0.153088
  42 C :    0.002993
  43 N :    0.276509
  44 O :   -0.250924
  45 O :   -0.269172
  46 C :    0.007130
  47 C :    0.141481
  48 C :   -0.040837
  49 C :    0.013415
  50 C :    0.004904
  51 C :   -0.212546
  52 C :    0.092839
  53 C :    0.230459
  54 N :   -0.208545
  55 C :    0.046495
  56 C :   -0.080430
  57 H :   -0.016877
  58 H :   -0.011315
  59 H :   -0.007165
  60 H :    0.010251
  61 H :    0.012994
  62 H :   -0.004328
  63 H :   -0.008562
  64 H :   -0.010001
  65 H :   -0.003547
  66 H :   -0.002979
  67 H :    0.187364
  68 H :    0.091888
  69 H :    0.146809
  70 H :    0.009803
  71 H :   -0.037989
  72 H :   -0.015982
  73 H :   -0.033780
  74 H :    0.025579
  75 H :    0.027327
  76 H :    0.030215
  77 H :   -0.003556
  78 H :    0.015750
  79 H :    0.107263
  80 H :   -0.001201
  81 H :   -0.005736
  82 H :    0.011434
Sum of atomic charges:    0.0000000

LOEWDIN ATOMIC CHARGES
----------------------
   0 C :    0.074282
   1 C :   -0.167226
   2 C :   -0.019552
   3 N :   -0.078406
   4 C :   -0.018562
   5 N :   -0.083634
   6 C :   -0.017363
   7 C :   -0.047506
   8 C :    0.014967
   9 C :   -0.037290
  10 C :   -0.147141
  11 C :   -0.015636
  12 S :    0.423872
  13 C :   -0.276372
  14 C :   -0.071238
  15 Br:    0.126302
  16 C :    0.080576
  17 O :   -0.162728
  18 C :   -0.118845
  19 C :    0.047701
  20 C :   -0.082702
  21 C :   -0.101264
  22 C :   -0.052282
  23 C :   -0.006627
  24 C :   -0.205648
  25 S :    0.409269
  26 C :   -0.145007
  27 C :   -0.049176
  28 C :   -0.007135
  29 C :   -0.170088
  30 S :    0.426779
  31 C :   -0.035106
  32 C :   -0.234060
  33 S :    0.432410
  34 C :   -0.120462
  35 C :   -0.292355
  36 C :    0.028433
  37 O :   -0.024852
  38 S :    0.228654
  39 N :    0.036191
  40 C :   -0.110901
  41 S :    0.456428
  42 C :   -0.211290
  43 N :    0.274325
  44 O :   -0.218244
  45 O :   -0.235266
  46 C :    0.006325
  47 C :   -0.097163
  48 C :   -0.041804
  49 C :   -0.009961
  50 C :   -0.058218
  51 C :   -0.023475
  52 C :   -0.055251
  53 C :    0.043819
  54 N :   -0.045423
  55 C :    0.019773
  56 C :   -0.151155
  57 H :    0.037984
  58 H :    0.039329
  59 H :    0.037020
  60 H :    0.029819
  61 H :    0.037195
  62 H :    0.036933
  63 H :    0.033958
  64 H :    0.032669
  65 H :    0.036229
  66 H :    0.038966
  67 H :    0.086858
  68 H :   -0.008849
  69 H :    0.084791
  70 H :    0.044653
  71 H :    0.020574
  72 H :    0.026127
  73 H :    0.022681
  74 H :    0.032356
  75 H :    0.033210
  76 H :    0.039171
  77 H :    0.012539
  78 H :    0.031585
  79 H :    0.071731
  80 H :    0.022601
  81 H :    0.013856
  82 H :    0.022322

  Mayer bond orders larger than 0.100000
B(  0-C ,  1-C ) :   1.5602 B(  0-C ,  6-C ) :   0.9860 B(  0-C , 18-C ) :   1.1348
B(  1-C ,  2-C ) :   1.1514 B(  1-C ,  4-C ) :   1.1588 B(  2-C ,  3-N ) :   2.9598
B(  4-C ,  5-N ) :   2.9531 B(  6-C ,  7-C ) :   1.2794 B(  6-C , 11-C ) :   1.4230
B(  7-C ,  8-C ) :   1.4347 B(  7-C , 16-C ) :   0.9334 B(  8-C ,  9-C ) :   1.2357
B(  8-C , 57-H ) :   1.0162 B(  9-C , 10-C ) :   1.3200 B(  9-C , 14-C ) :   1.1606
B( 10-C , 11-C ) :   1.3169 B( 10-C , 12-S ) :   1.0814 B( 11-C , 58-H ) :   0.9794
B( 12-S , 13-C ) :   1.0842 B( 13-C , 14-C ) :   1.6216 B( 13-C , 15-Br) :   1.0103
B( 14-C , 59-H ) :   1.0000 B( 16-C , 17-O ) :   2.1825 B( 16-C , 18-C ) :   0.9748
B( 18-C , 19-C ) :   1.4367 B( 19-C , 20-C ) :   1.2984 B( 19-C , 60-H ) :   0.9440
B( 20-C , 21-C ) :   1.3761 B( 20-C , 61-H ) :   0.9793 B( 21-C , 22-C ) :   1.2005
B( 21-C , 25-S ) :   1.0979 B( 22-C , 23-C ) :   1.5136 B( 22-C , 62-H ) :   1.0025
B( 23-C , 24-C ) :   1.2394 B( 23-C , 63-H ) :   0.9946 B( 24-C , 25-S ) :   1.0410
B( 24-C , 26-C ) :   1.4396 B( 26-C , 27-C ) :   1.1995 B( 26-C , 30-S ) :   1.0882
B( 27-C , 28-C ) :   1.5718 B( 27-C , 64-H ) :   0.9950 B( 28-C , 29-C ) :   1.1517
B( 28-C , 65-H ) :   0.9998 B( 29-C , 30-S ) :   1.0336 B( 29-C , 31-C ) :   1.6006
B( 31-C , 32-C ) :   1.1834 B( 31-C , 66-H ) :   0.9407 B( 32-C , 33-S ) :   1.0322
B( 32-C , 36-C ) :   1.4296 B( 33-S , 34-C ) :   1.1619 B( 34-C , 35-C ) :   1.4698
B( 34-C , 39-N ) :   1.2086 B( 35-C , 36-C ) :   1.2770 B( 35-C , 38-S ) :   1.0316
B( 36-C , 37-O ) :   1.2989 B( 37-O , 67-H ) :   0.9192 B( 38-S , 68-H ) :   0.9463
B( 39-N , 40-C ) :   1.1939 B( 39-N , 69-H ) :   0.8745 B( 40-C , 41-S ) :   1.1308
B( 40-C , 47-C ) :   1.3642 B( 41-S , 42-C ) :   1.0759 B( 42-C , 43-N ) :   0.9796
B( 42-C , 46-C ) :   1.4838 B( 43-N , 44-O ) :   1.5277 B( 43-N , 45-O ) :   1.5048
B( 44-O , 45-O ) :   0.2556 B( 46-C , 47-C ) :   1.2461 B( 46-C , 70-H ) :   0.9990
B( 47-C , 48-C ) :   1.0356 B( 48-C , 49-C ) :   1.7511 B( 48-C , 71-H ) :   0.9745
B( 49-C , 50-C ) :   1.0940 B( 49-C , 72-H ) :   0.9702 B( 50-C , 51-C ) :   1.7615
B( 50-C , 73-H ) :   0.9762 B( 51-C , 52-C ) :   1.0711 B( 51-C , 53-C ) :   1.0497
B( 52-C , 74-H ) :   0.9480 B( 52-C , 75-H ) :   0.9449 B( 52-C , 76-H ) :   0.9453
B( 53-C , 54-N ) :   0.9884 B( 53-C , 77-H ) :   0.9340 B( 53-C , 78-H ) :   0.9227
B( 54-N , 55-C ) :   1.1395 B( 54-N , 79-H ) :   0.9459 B( 55-C , 56-C ) :   1.9169
B( 55-C , 80-H ) :   0.9598 B( 56-C , 81-H ) :   0.9603 B( 56-C , 82-H ) :   0.9520

-----------------------------------------------------------------------------
         ABSORPTION SPECTRUM VIA TRANSITION ELECTRIC DIPOLE MOMENTS
-----------------------------------------------------------------------------
State   Energy  Wavelength   fosc         T2         TX        TY        TZ
        (cm-1)    (nm)                  (au**2)     (au)      (au)      (au)
-----------------------------------------------------------------------------
   0   11088.3    901.9   1.302429349  38.66929  -5.42028  -3.04553  -0.12105
   1   20690.8    483.3   0.305081358   4.85416   0.04239   2.11872   0.60281
   2   21879.4    457.1   0.670293200  10.08568  -0.51827   3.02417   0.81943
   3   22695.0    440.6   0.035323950   0.51241   0.01798   0.44857   0.55756
   4   25564.8    391.2   0.209932691   2.70342  -1.28032   1.02786   0.08772
   5   25618.1    390.3   0.136126758   1.74933   0.47293   1.21860  -0.20166
   6   27192.8    367.7   0.403707436   4.88752  -1.97531   0.98741  -0.10338
   7   27625.5    362.0   0.001358778   0.01619  -0.10950   0.06471  -0.00390
   8   28560.1    350.1   0.016717094   0.19270   0.35372  -0.14133   0.21818
   9   29007.6    344.7   0.023165509   0.26291   0.34346   0.06308   0.37546
  10   29277.9    341.6   0.024707092   0.27782  -0.11244   0.51297   0.04516
  11   29554.6    338.4   0.036895998   0.41099   0.32015   0.54638   0.09980
  12   30445.1    328.5   0.042426835   0.45877   0.26570  -0.59402  -0.18793
  13   31866.1    313.8   0.148395914   1.53309   1.22233   0.18732  -0.06255
  14   32130.5    311.2   0.002434294   0.02494   0.15299   0.02477  -0.03035
  15   32236.6    310.2   0.000991462   0.01013   0.09705  -0.02143   0.01573
  16   32416.6    308.5   0.340186592   3.45482  -1.70004  -0.73380   0.16191
  17   32809.6    304.8   0.180539306   1.81153   0.27090   1.30935   0.15411
  18   33460.8    298.9   0.027862370   0.27413   0.34960   0.38535  -0.05844
  19   33526.4    298.3   0.315139574   3.09451  -1.56074  -0.71134  -0.39063
  20   34232.1    292.1   0.123288292   1.18567   0.40744   0.99312  -0.18267
  21   34495.0    289.9   0.017074748   0.16296  -0.26460   0.27788  -0.12541
  22   34768.0    287.6   0.018005468   0.17049   0.06176  -0.39185  -0.11457
  23   35418.5    282.3   0.000480202   0.00446   0.06207   0.00135   0.02469
  24   35711.9    280.0   0.098319788   0.90636   0.07795  -0.94883  -0.00400
  25   35987.4    277.9   0.358881735   3.28304  -0.74313   1.64789  -0.12351
  26   36773.6    271.9   0.077064505   0.68991   0.30571   0.75520   0.16163
  27   37278.6    268.3   0.047627907   0.42061   0.36794   0.53113  -0.05594
  28   38212.2    261.7   0.152625882   1.31493  -0.71865   0.89077  -0.07061
  29   38535.8    259.5   0.085949208   0.73426  -0.53647   0.64544  -0.17285
  30   38808.9    257.7   0.073074108   0.61988   0.59125  -0.51903   0.03005
  31   39399.4    253.8   0.041154210   0.34387   0.26485   0.52240   0.02871
  32   39743.7    251.6   0.079012160   0.65449   0.11519   0.77563   0.19904

FINAL SINGLE POINT ENERGY     -7112.139514490038

DIPOLE MOMENT
-------------
                                X             Y             Z
Electronic contribution:    169.76283     155.65890      -6.17646
Nuclear contribution   :   -171.98487    -156.27740       6.88458
                        -----------------------------------------
Total Dipole Moment    :     -2.22204      -0.61850       0.70812
                        -----------------------------------------
Magnitude (a.u.)       :      2.41276
Magnitude (Debye)      :      6.13276

Rotational constants in cm-1:     0.001359     0.000266     0.000227
Rotational constants in MHz :    40.745891     7.969060     6.811124

                             ****ORCA TERMINATED NORMALLY****
TOTAL RUN TIME: 0 days 0 hours 7 minutes 19 seconds 573 msec
