                         Program Version 4.2.0 -  RELEASE  -
|  1> # ORCA input file
|  2> # SCF done       -154.112557788309          0.000448214992
|  3> ! CAM-B3LYP def2-SVP def2/J RIJCOSX Grid4 TightSCF
|  4> %maxcore 5000
|  5> %tddft
|  6>     Mode sTDDFT
|  7>     Ethresh 5.0
|  8>     maxcore 5000
|  9> end
| 10>
| 11> %pal
| 12>   nprocs 6
| 13>   end
| 14> * xyz 0 1
| 15>    C      -13.72669        11.39993         0.26026
| 16>    C      -14.66766        11.13299         1.22277
| 17>    C      -15.35234        12.12132         1.95743
| 18>    N      -15.93899        12.88407         2.58374
| 19>    C      -15.06846         9.83387         1.59312
| 20>    N      -15.42275         8.79233         1.92201
| 21>    C      -13.28463        12.72641        -0.15931
| 22>    C      -12.31090        12.58587        -1.18304
| 23>    C      -11.70167        13.66362        -1.77909
| 24>    C      -12.06826        14.94236        -1.34657
| 25>    C      -13.04000        15.07334        -0.32611
| 26>    C      -13.65696        13.98305         0.27701
| 27>    S      -13.34217        16.73936         0.05850
| 28>    C      -12.17558        17.23229        -1.14022
| 29>    C      -11.58854        16.20259        -1.79588
| 30>   Br      -11.83964        19.05738        -1.41215
| 31>    C      -12.10432        11.15809        -1.44421
| 32>    O      -11.33771        10.65271        -2.26413
| 33>    C      -12.99098        10.43917        -0.52841
| 34>    C      -13.03057         9.06459        -0.49454
| 35>    N      -12.25032         8.36000        -1.32082
| 36>    C      -12.13814         7.01231        -1.41721
| 37>    S      -13.04453         5.93913        -0.39822
| 38>    C      -12.27488         4.59512        -1.17777
| 39>    N      -12.62856         3.30603        -0.75837
| 40>    O      -12.08672         2.36570        -1.30949
| 41>    O      -13.45780         3.22734         0.13093
| 42>    C      -11.38300         4.95565        -2.15223
| 43>    C      -11.28741         6.35062        -2.31406
| 44>    C      -10.45703         7.04707        -3.26384
| 45>    C       -9.58163         6.46402        -4.10095
| 46>    C       -8.77433         7.15017        -5.07976
| 47>    C       -8.30047         8.40429        -5.04325
| 48>    C       -8.42362         9.34973        -3.89201
| 49>    C       -7.51257         8.93673        -6.21901
| 50>    N       -6.13479         9.19383        -5.86800
| 51>    C       -5.54846        10.39178        -5.68747
| 52>    C       -6.10698        11.62055        -5.89522
| 53>    C       -5.45749        12.86065        -5.75329
| 54>    C       -4.17169        13.16979        -5.37651
| 55>    C       -3.65419        14.48581        -5.30465
| 56>    C       -2.35148        14.56908        -4.91157
| 57>    C       -1.75660        13.32020        -4.64047
| 58>    S       -2.90764        12.03548        -4.90946
| 59>    C       -0.46353        13.06246        -4.21474
| 60>    C        0.56798        13.98705        -3.97020
| 61>    C        1.73459        13.41298        -3.54842
| 62>    C        1.68317        12.00845        -3.43626
| 63>    S        0.09522        11.43246        -3.89425
| 64>    C        2.70475        11.17131        -3.02494
| 65>    C        2.58229         9.79005        -2.92731
| 66>    C        3.56528         8.91708        -2.51596
| 67>    S        3.26371         7.19207        -2.43853
| 68>    C        4.94937         6.86010        -1.84829
| 69>    O        5.33890         5.74855        -1.60542
| 70>    C        5.62990         8.12657        -1.75376
| 71>    C        4.89494         9.20619        -2.10717
| 72>    H      -10.96382        13.52705        -2.55413
| 73>    H      -14.39033        14.13494         1.05106
| 74>    H      -10.84735        16.32628        -2.56412
| 75>    H      -13.67078         8.51429         0.18205
| 76>    H      -11.66452         8.95282        -1.93635
| 77>    H      -10.83715         4.22518        -2.71976
| 78>    H      -10.59361         8.11482        -3.32270
| 79>    H       -9.48303         5.38688        -4.10439
| 80>    H       -8.52553         6.54373        -5.94320
| 81>    H       -9.32701         9.95458        -3.97383
| 82>    H       -7.57458        10.03072        -3.87295
| 83>    H       -8.46278         8.81127        -2.94770
| 84>    H       -7.96555         9.86570        -6.56810
| 85>    H       -7.53256         8.21585        -7.04293
| 86>    H       -5.60460         8.37708        -5.60735
| 87>    H       -4.51900        10.32583        -5.36882
| 88>    H       -7.13956        11.68342        -6.20746
| 89>    H       -6.06715        13.72637        -5.98424
| 90>    H       -4.26442        15.33749        -5.55061
| 91>    H       -1.80907        15.49130        -4.80800
| 92>    H        0.43184        15.04456        -4.10941
| 93>    H        2.62934        13.96201        -3.31342
| 94>    H        3.64122        11.64505        -2.76683
| 95>    H        1.62613         9.35868        -3.19678
| 96>    H        6.65181         8.14785        -1.41853
| 97>    H        5.26869        10.21524        -2.08725
| 98> *
| 99>
|100>                          ****END OF INPUT****

CARTESIAN COORDINATES (ANGSTROEM)
---------------------------------
  C    -13.726690   11.399930    0.260260
  C    -14.667660   11.132990    1.222770
  C    -15.352340   12.121320    1.957430
  N    -15.938990   12.884070    2.583740
  C    -15.068460    9.833870    1.593120
  N    -15.422750    8.792330    1.922010
  C    -13.284630   12.726410   -0.159310
  C    -12.310900   12.585870   -1.183040
  C    -11.701670   13.663620   -1.779090
  C    -12.068260   14.942360   -1.346570
  C    -13.040000   15.073340   -0.326110
  C    -13.656960   13.983050    0.277010
  S    -13.342170   16.739360    0.058500
  C    -12.175580   17.232290   -1.140220
  C    -11.588540   16.202590   -1.795880
  Br   -11.839640   19.057380   -1.412150
  C    -12.104320   11.158090   -1.444210
  O    -11.337710   10.652710   -2.264130
  C    -12.990980   10.439170   -0.528410
  C    -13.030570    9.064590   -0.494540
  N    -12.250320    8.360000   -1.320820
  C    -12.138140    7.012310   -1.417210
  S    -13.044530    5.939130   -0.398220
  C    -12.274880    4.595120   -1.177770
  N    -12.628560    3.306030   -0.758370
  O    -12.086720    2.365700   -1.309490
  O    -13.457800    3.227340    0.130930
  C    -11.383000    4.955650   -2.152230
  C    -11.287410    6.350620   -2.314060
  C    -10.457030    7.047070   -3.263840
  C     -9.581630    6.464020   -4.100950
  C     -8.774330    7.150170   -5.079760
  C     -8.300470    8.404290   -5.043250
  C     -8.423620    9.349730   -3.892010
  C     -7.512570    8.936730   -6.219010
  N     -6.134790    9.193830   -5.868000
  C     -5.548460   10.391780   -5.687470
  C     -6.106980   11.620550   -5.895220
  C     -5.457490   12.860650   -5.753290
  C     -4.171690   13.169790   -5.376510
  C     -3.654190   14.485810   -5.304650
  C     -2.351480   14.569080   -4.911570
  C     -1.756600   13.320200   -4.640470
  S     -2.907640   12.035480   -4.909460
  C     -0.463530   13.062460   -4.214740
  C      0.567980   13.987050   -3.970200
  C      1.734590   13.412980   -3.548420
  C      1.683170   12.008450   -3.436260
  S      0.095220   11.432460   -3.894250
  C      2.704750   11.171310   -3.024940
  C      2.582290    9.790050   -2.927310
  C      3.565280    8.917080   -2.515960
  S      3.263710    7.192070   -2.438530
  C      4.949370    6.860100   -1.848290
  O      5.338900    5.748550   -1.605420
  C      5.629900    8.126570   -1.753760
  C      4.894940    9.206190   -2.107170
  H    -10.963820   13.527050   -2.554130
  H    -14.390330   14.134940    1.051060
  H    -10.847350   16.326280   -2.564120
  H    -13.670780    8.514290    0.182050
  H    -11.664520    8.952820   -1.936350
  H    -10.837150    4.225180   -2.719760
  H    -10.593610    8.114820   -3.322700
  H     -9.483030    5.386880   -4.104390
  H     -8.525530    6.543730   -5.943200
  H     -9.327010    9.954580   -3.973830
  H     -7.574580   10.030720   -3.872950
  H     -8.462780    8.811270   -2.947700
  H     -7.965550    9.865700   -6.568100
  H     -7.532560    8.215850   -7.042930
  H     -5.604600    8.377080   -5.607350
  H     -4.519000   10.325830   -5.368820
  H     -7.139560   11.683420   -6.207460
  H     -6.067150   13.726370   -5.984240
  H     -4.264420   15.337490   -5.550610
  H     -1.809070   15.491300   -4.808000
  H      0.431840   15.044560   -4.109410
  H      2.629340   13.962010   -3.313420
  H      3.641220   11.645050   -2.766830
  H      1.626130    9.358680   -3.196780
  H      6.651810    8.147850   -1.418530
  H      5.268690   10.215240   -2.087250

 Total Charge           Charge          ....    0
 Multiplicity           Mult            ....    1
 Number of Electrons    NEL             ....  460
 Basis Dimension        Dim             ....  966

ORBITAL ENERGIES
----------------

  NO   OCC          E(Eh)            E(eV)
   0   2.0000    -482.895658    -13140.2589
   1   2.0000     -88.998062     -2421.7604
   2   2.0000     -88.987608     -2421.4759
   3   2.0000     -88.949236     -2420.4318
   4   2.0000     -88.941913     -2420.2325
   5   2.0000     -88.908548     -2419.3246
   6   2.0000     -62.573344     -1702.7072
   7   2.0000     -56.407309     -1534.9209
   8   2.0000     -56.404568     -1534.8463
   9   2.0000     -56.404541     -1534.8456
  10   2.0000     -19.246005      -523.7104
  11   2.0000     -19.245935      -523.7085
  12   2.0000     -19.245034      -523.6840
  13   2.0000     -19.181049      -521.9429
  14   2.0000     -14.657260      -398.8443
  15   2.0000     -14.505888      -394.7253
  16   2.0000     -14.459889      -393.4736
  17   2.0000     -14.428275      -392.6133
  18   2.0000     -14.423704      -392.4889
  19   2.0000     -10.391934      -282.7789
  20   2.0000     -10.380682      -282.4727
  21   2.0000     -10.379756      -282.4475
  22   2.0000     -10.370251      -282.1889
  23   2.0000     -10.356178      -281.8059
  24   2.0000     -10.355604      -281.7903
  25   2.0000     -10.352004      -281.6923
  26   2.0000     -10.348564      -281.5987
  27   2.0000     -10.338220      -281.3173
  28   2.0000     -10.335281      -281.2373
  29   2.0000     -10.330375      -281.1038
  30   2.0000     -10.328334      -281.0483
  31   2.0000     -10.326697      -281.0037
  32   2.0000     -10.321935      -280.8741
  33   2.0000     -10.320242      -280.8281
  34   2.0000     -10.319446      -280.8064
  35   2.0000     -10.318519      -280.7812
  36   2.0000     -10.317016      -280.7403
  37   2.0000     -10.315443      -280.6975
  38   2.0000     -10.315214      -280.6912
  39   2.0000     -10.309804      -280.5440
  40   2.0000     -10.308856      -280.5182
  41   2.0000     -10.308390      -280.5056
  42   2.0000     -10.307313      -280.4762
  43   2.0000     -10.301990      -280.3314
  44   2.0000     -10.301007      -280.3046
  45   2.0000     -10.299385      -280.2605
  46   2.0000     -10.298489      -280.2361
  47   2.0000     -10.296697      -280.1874
  48   2.0000     -10.293235      -280.0932
  49   2.0000     -10.288501      -279.9644
  50   2.0000     -10.288454      -279.9631
  51   2.0000     -10.286959      -279.9224
  52   2.0000     -10.286174      -279.9010
  53   2.0000     -10.282814      -279.8096
  54   2.0000     -10.282073      -279.7894
  55   2.0000     -10.280410      -279.7442
  56   2.0000     -10.276724      -279.6439
  57   2.0000     -10.275065      -279.5987
  58   2.0000     -10.269438      -279.4456
  59   2.0000     -10.269224      -279.4398
  60   2.0000     -10.262041      -279.2443
  61   2.0000      -8.802755      -239.5351
  62   2.0000      -8.093206      -220.2273
  63   2.0000      -8.083542      -219.9644
  64   2.0000      -8.045067      -218.9174
  65   2.0000      -8.038153      -218.7293
  66   2.0000      -8.006439      -217.8663
  67   2.0000      -6.639109      -180.6593
  68   2.0000      -6.624480      -180.2613
  69   2.0000      -6.624232      -180.2545
  70   2.0000      -6.062822      -164.9778
  71   2.0000      -6.058493      -164.8600
  72   2.0000      -6.054723      -164.7574
  73   2.0000      -6.053187      -164.7156
  74   2.0000      -6.048938      -164.6000
  75   2.0000      -6.044822      -164.4880
  76   2.0000      -6.014774      -163.6703
  77   2.0000      -6.010788      -163.5618
  78   2.0000      -6.007866      -163.4823
  79   2.0000      -6.006123      -163.4349
  80   2.0000      -6.003874      -163.3737
  81   2.0000      -5.999130      -163.2446
  82   2.0000      -5.975721      -162.6076
  83   2.0000      -5.972233      -162.5127
  84   2.0000      -5.967387      -162.3809
  85   2.0000      -2.754980       -74.9668
  86   2.0000      -2.750832       -74.8539
  87   2.0000      -2.750724       -74.8510
  88   2.0000      -2.739057       -74.5335
  89   2.0000      -2.739054       -74.5335
  90   2.0000      -1.326612       -36.0990
  91   2.0000      -1.159234       -31.5444
  92   2.0000      -1.145866       -31.1806
  93   2.0000      -1.113575       -30.3019
  94   2.0000      -1.102373       -29.9971
  95   2.0000      -1.056302       -28.7434
  96   2.0000      -1.035897       -28.1882
  97   2.0000      -1.024974       -27.8910
  98   2.0000      -1.018725       -27.7209
  99   2.0000      -1.005402       -27.3584
 100   2.0000      -1.002017       -27.2663
 101   2.0000      -0.993610       -27.0375
 102   2.0000      -0.971787       -26.4437
 103   2.0000      -0.954494       -25.9731
 104   2.0000      -0.949516       -25.8376
 105   2.0000      -0.941539       -25.6206
 106   2.0000      -0.923650       -25.1338
 107   2.0000      -0.921010       -25.0620
 108   2.0000      -0.908100       -24.7107
 109   2.0000      -0.900947       -24.5160
 110   2.0000      -0.898885       -24.4599
 111   2.0000      -0.889833       -24.2136
 112   2.0000      -0.884852       -24.0781
 113   2.0000      -0.861992       -23.4560
 114   2.0000      -0.860676       -23.4202
 115   2.0000      -0.851966       -23.1832
 116   2.0000      -0.842548       -22.9269
 117   2.0000      -0.836038       -22.7498
 118   2.0000      -0.824610       -22.4388
 119   2.0000      -0.820121       -22.3166
 120   2.0000      -0.810433       -22.0530
 121   2.0000      -0.808778       -22.0080
 122   2.0000      -0.797292       -21.6954
 123   2.0000      -0.793620       -21.5955
 124   2.0000      -0.775934       -21.1142
 125   2.0000      -0.766967       -20.8702
 126   2.0000      -0.759676       -20.6718
 127   2.0000      -0.742862       -20.2143
 128   2.0000      -0.735631       -20.0175
 129   2.0000      -0.724185       -19.7061
 130   2.0000      -0.706857       -19.2346
 131   2.0000      -0.703483       -19.1427
 132   2.0000      -0.701220       -19.0812
 133   2.0000      -0.683851       -18.6085
 134   2.0000      -0.678345       -18.4587
 135   2.0000      -0.670536       -18.2462
 136   2.0000      -0.668348       -18.1867
 137   2.0000      -0.661206       -17.9923
 138   2.0000      -0.646220       -17.5845
 139   2.0000      -0.643231       -17.5032
 140   2.0000      -0.641894       -17.4668
 141   2.0000      -0.638466       -17.3735
 142   2.0000      -0.633615       -17.2415
 143   2.0000      -0.631710       -17.1897
 144   2.0000      -0.622401       -16.9364
 145   2.0000      -0.620803       -16.8929
 146   2.0000      -0.616688       -16.7809
 147   2.0000      -0.614699       -16.7268
 148   2.0000      -0.608117       -16.5477
 149   2.0000      -0.605685       -16.4815
 150   2.0000      -0.605269       -16.4702
 151   2.0000      -0.592443       -16.1212
 152   2.0000      -0.588020       -16.0008
 153   2.0000      -0.586320       -15.9546
 154   2.0000      -0.574379       -15.6297
 155   2.0000      -0.571286       -15.5455
 156   2.0000      -0.569087       -15.4856
 157   2.0000      -0.567143       -15.4328
 158   2.0000      -0.561064       -15.2673
 159   2.0000      -0.559993       -15.2382
 160   2.0000      -0.553120       -15.0512
 161   2.0000      -0.550473       -14.9791
 162   2.0000      -0.545785       -14.8516
 163   2.0000      -0.542933       -14.7740
 164   2.0000      -0.540210       -14.6999
 165   2.0000      -0.534823       -14.5533
 166   2.0000      -0.532789       -14.4979
 167   2.0000      -0.524098       -14.2614
 168   2.0000      -0.520767       -14.1708
 169   2.0000      -0.515224       -14.0200
 170   2.0000      -0.510601       -13.8942
 171   2.0000      -0.509796       -13.8723
 172   2.0000      -0.509466       -13.8633
 173   2.0000      -0.505661       -13.7597
 174   2.0000      -0.502148       -13.6642
 175   2.0000      -0.496227       -13.5030
 176   2.0000      -0.494112       -13.4455
 177   2.0000      -0.490722       -13.3532
 178   2.0000      -0.488644       -13.2967
 179   2.0000      -0.487006       -13.2521
 180   2.0000      -0.484176       -13.1751
 181   2.0000      -0.484151       -13.1744
 182   2.0000      -0.480336       -13.0706
 183   2.0000      -0.477804       -13.0017
 184   2.0000      -0.471892       -12.8408
 185   2.0000      -0.469777       -12.7833
 186   2.0000      -0.467472       -12.7206
 187   2.0000      -0.464581       -12.6419
 188   2.0000      -0.463534       -12.6134
 189   2.0000      -0.461587       -12.5604
 190   2.0000      -0.459605       -12.5065
 191   2.0000      -0.457247       -12.4423
 192   2.0000      -0.453590       -12.3428
 193   2.0000      -0.452329       -12.3085
 194   2.0000      -0.451226       -12.2785
 195   2.0000      -0.446267       -12.1435
 196   2.0000      -0.444485       -12.0950
 197   2.0000      -0.437843       -11.9143
 198   2.0000      -0.437775       -11.9125
 199   2.0000      -0.430699       -11.7199
 200   2.0000      -0.430180       -11.7058
 201   2.0000      -0.424239       -11.5441
 202   2.0000      -0.421614       -11.4727
 203   2.0000      -0.421297       -11.4641
 204   2.0000      -0.420579       -11.4445
 205   2.0000      -0.418196       -11.3797
 206   2.0000      -0.400999       -10.9117
 207   2.0000      -0.400918       -10.9095
 208   2.0000      -0.392851       -10.6900
 209   2.0000      -0.392586       -10.6828
 210   2.0000      -0.390370       -10.6225
 211   2.0000      -0.385103       -10.4792
 212   2.0000      -0.384999       -10.4764
 213   2.0000      -0.383105       -10.4248
 214   2.0000      -0.374530       -10.1915
 215   2.0000      -0.368576       -10.0295
 216   2.0000      -0.365199        -9.9376
 217   2.0000      -0.354402        -9.6438
 218   2.0000      -0.350273        -9.5314
 219   2.0000      -0.337398        -9.1811
 220   2.0000      -0.330488        -8.9930
 221   2.0000      -0.322523        -8.7763
 222   2.0000      -0.317912        -8.6508
 223   2.0000      -0.315140        -8.5754
 224   2.0000      -0.305413        -8.3107
 225   2.0000      -0.304310        -8.2807
 226   2.0000      -0.300266        -8.1707
 227   2.0000      -0.276690        -7.5291
 228   2.0000      -0.258532        -7.0350
 229   2.0000      -0.199179        -5.4199
 230   0.0000      -0.097804        -2.6614
 231   0.0000      -0.080997        -2.2041
 232   0.0000      -0.080283        -2.1846
 233   0.0000      -0.051421        -1.3992
 234   0.0000      -0.031383        -0.8540

MULLIKEN ATOMIC CHARGES
-----------------------
   0 C :    0.323225
   1 C :   -0.341203
   2 C :   -0.188088
   3 N :    0.156767
   4 C :   -0.196108
   5 N :    0.150178
   6 C :    0.009413
   7 C :   -0.002907
   8 C :   -0.066993
   9 C :    0.115411
  10 C :   -0.092072
  11 C :   -0.017948
  12 S :    0.195303
  13 C :   -0.123251
  14 C :    0.038011
  15 Br:    0.030163
  16 C :    0.168669
  17 O :   -0.229976
  18 C :   -0.128539
  19 C :    0.031960
  20 N :   -0.008488
  21 C :   -0.123884
  22 S :    0.182039
  23 C :    0.001424
  24 N :    0.273835
  25 O :   -0.244813
  26 O :   -0.252725
  27 C :    0.008407
  28 C :    0.131377
  29 C :   -0.036466
  30 C :    0.011623
  31 C :   -0.005709
  32 C :   -0.197863
  33 C :    0.079348
  34 C :    0.211223
  35 N :   -0.144256
  36 C :    0.072192
  37 C :   -0.070035
  38 C :    0.018061
  39 C :   -0.050081
  40 C :    0.046311
  41 C :    0.006146
  42 C :   -0.016085
  43 S :    0.035264
  44 C :   -0.056642
  45 C :    0.028746
  46 C :    0.016387
  47 C :   -0.009766
  48 S :    0.069730
  49 C :   -0.032453
  50 C :    0.060890
  51 C :   -0.104412
  52 S :   -0.004688
  53 C :    0.071323
  54 O :   -0.180481
  55 C :   -0.017915
  56 C :    0.067433
  57 H :   -0.012108
  58 H :   -0.003370
  59 H :   -0.002772
  60 H :    0.047044
  61 H :    0.182007
  62 H :    0.013948
  63 H :   -0.012023
  64 H :   -0.006791
  65 H :   -0.016161
  66 H :    0.048030
  67 H :    0.022436
  68 H :    0.025769
  69 H :    0.033562
  70 H :    0.014564
  71 H :    0.129667
  72 H :    0.023897
  73 H :   -0.028736
  74 H :   -0.015273
  75 H :   -0.016592
  76 H :   -0.019048
  77 H :   -0.013947
  78 H :   -0.016980
  79 H :   -0.024941
  80 H :   -0.007592
  81 H :   -0.004294
  82 H :   -0.007307
Sum of atomic charges:   -0.0000000

LOEWDIN ATOMIC CHARGES
----------------------
   0 C :    0.078380
   1 C :   -0.146209
   2 C :   -0.020187
   3 N :   -0.050505
   4 C :   -0.020743
   5 N :   -0.050344
   6 C :   -0.017811
   7 C :   -0.052155
   8 C :    0.023861
   9 C :   -0.033749
  10 C :   -0.143073
  11 C :   -0.005984
  12 S :    0.440967
  13 C :   -0.270124
  14 C :   -0.070816
  15 Br:    0.141581
  16 C :    0.099684
  17 O :   -0.183771
  18 C :   -0.146642
  19 C :    0.114452
  20 N :    0.080865
  21 C :   -0.116065
  22 S :    0.474453
  23 C :   -0.198378
  24 N :    0.273362
  25 O :   -0.211627
  26 O :   -0.220372
  27 C :    0.003679
  28 C :   -0.082147
  29 C :   -0.029750
  30 C :   -0.015435
  31 C :   -0.057920
  32 C :   -0.025298
  33 C :   -0.057167
  34 C :    0.049423
  35 N :    0.017685
  36 C :    0.056141
  37 C :   -0.147517
  38 C :   -0.020030
  39 C :   -0.185286
  40 C :   -0.015609
  41 C :   -0.063381
  42 C :   -0.156857
  43 S :    0.369575
  44 C :   -0.202479
  45 C :   -0.020854
  46 C :   -0.054563
  47 C :   -0.126737
  48 S :    0.368489
  49 C :   -0.086222
  50 C :   -0.020445
  51 C :   -0.179982
  52 S :    0.285726
  53 C :   -0.062150
  54 O :   -0.169580
  55 C :   -0.088278
  56 C :   -0.001072
  57 H :    0.040418
  58 H :    0.042670
  59 H :    0.038814
  60 H :    0.037186
  61 H :    0.083711
  62 H :    0.045567
  63 H :    0.029480
  64 H :    0.028972
  65 H :    0.026791
  66 H :    0.039599
  67 H :    0.033645
  68 H :    0.034311
  69 H :    0.035837
  70 H :    0.029350
  71 H :    0.085633
  72 H :    0.015960
  73 H :    0.021526
  74 H :    0.036052
  75 H :    0.032009
  76 H :    0.029661
  77 H :    0.031721
  78 H :    0.031347
  79 H :    0.028228
  80 H :    0.025352
  81 H :    0.033303
  82 H :    0.031845

  Mayer bond orders larger than 0.100000
B(  0-C ,  1-C ) :   1.6304 B(  0-C ,  6-C ) :   1.0052 B(  0-C , 18-C ) :   1.0972
B(  1-C ,  2-C ) :   1.1449 B(  1-C ,  4-C ) :   1.1492 B(  2-C ,  3-N ) :   2.9691
B(  4-C ,  5-N ) :   2.9537 B(  6-C ,  7-C ) :   1.2732 B(  6-C , 11-C ) :   1.4267
B(  7-C ,  8-C ) :   1.4191 B(  7-C , 16-C ) :   0.9872 B(  8-C ,  9-C ) :   1.2449
B(  8-C , 57-H ) :   1.0184 B(  9-C , 10-C ) :   1.3087 B(  9-C , 14-C ) :   1.1643
B( 10-C , 11-C ) :   1.3183 B( 10-C , 12-S ) :   1.0922 B( 11-C , 58-H ) :   0.9807
B( 12-S , 13-C ) :   1.0892 B( 13-C , 14-C ) :   1.6141 B( 13-C , 15-Br) :   1.0226
B( 14-C , 59-H ) :   1.0006 B( 16-C , 17-O ) :   1.9999 B( 16-C , 18-C ) :   1.0126
B( 17-O , 61-H ) :   0.1454 B( 18-C , 19-C ) :   1.4487 B( 19-C , 20-N ) :   1.3449
B( 19-C , 60-H ) :   0.9308 B( 20-N , 21-C ) :   1.1876 B( 20-N , 61-H ) :   0.8247
B( 21-C , 22-S ) :   1.1343 B( 21-C , 28-C ) :   1.3822 B( 22-S , 23-C ) :   1.0857
B( 23-C , 24-N ) :   0.9628 B( 23-C , 27-C ) :   1.5067 B( 24-N , 25-O ) :   1.5346
B( 24-N , 26-O ) :   1.5177 B( 25-O , 26-O ) :   0.2643 B( 27-C , 28-C ) :   1.2188
B( 27-C , 62-H ) :   0.9990 B( 28-C , 29-C ) :   1.0730 B( 29-C , 30-C ) :   1.7760
B( 29-C , 63-H ) :   0.9610 B( 30-C , 31-C ) :   1.0804 B( 30-C , 64-H ) :   0.9581
B( 31-C , 32-C ) :   1.8262 B( 31-C , 65-H ) :   0.9498 B( 32-C , 33-C ) :   1.0745
B( 32-C , 34-C ) :   1.0518 B( 33-C , 66-H ) :   0.9328 B( 33-C , 67-H ) :   0.9449
B( 33-C , 68-H ) :   0.9457 B( 34-C , 35-N ) :   0.9753 B( 34-C , 69-H ) :   0.9267
B( 34-C , 70-H ) :   0.9371 B( 35-N , 36-C ) :   1.2755 B( 35-N , 71-H ) :   0.9360
B( 36-C , 37-C ) :   1.5471 B( 36-C , 72-H ) :   0.9455 B( 37-C , 38-C ) :   1.2466
B( 37-C , 73-H ) :   0.9561 B( 38-C , 39-C ) :   1.5655 B( 38-C , 74-H ) :   0.9565
B( 39-C , 40-C ) :   1.1703 B( 39-C , 43-S ) :   1.0096 B( 40-C , 41-C ) :   1.5632
B( 40-C , 75-H ) :   0.9976 B( 41-C , 42-C ) :   1.2077 B( 41-C , 76-H ) :   0.9938
B( 42-C , 43-S ) :   1.0606 B( 42-C , 44-C ) :   1.4695 B( 44-C , 45-C ) :   1.2225
B( 44-C , 48-S ) :   1.0297 B( 45-C , 46-C ) :   1.5476 B( 45-C , 77-H ) :   0.9950
B( 46-C , 47-C ) :   1.1737 B( 46-C , 78-H ) :   0.9997 B( 47-C , 48-S ) :   1.0582
B( 47-C , 49-C ) :   1.5192 B( 49-C , 50-C ) :   1.2234 B( 49-C , 79-H ) :   0.9721
B( 50-C , 51-C ) :   1.5593 B( 50-C , 80-H ) :   0.9567 B( 51-C , 52-S ) :   1.0271
B( 51-C , 56-C ) :   1.1393 B( 52-S , 53-C ) :   0.9878 B( 52-S , 54-O ) :   0.1145
B( 53-C , 54-O ) :   2.1098 B( 53-C , 55-C ) :   1.0133 B( 55-C , 56-C ) :   1.6227
B( 55-C , 81-H ) :   0.9921 B( 56-C , 82-H ) :   0.9892

-----------------------------------------------------------------------------
         ABSORPTION SPECTRUM VIA TRANSITION ELECTRIC DIPOLE MOMENTS
-----------------------------------------------------------------------------
State   Energy  Wavelength   fosc         T2         TX        TY        TZ
        (cm-1)    (nm)                  (au**2)     (au)      (au)      (au)
-----------------------------------------------------------------------------
   0   13339.5    749.7   1.236045388  30.50504   5.10921  -1.45082   1.51530
   1   13973.6    715.6   0.106843799   2.51719   1.36855  -0.46061   0.65735
   2   16754.9    596.8   0.001037156   0.02038  -0.08214   0.05029  -0.10537
   3   22134.8    451.8   0.713594280  10.61332  -1.22581   2.75090   1.24228
   4   22316.8    448.1   0.021743463   0.32075   0.36014   0.40008   0.17605
   5   23485.5    425.8   0.047874687   0.67109   0.00905  -0.79826   0.18383
   6   24951.7    400.8   0.067393138   0.88918   0.07130   0.93107  -0.13118
   7   25953.5    385.3   0.767038595   9.72963  -0.51453  -3.06944   0.20843
   8   26558.9    376.5   0.100761562   1.24899   0.23456   1.09269   0.00290
   9   26779.0    373.4   0.013296014   0.16346   0.11564  -0.36624  -0.12629
  10   29148.8    343.1   0.309999138   3.50118  -0.75611  -1.54959   0.72681
  11   29201.1    342.5   0.000005888   0.00007   0.00355  -0.00714   0.00168
  12   29549.2    338.4   0.100883285   1.12396   0.35087   0.93685  -0.35094
  13   30230.0    330.8   0.095716632   1.04238   0.01466   1.01763   0.08123
  14   30419.0    328.7   0.007691534   0.08324  -0.00264   0.14402  -0.24999
  15   30649.4    326.3   0.115768478   1.24349  -0.42365   0.93753   0.43017
  16   31738.5    315.1   0.461989353   4.79205   0.80465   1.85368  -0.84170
  17   31797.5    314.5   0.002192718   0.02270   0.05904   0.08618  -0.10858
  18   32476.6    307.9   0.038112932   0.38635   0.14847   0.59902   0.07399
  19   32789.5    305.0   0.000237765   0.00239  -0.04664  -0.00907   0.01137
  20   32895.0    304.0   0.001267960   0.01269  -0.02733   0.05818  -0.09251
  21   33786.3    296.0   0.064998565   0.63334   0.54627  -0.25392  -0.52005
  22   34141.7    292.9   0.036341283   0.35042  -0.14429  -0.53050   0.21948
  23   34151.9    292.8   0.146420576   1.41144   0.09257  -1.17782   0.12499
  24   34223.4    292.2   0.560866701   5.39526   1.09406   1.72538  -1.10514
  25   35255.3    283.6   0.042447059   0.39637  -0.05246   0.61099  -0.14248
  26   35840.6    279.0   0.005756393   0.05288  -0.19343   0.12299  -0.01833
  27   36364.1    275.0   0.000283441   0.00257   0.02182  -0.01338  -0.04371
  28   36388.3    274.8   0.005023724   0.04545   0.20158  -0.06691   0.01845
  29   37073.0    269.7   0.083494734   0.74144  -0.81574  -0.26000   0.09169
  30   38175.1    262.0   0.332844848   2.87036  -0.88241  -0.95931   1.08232
  31   38226.5    261.6   0.230572856   1.98573  -0.68975   0.88017   0.85748
  32   38540.4    259.5   0.067406560   0.57579  -0.57465   0.35349   0.34729
  33   38980.8    256.5   0.032319530   0.27295  -0.37136  -0.04582   0.36462
  34   39206.2    255.1   0.000000148   0.00000  -0.00109   0.00018   0.00010
  35   39233.1    254.9   0.010615214   0.08907  -0.20064   0.04383   0.21655
  36   39425.2    253.6   0.091255149   0.76201   0.59245   0.18685  -0.61327
  37   40274.0    248.3   0.085942609   0.70252   0.60364  -0.00352  -0.58149

FINAL SINGLE POINT ENERGY     -6752.127617255309

DIPOLE MOMENT
-------------
                                X             Y             Z
Electronic contribution:    -84.19263      89.32735      41.14159
Nuclear contribution   :     82.77700     -84.86760     -44.31647
                        -----------------------------------------
Total Dipole Moment    :     -1.41563       4.45975      -3.17488
                        -----------------------------------------
Magnitude (a.u.)       :      5.65449
Magnitude (Debye)      :     14.37256

Rotational constants in cm-1:     0.000906     0.000393     0.000300
Rotational constants in MHz :    27.174679    11.776728     8.998561

                             ****ORCA TERMINATED NORMALLY****
TOTAL RUN TIME: 0 days 0 hours 6 minutes 6 seconds 266 msec
