                         Program Version 4.2.0 -  RELEASE  -
|  1> # ORCA input file
|  2> # SCF done       -198.962323756764          0.000624742258
|  3> ! CAM-B3LYP def2-SVP def2/J RIJCOSX Grid4 TightSCF
|  4> %maxcore 5000
|  5> %tddft
|  6>     Mode sTDDFT
|  7>     Ethresh 5.0
|  8>     maxcore 5000
|  9> end
| 10>
| 11> %pal
| 12>   nprocs 6
| 13>   end
| 14> * xyz 0 1
| 15>    C       -5.82991         1.53507         2.20799
| 16>    C       -6.26261         0.98003         3.38429
| 17>    C       -5.41093         0.44354         4.37151
| 18>    N       -4.77055        -0.00851         5.21012
| 19>    C       -7.61733         0.88861         3.76312
| 20>    N       -8.70727         0.80214         4.11326
| 21>    C       -4.44088         1.67490         1.78494
| 22>    C       -4.40131         2.33815         0.52866
| 23>    C       -3.22404         2.60069        -0.13209
| 24>    C       -2.03135         2.19400         0.47469
| 25>    C       -2.08024         1.54310         1.73190
| 26>    C       -3.26981         1.27432         2.39848
| 27>    S       -0.49237         1.13502         2.30019
| 28>    C        0.20535         1.83102         0.85720
| 29>    C       -0.70226         2.34394        -0.00582
| 30>   Br        2.06655         1.81270         0.63701
| 31>    C       -5.77225         2.64664         0.11661
| 32>    O       -6.14151         3.23091        -0.89858
| 33>    C       -6.64980         2.11018         1.16450
| 34>    C       -8.01606         2.16152         1.06199
| 35>    N       -8.59782         2.76196         0.01277
| 36>    C       -9.92746         2.81644        -0.24761
| 37>    S      -11.03499         1.92919         0.76070
| 38>    C      -12.35210         2.49277        -0.21313
| 39>    N      -13.64527         2.06083         0.12601
| 40>    O      -14.56766         2.44254        -0.56544
| 41>    O      -13.73628         1.32526         1.09172
| 42>    C      -11.96287         3.31015        -1.23349
| 43>    C      -10.56303         3.52071        -1.28422
| 44>    C      -10.02644         4.38583        -2.29311
| 45>    C       -8.73910         4.71722        -2.56445
| 46>    C       -8.30279         5.60855        -3.57512
| 47>    S       -6.62343         5.53639        -3.99736
| 48>    C       -6.77353         6.72878        -5.25114
| 49>    C       -8.10394         7.19548        -5.31289
| 50>    C       -8.96618         6.58087        -4.35521
| 51>    C      -10.28572         7.03840        -4.26333
| 52>    C      -10.77783         8.00804        -5.11093
| 53>    C      -12.20997         8.39314        -4.89132
| 54>    O      -12.87128         7.86308        -4.03641
| 55>    O      -12.72852         9.33686        -5.67469
| 56>    C       -9.92176         8.56954        -6.09746
| 57>    O      -10.41238         9.52111        -6.94983
| 58>    C       -8.60819         8.17530        -6.17842
| 59>    C       -5.69182         7.12812        -6.04423
| 60>    C       -4.41939         6.65169        -5.88569
| 61>    C       -3.29810         7.01935        -6.65385
| 62>    C       -2.02949         6.44941        -6.35068
| 63>    C       -0.84241         6.75198        -7.10332
| 64>    N        0.31308         6.15853        -6.79197
| 65>    C        0.36057         5.32118        -5.77745
| 66>    C       -0.80781         5.05819        -5.00151
| 67>    N       -1.95949         5.61082        -5.30835
| 68>    C       -0.74781         4.20748        -3.87416
| 69>    N       -0.68072         3.52748        -2.95387
| 70>    C        1.58394         4.68494        -5.45992
| 71>    N        2.55459         4.14827        -5.17100
| 72>    C       -0.84695         7.68457        -8.19038
| 73>    C       -2.11200         8.26245        -8.47713
| 74>    C       -3.30875         7.93678        -7.73653
| 75>    N       -4.36647         8.59863        -8.20110
| 76>    S       -3.91706         9.53361        -9.43688
| 77>    N       -2.35536         9.14054        -9.43979
| 78>    C        0.35822         7.93551        -8.85290
| 79>    C        0.69899         8.79591        -9.87796
| 80>    C        2.02504         8.87946       -10.37457
| 81>    C        2.20858         9.80113       -11.35969
| 82>    C        1.02687        10.49755       -11.69222
| 83>    S       -0.32150         9.93045       -10.72573
| 84>    C        0.87269        11.50076       -12.62950
| 85>    C        1.87325        12.05663       -13.47235
| 86>    C        1.43001        13.04011       -14.28892
| 87>    C        0.03396        13.33605       -14.15005
| 88>    S       -0.66532        12.27543       -12.91467
| 89>    C       -0.68192        14.25403       -14.81567
| 90>    H       -3.21463         3.09968        -1.08840
| 91>    H       -3.25650         0.77063         3.35049
| 92>    H       -0.45699         2.80044        -0.94815
| 93>    H       -8.66783         1.72421         1.80697
| 94>    H       -7.92304         3.16079        -0.65702
| 95>    H      -12.66437         3.74850        -1.92103
| 96>    H      -10.79637         4.80399        -2.92358
| 97>    H       -7.91537         4.25935        -2.03792
| 98>    H      -10.96123         6.67595        -3.50636
| 99>    H      -12.08521         9.66793        -6.32411
|100>    H       -9.71782         9.81246        -7.55371
|101>    H       -7.95610         8.63044        -6.91071
|102>    H       -5.87637         7.85533        -6.82077
|103>    H       -4.22445         5.92876        -5.10401
|104>    H        1.18372         7.34522        -8.47048
|105>    H        2.80497         8.25213        -9.97990
|106>    H        3.15070         9.99177       -11.84125
|107>    H        2.88945        11.70629       -13.44159
|108>    H        2.03884        13.57798       -14.99341
|109>    H       -0.21831        14.87915       -15.55825
|110>    H       -1.73126        14.39502       -14.63204
|111> *
|112>
|113>                          ****END OF INPUT****

CARTESIAN COORDINATES (ANGSTROEM)
---------------------------------
  C     -5.829910    1.535070    2.207990
  C     -6.262610    0.980030    3.384290
  C     -5.410930    0.443540    4.371510
  N     -4.770550   -0.008510    5.210120
  C     -7.617330    0.888610    3.763120
  N     -8.707270    0.802140    4.113260
  C     -4.440880    1.674900    1.784940
  C     -4.401310    2.338150    0.528660
  C     -3.224040    2.600690   -0.132090
  C     -2.031350    2.194000    0.474690
  C     -2.080240    1.543100    1.731900
  C     -3.269810    1.274320    2.398480
  S     -0.492370    1.135020    2.300190
  C      0.205350    1.831020    0.857200
  C     -0.702260    2.343940   -0.005820
  Br     2.066550    1.812700    0.637010
  C     -5.772250    2.646640    0.116610
  O     -6.141510    3.230910   -0.898580
  C     -6.649800    2.110180    1.164500
  C     -8.016060    2.161520    1.061990
  N     -8.597820    2.761960    0.012770
  C     -9.927460    2.816440   -0.247610
  S    -11.034990    1.929190    0.760700
  C    -12.352100    2.492770   -0.213130
  N    -13.645270    2.060830    0.126010
  O    -14.567660    2.442540   -0.565440
  O    -13.736280    1.325260    1.091720
  C    -11.962870    3.310150   -1.233490
  C    -10.563030    3.520710   -1.284220
  C    -10.026440    4.385830   -2.293110
  C     -8.739100    4.717220   -2.564450
  C     -8.302790    5.608550   -3.575120
  S     -6.623430    5.536390   -3.997360
  C     -6.773530    6.728780   -5.251140
  C     -8.103940    7.195480   -5.312890
  C     -8.966180    6.580870   -4.355210
  C    -10.285720    7.038400   -4.263330
  C    -10.777830    8.008040   -5.110930
  C    -12.209970    8.393140   -4.891320
  O    -12.871280    7.863080   -4.036410
  O    -12.728520    9.336860   -5.674690
  C     -9.921760    8.569540   -6.097460
  O    -10.412380    9.521110   -6.949830
  C     -8.608190    8.175300   -6.178420
  C     -5.691820    7.128120   -6.044230
  C     -4.419390    6.651690   -5.885690
  C     -3.298100    7.019350   -6.653850
  C     -2.029490    6.449410   -6.350680
  C     -0.842410    6.751980   -7.103320
  N      0.313080    6.158530   -6.791970
  C      0.360570    5.321180   -5.777450
  C     -0.807810    5.058190   -5.001510
  N     -1.959490    5.610820   -5.308350
  C     -0.747810    4.207480   -3.874160
  N     -0.680720    3.527480   -2.953870
  C      1.583940    4.684940   -5.459920
  N      2.554590    4.148270   -5.171000
  C     -0.846950    7.684570   -8.190380
  C     -2.112000    8.262450   -8.477130
  C     -3.308750    7.936780   -7.736530
  N     -4.366470    8.598630   -8.201100
  S     -3.917060    9.533610   -9.436880
  N     -2.355360    9.140540   -9.439790
  C      0.358220    7.935510   -8.852900
  C      0.698990    8.795910   -9.877960
  C      2.025040    8.879460  -10.374570
  C      2.208580    9.801130  -11.359690
  C      1.026870   10.497550  -11.692220
  S     -0.321500    9.930450  -10.725730
  C      0.872690   11.500760  -12.629500
  C      1.873250   12.056630  -13.472350
  C      1.430010   13.040110  -14.288920
  C      0.033960   13.336050  -14.150050
  S     -0.665320   12.275430  -12.914670
  C     -0.681920   14.254030  -14.815670
  H     -3.214630    3.099680   -1.088400
  H     -3.256500    0.770630    3.350490
  H     -0.456990    2.800440   -0.948150
  H     -8.667830    1.724210    1.806970
  H     -7.923040    3.160790   -0.657020
  H    -12.664370    3.748500   -1.921030
  H    -10.796370    4.803990   -2.923580
  H     -7.915370    4.259350   -2.037920
  H    -10.961230    6.675950   -3.506360
  H    -12.085210    9.667930   -6.324110
  H     -9.717820    9.812460   -7.553710
  H     -7.956100    8.630440   -6.910710
  H     -5.876370    7.855330   -6.820770
  H     -4.224450    5.928760   -5.104010
  H      1.183720    7.345220   -8.470480
  H      2.804970    8.252130   -9.979900
  H      3.150700    9.991770  -11.841250
  H      2.889450   11.706290  -13.441590
  H      2.038840   13.577980  -14.993410
  H     -0.218310   14.879150  -15.558250
  H     -1.731260   14.395020  -14.632040

 Total Charge           Charge          ....    0
 Multiplicity           Mult            ....    1
 Number of Electrons    NEL             ....  582
 Basis Dimension        Dim             .... 1197

ORBITAL ENERGIES
----------------

  NO   OCC          E(Eh)            E(eV)
   0   2.0000    -482.875151    -13139.7009
   1   2.0000     -89.043951     -2423.0091
   2   2.0000     -88.988797     -2421.5083
   3   2.0000     -88.975790     -2421.1543
   4   2.0000     -88.968713     -2420.9618
   5   2.0000     -88.962618     -2420.7959
   6   2.0000     -88.962395     -2420.7898
   7   2.0000     -62.552822     -1702.1488
   8   2.0000     -56.386774     -1534.3621
   9   2.0000     -56.384041     -1534.2877
  10   2.0000     -56.384036     -1534.2876
  11   2.0000     -19.289809      -524.9024
  12   2.0000     -19.243439      -523.6406
  13   2.0000     -19.237000      -523.4654
  14   2.0000     -19.236444      -523.4503
  15   2.0000     -19.234437      -523.3956
  16   2.0000     -19.186074      -522.0796
  17   2.0000     -14.648751      -398.6128
  18   2.0000     -14.497541      -394.4982
  19   2.0000     -14.461194      -393.5091
  20   2.0000     -14.460856      -393.4999
  21   2.0000     -14.460547      -393.4915
  22   2.0000     -14.455101      -393.3433
  23   2.0000     -14.441321      -392.9683
  24   2.0000     -14.428204      -392.6114
  25   2.0000     -14.418409      -392.3449
  26   2.0000     -14.413609      -392.2142
  27   2.0000     -10.396028      -282.8903
  28   2.0000     -10.380559      -282.4694
  29   2.0000     -10.379809      -282.4490
  30   2.0000     -10.376478      -282.3583
  31   2.0000     -10.375100      -282.3208
  32   2.0000     -10.369296      -282.1629
  33   2.0000     -10.366074      -282.0752
  34   2.0000     -10.348321      -281.5921
  35   2.0000     -10.347973      -281.5827
  36   2.0000     -10.346389      -281.5396
  37   2.0000     -10.345411      -281.5129
  38   2.0000     -10.345228      -281.5080
  39   2.0000     -10.345181      -281.5067
  40   2.0000     -10.344116      -281.4777
  41   2.0000     -10.341487      -281.4062
  42   2.0000     -10.338271      -281.3187
  43   2.0000     -10.336316      -281.2654
  44   2.0000     -10.330191      -281.0988
  45   2.0000     -10.328570      -281.0547
  46   2.0000     -10.325710      -280.9769
  47   2.0000     -10.322583      -280.8918
  48   2.0000     -10.321338      -280.8579
  49   2.0000     -10.320736      -280.8415
  50   2.0000     -10.317708      -280.7591
  51   2.0000     -10.316703      -280.7318
  52   2.0000     -10.316701      -280.7317
  53   2.0000     -10.312032      -280.6047
  54   2.0000     -10.310257      -280.5564
  55   2.0000     -10.309768      -280.5430
  56   2.0000     -10.309740      -280.5423
  57   2.0000     -10.308297      -280.5030
  58   2.0000     -10.307638      -280.4851
  59   2.0000     -10.305412      -280.4245
  60   2.0000     -10.303613      -280.3756
  61   2.0000     -10.303220      -280.3649
  62   2.0000     -10.302459      -280.3442
  63   2.0000     -10.301316      -280.3131
  64   2.0000     -10.300708      -280.2965
  65   2.0000     -10.300692      -280.2961
  66   2.0000     -10.299885      -280.2741
  67   2.0000     -10.299387      -280.2606
  68   2.0000     -10.299162      -280.2544
  69   2.0000     -10.298271      -280.2302
  70   2.0000     -10.297346      -280.2050
  71   2.0000     -10.297207      -280.2013
  72   2.0000     -10.296127      -280.1719
  73   2.0000     -10.295291      -280.1491
  74   2.0000     -10.294106      -280.1169
  75   2.0000     -10.292245      -280.0662
  76   2.0000     -10.288386      -279.9612
  77   2.0000     -10.282151      -279.7916
  78   2.0000     -10.279251      -279.7126
  79   2.0000      -8.782247      -238.9771
  80   2.0000      -8.135539      -221.3793
  81   2.0000      -8.083996      -219.9767
  82   2.0000      -8.070722      -219.6155
  83   2.0000      -8.064641      -219.4500
  84   2.0000      -8.059369      -219.3066
  85   2.0000      -8.056793      -219.2365
  86   2.0000      -6.618529      -180.0993
  87   2.0000      -6.604026      -179.7047
  88   2.0000      -6.603763      -179.6975
  89   2.0000      -6.106857      -166.1760
  90   2.0000      -6.099131      -165.9658
  91   2.0000      -6.097706      -165.9270
  92   2.0000      -6.053638      -164.7279
  93   2.0000      -6.049217      -164.6076
  94   2.0000      -6.045523      -164.5070
  95   2.0000      -6.039592      -164.3457
  96   2.0000      -6.035549      -164.2356
  97   2.0000      -6.034282      -164.2012
  98   2.0000      -6.033654      -164.1841
  99   2.0000      -6.030053      -164.0861
 100   2.0000      -6.029093      -164.0599
 101   2.0000      -6.026589      -163.9918
 102   2.0000      -6.025951      -163.9745
 103   2.0000      -6.025145      -163.9525
 104   2.0000      -6.022163      -163.8714
 105   2.0000      -6.020090      -163.8150
 106   2.0000      -6.017986      -163.7577
 107   2.0000      -2.734399       -74.4068
 108   2.0000      -2.730364       -74.2970
 109   2.0000      -2.730150       -74.2911
 110   2.0000      -2.718625       -73.9776
 111   2.0000      -2.718605       -73.9770
 112   2.0000      -1.319145       -35.8958
 113   2.0000      -1.185965       -32.2718
 114   2.0000      -1.166963       -31.7547
 115   2.0000      -1.148531       -31.2531
 116   2.0000      -1.144027       -31.1306
 117   2.0000      -1.138463       -30.9792
 118   2.0000      -1.119290       -30.4574
 119   2.0000      -1.104713       -30.0608
 120   2.0000      -1.084838       -29.5199
 121   2.0000      -1.046124       -28.4665
 122   2.0000      -1.022135       -27.8137
 123   2.0000      -1.021766       -27.8037
 124   2.0000      -1.012673       -27.5562
 125   2.0000      -1.011082       -27.5129
 126   2.0000      -1.010331       -27.4925
 127   2.0000      -1.008831       -27.4517
 128   2.0000      -1.006801       -27.3965
 129   2.0000      -1.000780       -27.2326
 130   2.0000      -0.994952       -27.0740
 131   2.0000      -0.988523       -26.8991
 132   2.0000      -0.988291       -26.8928
 133   2.0000      -0.975816       -26.5533
 134   2.0000      -0.949244       -25.8303
 135   2.0000      -0.938848       -25.5474
 136   2.0000      -0.929815       -25.3016
 137   2.0000      -0.917191       -24.9580
 138   2.0000      -0.911266       -24.7968
 139   2.0000      -0.907601       -24.6971
 140   2.0000      -0.904365       -24.6090
 141   2.0000      -0.897071       -24.4105
 142   2.0000      -0.889588       -24.2069
 143   2.0000      -0.881614       -23.9899
 144   2.0000      -0.877134       -23.8680
 145   2.0000      -0.871704       -23.7203
 146   2.0000      -0.864479       -23.5237
 147   2.0000      -0.856552       -23.3080
 148   2.0000      -0.852646       -23.2017
 149   2.0000      -0.847506       -23.0618
 150   2.0000      -0.845223       -22.9997
 151   2.0000      -0.838077       -22.8052
 152   2.0000      -0.833627       -22.6841
 153   2.0000      -0.824186       -22.4272
 154   2.0000      -0.807110       -21.9626
 155   2.0000      -0.806617       -21.9492
 156   2.0000      -0.790771       -21.5180
 157   2.0000      -0.781003       -21.2522
 158   2.0000      -0.764219       -20.7955
 159   2.0000      -0.761893       -20.7322
 160   2.0000      -0.752495       -20.4764
 161   2.0000      -0.749187       -20.3864
 162   2.0000      -0.736937       -20.0531
 163   2.0000      -0.735147       -20.0044
 164   2.0000      -0.729617       -19.8539
 165   2.0000      -0.724751       -19.7215
 166   2.0000      -0.707889       -19.2627
 167   2.0000      -0.706829       -19.2338
 168   2.0000      -0.700405       -19.0590
 169   2.0000      -0.695840       -18.9348
 170   2.0000      -0.692697       -18.8492
 171   2.0000      -0.690075       -18.7779
 172   2.0000      -0.680368       -18.5138
 173   2.0000      -0.675493       -18.3811
 174   2.0000      -0.671219       -18.2648
 175   2.0000      -0.663606       -18.0576
 176   2.0000      -0.656835       -17.8734
 177   2.0000      -0.654501       -17.8099
 178   2.0000      -0.646824       -17.6010
 179   2.0000      -0.645683       -17.5699
 180   2.0000      -0.639671       -17.4063
 181   2.0000      -0.634885       -17.2761
 182   2.0000      -0.631339       -17.1796
 183   2.0000      -0.630105       -17.1460
 184   2.0000      -0.628120       -17.0920
 185   2.0000      -0.623233       -16.9590
 186   2.0000      -0.619720       -16.8634
 187   2.0000      -0.618185       -16.8217
 188   2.0000      -0.617712       -16.8088
 189   2.0000      -0.610713       -16.6184
 190   2.0000      -0.601468       -16.3668
 191   2.0000      -0.600226       -16.3330
 192   2.0000      -0.590698       -16.0737
 193   2.0000      -0.587979       -15.9997
 194   2.0000      -0.581081       -15.8120
 195   2.0000      -0.579118       -15.7586
 196   2.0000      -0.574866       -15.6429
 197   2.0000      -0.568969       -15.4824
 198   2.0000      -0.565249       -15.3812
 199   2.0000      -0.559393       -15.2219
 200   2.0000      -0.558877       -15.2078
 201   2.0000      -0.557157       -15.1610
 202   2.0000      -0.551023       -14.9941
 203   2.0000      -0.547729       -14.9045
 204   2.0000      -0.546552       -14.8724
 205   2.0000      -0.545276       -14.8377
 206   2.0000      -0.541315       -14.7299
 207   2.0000      -0.539029       -14.6677
 208   2.0000      -0.535536       -14.5727
 209   2.0000      -0.533566       -14.5191
 210   2.0000      -0.528557       -14.3828
 211   2.0000      -0.526041       -14.3143
 212   2.0000      -0.523871       -14.2553
 213   2.0000      -0.520745       -14.1702
 214   2.0000      -0.518466       -14.1082
 215   2.0000      -0.515989       -14.0408
 216   2.0000      -0.513785       -13.9808
 217   2.0000      -0.513342       -13.9687
 218   2.0000      -0.511279       -13.9126
 219   2.0000      -0.504098       -13.7172
 220   2.0000      -0.503842       -13.7102
 221   2.0000      -0.502691       -13.6789
 222   2.0000      -0.500422       -13.6172
 223   2.0000      -0.499529       -13.5929
 224   2.0000      -0.498607       -13.5678
 225   2.0000      -0.497129       -13.5276
 226   2.0000      -0.494777       -13.4636
 227   2.0000      -0.492279       -13.3956
 228   2.0000      -0.491031       -13.3616
 229   2.0000      -0.483851       -13.1663
 230   2.0000      -0.482621       -13.1328
 231   2.0000      -0.481356       -13.0984
 232   2.0000      -0.478882       -13.0310
 233   2.0000      -0.476743       -12.9728
 234   2.0000      -0.475875       -12.9492
 235   2.0000      -0.472459       -12.8563
 236   2.0000      -0.469305       -12.7705
 237   2.0000      -0.466898       -12.7049
 238   2.0000      -0.454924       -12.3791
 239   2.0000      -0.454480       -12.3670
 240   2.0000      -0.454072       -12.3559
 241   2.0000      -0.452928       -12.3248
 242   2.0000      -0.452784       -12.3209
 243   2.0000      -0.449829       -12.2405
 244   2.0000      -0.446528       -12.1507
 245   2.0000      -0.446446       -12.1484
 246   2.0000      -0.443590       -12.0707
 247   2.0000      -0.442402       -12.0384
 248   2.0000      -0.438463       -11.9312
 249   2.0000      -0.434814       -11.8319
 250   2.0000      -0.433401       -11.7935
 251   2.0000      -0.432177       -11.7601
 252   2.0000      -0.431585       -11.7440
 253   2.0000      -0.429277       -11.6812
 254   2.0000      -0.427837       -11.6420
 255   2.0000      -0.426389       -11.6026
 256   2.0000      -0.425791       -11.5864
 257   2.0000      -0.422983       -11.5099
 258   2.0000      -0.418621       -11.3913
 259   2.0000      -0.416749       -11.3403
 260   2.0000      -0.410327       -11.1656
 261   2.0000      -0.409740       -11.1496
 262   2.0000      -0.409499       -11.1430
 263   2.0000      -0.401737       -10.9318
 264   2.0000      -0.398983       -10.8569
 265   2.0000      -0.385264       -10.4836
 266   2.0000      -0.383875       -10.4458
 267   2.0000      -0.383537       -10.4366
 268   2.0000      -0.379835       -10.3358
 269   2.0000      -0.375268       -10.2116
 270   2.0000      -0.367392        -9.9972
 271   2.0000      -0.365781        -9.9534
 272   2.0000      -0.364409        -9.9161
 273   2.0000      -0.364336        -9.9141
 274   2.0000      -0.363474        -9.8906
 275   2.0000      -0.359881        -9.7929
 276   2.0000      -0.356865        -9.7108
 277   2.0000      -0.355971        -9.6865
 278   2.0000      -0.352833        -9.6011
 279   2.0000      -0.347791        -9.4639
 280   2.0000      -0.344929        -9.3860
 281   2.0000      -0.339923        -9.2498
 282   2.0000      -0.337449        -9.1824
 283   2.0000      -0.328401        -8.9362
 284   2.0000      -0.319202        -8.6859
 285   2.0000      -0.313572        -8.5327
 286   2.0000      -0.302018        -8.2183
 287   2.0000      -0.288421        -7.8483
 288   2.0000      -0.283471        -7.7136
 289   2.0000      -0.255484        -6.9521
 290   2.0000      -0.212452        -5.7811
 291   0.0000      -0.130911        -3.5623
 292   0.0000      -0.090554        -2.4641
 293   0.0000      -0.073627        -2.0035
 294   0.0000      -0.072619        -1.9761
 295   0.0000      -0.065725        -1.7885

MULLIKEN ATOMIC CHARGES
-----------------------
   0 C :    0.328841
   1 C :   -0.343904
   2 C :   -0.186466
   3 N :    0.155414
   4 C :   -0.195756
   5 N :    0.142775
   6 C :    0.005256
   7 C :   -0.008545
   8 C :   -0.059137
   9 C :    0.104565
  10 C :   -0.093951
  11 C :   -0.015755
  12 S :    0.182526
  13 C :   -0.129201
  14 C :    0.072894
  15 Br:    0.024833
  16 C :    0.177749
  17 O :   -0.222453
  18 C :   -0.122677
  19 C :    0.018949
  20 N :   -0.006363
  21 C :   -0.128510
  22 S :    0.169423
  23 C :    0.016848
  24 N :    0.274719
  25 O :   -0.241393
  26 O :   -0.255122
  27 C :   -0.003445
  28 C :    0.135120
  29 C :   -0.023980
  30 C :    0.049095
  31 C :   -0.122011
  32 S :    0.174674
  33 C :   -0.090594
  34 C :    0.132767
  35 C :    0.141583
  36 C :   -0.096143
  37 C :   -0.097021
  38 C :    0.159806
  39 O :   -0.189619
  40 O :   -0.152599
  41 C :    0.175894
  42 O :   -0.222465
  43 C :   -0.107916
  44 C :    0.004170
  45 C :   -0.110551
  46 C :    0.093899
  47 C :   -0.054439
  48 C :   -0.054392
  49 N :    0.053130
  50 C :   -0.134582
  51 C :   -0.147809
  52 N :    0.046242
  53 C :   -0.181918
  54 N :    0.237139
  55 C :   -0.222257
  56 N :    0.229744
  57 C :    0.116955
  58 C :    0.042174
  59 C :    0.027985
  60 N :   -0.304819
  61 S :    0.524407
  62 N :   -0.320147
  63 C :   -0.140916
  64 C :    0.018062
  65 C :    0.019242
  66 C :    0.043472
  67 C :   -0.034263
  68 S :    0.128409
  69 C :   -0.064180
  70 C :    0.030270
  71 C :    0.061667
  72 C :   -0.072040
  73 S :    0.097789
  74 C :   -0.013403
  75 H :   -0.008600
  76 H :   -0.007230
  77 H :   -0.033528
  78 H :    0.051378
  79 H :    0.180486
  80 H :    0.025079
  81 H :   -0.002481
  82 H :   -0.026723
  83 H :    0.003193
  84 H :    0.178959
  85 H :    0.198888
  86 H :   -0.049634
  87 H :    0.003064
  88 H :   -0.006496
  89 H :    0.003029
  90 H :   -0.002043
  91 H :   -0.011314
  92 H :   -0.003990
  93 H :   -0.001324
  94 H :    0.031222
  95 H :    0.030322
Sum of atomic charges:   -0.0000000

LOEWDIN ATOMIC CHARGES
----------------------
   0 C :    0.079117
   1 C :   -0.147202
   2 C :   -0.019946
   3 N :   -0.051920
   4 C :   -0.021026
   5 N :   -0.052798
   6 C :   -0.021771
   7 C :   -0.057110
   8 C :    0.031209
   9 C :   -0.030233
  10 C :   -0.143407
  11 C :   -0.007914
  12 S :    0.429101
  13 C :   -0.272914
  14 C :   -0.062736
  15 Br:    0.136932
  16 C :    0.100677
  17 O :   -0.183374
  18 C :   -0.138708
  19 C :    0.107246
  20 N :    0.077814
  21 C :   -0.104555
  22 S :    0.475356
  23 C :   -0.202896
  24 N :    0.272908
  25 O :   -0.207165
  26 O :   -0.221909
  27 C :    0.005882
  28 C :   -0.088082
  29 C :   -0.015012
  30 C :   -0.057039
  31 C :   -0.146040
  32 S :    0.504685
  33 C :   -0.184269
  34 C :   -0.021064
  35 C :   -0.060721
  36 C :    0.046211
  37 C :   -0.107475
  38 C :    0.080553
  39 O :   -0.174477
  40 O :   -0.026651
  41 C :    0.063015
  42 O :   -0.047169
  43 C :   -0.074893
  44 C :   -0.027164
  45 C :   -0.031677
  46 C :   -0.048439
  47 C :   -0.006044
  48 C :   -0.008761
  49 N :    0.000671
  50 C :   -0.043128
  51 C :   -0.039669
  52 N :   -0.000502
  53 C :   -0.003483
  54 N :   -0.020533
  55 C :   -0.039456
  56 N :   -0.016787
  57 C :   -0.037982
  58 C :   -0.036384
  59 C :   -0.034601
  60 N :   -0.288936
  61 S :    0.640655
  62 N :   -0.284622
  63 C :   -0.044406
  64 C :   -0.129683
  65 C :   -0.032339
  66 C :   -0.022547
  67 C :   -0.198441
  68 S :    0.438295
  69 C :   -0.156279
  70 C :   -0.026622
  71 C :   -0.016681
  72 C :   -0.142288
  73 S :    0.369322
  74 C :   -0.051718
  75 H :    0.043335
  76 H :    0.041328
  77 H :    0.030490
  78 H :    0.035166
  79 H :    0.084387
  80 H :    0.050684
  81 H :    0.037118
  82 H :    0.023682
  83 H :    0.037820
  84 H :    0.065104
  85 H :    0.106281
  86 H :    0.027614
  87 H :    0.028186
  88 H :    0.022080
  89 H :    0.040916
  90 H :    0.036884
  91 H :    0.031866
  92 H :    0.035696
  93 H :    0.037608
  94 H :    0.033613
  95 H :    0.030138

  Mayer bond orders larger than 0.100000
B(  0-C ,  1-C ) :   1.6275 B(  0-C ,  6-C ) :   1.0107 B(  0-C , 18-C ) :   1.0860
B(  1-C ,  2-C ) :   1.1441 B(  1-C ,  4-C ) :   1.1468 B(  2-C ,  3-N ) :   2.9712
B(  4-C ,  5-N ) :   2.9541 B(  6-C ,  7-C ) :   1.2650 B(  6-C , 11-C ) :   1.4214
B(  7-C ,  8-C ) :   1.4037 B(  7-C , 16-C ) :   0.9863 B(  8-C ,  9-C ) :   1.2523
B(  8-C , 75-H ) :   1.0197 B(  9-C , 10-C ) :   1.2942 B(  9-C , 14-C ) :   1.1745
B( 10-C , 11-C ) :   1.3227 B( 10-C , 12-S ) :   1.0960 B( 11-C , 76-H ) :   0.9794
B( 12-S , 13-C ) :   1.0739 B( 13-C , 14-C ) :   1.6106 B( 13-C , 15-Br) :   1.0234
B( 14-C , 77-H ) :   0.9710 B( 16-C , 17-O ) :   2.0101 B( 16-C , 18-C ) :   1.0036
B( 17-O , 79-H ) :   0.1236 B( 18-C , 19-C ) :   1.4807 B( 19-C , 20-N ) :   1.3145
B( 19-C , 78-H ) :   0.9275 B( 20-N , 21-C ) :   1.1940 B( 20-N , 79-H ) :   0.8407
B( 21-C , 22-S ) :   1.1453 B( 21-C , 28-C ) :   1.3514 B( 22-S , 23-C ) :   1.0780
B( 23-C , 24-N ) :   0.9580 B( 23-C , 27-C ) :   1.5090 B( 24-N , 25-O ) :   1.5420
B( 24-N , 26-O ) :   1.5175 B( 25-O , 26-O ) :   0.2645 B( 27-C , 28-C ) :   1.1933
B( 27-C , 80-H ) :   1.0058 B( 28-C , 29-C ) :   1.1369 B( 29-C , 30-C ) :   1.6183
B( 29-C , 81-H ) :   0.9623 B( 30-C , 31-C ) :   1.2137 B( 30-C , 82-H ) :   0.9182
B( 31-C , 32-S ) :   1.1891 B( 31-C , 35-C ) :   1.2841 B( 32-S , 33-C ) :   1.1113
B( 33-C , 34-C ) :   1.2743 B( 33-C , 44-C ) :   1.2331 B( 34-C , 35-C ) :   1.2220
B( 34-C , 43-C ) :   1.2336 B( 35-C , 36-C ) :   1.1565 B( 36-C , 37-C ) :   1.5494
B( 36-C , 83-H ) :   0.9866 B( 37-C , 38-C ) :   0.8642 B( 37-C , 41-C ) :   1.1869
B( 38-C , 39-O ) :   2.1488 B( 38-C , 40-O ) :   1.3005 B( 40-O , 84-H ) :   0.9204
B( 41-C , 42-O ) :   1.1252 B( 41-C , 43-C ) :   1.4663 B( 42-O , 85-H ) :   0.9453
B( 43-C , 86-H ) :   0.9793 B( 44-C , 45-C ) :   1.4937 B( 44-C , 87-H ) :   0.9516
B( 45-C , 46-C ) :   1.2739 B( 45-C , 88-H ) :   0.9538 B( 46-C , 47-C ) :   1.2049
B( 46-C , 57-C ) :   0.1096 B( 46-C , 59-C ) :   1.1473 B( 47-C , 48-C ) :   1.1115
B( 47-C , 52-N ) :   1.4658 B( 48-C , 49-N ) :   1.4911 B( 48-C , 57-C ) :   1.1845
B( 49-N , 50-C ) :   1.6977 B( 50-C , 51-C ) :   1.2292 B( 50-C , 55-C ) :   1.1591
B( 51-C , 52-N ) :   1.7137 B( 51-C , 53-C ) :   1.1506 B( 53-C , 54-N ) :   3.0029
B( 54-N , 77-H ) :   0.1183 B( 55-C , 56-N ) :   3.0431 B( 57-C , 58-C ) :   1.1257
B( 57-C , 63-C ) :   1.3107 B( 58-C , 59-C ) :   1.1156 B( 58-C , 62-N ) :   1.5060
B( 59-C , 60-N ) :   1.5254 B( 60-N , 61-S ) :   1.2410 B( 60-N , 62-N ) :   0.1372
B( 61-S , 62-N ) :   1.2465 B( 63-C , 64-C ) :   1.4206 B( 63-C , 89-H ) :   0.9436
B( 64-C , 65-C ) :   1.1735 B( 64-C , 68-S ) :   1.0793 B( 65-C , 66-C ) :   1.5564
B( 65-C , 90-H ) :   1.0032 B( 66-C , 67-C ) :   1.1954 B( 66-C , 91-H ) :   0.9932
B( 67-C , 68-S ) :   1.0100 B( 67-C , 69-C ) :   1.4994 B( 69-C , 70-C ) :   1.1662
B( 69-C , 73-S ) :   1.0707 B( 70-C , 71-C ) :   1.6443 B( 70-C , 92-H ) :   0.9925
B( 71-C , 72-C ) :   1.0844 B( 71-C , 93-H ) :   0.9936 B( 72-C , 73-S ) :   1.0047
B( 72-C , 74-C ) :   1.8535 B( 74-C , 94-H ) :   0.9515 B( 74-C , 95-H ) :   0.9422

-----------------------------------------------------------------------------
         ABSORPTION SPECTRUM VIA TRANSITION ELECTRIC DIPOLE MOMENTS
-----------------------------------------------------------------------------
State   Energy  Wavelength   fosc         T2         TX        TY        TZ
        (cm-1)    (nm)                  (au**2)     (au)      (au)      (au)
-----------------------------------------------------------------------------
   0    4178.3   2393.3   0.302856308  23.86253   2.98340   2.13686  -3.22423
   1   13747.2    727.4   0.053665234   1.28516   0.82013  -0.68984   0.36966
   2   14437.4    692.6   0.456600725  10.41170  -1.13374  -1.64747   2.53222
   3   17036.2    587.0   0.525251260  10.15008   0.98231   2.07134  -2.21240
   4   18330.8    545.5   0.252895591   4.54188   2.05706  -0.48335   0.27707
   5   19984.9    500.4   0.076570485   1.26135  -1.09909  -0.03173   0.22878
   6   20465.9    488.6   0.002677267   0.04307   0.17311  -0.01561   0.11338
   7   21449.3    466.2   0.509876120   7.82578  -1.38114   1.66948  -1.76948
   8   21686.9    461.1   0.027439092   0.41653   0.26445   0.30552  -0.50324
   9   23058.9    433.7   0.428742010   6.12114   2.37024  -0.42436   0.56833
  10   24143.0    414.2   0.062254652   0.84890  -0.67354   0.39768  -0.48692
  11   24403.7    409.8   0.009697264   0.13082   0.16823   0.15083  -0.28243
  12   26065.2    383.7   0.076400587   0.96497  -0.81499  -0.54480   0.06285
  13   26849.3    372.4   0.016268631   0.19948  -0.05274   0.26415  -0.35626
  14   26947.6    371.1   0.012493831   0.15263  -0.13637  -0.23938   0.27701
  15   27178.2    367.9   0.018975924   0.22986   0.10988   0.44701   0.13404
  16   27443.0    364.4   0.074293254   0.89124   0.89404  -0.29290   0.07838
  17   27983.4    357.4   0.006029516   0.07093  -0.23010  -0.07202  -0.11314
  18   28095.8    355.9   0.117863465   1.38106   0.97021  -0.58643   0.30959
  19   28287.3    353.5   0.511038945   5.94755  -2.37154  -0.31540   0.47318
  20   28371.8    352.5   0.174632886   2.02635  -1.16626  -0.38864   0.71773
  21   28595.7    349.7   0.252105980   2.90240   1.56002  -0.63255   0.26194
  22   29248.3    341.9   0.028306430   0.31861   0.55813   0.08058  -0.02467
  23   29371.0    340.5   0.011816029   0.13244   0.02356  -0.33378   0.14310
  24   30068.2    332.6   0.115009250   1.25922  -1.01405  -0.16858   0.45000
  25   30816.2    324.5   0.019573496   0.20911  -0.25869   0.28908  -0.24211
  26   30875.3    323.9   0.015874508   0.16926  -0.31080   0.00495   0.26953
  27   31192.4    320.6   0.030904140   0.32617   0.44088   0.29724  -0.20844
  28   31281.3    319.7   0.038845219   0.40882   0.62507  -0.11983  -0.06119
  29   31460.1    317.9   0.042175122   0.44134  -0.29758  -0.39226   0.44600
  30   31926.0    313.2   0.450777731   4.64829   1.54476  -1.03562   1.09065
  31   32316.9    309.4   0.123816750   1.26132  -0.00923   0.92056  -0.64327
  32   32770.6    305.2   0.188396574   1.89262   1.05036  -0.80320   0.37978
  33   32922.5    303.7   0.125964352   1.25959   0.77141   0.24124  -0.77867
  34   33119.4    301.9   0.648268440   6.44389  -1.68037  -1.11247   1.54358
  35   34072.2    293.5   0.046383886   0.44817  -0.09524  -0.34757   0.56418
  36   34133.0    293.0   0.004265738   0.04114   0.16109  -0.04999   0.11267
  37   34566.8    289.3   0.087754330   0.83577   0.11730   0.65457  -0.62733
  38   34679.4    288.4   0.207087843   1.96589   0.64409  -0.92703   0.83165
  39   35166.5    284.4   0.062677351   0.58676  -0.62357   0.41212  -0.16757
  40   35336.5    283.0   0.057631721   0.53693  -0.57457   0.43149  -0.14354
  41   35579.3    281.1   0.000034877   0.00032   0.01489  -0.00900   0.00447
  42   35672.7    280.3   0.005877829   0.05424   0.21514   0.03368  -0.08262
  43   35954.7    278.1   0.066391432   0.60790   0.67704  -0.35810   0.14589
  44   36208.5    276.2   0.008166214   0.07425  -0.12074   0.23463  -0.06795
  45   36279.0    275.6   0.000447023   0.00406  -0.04674  -0.03562  -0.02455
  46   36581.4    273.4   0.002843624   0.02559  -0.08424   0.12959   0.04124
  47   36734.1    272.2   0.095853356   0.85904  -0.89258   0.24243  -0.05979
  48   36755.7    272.1   0.000850645   0.00762   0.08473  -0.02034   0.00502
  49   36812.4    271.6   0.056998896   0.50974  -0.67352   0.21707  -0.09484
  50   37407.2    267.3   0.117596721   1.03494   0.73595  -0.53909   0.45023
  51   37507.9    266.6   0.000087459   0.00077  -0.00362  -0.02650   0.00724
  52   37597.8    266.0   0.200030261   1.75150  -0.99970   0.37908  -0.77999
  53   37735.8    265.0   0.025213474   0.21997  -0.26926   0.23469  -0.30395
  54   37845.4    264.2   0.000043443   0.00038   0.00566  -0.01735   0.00669
  55   37944.0    263.5   0.011187301   0.09706   0.17129  -0.22268   0.13468
  56   38564.5    259.3   0.002138248   0.01825   0.02087  -0.07236   0.11217
  57   38706.8    258.4   0.099177863   0.84354   0.02632  -0.56873   0.72068
  58   38990.1    256.5   0.024263602   0.20487   0.39313  -0.20716  -0.08604
  59   39342.0    254.2   0.016323714   0.13660   0.35922  -0.01831   0.08497
  60   39528.9    253.0   0.071243536   0.59334  -0.38363   0.50458  -0.43769
  61   39537.4    252.9   0.035510305   0.29568   0.19387   0.24821  -0.44327
  62   39649.9    252.2   0.039967391   0.33185   0.52420  -0.23139  -0.05934
  63   39860.0    250.9   0.100316559   0.82854  -0.18137  -0.47549   0.75469
  64   40135.4    249.2   0.273502087   2.24341  -0.88570   0.88584  -0.82112

FINAL SINGLE POINT ENERGY     -7951.499006705847

DIPOLE MOMENT
-------------
                                X             Y             Z
Electronic contribution:     67.92571     -64.26482      78.52747
Nuclear contribution   :    -63.62258      69.19636     -85.75453
                        -----------------------------------------
Total Dipole Moment    :      4.30313       4.93154      -7.22706
                        -----------------------------------------
Magnitude (a.u.)       :      9.75025
Magnitude (Debye)      :     24.78317

Rotational constants in cm-1:     0.000720     0.000336     0.000231
Rotational constants in MHz :    21.589033    10.058494     6.935148

                             ****ORCA TERMINATED NORMALLY****
TOTAL RUN TIME: 0 days 0 hours 11 minutes 46 seconds 585 msec
